Title
44437
    1GLY      N    1   2.127   4.005   4.805
    1GLY    HT1    2   2.036   3.996   4.754
    1GLY    HT2    3   2.160   4.104   4.797
    1GLY    HT3    4   2.114   3.982   4.906
    1GLY     CA    5   2.226   3.920   4.742
    1GLY    HA1    6   2.226   3.937   4.636
    1GLY    HA2    7   2.199   3.820   4.771
    1GLY      C    8   2.367   3.944   4.794
    1GLY      O    9   2.392   4.042   4.864
    2PRO      N   10   2.476   3.864   4.759
    2PRO     CD   11   2.448   3.736   4.718
    2PRO    HD1   12   2.423   3.739   4.609
    2PRO    HD2   13   2.367   3.687   4.776
    2PRO     CA   14   2.613   3.889   4.801
    2PRO     HA   15   2.613   3.909   4.908
    2PRO     CB   16   2.686   3.759   4.766
    2PRO    HB1   17   2.754   3.726   4.847
    2PRO    HB2   18   2.746   3.770   4.672
    2PRO     CG   19   2.576   3.661   4.740
    2PRO    HG1   20   2.603   3.595   4.654
    2PRO    HG2   21   2.565   3.596   4.830
    2PRO      C   22   2.677   4.008   4.730
    2PRO      O   23   2.632   4.046   4.621
    3GLY      N   24   2.771   4.071   4.809
    3GLY     HN   25   2.799   4.030   4.895
    3GLY     CA   26   2.845   4.181   4.750
    3GLY    HA1   27   2.918   4.213   4.823
    3GLY    HA2   28   2.775   4.258   4.722
    3GLY      C   29   2.922   4.141   4.625
    3GLY      O   30   2.937   4.022   4.596
    4ASP      N   31   2.960   4.242   4.549
    4ASP     HN   32   2.932   4.336   4.563
    4ASP     CA   33   3.048   4.216   4.436
    4ASP     HA   34   2.994   4.145   4.377
    4ASP     CB   35   3.070   4.344   4.355
    4ASP    HB1   36   3.151   4.334   4.279
    4ASP    HB2   37   3.100   4.427   4.423
    4ASP     CG   38   2.946   4.388   4.279
    4ASP    OD1   39   2.856   4.304   4.255
    4ASP    OD2   40   2.938   4.507   4.242
    4ASP      C   41   3.183   4.160   4.483
    4ASP      O   42   3.231   4.195   4.591
    5PRO      N   43   3.243   4.086   4.412
    5PRO     CD   44   3.197   4.044   4.291
    5PRO    HD1   45   3.194   4.128   4.218
    5PRO    HD2   46   3.097   3.994   4.298
    5PRO     CA   47   3.379   4.046   4.446
    5PRO     HA   48   3.376   3.991   4.539
    5PRO     CB   49   3.422   3.960   4.327
    5PRO    HB1   50   3.463   3.862   4.362
    5PRO    HB2   51   3.500   4.010   4.265
    5PRO     CG   52   3.297   3.942   4.246
    5PRO    HG1   53   3.318   3.949   4.137
    5PRO    HG2   54   3.256   3.840   4.267
    5PRO      C   55   3.473   4.165   4.464
    5PRO      O   56   3.449   4.272   4.408
    6GLY      N   57   3.567   4.132   4.558
    6GLY     HN   58   3.582   4.040   4.592
    6GLY     CA   59   3.669   4.234   4.578
    6GLY    HA1   60   3.740   4.194   4.649
    6GLY    HA2   61   3.622   4.325   4.611
    6GLY      C   62   3.747   4.266   4.451
    6GLY      O   63   3.738   4.193   4.352
    7SER      N   64   3.826   4.363   4.474
    7SER     HN   65   3.832   4.415   4.559
    7SER     CA   66   3.915   4.396   4.364
    7SER     HA   67   3.861   4.394   4.270
    7SER     CB   68   3.971   4.538   4.382
    7SER    HB1   69   4.040   4.564   4.298
    7SER    HB2   70   4.030   4.543   4.476
    7SER     OG   71   3.867   4.633   4.387
    7SER    HG1   72   3.824   4.628   4.302
    7SER      C   73   4.030   4.296   4.353
    7SER      O   74   4.064   4.229   4.450
    8GLY      N   75   4.085   4.289   4.230
    8GLY     HN   76   4.057   4.344   4.151
    8GLY     CA   77   4.199   4.200   4.215
    8GLY    HA1   78   4.221   4.195   4.109
    8GLY    HA2   79   4.174   4.102   4.255
    8GLY      C   80   4.324   4.250   4.284
    8GLY      O   81   4.330   4.365   4.328
    9ASN      N   82   4.417   4.162   4.294
    9ASN     HN   83   4.405   4.070   4.256
    9ASN     CA   84   4.549   4.198   4.346
    9ASN     HA   85   4.524   4.242   4.441
    9ASN     CB   86   4.634   4.073   4.364
    9ASN    HB1   87   4.710   4.060   4.284
    9ASN    HB2   88   4.568   3.983   4.359
    9ASN     CG   89   4.699   4.066   4.501
    9ASN    OD1   90   4.643   4.114   4.600
    9ASN    ND2   91   4.817   4.006   4.509
    9ASN   HD21   92   4.851   3.985   4.600
    9ASN   HD22   93   4.854   3.963   4.426
    9ASN      C   94   4.619   4.298   4.255
    9ASN      O   95   4.602   4.295   4.133
   10PRO      N   96   4.698   4.377   4.319
   10PRO     CD   97   4.717   4.393   4.454
   10PRO    HD1   98   4.779   4.310   4.493
   10PRO    HD2   99   4.621   4.401   4.510
   10PRO     CA  100   4.779   4.464   4.233
   10PRO     HA  101   4.713   4.521   4.169
   10PRO     CB  102   4.856   4.551   4.332
   10PRO    HB1  103   4.845   4.658   4.304
   10PRO    HB2  104   4.965   4.526   4.334
   10PRO     CG  105   4.795   4.522   4.465
   10PRO    HG1  106   4.872   4.514   4.545
   10PRO    HG2  107   4.726   4.604   4.494
   10PRO      C  108   4.874   4.385   4.143
   10PRO      O  109   4.907   4.270   4.173
   11GLY      N  110   4.903   4.441   4.023
   11GLY     HN  111   4.866   4.530   3.999
   11GLY     CA  112   4.996   4.376   3.931
   11GLY    HA1  113   5.006   4.440   3.845
   11GLY    HA2  114   4.957   4.278   3.908
   11GLY      C  115   5.134   4.359   3.990
   11GLY      O  116   5.164   4.412   4.097
   12SER      N  117   5.216   4.295   3.923
   12SER     HN  118   5.189   4.245   3.841
   12SER     CA  119   5.356   4.279   3.961
   12SER     HA  120   5.362   4.260   4.067
   12SER     CB  121   5.418   4.160   3.888
   12SER    HB1  122   5.523   4.143   3.918
   12SER    HB2  123   5.418   4.181   3.778
   12SER     OG  124   5.342   4.043   3.909
   12SER    HG1  125   5.372   4.000   3.990
   12SER      C  126   5.436   4.406   3.930
   12SER      O  127   5.402   4.480   3.838
   13GLY      N  128   5.533   4.437   4.008
   13GLY     HN  129   5.553   4.380   4.088
   13GLY     CA  130   5.623   4.548   3.982
   13GLY    HA1  131   5.693   4.554   4.064
   13GLY    HA2  132   5.564   4.638   3.971
   13GLY      C  133   5.705   4.529   3.856
   13GLY      O  134   5.714   4.419   3.802
   14ASP      N  135   5.754   4.610   3.800
   14ASP     HN  136   5.741   4.702   3.834
   14ASP     CA  137   5.842   4.612   3.683
   14ASP     HA  138   5.788   4.561   3.605
   14ASP     CB  139   5.866   4.756   3.637
   14ASP    HB1  140   5.945   4.759   3.558
   14ASP    HB2  141   5.900   4.819   3.721
   14ASP     CG  142   5.744   4.820   3.574
   14ASP    OD1  143   5.652   4.747   3.531
   14ASP    OD2  144   5.738   4.944   3.569
   14ASP      C  145   5.975   4.543   3.713
   14ASP      O  146   6.024   4.549   3.826
   15PRO      N  147   6.018   4.432   3.626
   15PRO     CD  148   5.945   4.398   3.510
   15PRO    HD1  149   5.955   4.479   3.435
   15PRO    HD2  150   5.837   4.379   3.533
   15PRO     CA  151   6.143   4.359   3.645
   15PRO     HA  152   6.137   4.306   3.739
   15PRO     CB  153   6.150   4.268   3.522
   15PRO    HB1  154   6.186   4.167   3.549
   15PRO    HB2  155   6.220   4.311   3.446
   15PRO     CG  156   6.012   4.272   3.464
   15PRO    HG1  157   6.013   4.263   3.353
   15PRO    HG2  158   5.954   4.186   3.505
   15PRO      C  159   6.265   4.451   3.652
   15PRO    OT1  160   6.246   4.575   3.641
   15PRO    OT2  161   6.378   4.398   3.668
   16LIT    LIT  162   6.415   4.326   5.546
   17LIT    LIT  163   3.632   7.153   2.060
   18LIT    LIT  164   7.502   5.303   3.171
   19LIT    LIT  165   2.830   6.130   6.117
   20LIT    LIT  166   7.166   1.992   6.422
   21LIT    LIT  167   6.061   5.753   1.407
   22LIT    LIT  168   2.345   0.953   2.546
   23LIT    LIT  169   2.827   1.249   6.721
   24LIT    LIT  170   4.783   1.962   0.488
   25LIT    LIT  171   5.465   7.002   1.397
   26LIT    LIT  172   1.469   6.260   4.340
   27LIT    LIT  173   4.246   7.951   4.034
   28LIT    LIT  174   7.729   2.670   6.910
   29LIT    LIT  175   4.308   5.366   2.689
   30LIT    LIT  176   2.312   2.738   6.651
   31LIT    LIT  177   2.775   0.645   5.749
   32LIT    LIT  178   3.023   0.205   3.709
   33LIT    LIT  179   2.135   1.287   5.233
   34LIT    LIT  180   3.189   7.504   4.848
   35LIT    LIT  181   1.044   6.451   6.068
   36LIT    LIT  182   6.127   6.339   2.860
   37LIT    LIT  183   3.077   4.595   5.586
   38LIT    LIT  184   4.422   6.566   2.497
   39LIT    LIT  185   2.459   7.652   5.870
   40LIT    LIT  186   7.214   7.461   1.886
   41LIT    LIT  187   6.414   4.563   3.562
   42LIT    LIT  188   5.293   1.302   1.571
   43LIT    LIT  189   4.158   1.645   2.748
   44LIT    LIT  190   5.255   3.306   0.344
   45LIT    LIT  191   6.687   0.004   6.148
   46LIT    LIT  192   2.148   6.460   3.845
   47LIT    LIT  193   1.196   1.787   0.196
   48LIT    LIT  194   4.893   6.568   5.115
   49LIT    LIT  195   6.040   3.936   3.540
   50LIT    LIT  196   1.135   4.410   4.993
   51LIT    LIT  197   0.706   3.880   3.167
   52LIT    LIT  198   0.667   1.808   6.471
   53LIT    LIT  199   0.341   3.363   2.530
   54LIT    LIT  200   2.228   1.638   1.577
   55LIT    LIT  201   1.701   3.609   0.760
   56LIT    LIT  202   3.084   4.290   3.706
   57LIT    LIT  203   4.409   3.090   6.369
   58LIT    LIT  204   7.413   5.650   6.838
   59LIT    LIT  205   6.537   7.792   4.394
   60CLA    CLA  206   3.379   0.052   4.453
   61CLA    CLA  207   3.964   2.356   0.662
   62CLA    CLA  208   3.227   6.326   3.568
   63CLA    CLA  209   2.514   1.585   6.724
   64CLA    CLA  210   7.123   4.717   5.660
   65CLA    CLA  211   8.210   5.428   6.055
   66CLA    CLA  212   1.954   5.312   3.238
   67CLA    CLA  213   3.554   6.264   5.832
   68CLA    CLA  214   4.432   6.280   4.926
   69CLA    CLA  215   8.159   5.541   3.297
   70CLA    CLA  216   3.675   7.955   2.353
   71CLA    CLA  217   4.235   7.752   5.933
   72CLA    CLA  218   0.232   3.203   2.640
   73CLA    CLA  219   1.171   3.993   3.577
   74CLA    CLA  220   4.208   6.154   0.657
   75CLA    CLA  221   4.489   6.573   2.964
   76CLA    CLA  222   1.907   3.190   2.583
   77CLA    CLA  223   2.698   0.449   5.830
   78CLA    CLA  224   3.037   7.450   4.999
   79CLA    CLA  225   7.473   1.282   5.370
   80CLA    CLA  226   5.174   6.581   5.279
   81CLA    CLA  227   4.385   1.322   1.202
   82CLA    CLA  228   2.883   1.023   5.737
   83CLA    CLA  229   5.408   6.638   1.908
   84CLA    CLA  230   4.579   2.278   6.297
   85CLA    CLA  231   0.799   2.370   0.511
   86CLA    CLA  232   2.734   2.090   3.485
   87CLA    CLA  233   0.796   3.787   5.422
   88CLA    CLA  234   6.520   4.859   2.536
   89CLA    CLA  235   2.162   2.892   6.628
   90CLA    CLA  236   4.350   7.963   0.205
   91CLA    CLA  237   6.867   7.894   0.318
   92CLA    CLA  238   5.418   0.562   5.975
   93CLA    CLA  239   3.836   3.031   4.293
   94CLA    CLA  240   7.318   0.413   4.236
   95CLA    CLA  241   3.058   5.315   4.418
   96CLA    CLA  242   0.956   2.117   6.828
   97CLA    CLA  243   4.967   3.578   4.073
   98CLA    CLA  244   1.830   1.605   1.869
   99CLA    CLA  245   0.965   4.952   2.352
  100CLA    CLA  246   1.740   4.062   0.435
  101CLA    CLA  247   2.697   0.741   2.046
  102TIP3   OH2  248   3.279   0.368   2.245
  102TIP3    H1  249   3.277   0.273   2.250
  102TIP3    H2  250   3.199   0.397   2.288
  103TIP3   OH2  251   2.968   0.713   2.341
  103TIP3    H1  252   2.945   0.742   2.253
  103TIP3    H2  253   3.050   0.759   2.362
  104TIP3   OH2  254   3.276   0.056   2.255
  104TIP3    H1  255   3.182   0.074   2.249
  104TIP3    H2  256   3.301   0.028   2.167
  105TIP3   OH2  257   2.732   0.271   2.512
  105TIP3    H1  258   2.714   0.212   2.585
  105TIP3    H2  259   2.797   0.332   2.546
  106TIP3   OH2  260   3.094   0.497   2.035
  106TIP3    H1  261   3.067   0.441   1.962
  106TIP3    H2  262   3.173   0.456   2.070
  107TIP3   OH2  263   3.151   0.173   2.576
  107TIP3    H1  264   3.080   0.178   2.640
  107TIP3    H2  265   3.193   0.259   2.579
  108TIP3   OH2  266   0.359   7.852   2.417
  108TIP3    H1  267   0.421   7.780   2.405
  108TIP3    H2  268   0.383   7.916   2.350
  109TIP3   OH2  269   0.534   7.648   2.422
  109TIP3    H1  270   0.499   7.570   2.464
  109TIP3    H2  271   0.629   7.642   2.436
  110TIP3   OH2  272   2.523   0.626   2.346
  110TIP3    H1  273   2.567   0.597   2.266
  110TIP3    H2  274   2.592   0.665   2.399
  111TIP3   OH2  275   3.031   0.445   2.346
  111TIP3    H1  276   2.962   0.407   2.292
  111TIP3    H2  277   3.015   0.539   2.343
  112TIP3   OH2  278   1.406   7.836   1.483
  112TIP3    H1  279   1.444   7.818   1.569
  112TIP3    H2  280   1.361   7.755   1.459
  113TIP3   OH2  281   4.504   0.131   1.201
  113TIP3    H1  282   4.524   0.070   1.272
  113TIP3    H2  283   4.538   0.215   1.232
  114TIP3   OH2  284   4.177   0.586   1.176
  114TIP3    H1  285   4.232   0.519   1.136
  114TIP3    H2  286   4.167   0.558   1.267
  115TIP3   OH2  287   4.100   0.057   1.539
  115TIP3    H1  288   4.124  -0.026   1.497
  115TIP3    H2  289   4.184   0.098   1.561
  116TIP3   OH2  290   3.938  -0.030   1.748
  116TIP3    H1  291   3.881   0.032   1.795
  116TIP3    H2  292   3.993   0.026   1.692
  117TIP3   OH2  293   3.767   0.164   1.850
  117TIP3    H1  294   3.755   0.253   1.815
  117TIP3    H2  295   3.695   0.153   1.912
  118TIP3   OH2  296   4.607   0.367   1.326
  118TIP3    H1  297   4.523   0.359   1.372
  118TIP3    H2  298   4.602   0.453   1.283
  119TIP3   OH2  299   4.313   0.407   1.018
  119TIP3    H1  300   4.369   0.331   1.003
  119TIP3    H2  301   4.354   0.478   0.968
  120TIP3   OH2  302   4.831   0.311   1.701
  120TIP3    H1  303   4.826   0.231   1.648
  120TIP3    H2  304   4.813   0.382   1.639
  121TIP3   OH2  305   1.888   7.803   1.844
  121TIP3    H1  306   1.869   7.886   1.888
  121TIP3    H2  307   1.832   7.804   1.766
  122TIP3   OH2  308   3.889   0.204   1.438
  122TIP3    H1  309   3.833   0.127   1.433
  122TIP3    H2  310   3.974   0.169   1.465
  123TIP3   OH2  311   4.375   0.362   1.456
  123TIP3    H1  312   4.353   0.444   1.501
  123TIP3    H2  313   4.349   0.294   1.517
  124TIP3   OH2  314   3.974   0.278   1.999
  124TIP3    H1  315   3.921   0.342   2.045
  124TIP3    H2  316   3.912   0.227   1.947
  125TIP3   OH2  317   0.887   7.864   2.084
  125TIP3    H1  318   0.903   7.939   2.141
  125TIP3    H2  319   0.792   7.852   2.085
  126TIP3   OH2  320   4.080   0.255   1.095
  126TIP3    H1  321   4.158   0.310   1.096
  126TIP3    H2  322   4.013   0.307   1.140
  127TIP3   OH2  323   3.775   0.447   2.088
  127TIP3    H1  324   3.745   0.449   1.997
  127TIP3    H2  325   3.697   0.425   2.138
  128TIP3   OH2  326   5.062   0.622   1.720
  128TIP3    H1  327   5.070   0.528   1.739
  128TIP3    H2  328   4.984   0.649   1.767
  129TIP3   OH2  329   4.177   0.410   1.862
  129TIP3    H1  330   4.175   0.501   1.890
  129TIP3    H2  331   4.105   0.368   1.909
  130TIP3   OH2  332   4.226   0.479   0.733
  130TIP3    H1  333   4.134   0.453   0.737
  130TIP3    H2  334   4.274   0.404   0.767
  131TIP3   OH2  335   2.127   7.754   1.988
  131TIP3    H1  336   2.047   7.779   1.943
  131TIP3    H2  337   2.133   7.659   1.974
  132TIP3   OH2  338   3.569   0.182   2.034
  132TIP3    H1  339   3.609   0.143   2.113
  132TIP3    H2  340   3.507   0.115   2.004
  133TIP3   OH2  341   1.882   7.541   1.932
  133TIP3    H1  342   1.868   7.568   2.023
  133TIP3    H2  343   1.880   7.623   1.882
  134TIP3   OH2  344   1.613   7.792   2.140
  134TIP3    H1  345   1.584   7.712   2.183
  134TIP3    H2  346   1.706   7.799   2.162
  135TIP3   OH2  347   1.572   7.762   1.709
  135TIP3    H1  348   1.642   7.716   1.664
  135TIP3    H2  349   1.562   7.716   1.792
  136TIP3   OH2  350   4.764   0.973   1.821
  136TIP3    H1  351   4.758   0.997   1.729
  136TIP3    H2  352   4.841   1.019   1.854
  137TIP3   OH2  353   3.721   0.074   2.251
  137TIP3    H1  354   3.800   0.108   2.291
  137TIP3    H2  355   3.654   0.080   2.319
  138TIP3   OH2  356   1.314   7.428   1.855
  138TIP3    H1  357   1.267   7.450   1.774
  138TIP3    H2  358   1.383   7.494   1.861
  139TIP3   OH2  359   4.802   0.106   1.534
  139TIP3    H1  360   4.843   0.153   1.461
  139TIP3    H2  361   4.712   0.091   1.506
  140TIP3   OH2  362   4.293   0.149   1.880
  140TIP3    H1  363   4.316   0.121   1.968
  140TIP3    H2  364   4.256   0.236   1.891
  141TIP3   OH2  365   1.363   7.898   2.191
  141TIP3    H1  366   1.306   7.854   2.129
  141TIP3    H2  367   1.452   7.874   2.165
  142TIP3   OH2  368   4.453   0.400   1.781
  142TIP3    H1  369   4.357   0.400   1.790
  142TIP3    H2  370   4.483   0.454   1.854
  143TIP3   OH2  371   5.087   0.341   1.773
  143TIP3    H1  372   4.992   0.337   1.769
  143TIP3    H2  373   5.116   0.312   1.686
  144TIP3   OH2  374   1.737   8.005   1.444
  144TIP3    H1  375   1.652   7.982   1.483
  144TIP3    H2  376   1.780   7.921   1.429
  145TIP3   OH2  377   3.966   0.502   1.658
  145TIP3    H1  378   4.001   0.570   1.600
  145TIP3    H2  379   4.043   0.467   1.702
  146TIP3   OH2  380   4.352   0.128   1.618
  146TIP3    H1  381   4.325   0.127   1.710
  146TIP3    H2  382   4.447   0.118   1.622
  147TIP3   OH2  383   4.592   0.661   1.655
  147TIP3    H1  384   4.513   0.608   1.651
  147TIP3    H2  385   4.580   0.727   1.587
  148TIP3   OH2  386   3.432   0.380   1.799
  148TIP3    H1  387   3.468   0.295   1.823
  148TIP3    H2  388   3.441   0.433   1.878
  149TIP3   OH2  389   1.546   7.599   1.931
  149TIP3    H1  390   1.527   7.668   1.994
  149TIP3    H2  391   1.586   7.529   1.983
  150TIP3   OH2  392   4.618   0.635   1.248
  150TIP3    H1  393   4.574   0.682   1.177
  150TIP3    H2  394   4.711   0.651   1.232
  151TIP3   OH2  395   3.392   0.669   2.235
  151TIP3    H1  396   3.476   0.671   2.280
  151TIP3    H2  397   3.369   0.577   2.230
  152TIP3   OH2  398   3.868   0.625   2.278
  152TIP3    H1  399   3.962   0.609   2.284
  152TIP3    H2  400   3.838   0.569   2.207
  153TIP3   OH2  401   4.509   0.537   2.012
  153TIP3    H1  402   4.500   0.469   2.079
  153TIP3    H2  403   4.583   0.589   2.041
  154TIP3   OH2  404   3.510   0.068   2.428
  154TIP3    H1  405   3.530  -0.025   2.438
  154TIP3    H2  406   3.425   0.070   2.384
  155TIP3   OH2  407   4.124   0.159   2.206
  155TIP3    H1  408   4.083   0.178   2.121
  155TIP3    H2  409   4.154   0.068   2.198
  156TIP3   OH2  410   4.614   0.173   1.804
  156TIP3    H1  411   4.690   0.225   1.778
  156TIP3    H2  412   4.541   0.235   1.803
  157TIP3   OH2  413   0.802   7.814   2.425
  157TIP3    H1  414   0.883   7.778   2.388
  157TIP3    H2  415   0.829   7.853   2.508
  158TIP3   OH2  416   1.129   7.733   2.069
  158TIP3    H1  417   1.047   7.780   2.067
  158TIP3    H2  418   1.177   7.764   1.992
  159TIP3   OH2  419   4.492   0.094   2.210
  159TIP3    H1  420   4.565   0.062   2.157
  159TIP3    H2  421   4.480   0.027   2.278
  160TIP3   OH2  422   1.223   7.521   2.194
  160TIP3    H1  423   1.174   7.467   2.132
  160TIP3    H2  424   1.206   7.611   2.166
  161TIP3   OH2  425   1.300   7.838   1.888
  161TIP3    H1  426   1.361   7.808   1.822
  161TIP3    H2  427   1.237   7.892   1.840
  162TIP3   OH2  428   1.867   7.783   2.242
  162TIP3    H1  429   1.897   7.726   2.313
  162TIP3    H2  430   1.943   7.837   2.221
  163TIP3   OH2  431   4.749   0.035   1.996
  163TIP3    H1  432   4.690   0.083   1.937
  163TIP3    H2  433   4.836   0.047   1.958
  164TIP3   OH2  434   1.106   7.638   2.429
  164TIP3    H1  435   1.065   7.559   2.465
  164TIP3    H2  436   1.167   7.605   2.362
  165TIP3   OH2  437   1.507   7.563   2.231
  165TIP3    H1  438   1.541   7.533   2.315
  165TIP3    H2  439   1.413   7.550   2.237
  166TIP3   OH2  440   4.879   0.720   1.222
  166TIP3    H1  441   4.892   0.749   1.312
  166TIP3    H2  442   4.916   0.790   1.168
  167TIP3   OH2  443   4.903   0.744   1.499
  167TIP3    H1  444   4.855   0.662   1.493
  167TIP3    H2  445   4.971   0.727   1.565
  168TIP3   OH2  446   4.945   0.426   2.070
  168TIP3    H1  447   4.873   0.433   2.133
  168TIP3    H2  448   4.987   0.511   2.071
  169TIP3   OH2  449   4.957   0.227   1.346
  169TIP3    H1  450   5.021   0.183   1.290
  169TIP3    H2  451   4.935   0.307   1.299
  170TIP3   OH2  452   4.769   0.502   1.513
  170TIP3    H1  453   4.700   0.547   1.563
  170TIP3    H2  454   4.721   0.454   1.445
  171TIP3   OH2  455   5.003   0.080   1.890
  171TIP3    H1  456   5.073   0.015   1.884
  171TIP3    H2  457   5.029   0.150   1.830
  172TIP3   OH2  458   2.354   7.887   1.920
  172TIP3    H1  459   2.280   7.836   1.953
  172TIP3    H2  460   2.430   7.828   1.930
  173TIP3   OH2  461   0.728   7.429   2.484
  173TIP3    H1  462   0.791   7.411   2.414
  173TIP3    H2  463   0.768   7.394   2.563
  174TIP3   OH2  464   4.465   0.588   0.889
  174TIP3    H1  465   4.539   0.543   0.849
  174TIP3    H2  466   4.503   0.668   0.925
  175TIP3   OH2  467   3.557   0.403   2.259
  175TIP3    H1  468   3.467   0.378   2.235
  175TIP3    H2  469   3.562   0.388   2.353
  176TIP3   OH2  470   3.742   0.432   1.803
  176TIP3    H1  471   3.678   0.493   1.766
  176TIP3    H2  472   3.824   0.455   1.759
  177TIP3   OH2  473   4.176   0.674   1.939
  177TIP3    H1  474   4.215   0.674   2.026
  177TIP3    H2  475   4.237   0.725   1.886
  178TIP3   OH2  476   4.356   0.828   1.801
  178TIP3    H1  477   4.424   0.778   1.755
  178TIP3    H2  478   4.403   0.885   1.861
  179TIP3   OH2  479   3.421   0.701   1.824
  179TIP3    H1  480   3.332   0.720   1.796
  179TIP3    H2  481   3.425   0.733   1.915
  180TIP3   OH2  482   3.652   0.664   1.680
  180TIP3    H1  483   3.568   0.678   1.725
  180TIP3    H2  484   3.638   0.699   1.592
  181TIP3   OH2  485   4.072   0.690   1.478
  181TIP3    H1  486   4.000   0.701   1.416
  181TIP3    H2  487   4.084   0.777   1.516
  182TIP3   OH2  488   4.338   0.633   1.529
  182TIP3    H1  489   4.245   0.647   1.516
  182TIP3    H2  490   4.380   0.709   1.488
  183TIP3   OH2  491   4.548   0.828   1.441
  183TIP3    H1  492   4.531   0.912   1.399
  183TIP3    H2  493   4.569   0.769   1.368
  184TIP3   OH2  494   3.366   0.494   1.557
  184TIP3    H1  495   3.383   0.467   1.648
  184TIP3    H2  496   3.339   0.414   1.513
  185TIP3   OH2  497   3.815   0.464   1.423
  185TIP3    H1  498   3.840   0.373   1.412
  185TIP3    H2  499   3.842   0.485   1.513
  186TIP3   OH2  500   4.819   0.704   1.821
  186TIP3    H1  501   4.743   0.671   1.774
  186TIP3    H2  502   4.803   0.799   1.829
  187TIP3   OH2  503   5.536   0.422   1.304
  187TIP3    H1  504   5.530   0.517   1.297
  187TIP3    H2  505   5.478   0.400   1.378
  188TIP3   OH2  506   5.752   0.527   1.487
  188TIP3    H1  507   5.696   0.596   1.523
  188TIP3    H2  508   5.692   0.460   1.456
  189TIP3   OH2  509   5.558   0.713   1.573
  189TIP3    H1  510   5.527   0.711   1.482
  189TIP3    H2  511   5.481   0.690   1.625
  190TIP3   OH2  512   5.157   0.246   1.533
  190TIP3    H1  513   5.084   0.226   1.475
  190TIP3    H2  514   5.185   0.161   1.567
  191TIP3   OH2  515   4.993   0.438   1.179
  191TIP3    H1  516   5.089   0.439   1.173
  191TIP3    H2  517   4.971   0.522   1.220
  192TIP3   OH2  518   5.933   0.723   1.308
  192TIP3    H1  519   5.954   0.809   1.344
  192TIP3    H2  520   5.951   0.661   1.379
  193TIP3   OH2  521   5.353   0.430   1.506
  193TIP3    H1  522   5.409   0.420   1.584
  193TIP3    H2  523   5.286   0.363   1.516
  194TIP3   OH2  524   6.544   1.244   1.329
  194TIP3    H1  525   6.530   1.248   1.234
  194TIP3    H2  526   6.635   1.272   1.341
  195TIP3   OH2  527   5.498   0.380   1.734
  195TIP3    H1  528   5.587   0.377   1.767
  195TIP3    H2  529   5.443   0.358   1.809
  196TIP3   OH2  530   5.232   0.033   1.680
  196TIP3    H1  531   5.295   0.051   1.750
  196TIP3    H2  532   5.216  -0.061   1.685
  197TIP3   OH2  533   5.724   0.793   1.153
  197TIP3    H1  534   5.758   0.846   1.080
  197TIP3    H2  535   5.801   0.777   1.208
  198TIP3   OH2  536   5.209   0.599   1.308
  198TIP3    H1  537   5.253   0.528   1.355
  198TIP3    H2  538   5.227   0.677   1.360
  199TIP3   OH2  539   5.177   0.912   1.728
  199TIP3    H1  540   5.265   0.921   1.763
  199TIP3    H2  541   5.160   0.818   1.725
  200TIP3   OH2  542   5.664   0.881   1.764
  200TIP3    H1  543   5.758   0.866   1.770
  200TIP3    H2  544   5.635   0.827   1.692
  201TIP3   OH2  545   6.264   0.824   1.511
  201TIP3    H1  546   6.261   0.741   1.560
  201TIP3    H2  547   6.357   0.843   1.503
  202TIP3   OH2  548   5.308   0.340   1.933
  202TIP3    H1  549   5.333   0.247   1.930
  202TIP3    H2  550   5.225   0.344   1.886
  203TIP3   OH2  551   5.913   0.418   1.708
  203TIP3    H1  552   5.900   0.459   1.622
  203TIP3    H2  553   5.932   0.327   1.688
  204TIP3   OH2  554   5.406   0.088   1.911
  204TIP3    H1  555   5.425  -0.005   1.901
  204TIP3    H2  556   5.450   0.112   1.992
  205TIP3   OH2  557   4.768   0.722   0.774
  205TIP3    H1  558   4.732   0.666   0.706
  205TIP3    H2  559   4.799   0.662   0.842
  206TIP3   OH2  560   4.903   0.582   0.960
  206TIP3    H1  561   4.897   0.495   0.999
  206TIP3    H2  562   4.932   0.639   1.032
  207TIP3   OH2  563   5.341   0.668   1.740
  207TIP3    H1  564   5.256   0.628   1.722
  207TIP3    H2  565   5.367   0.633   1.825
  208TIP3   OH2  566   5.517   0.698   1.289
  208TIP3    H1  567   5.464   0.769   1.251
  208TIP3    H2  568   5.604   0.711   1.253
  209TIP3   OH2  569   5.969   0.960   1.440
  209TIP3    H1  570   6.011   0.945   1.524
  209TIP3    H2  571   6.034   1.008   1.389
  210TIP3   OH2  572   6.135   1.109   1.282
  210TIP3    H1  573   6.203   1.061   1.234
  210TIP3    H2  574   6.183   1.160   1.347
  211TIP3   OH2  575   5.204   0.980   1.323
  211TIP3    H1  576   5.113   0.998   1.298
  211TIP3    H2  577   5.197   0.940   1.409
  212TIP3   OH2  578   5.430   0.928   1.170
  212TIP3    H1  579   5.348   0.953   1.214
  212TIP3    H2  580   5.419   0.960   1.081
  213TIP3   OH2  581   5.831   0.949   0.952
  213TIP3    H1  582   5.780   1.002   0.891
  213TIP3    H2  583   5.876   1.013   1.007
  214TIP3   OH2  584   5.126   0.747   1.077
  214TIP3    H1  585   5.159   0.703   1.155
  214TIP3    H2  586   5.170   0.703   1.004
  215TIP3   OH2  587   0.824   2.250   2.482
  215TIP3    H1  588   0.790   2.294   2.404
  215TIP3    H2  589   0.894   2.307   2.513
  216TIP3   OH2  590   1.022   1.725   2.762
  216TIP3    H1  591   0.968   1.724   2.841
  216TIP3    H2  592   1.061   1.812   2.762
  217TIP3   OH2  593   2.327   1.690   1.410
  217TIP3    H1  594   2.376   1.651   1.338
  217TIP3    H2  595   2.361   1.779   1.417
  218TIP3   OH2  596   2.024   2.110   1.324
  218TIP3    H1  597   2.093   2.054   1.289
  218TIP3    H2  598   2.041   2.113   1.418
  219TIP3   OH2  599   2.992   0.951   1.711
  219TIP3    H1  600   3.000   1.035   1.756
  219TIP3    H2  601   3.027   0.967   1.624
  220TIP3   OH2  602   3.032   1.172   1.865
  220TIP3    H1  603   2.946   1.207   1.844
  220TIP3    H2  604   3.044   1.191   1.958
  221TIP3   OH2  605   2.441   1.931   1.480
  221TIP3    H1  606   2.357   1.930   1.526
  221TIP3    H2  607   2.445   2.017   1.438
  222TIP3   OH2  608   2.672   1.842   1.830
  222TIP3    H1  609   2.666   1.765   1.773
  222TIP3    H2  610   2.656   1.916   1.771
  223TIP3   OH2  611   2.868   1.478   1.672
  223TIP3    H1  612   2.786   1.526   1.680
  223TIP3    H2  613   2.901   1.501   1.585
  224TIP3   OH2  614   2.572   1.354   1.986
  224TIP3    H1  615   2.567   1.439   2.031
  224TIP3    H2  616   2.487   1.347   1.941
  225TIP3   OH2  617   2.209   1.920   1.613
  225TIP3    H1  618   2.194   2.012   1.636
  225TIP3    H2  619   2.212   1.875   1.697
  226TIP3   OH2  620   1.826   1.840   2.162
  226TIP3    H1  621   1.759   1.896   2.201
  226TIP3    H2  622   1.780   1.795   2.091
  227TIP3   OH2  623   1.612   2.009   2.249
  227TIP3    H1  624   1.606   2.013   2.153
  227TIP3    H2  625   1.522   1.997   2.278
  228TIP3   OH2  626   2.911   2.182   1.876
  228TIP3    H1  627   2.912   2.088   1.889
  228TIP3    H2  628   2.830   2.211   1.918
  229TIP3   OH2  629   2.009   1.980   1.997
  229TIP3    H1  630   2.013   2.069   2.032
  229TIP3    H2  631   1.950   1.933   2.056
  230TIP3   OH2  632   2.798   1.309   2.148
  230TIP3    H1  633   2.723   1.329   2.092
  230TIP3    H2  634   2.817   1.216   2.131
  231TIP3   OH2  635   2.562   1.078   2.038
  231TIP3    H1  636   2.515   1.068   2.120
  231TIP3    H2  637   2.558   1.171   2.018
  232TIP3   OH2  638   2.291   1.314   2.310
  232TIP3    H1  639   2.276   1.279   2.398
  232TIP3    H2  640   2.380   1.348   2.311
  233TIP3   OH2  641   2.322   1.307   1.891
  233TIP3    H1  642   2.287   1.271   1.809
  233TIP3    H2  643   2.258   1.283   1.957
  234TIP3   OH2  644   2.607   2.531   1.972
  234TIP3    H1  645   2.601   2.557   1.880
  234TIP3    H2  646   2.682   2.580   2.006
  235TIP3   OH2  647   1.585   1.628   2.399
  235TIP3    H1  648   1.651   1.667   2.456
  235TIP3    H2  649   1.503   1.640   2.447
  236TIP3   OH2  650   2.641   1.631   1.660
  236TIP3    H1  651   2.669   1.676   1.580
  236TIP3    H2  652   2.554   1.596   1.638
  237TIP3   OH2  653   2.161   1.709   2.030
  237TIP3    H1  654   2.169   1.695   2.124
  237TIP3    H2  655   2.071   1.738   2.018
  238TIP3   OH2  656   2.032   1.430   2.338
  238TIP3    H1  657   1.976   1.409   2.263
  238TIP3    H2  658   2.121   1.411   2.307
  239TIP3   OH2  659   2.288   1.977   1.916
  239TIP3    H1  660   2.195   1.964   1.935
  239TIP3    H2  661   2.323   2.020   1.994
  240TIP3   OH2  662   2.923   1.890   1.914
  240TIP3    H1  663   2.828   1.888   1.910
  240TIP3    H2  664   2.951   1.862   1.827
  241TIP3   OH2  665   2.324   1.463   1.604
  241TIP3    H1  666   2.270   1.401   1.653
  241TIP3    H2  667   2.405   1.416   1.586
  242TIP3   OH2  668   1.822   2.049   1.794
  242TIP3    H1  669   1.855   2.125   1.747
  242TIP3    H2  670   1.893   2.024   1.853
  243TIP3   OH2  671   2.248   1.682   1.773
  243TIP3    H1  672   2.183   1.694   1.842
  243TIP3    H2  673   2.326   1.652   1.819
  244TIP3   OH2  674   2.435   2.217   1.810
  244TIP3    H1  675   2.361   2.157   1.809
  244TIP3    H2  676   2.417   2.279   1.739
  245TIP3   OH2  677   2.205   1.162   2.102
  245TIP3    H1  678   2.234   1.226   2.168
  245TIP3    H2  679   2.272   1.094   2.104
  246TIP3   OH2  680   2.836   1.051   2.060
  246TIP3    H1  681   2.742   1.032   2.066
  246TIP3    H2  682   2.864   1.008   1.980
  247TIP3   OH2  683   2.464   2.192   1.406
  247TIP3    H1  684   2.421   2.233   1.331
  247TIP3    H2  685   2.557   2.209   1.392
  248TIP3   OH2  686   1.240   2.239   2.382
  248TIP3    H1  687   1.321   2.248   2.433
  248TIP3    H2  688   1.227   2.144   2.376
  249TIP3   OH2  689   1.709   2.185   2.436
  249TIP3    H1  690   1.804   2.178   2.437
  249TIP3    H2  691   1.681   2.127   2.365
  250TIP3   OH2  692   2.354   2.089   2.158
  250TIP3    H1  693   2.345   2.023   2.227
  250TIP3    H2  694   2.425   2.145   2.188
  251TIP3   OH2  695   1.367   1.627   2.592
  251TIP3    H1  696   1.407   1.541   2.583
  251TIP3    H2  697   1.275   1.615   2.568
  252TIP3   OH2  698   1.969   1.720   2.362
  252TIP3    H1  699   1.921   1.748   2.283
  252TIP3    H2  700   1.992   1.629   2.345
  253TIP3   OH2  701   2.456   1.714   1.956
  253TIP3    H1  702   2.522   1.773   1.919
  253TIP3    H2  703   2.378   1.769   1.966
  254TIP3   OH2  704   1.479   1.373   2.586
  254TIP3    H1  705   1.550   1.324   2.543
  254TIP3    H2  706   1.516   1.401   2.670
  255TIP3   OH2  707   2.319   1.638   2.358
  255TIP3    H1  708   2.405   1.641   2.316
  255TIP3    H2  709   2.334   1.587   2.439
  256TIP3   OH2  710   2.557   1.327   2.410
  256TIP3    H1  711   2.616   1.253   2.419
  256TIP3    H2  712   2.612   1.397   2.374
  257TIP3   OH2  713   2.590   1.584   2.147
  257TIP3    H1  714   2.530   1.631   2.088
  257TIP3    H2  715   2.677   1.602   2.112
  258TIP3   OH2  716   1.830   1.125   2.598
  258TIP3    H1  717   1.754   1.128   2.655
  258TIP3    H2  718   1.807   1.061   2.530
  259TIP3   OH2  719   2.210   1.084   2.468
  259TIP3    H1  720   2.159   1.124   2.538
  259TIP3    H2  721   2.148   1.074   2.396
  260TIP3   OH2  722   2.427   1.043   2.271
  260TIP3    H1  723   2.370   1.088   2.333
  260TIP3    H2  724   2.498   1.009   2.325
  261TIP3   OH2  725   2.589   0.963   2.476
  261TIP3    H1  726   2.643   0.885   2.467
  261TIP3    H2  727   2.636   1.017   2.540
  262TIP3   OH2  728   2.232   0.806   2.605
  262TIP3    H1  729   2.218   0.715   2.578
  262TIP3    H2  730   2.151   0.830   2.650
  263TIP3   OH2  731   2.716   2.278   1.367
  263TIP3    H1  732   2.738   2.317   1.452
  263TIP3    H2  733   2.768   2.327   1.304
  264TIP3   OH2  734   2.739   2.305   1.648
  264TIP3    H1  735   2.695   2.220   1.641
  264TIP3    H2  736   2.815   2.288   1.704
  265TIP3   OH2  737   2.786   1.983   2.218
  265TIP3    H1  738   2.714   1.990   2.281
  265TIP3    H2  739   2.828   2.069   2.219
  266TIP3   OH2  740   2.771   1.756   1.457
  266TIP3    H1  741   2.835   1.693   1.424
  266TIP3    H2  742   2.782   1.833   1.402
  267TIP3   OH2  743   2.613   2.055   1.668
  267TIP3    H1  744   2.546   2.102   1.719
  267TIP3    H2  745   2.564   2.012   1.598
  268TIP3   OH2  746   2.833   1.645   2.043
  268TIP3    H1  747   2.902   1.579   2.032
  268TIP3    H2  748   2.858   1.715   1.983
  269TIP3   OH2  749   3.014   1.444   2.057
  269TIP3    H1  750   2.940   1.398   2.097
  269TIP3    H2  751   3.089   1.388   2.077
  270TIP3   OH2  752   2.752   1.079   1.586
  270TIP3    H1  753   2.822   1.127   1.541
  270TIP3    H2  754   2.739   1.127   1.668
  271TIP3   OH2  755   2.775   1.258   1.807
  271TIP3    H1  756   2.698   1.288   1.854
  271TIP3    H2  757   2.803   1.334   1.755
  272TIP3   OH2  758   3.220   0.845   2.359
  272TIP3    H1  759   3.280   0.782   2.319
  272TIP3    H2  760   3.192   0.901   2.286
  273TIP3   OH2  761   3.088   0.991   2.168
  273TIP3    H1  762   3.002   1.030   2.177
  273TIP3    H2  763   3.074   0.913   2.114
  274TIP3   OH2  764   2.266   2.178   0.994
  274TIP3    H1  765   2.327   2.158   0.923
  274TIP3    H2  766   2.318   2.230   1.056
  275TIP3   OH2  767   1.354   1.957   2.404
  275TIP3    H1  768   1.376   1.877   2.356
  275TIP3    H2  769   1.396   1.946   2.490
  276TIP3   OH2  770   1.606   1.995   1.981
  276TIP3    H1  771   1.518   1.999   1.943
  276TIP3    H2  772   1.664   2.026   1.911
  277TIP3   OH2  773   2.017   2.238   2.089
  277TIP3    H1  774   2.055   2.236   2.177
  277TIP3    H2  775   2.080   2.288   2.037
  278TIP3   OH2  776   2.201   2.385   1.948
  278TIP3    H1  777   2.272   2.333   1.911
  278TIP3    H2  778   2.243   2.445   2.009
  279TIP3   OH2  779   3.008   0.757   2.057
  279TIP3    H1  780   2.912   0.755   2.050
  279TIP3    H2  781   3.034   0.665   2.052
  280TIP3   OH2  782   1.280   2.275   1.975
  280TIP3    H1  783   1.213   2.244   1.914
  280TIP3    H2  784   1.240   2.267   2.061
  281TIP3   OH2  785   1.485   2.247   1.805
  281TIP3    H1  786   1.435   2.259   1.886
  281TIP3    H2  787   1.419   2.226   1.739
  282TIP3   OH2  788   1.919   2.259   1.627
  282TIP3    H1  789   1.847   2.275   1.566
  282TIP3    H2  790   1.930   2.342   1.673
  283TIP3   OH2  791   2.182   2.187   1.662
  283TIP3    H1  792   2.089   2.210   1.657
  283TIP3    H2  793   2.228   2.267   1.637
  284TIP3   OH2  794   2.382   2.381   1.594
  284TIP3    H1  795   2.370   2.467   1.552
  284TIP3    H2  796   2.412   2.324   1.523
  285TIP3   OH2  797   2.737   0.731   2.492
  285TIP3    H1  798   2.753   0.693   2.578
  285TIP3    H2  799   2.817   0.714   2.443
  286TIP3   OH2  800   2.663   2.263   1.971
  286TIP3    H1  801   2.587   2.231   1.923
  286TIP3    H2  802   2.648   2.358   1.979
  287TIP3   OH2  803   3.928   1.641   0.736
  287TIP3    H1  804   3.902   1.730   0.713
  287TIP3    H2  805   3.858   1.585   0.703
  288TIP3   OH2  806   3.929   1.637   1.125
  288TIP3    H1  807   3.967   1.607   1.208
  288TIP3    H2  808   3.897   1.557   1.084
  289TIP3   OH2  809   3.230   1.527   1.492
  289TIP3    H1  810   3.259   1.459   1.553
  289TIP3    H2  811   3.308   1.580   1.476
  290TIP3   OH2  812   4.189   1.937   0.803
  290TIP3    H1  813   4.157   1.874   0.867
  290TIP3    H2  814   4.196   2.019   0.852
  291TIP3   OH2  815   3.205   1.937   1.209
  291TIP3    H1  816   3.195   1.842   1.211
  291TIP3    H2  817   3.300   1.950   1.200
  292TIP3   OH2  818   2.995   1.460   1.177
  292TIP3    H1  819   3.054   1.391   1.208
  292TIP3    H2  820   3.052   1.521   1.130
  293TIP3   OH2  821   3.731   1.858   1.168
  293TIP3    H1  822   3.767   1.780   1.126
  293TIP3    H2  823   3.808   1.908   1.195
  294TIP3   OH2  824   4.754   1.187   1.166
  294TIP3    H1  825   4.774   1.271   1.208
  294TIP3    H2  826   4.741   1.209   1.074
  295TIP3   OH2  827   3.459   1.008   1.185
  295TIP3    H1  828   3.473   1.055   1.103
  295TIP3    H2  829   3.408   0.931   1.161
  296TIP3   OH2  830   4.179   1.115   0.788
  296TIP3    H1  831   4.247   1.099   0.853
  296TIP3    H2  832   4.226   1.155   0.715
  297TIP3   OH2  833   3.122   1.236   1.267
  297TIP3    H1  834   3.205   1.214   1.308
  297TIP3    H2  835   3.096   1.155   1.221
  298TIP3   OH2  836   3.568   1.438   1.074
  298TIP3    H1  837   3.660   1.415   1.086
  298TIP3    H2  838   3.528   1.358   1.039
  299TIP3   OH2  839   4.821   1.401   1.342
  299TIP3    H1  840   4.746   1.455   1.315
  299TIP3    H2  841   4.796   1.367   1.428
  300TIP3   OH2  842   3.472   1.013   1.605
  300TIP3    H1  843   3.420   1.057   1.538
  300TIP3    H2  844   3.423   1.027   1.687
  301TIP3   OH2  845   3.828   1.866   0.603
  301TIP3    H1  846   3.789   1.855   0.516
  301TIP3    H2  847   3.793   1.949   0.634
  302TIP3   OH2  848   3.582   1.783   1.391
  302TIP3    H1  849   3.523   1.850   1.427
  302TIP3    H2  850   3.626   1.827   1.318
  303TIP3   OH2  851   4.377   1.110   0.967
  303TIP3    H1  852   4.360   1.040   1.030
  303TIP3    H2  853   4.396   1.186   1.022
  304TIP3   OH2  854   3.349   1.137   1.392
  304TIP3    H1  855   3.409   1.208   1.414
  304TIP3    H2  856   3.395   1.087   1.324
  305TIP3   OH2  857   3.410   1.980   1.492
  305TIP3    H1  858   3.390   2.065   1.453
  305TIP3    H2  859   3.335   1.960   1.547
  306TIP3   OH2  860   4.250   2.182   0.966
  306TIP3    H1  861   4.167   2.166   1.012
  306TIP3    H2  862   4.236   2.263   0.918
  307TIP3   OH2  863   4.548   1.089   1.330
  307TIP3    H1  864   4.474   1.146   1.311
  307TIP3    H2  865   4.611   1.105   1.260
  308TIP3   OH2  866   3.842   0.724   1.328
  308TIP3    H1  867   3.819   0.632   1.337
  308TIP3    H2  868   3.767   0.771   1.364
  309TIP3   OH2  869   4.121   1.972   0.513
  309TIP3    H1  870   4.031   1.940   0.519
  309TIP3    H2  871   4.147   1.987   0.604
  310TIP3   OH2  872   4.471   2.091   1.310
  310TIP3    H1  873   4.455   2.014   1.254
  310TIP3    H2  874   4.449   2.166   1.254
  311TIP3   OH2  875   3.768   1.484   0.565
  311TIP3    H1  876   3.690   1.535   0.543
  311TIP3    H2  877   3.812   1.470   0.481
  312TIP3   OH2  878   4.670   1.745   1.145
  312TIP3    H1  879   4.585   1.784   1.164
  312TIP3    H2  880   4.684   1.763   1.052
  313TIP3   OH2  881   4.118   1.573   0.555
  313TIP3    H1  882   4.058   1.600   0.624
  313TIP3    H2  883   4.197   1.545   0.601
  314TIP3   OH2  884   4.324   1.608   1.470
  314TIP3    H1  885   4.329   1.695   1.507
  314TIP3    H2  886   4.252   1.612   1.407
  315TIP3   OH2  887   3.348   1.565   0.958
  315TIP3    H1  888   3.325   1.511   0.882
  315TIP3    H2  889   3.425   1.522   0.995
  316TIP3   OH2  890   3.471   1.973   1.107
  316TIP3    H1  891   3.453   1.944   1.017
  316TIP3    H2  892   3.559   1.942   1.126
  317TIP3   OH2  893   3.472   1.546   1.311
  317TIP3    H1  894   3.512   1.518   1.229
  317TIP3    H2  895   3.517   1.627   1.334
  318TIP3   OH2  896   4.023   2.171   1.102
  318TIP3    H1  897   3.988   2.252   1.140
  318TIP3    H2  898   3.992   2.102   1.160
  319TIP3   OH2  899   3.614   2.093   1.639
  319TIP3    H1  900   3.558   2.156   1.684
  319TIP3    H2  901   3.554   2.040   1.587
  320TIP3   OH2  902   3.973   1.425   0.374
  320TIP3    H1  903   4.024   1.487   0.425
  320TIP3    H2  904   3.991   1.448   0.283
  321TIP3   OH2  905   3.370   1.651   1.743
  321TIP3    H1  906   3.378   1.738   1.782
  321TIP3    H2  907   3.277   1.629   1.751
  322TIP3   OH2  908   3.723   2.118   0.650
  322TIP3    H1  909   3.791   2.182   0.671
  322TIP3    H2  910   3.658   2.167   0.600
  323TIP3   OH2  911   3.409   2.260   1.724
  323TIP3    H1  912   3.377   2.263   1.633
  323TIP3    H2  913   3.331   2.239   1.776
  324TIP3   OH2  914   7.095   6.048   6.889
  324TIP3    H1  915   7.104   6.143   6.883
  324TIP3    H2  916   7.184   6.016   6.899
  325TIP3   OH2  917   2.990   1.789   1.672
  325TIP3    H1  918   2.932   1.764   1.601
  325TIP3    H2  919   3.030   1.707   1.701
  326TIP3   OH2  920   2.847   1.983   1.307
  326TIP3    H1  921   2.943   1.985   1.297
  326TIP3    H2  922   2.826   2.062   1.355
  327TIP3   OH2  923   4.706   2.439   1.362
  327TIP3    H1  924   4.708   2.344   1.374
  327TIP3    H2  925   4.625   2.467   1.404
  328TIP3   OH2  926   3.813   2.223   1.497
  328TIP3    H1  927   3.812   2.315   1.525
  328TIP3    H2  928   3.744   2.181   1.548
  329TIP3   OH2  929   3.575   2.350   0.443
  329TIP3    H1  930   3.538   2.338   0.356
  329TIP3    H2  931   3.547   2.438   0.469
  330TIP3   OH2  932   3.022   2.216   0.831
  330TIP3    H1  933   3.064   2.201   0.916
  330TIP3    H2  934   2.967   2.139   0.817
  331TIP3   OH2  935   3.770   2.250   0.103
  331TIP3    H1  936   3.826   2.194   0.049
  331TIP3    H2  937   3.814   2.253   0.188
  332TIP3   OH2  938   3.841   2.311   0.375
  332TIP3    H1  939   3.751   2.310   0.407
  332TIP3    H2  940   3.895   2.306   0.454
  333TIP3   OH2  941   4.596   1.569   1.634
  333TIP3    H1  942   4.528   1.589   1.570
  333TIP3    H2  943   4.607   1.474   1.628
  334TIP3   OH2  944   3.193   1.975   1.656
  334TIP3    H1  945   3.243   1.962   1.737
  334TIP3    H2  946   3.120   1.914   1.664
  335TIP3   OH2  947   3.614   0.821   1.456
  335TIP3    H1  948   3.554   0.767   1.404
  335TIP3    H2  949   3.558   0.884   1.500
  336TIP3   OH2  950   4.127   0.912   1.632
  336TIP3    H1  951   4.193   0.889   1.697
  336TIP3    H2  952   4.043   0.896   1.676
  337TIP3   OH2  953   4.385   1.354   1.574
  337TIP3    H1  954   4.320   1.344   1.644
  337TIP3    H2  955   4.353   1.427   1.522
  338TIP3   OH2  956   4.045   1.478   0.110
  338TIP3    H1  957   4.015   1.480   0.019
  338TIP3    H2  958   4.115   1.542   0.114
  339TIP3   OH2  959   3.527   1.327   1.464
  339TIP3    H1  960   3.481   1.343   1.547
  339TIP3    H2  961   3.510   1.405   1.412
  340TIP3   OH2  962   3.414   1.235   0.956
  340TIP3    H1  963   3.355   1.166   0.987
  340TIP3    H2  964   3.476   1.189   0.899
  341TIP3   OH2  965   3.901   1.284   0.697
  341TIP3    H1  966   3.853   1.356   0.657
  341TIP3    H2  967   3.952   1.246   0.626
  342TIP3   OH2  968   4.073   1.566   1.798
  342TIP3    H1  969   4.049   1.492   1.853
  342TIP3    H2  970   4.169   1.570   1.805
  343TIP3   OH2  971   4.044   1.321   0.931
  343TIP3    H1  972   3.987   1.334   0.856
  343TIP3    H2  973   4.090   1.240   0.913
  344TIP3   OH2  974   3.343   1.344   1.674
  344TIP3    H1  975   3.375   1.407   1.738
  344TIP3    H2  976   3.331   1.263   1.723
  345TIP3   OH2  977   4.066   1.539   1.346
  345TIP3    H1  978   4.122   1.471   1.307
  345TIP3    H2  979   4.035   1.499   1.428
  346TIP3   OH2  980   3.731   1.026   1.042
  346TIP3    H1  981   3.672   1.015   1.117
  346TIP3    H2  982   3.818   1.008   1.077
  347TIP3   OH2  983   4.402   2.788   1.458
  347TIP3    H1  984   4.396   2.812   1.366
  347TIP3    H2  985   4.478   2.837   1.490
  348TIP3   OH2  986   3.355   1.899   1.881
  348TIP3    H1  987   3.435   1.929   1.924
  348TIP3    H2  988   3.289   1.898   1.950
  349TIP3   OH2  989   3.828   1.354   1.134
  349TIP3    H1  990   3.903   1.325   1.082
  349TIP3    H2  991   3.832   1.301   1.214
  350TIP3   OH2  992   3.794   1.252   1.425
  350TIP3    H1  993   3.706   1.287   1.439
  350TIP3    H2  994   3.851   1.311   1.474
  351TIP3   OH2  995   3.525   1.628   0.536
  351TIP3    H1  996   3.431   1.612   0.528
  351TIP3    H2  997   3.534   1.671   0.621
  352TIP3   OH2  998   4.427   1.874   1.147
  352TIP3    H1  999   4.447   1.923   1.067
  352TIP3    H2 1000   4.345   1.828   1.127
  353TIP3   OH2 1001   3.930   1.958   1.520
  353TIP3    H1 1002   3.956   1.942   1.611
  353TIP3    H2 1003   3.894   2.047   1.522
  354TIP3   OH2 1004   4.056   1.186   0.481
  354TIP3    H1 1005   4.149   1.199   0.497
  354TIP3    H2 1006   4.028   1.264   0.434
  355TIP3   OH2 1007   3.226   1.655   1.190
  355TIP3    H1 1008   3.267   1.636   1.106
  355TIP3    H2 1009   3.279   1.608   1.255
  356TIP3   OH2 1010   3.660   1.785   0.351
  356TIP3    H1 1011   3.628   1.874   0.364
  356TIP3    H2 1012   3.615   1.733   0.417
  357TIP3   OH2 1013   3.106   1.580   1.811
  357TIP3    H1 1014   3.128   1.568   1.903
  357TIP3    H2 1015   3.039   1.514   1.793
  358TIP3   OH2 1016   3.832   1.696   1.827
  358TIP3    H1 1017   3.772   1.642   1.777
  358TIP3    H2 1018   3.919   1.663   1.804
  359TIP3   OH2 1019   4.093   2.213   1.422
  359TIP3    H1 1020   3.997   2.214   1.424
  359TIP3    H2 1021   4.120   2.268   1.495
  360TIP3   OH2 1022   4.489   1.292   0.317
  360TIP3    H1 1023   4.447   1.232   0.256
  360TIP3    H2 1024   4.479   1.378   0.277
  361TIP3   OH2 1025   4.719   2.150   1.397
  361TIP3    H1 1026   4.624   2.144   1.394
  361TIP3    H2 1027   4.749   2.119   1.312
  362TIP3   OH2 1028   4.222   2.099   0.238
  362TIP3    H1 1029   4.173   2.056   0.308
  362TIP3    H2 1030   4.196   2.053   0.159
  363TIP3   OH2 1031   4.198   1.731   1.065
  363TIP3    H1 1032   4.105   1.712   1.077
  363TIP3    H2 1033   4.234   1.652   1.025
  364TIP3   OH2 1034   3.325   1.970   0.817
  364TIP3    H1 1035   3.330   2.051   0.766
  364TIP3    H2 1036   3.231   1.952   0.825
  365TIP3   OH2 1037   3.462   1.737   0.771
  365TIP3    H1 1038   3.429   1.827   0.783
  365TIP3    H2 1039   3.429   1.689   0.846
  366TIP3   OH2 1040   3.598   2.309   1.288
  366TIP3    H1 1041   3.635   2.381   1.236
  366TIP3    H2 1042   3.673   2.273   1.335
  367TIP3   OH2 1043   3.247   2.208   0.671
  367TIP3    H1 1044   3.163   2.216   0.717
  367TIP3    H2 1045   3.283   2.297   0.670
  368TIP3   OH2 1046   3.978   1.940   1.253
  368TIP3    H1 1047   3.969   1.940   1.348
  368TIP3    H2 1048   4.057   1.889   1.236
  369TIP3   OH2 1049   3.967   1.850   0.120
  369TIP3    H1 1050   4.011   1.814   0.198
  369TIP3    H2 1051   3.888   1.797   0.110
  370TIP3   OH2 1052   4.230   2.476   1.293
  370TIP3    H1 1053   4.152   2.421   1.288
  370TIP3    H2 1054   4.218   2.542   1.225
  371TIP3   OH2 1055   7.134   6.327   6.885
  371TIP3    H1 1056   7.184   6.403   6.855
  371TIP3    H2 1057   7.054   6.363   6.922
  372TIP3   OH2 1058   3.311   1.093   1.819
  372TIP3    H1 1059   3.218   1.108   1.835
  372TIP3    H2 1060   3.337   1.027   1.883
  373TIP3   OH2 1061   4.114   1.729   0.325
  373TIP3    H1 1062   4.100   1.690   0.412
  373TIP3    H2 1063   4.201   1.769   0.329
  374TIP3   OH2 1064   3.036   2.171   1.447
  374TIP3    H1 1065   3.091   2.101   1.483
  374TIP3    H2 1066   3.057   2.248   1.500
  375TIP3   OH2 1067   3.291   1.826   0.398
  375TIP3    H1 1068   3.320   1.812   0.488
  375TIP3    H2 1069   3.275   1.921   0.393
  376TIP3   OH2 1070   4.139   1.180   1.541
  376TIP3    H1 1071   4.222   1.187   1.493
  376TIP3    H2 1072   4.131   1.087   1.561
  377TIP3   OH2 1073   4.034   0.935   0.644
  377TIP3    H1 1074   4.023   0.979   0.559
  377TIP3    H2 1075   4.076   1.001   0.700
  378TIP3   OH2 1076   3.536   2.021   0.376
  378TIP3    H1 1077   3.454   2.059   0.405
  378TIP3    H2 1078   3.543   2.045   0.283
  379TIP3   OH2 1079   3.720   1.082   0.754
  379TIP3    H1 1080   3.784   1.153   0.744
  379TIP3    H2 1081   3.719   1.063   0.847
  380TIP3   OH2 1082   3.990   1.403   1.570
  380TIP3    H1 1083   4.018   1.447   1.650
  380TIP3    H2 1084   4.041   1.322   1.569
  381TIP3   OH2 1085   3.947   0.828   0.880
  381TIP3    H1 1086   3.880   0.887   0.914
  381TIP3    H2 1087   3.963   0.860   0.791
  382TIP3   OH2 1088   3.271   2.096   0.419
  382TIP3    H1 1089   3.249   2.166   0.357
  382TIP3    H2 1090   3.259   2.135   0.505
  383TIP3   OH2 1091   4.638   1.293   1.536
  383TIP3    H1 1092   4.549   1.306   1.568
  383TIP3    H2 1093   4.628   1.253   1.450
  384TIP3   OH2 1094   4.278   1.479   0.954
  384TIP3    H1 1095   4.194   1.434   0.953
  384TIP3    H2 1096   4.326   1.438   1.027
  385TIP3   OH2 1097   4.250   2.453   0.895
  385TIP3    H1 1098   4.189   2.458   0.821
  385TIP3    H2 1099   4.335   2.478   0.859
  386TIP3   OH2 1100   3.320   0.737   1.445
  386TIP3    H1 1101   3.299   0.688   1.366
  386TIP3    H2 1102   3.334   0.670   1.512
  387TIP3   OH2 1103   2.889   1.980   0.784
  387TIP3    H1 1104   2.809   1.934   0.805
  387TIP3    H2 1105   2.925   1.934   0.708
  388TIP3   OH2 1106   3.028   2.484   1.870
  388TIP3    H1 1107   3.111   2.488   1.917
  388TIP3    H2 1108   3.006   2.391   1.869
  389TIP3   OH2 1109   3.504   2.439   1.916
  389TIP3    H1 1110   3.599   2.427   1.921
  389TIP3    H2 1111   3.477   2.382   1.844
  390TIP3   OH2 1112   3.489   2.024   0.099
  390TIP3    H1 1113   3.432   1.948   0.111
  390TIP3    H2 1114   3.522   2.016   0.010
  391TIP3   OH2 1115   4.143   2.353   1.652
  391TIP3    H1 1116   4.137   2.284   1.717
  391TIP3    H2 1117   4.219   2.405   1.679
  392TIP3   OH2 1118   6.771   6.077   6.903
  392TIP3    H1 1119   6.775   6.001   6.960
  392TIP3    H2 1120   6.857   6.080   6.861
  393TIP3   OH2 1121   3.153   1.886   2.070
  393TIP3    H1 1122   3.171   1.792   2.075
  393TIP3    H2 1123   3.068   1.891   2.027
  394TIP3   OH2 1124   3.762   1.973   1.842
  394TIP3    H1 1125   3.721   1.994   1.758
  394TIP3    H2 1126   3.792   1.882   1.832
  395TIP3   OH2 1127   3.739   1.693   0.100
  395TIP3    H1 1128   3.710   1.727   0.185
  395TIP3    H2 1129   3.658   1.672   0.054
  396TIP3   OH2 1130   4.255   1.985   1.450
  396TIP3    H1 1131   4.330   2.026   1.407
  396TIP3    H2 1132   4.183   2.048   1.439
  397TIP3   OH2 1133   3.273   1.622   2.056
  397TIP3    H1 1134   3.348   1.572   2.026
  397TIP3    H2 1135   3.299   1.655   2.142
  398TIP3   OH2 1136   3.605   1.505   1.713
  398TIP3    H1 1137   3.530   1.564   1.717
  398TIP3    H2 1138   3.657   1.537   1.639
  399TIP3   OH2 1139   4.130   1.907   1.847
  399TIP3    H1 1140   4.202   1.877   1.792
  399TIP3    H2 1141   4.121   1.839   1.914
  400TIP3   OH2 1142   7.106   5.585   6.904
  400TIP3    H1 1143   7.110   5.544   6.818
  400TIP3    H2 1144   7.093   5.678   6.886
  401TIP3   OH2 1145   3.730   1.294   1.837
  401TIP3    H1 1146   3.733   1.216   1.782
  401TIP3    H2 1147   3.689   1.360   1.782
  402TIP3   OH2 1148   3.734   1.084   1.648
  402TIP3    H1 1149   3.765   1.119   1.564
  402TIP3    H2 1150   3.644   1.056   1.630
  403TIP3   OH2 1151   3.756   1.619   1.525
  403TIP3    H1 1152   3.840   1.618   1.479
  403TIP3    H2 1153   3.704   1.684   1.477
  404TIP3   OH2 1154   4.351   1.585   1.909
  404TIP3    H1 1155   4.371   1.494   1.888
  404TIP3    H2 1156   4.413   1.636   1.857
  405TIP3   OH2 1157   4.382   1.846   1.642
  405TIP3    H1 1158   4.324   1.895   1.584
  405TIP3    H2 1159   4.469   1.856   1.604
  406TIP3   OH2 1160   3.613   1.400   2.071
  406TIP3    H1 1161   3.545   1.335   2.088
  406TIP3    H2 1162   3.645   1.380   1.984
  407TIP3   OH2 1163   3.866   0.847   1.718
  407TIP3    H1 1164   3.819   0.927   1.692
  407TIP3    H2 1165   3.803   0.777   1.703
  408TIP3   OH2 1166   3.985   1.344   1.932
  408TIP3    H1 1167   3.970   1.332   2.026
  408TIP3    H2 1168   3.901   1.322   1.891
  409TIP3   OH2 1169   4.245   1.329   1.809
  409TIP3    H1 1170   4.162   1.305   1.851
  409TIP3    H2 1171   4.310   1.272   1.851
  410TIP3   OH2 1172   4.481   1.239   1.944
  410TIP3    H1 1173   4.484   1.145   1.957
  410TIP3    H2 1174   4.467   1.275   2.032
  411TIP3   OH2 1175   3.452   1.182   2.128
  411TIP3    H1 1176   3.452   1.094   2.090
  411TIP3    H2 1177   3.488   1.170   2.216
  412TIP3   OH2 1178   3.960   0.850   1.974
  412TIP3    H1 1179   4.025   0.780   1.969
  412TIP3    H2 1180   3.919   0.852   1.888
  413TIP3   OH2 1181   4.025   1.067   2.131
  413TIP3    H1 1182   4.006   0.996   2.069
  413TIP3    H2 1183   3.950   1.126   2.124
  414TIP3   OH2 1184   3.241   2.287   0.225
  414TIP3    H1 1185   3.334   2.298   0.206
  414TIP3    H2 1186   3.196   2.342   0.161
  415TIP3   OH2 1187   2.638   2.284   0.858
  415TIP3    H1 1188   2.590   2.217   0.810
  415TIP3    H2 1189   2.686   2.236   0.926
  416TIP3   OH2 1190   2.765   2.154   1.060
  416TIP3    H1 1191   2.769   2.073   1.112
  416TIP3    H2 1192   2.823   2.215   1.107
  417TIP3   OH2 1193   4.514   2.529   0.845
  417TIP3    H1 1194   4.526   2.558   0.936
  417TIP3    H2 1195   4.559   2.595   0.792
  418TIP3   OH2 1196   4.536   2.557   1.127
  418TIP3    H1 1197   4.486   2.475   1.124
  418TIP3    H2 1198   4.606   2.540   1.190
  419TIP3   OH2 1199   4.583   2.241   1.706
  419TIP3    H1 1200   4.511   2.247   1.768
  419TIP3    H2 1201   4.624   2.327   1.708
  420TIP3   OH2 1202   4.405   1.745   0.323
  420TIP3    H1 1203   4.457   1.822   0.301
  420TIP3    H2 1204   4.439   1.717   0.408
  421TIP3   OH2 1205   4.522   1.630   0.553
  421TIP3    H1 1206   4.443   1.578   0.572
  421TIP3    H2 1207   4.563   1.642   0.638
  422TIP3   OH2 1208   4.593   2.007   0.962
  422TIP3    H1 1209   4.641   1.946   0.906
  422TIP3    H2 1210   4.569   2.080   0.904
  423TIP3   OH2 1211   4.408   2.312   1.153
  423TIP3    H1 1212   4.339   2.355   1.205
  423TIP3    H2 1213   4.360   2.268   1.083
  424TIP3   OH2 1214   4.446   1.523   0.170
  424TIP3    H1 1215   4.385   1.534   0.097
  424TIP3    H2 1216   4.428   1.598   0.227
  425TIP3   OH2 1217   4.324   1.180   0.109
  425TIP3    H1 1218   4.286   1.264   0.085
  425TIP3    H2 1219   4.250   1.125   0.133
  426TIP3   OH2 1220   4.344   1.471   0.682
  426TIP3    H1 1221   4.342   1.376   0.667
  426TIP3    H2 1222   4.330   1.481   0.776
  427TIP3   OH2 1223   2.970   1.564   1.429
  427TIP3    H1 1224   2.964   1.532   1.339
  427TIP3    H2 1225   3.063   1.563   1.450
  428TIP3   OH2 1226   4.630   1.898   1.533
  428TIP3    H1 1227   4.697   1.832   1.519
  428TIP3    H2 1228   4.649   1.965   1.467
  429TIP3   OH2 1229   4.815   1.699   1.539
  429TIP3    H1 1230   4.738   1.653   1.574
  429TIP3    H2 1231   4.884   1.632   1.539
  430TIP3   OH2 1232   4.334   1.200   0.564
  430TIP3    H1 1233   4.369   1.113   0.584
  430TIP3    H2 1234   4.390   1.233   0.494
  431TIP3   OH2 1235   4.591   1.538   1.331
  431TIP3    H1 1236   4.508   1.492   1.320
  431TIP3    H2 1237   4.596   1.596   1.255
  432TIP3   OH2 1238   3.188   1.241   2.115
  432TIP3    H1 1239   3.283   1.236   2.108
  432TIP3    H2 1240   3.160   1.155   2.145
  433TIP3   OH2 1241   5.019   1.103   1.846
  433TIP3    H1 1242   5.072   1.034   1.808
  433TIP3    H2 1243   4.986   1.153   1.770
  434TIP3   OH2 1244   4.440   0.949   0.609
  434TIP3    H1 1245   4.478   0.940   0.696
  434TIP3    H2 1246   4.380   0.875   0.601
  435TIP3   OH2 1247   3.160   0.951   1.470
  435TIP3    H1 1248   3.221   0.879   1.486
  435TIP3    H2 1249   3.216   1.028   1.461
  436TIP3   OH2 1250   2.962   1.221   1.493
  436TIP3    H1 1251   3.008   1.221   1.409
  436TIP3    H2 1252   2.990   1.302   1.536
  437TIP3   OH2 1253   4.890   1.243   1.648
  437TIP3    H1 1254   4.810   1.287   1.677
  437TIP3    H2 1255   4.859   1.170   1.594
  438TIP3   OH2 1256   3.165   0.784   1.826
  438TIP3    H1 1257   3.117   0.770   1.908
  438TIP3    H2 1258   3.103   0.832   1.770
  439TIP3   OH2 1259   3.190   2.210   1.890
  439TIP3    H1 1260   3.098   2.189   1.872
  439TIP3    H2 1261   3.199   2.199   1.984
  440TIP3   OH2 1262   3.372   2.251   1.435
  440TIP3    H1 1263   3.320   2.323   1.400
  440TIP3    H2 1264   3.457   2.260   1.393
  441TIP3   OH2 1265   3.812   2.489   1.575
  441TIP3    H1 1266   3.851   2.488   1.663
  441TIP3    H2 1267   3.873   2.541   1.523
  442TIP3   OH2 1268   3.988   2.645   1.437
  442TIP3    H1 1269   4.052   2.595   1.388
  442TIP3    H2 1270   4.041   2.700   1.496
  443TIP3   OH2 1271   4.787   1.004   1.534
  443TIP3    H1 1272   4.699   1.006   1.497
  443TIP3    H2 1273   4.815   0.913   1.524
  444TIP3   OH2 1274   3.042   2.502   1.465
  444TIP3    H1 1275   2.955   2.531   1.439
  444TIP3    H2 1276   3.060   2.548   1.546
  445TIP3   OH2 1277   3.279   2.483   1.321
  445TIP3    H1 1278   3.194   2.493   1.365
  445TIP3    H2 1279   3.263   2.514   1.231
  446TIP3   OH2 1280   3.702   2.509   1.124
  446TIP3    H1 1281   3.638   2.525   1.055
  446TIP3    H2 1282   3.717   2.595   1.163
  447TIP3   OH2 1283   3.973   2.448   1.173
  447TIP3    H1 1284   3.880   2.457   1.152
  447TIP3    H2 1285   4.016   2.513   1.117
  448TIP3   OH2 1286   4.191   2.646   1.081
  448TIP3    H1 1287   4.168   2.727   1.035
  448TIP3    H2 1288   4.210   2.583   1.011
  449TIP3   OH2 1289   2.958   2.294   1.206
  449TIP3    H1 1290   2.980   2.269   1.295
  449TIP3    H2 1291   3.027   2.255   1.152
  450TIP3   OH2 1292   3.154   2.168   1.068
  450TIP3    H1 1293   3.167   2.086   1.115
  450TIP3    H2 1294   3.242   2.206   1.063
  451TIP3   OH2 1295   3.419   2.261   1.072
  451TIP3    H1 1296   3.450   2.173   1.053
  451TIP3    H2 1297   3.464   2.287   1.152
  452TIP3   OH2 1298   3.949   0.926   1.160
  452TIP3    H1 1299   3.924   0.854   1.217
  452TIP3    H2 1300   4.023   0.892   1.109
  453TIP3   OH2 1301   4.519   0.804   1.061
  453TIP3    H1 1302   4.549   0.861   0.990
  453TIP3    H2 1303   4.424   0.809   1.057
  454TIP3   OH2 1304   4.597   0.923   0.831
  454TIP3    H1 1305   4.670   0.865   0.808
  454TIP3    H2 1306   4.632   1.011   0.818
  455TIP3   OH2 1307   4.247   0.805   1.032
  455TIP3    H1 1308   4.195   0.798   0.952
  455TIP3    H2 1309   4.218   0.732   1.086
  456TIP3   OH2 1310   4.262   0.742   0.630
  456TIP3    H1 1311   4.178   0.788   0.631
  456TIP3    H2 1312   4.254   0.673   0.696
  457TIP3   OH2 1313   3.512   2.288   0.170
  457TIP3    H1 1314   3.602   2.306   0.144
  457TIP3    H2 1315   3.497   2.197   0.144
  458TIP3   OH2 1316   4.265   2.373   0.252
  458TIP3    H1 1317   4.246   2.279   0.260
  458TIP3    H2 1318   4.198   2.406   0.192
  459TIP3   OH2 1319   3.447   0.910   2.068
  459TIP3    H1 1320   3.413   0.836   2.119
  459TIP3    H2 1321   3.541   0.911   2.089
  460TIP3   OH2 1322   3.700   0.905   2.181
  460TIP3    H1 1323   3.781   0.881   2.136
  460TIP3    H2 1324   3.687   0.835   2.245
  461TIP3   OH2 1325   4.525   0.966   1.969
  461TIP3    H1 1326   4.542   0.936   2.058
  461TIP3    H2 1327   4.611   0.963   1.926
  462TIP3   OH2 1328   4.458   2.520   1.456
  462TIP3    H1 1329   4.382   2.486   1.409
  462TIP3    H2 1330   4.441   2.614   1.465
  463TIP3   OH2 1331   5.682   1.912   0.269
  463TIP3    H1 1332   5.671   1.994   0.222
  463TIP3    H2 1333   5.631   1.848   0.220
  464TIP3   OH2 1334   5.729   1.904   0.610
  464TIP3    H1 1335   5.750   1.859   0.691
  464TIP3    H2 1336   5.691   1.836   0.553
  465TIP3   OH2 1337   5.026   1.801   0.969
  465TIP3    H1 1338   5.049   1.728   1.026
  465TIP3    H2 1339   5.109   1.845   0.952
  466TIP3   OH2 1340   5.977   2.196   0.295
  466TIP3    H1 1341   5.952   2.129   0.360
  466TIP3    H2 1342   6.006   2.270   0.348
  467TIP3   OH2 1343   5.002   2.188   0.682
  467TIP3    H1 1344   4.995   2.095   0.700
  467TIP3    H2 1345   5.096   2.205   0.679
  468TIP3   OH2 1346   4.701   1.425   0.485
  468TIP3    H1 1347   4.643   1.500   0.498
  468TIP3    H2 1348   4.643   1.354   0.456
  469TIP3   OH2 1349   5.625   2.656   0.313
  469TIP3    H1 1350   5.659   2.585   0.257
  469TIP3    H2 1351   5.617   2.616   0.400
  470TIP3   OH2 1352   5.527   2.120   0.655
  470TIP3    H1 1353   5.560   2.046   0.605
  470TIP3    H2 1354   5.606   2.167   0.683
  471TIP3   OH2 1355   5.937   1.625   0.687
  471TIP3    H1 1356   5.970   1.542   0.722
  471TIP3    H2 1357   5.885   1.599   0.610
  472TIP3   OH2 1358   5.253   1.306   0.672
  472TIP3    H1 1359   5.227   1.368   0.604
  472TIP3    H2 1360   5.243   1.220   0.631
  473TIP3   OH2 1361   4.905   1.497   0.760
  473TIP3    H1 1362   4.981   1.469   0.811
  473TIP3    H2 1363   4.908   1.444   0.681
  474TIP3   OH2 1364   5.349   1.690   0.562
  474TIP3    H1 1365   5.440   1.665   0.572
  474TIP3    H2 1366   5.305   1.609   0.534
  475TIP3   OH2 1367   6.585   1.619   0.855
  475TIP3    H1 1368   6.524   1.685   0.822
  475TIP3    H2 1369   6.657   1.670   0.892
  476TIP3   OH2 1370   5.262   1.263   1.094
  476TIP3    H1 1371   5.213   1.316   1.032
  476TIP3    H2 1372   5.195   1.217   1.145
  477TIP3   OH2 1373   5.620   2.121   0.094
  477TIP3    H1 1374   5.583   2.097   0.008
  477TIP3    H2 1375   5.566   2.195   0.123
  478TIP3   OH2 1376   5.380   2.040   0.877
  478TIP3    H1 1377   5.321   2.107   0.914
  478TIP3    H2 1378   5.426   2.085   0.807
  479TIP3   OH2 1379   5.134   1.394   0.892
  479TIP3    H1 1380   5.193   1.466   0.912
  479TIP3    H2 1381   5.172   1.353   0.814
  480TIP3   OH2 1382   5.204   2.235   0.977
  480TIP3    H1 1383   5.186   2.322   0.941
  480TIP3    H2 1384   5.130   2.215   1.033
  481TIP3   OH2 1385   4.612   1.927   0.236
  481TIP3    H1 1386   4.566   1.919   0.152
  481TIP3    H2 1387   4.619   2.021   0.250
  482TIP3   OH2 1388   6.037   2.442   0.457
  482TIP3    H1 1389   5.949   2.431   0.494
  482TIP3    H2 1390   6.032   2.524   0.408
  483TIP3   OH2 1391   5.733   2.475   0.136
  483TIP3    H1 1392   5.776   2.392   0.120
  483TIP3    H2 1393   5.792   2.541   0.100
  484TIP3   OH2 1394   5.876   2.266   0.050
  484TIP3    H1 1395   5.820   2.192   0.026
  484TIP3    H2 1396   5.923   2.235   0.128
  485TIP3   OH2 1397   6.265   2.350   0.796
  485TIP3    H1 1398   6.254   2.273   0.740
  485TIP3    H2 1399   6.249   2.424   0.738
  486TIP3   OH2 1400   6.459   1.997   0.658
  486TIP3    H1 1401   6.375   2.042   0.655
  486TIP3    H2 1402   6.494   2.005   0.569
  487TIP3   OH2 1403   6.130   1.872   0.948
  487TIP3    H1 1404   6.131   1.949   1.005
  487TIP3    H2 1405   6.046   1.876   0.904
  488TIP3   OH2 1406   5.134   1.819   0.441
  488TIP3    H1 1407   5.103   1.759   0.373
  488TIP3    H2 1408   5.213   1.777   0.475
  489TIP3   OH2 1409   5.267   2.231   0.592
  489TIP3    H1 1410   5.252   2.200   0.502
  489TIP3    H2 1411   5.355   2.200   0.614
  490TIP3   OH2 1412   5.266   1.801   0.801
  490TIP3    H1 1413   5.299   1.773   0.716
  490TIP3    H2 1414   5.314   1.882   0.819
  491TIP3   OH2 1415   5.796   2.434   0.578
  491TIP3    H1 1416   5.787   2.511   0.633
  491TIP3    H2 1417   5.783   2.360   0.637
  492TIP3   OH2 1418   5.410   2.351   1.123
  492TIP3    H1 1419   5.354   2.413   1.171
  492TIP3    H2 1420   5.349   2.297   1.073
  493TIP3   OH2 1421   5.166   1.901   1.236
  493TIP3    H1 1422   5.175   1.990   1.270
  493TIP3    H2 1423   5.072   1.883   1.242
  494TIP3   OH2 1424   5.480   2.365   0.142
  494TIP3    H1 1425   5.566   2.407   0.146
  494TIP3    H2 1426   5.429   2.419   0.081
  495TIP3   OH2 1427   5.204   2.516   1.211
  495TIP3    H1 1428   5.171   2.518   1.121
  495TIP3    H2 1429   5.127   2.495   1.265
  496TIP3   OH2 1430   5.001   1.664   0.241
  496TIP3    H1 1431   4.937   1.709   0.185
  496TIP3    H2 1432   4.957   1.583   0.267
  497TIP3   OH2 1433   4.786   2.046   1.158
  497TIP3    H1 1434   4.715   2.031   1.096
  497TIP3    H2 1435   4.819   1.958   1.178
  498TIP3   OH2 1436   4.650   2.243   0.784
  498TIP3    H1 1437   4.742   2.264   0.800
  498TIP3    H2 1438   4.601   2.313   0.829
  499TIP3   OH2 1439   6.502   2.695   0.849
  499TIP3    H1 1440   6.504   2.600   0.861
  499TIP3    H2 1441   6.421   2.723   0.892
  500TIP3   OH2 1442   5.606   2.482   0.981
  500TIP3    H1 1443   5.607   2.573   1.012
  500TIP3    H2 1444   5.540   2.439   1.034
  501TIP3   OH2 1445   8.199   6.620   6.885
  501TIP3    H1 1446   8.154   6.583   6.809
  501TIP3    H2 1447   8.170   6.712   6.887
  502TIP3   OH2 1448   4.809   2.457   0.320
  502TIP3    H1 1449   4.860   2.449   0.401
  502TIP3    H2 1450   4.733   2.399   0.334
  503TIP3   OH2 1451   8.436   6.528   6.781
  503TIP3    H1 1452   8.359   6.557   6.829
  503TIP3    H2 1453   8.505   6.520   6.847
  504TIP3   OH2 1454   6.394   1.824   1.132
  504TIP3    H1 1455   6.322   1.833   1.069
  504TIP3    H2 1456   6.414   1.731   1.132
  505TIP3   OH2 1457   4.989   2.231   1.142
  505TIP3    H1 1458   5.038   2.221   1.224
  505TIP3    H2 1459   4.917   2.169   1.149
  506TIP3   OH2 1460   5.377   1.061   0.936
  506TIP3    H1 1461   5.292   1.027   0.907
  506TIP3    H2 1462   5.355   1.144   0.979
  507TIP3   OH2 1463   5.920   1.160   1.114
  507TIP3    H1 1464   5.988   1.144   1.179
  507TIP3    H2 1465   5.838   1.144   1.161
  508TIP3   OH2 1466   6.155   1.600   1.035
  508TIP3    H1 1467   6.116   1.598   1.122
  508TIP3    H2 1468   6.139   1.689   1.004
  509TIP3   OH2 1469   5.325   1.581   0.953
  509TIP3    H1 1470   5.279   1.598   1.035
  509TIP3    H2 1471   5.308   1.658   0.899
  510TIP3   OH2 1472   5.192   1.480   0.474
  510TIP3    H1 1473   5.105   1.440   0.473
  510TIP3    H2 1474   5.231   1.454   0.390
  511TIP3   OH2 1475   5.872   1.818   1.275
  511TIP3    H1 1476   5.848   1.747   1.334
  511TIP3    H2 1477   5.965   1.835   1.294
  512TIP3   OH2 1478   5.817   1.548   0.458
  512TIP3    H1 1479   5.830   1.603   0.380
  512TIP3    H2 1480   5.831   1.459   0.426
  513TIP3   OH2 1481   5.130   1.614   1.152
  513TIP3    H1 1482   5.148   1.682   1.217
  513TIP3    H2 1483   5.060   1.561   1.192
  514TIP3   OH2 1484   4.725   1.145   0.747
  514TIP3    H1 1485   4.803   1.166   0.798
  514TIP3    H2 1486   4.759   1.098   0.670
  515TIP3   OH2 1487   4.749   1.193   0.316
  515TIP3    H1 1488   4.793   1.256   0.258
  515TIP3    H2 1489   4.656   1.215   0.309
  516TIP3   OH2 1490   5.855   1.817   0.858
  516TIP3    H1 1491   5.894   1.755   0.797
  516TIP3    H2 1492   5.828   1.764   0.933
  517TIP3   OH2 1493   5.521   1.281   0.621
  517TIP3    H1 1494   5.431   1.301   0.646
  517TIP3    H2 1495   5.574   1.324   0.688
  518TIP3   OH2 1496   4.957   1.335   0.516
  518TIP3    H1 1497   4.865   1.360   0.506
  518TIP3    H2 1498   4.962   1.248   0.477
  519TIP3   OH2 1499   5.947   1.355   0.729
  519TIP3    H1 1500   5.945   1.381   0.822
  519TIP3    H2 1501   5.954   1.260   0.731
  520TIP3   OH2 1502   6.199   3.046   0.946
  520TIP3    H1 1503   6.196   3.068   0.853
  520TIP3    H2 1504   6.277   3.090   0.979
  521TIP3   OH2 1505   5.153   2.154   1.367
  521TIP3    H1 1506   5.233   2.184   1.411
  521TIP3    H2 1507   5.086   2.153   1.436
  522TIP3   OH2 1508   5.605   1.606   0.628
  522TIP3    H1 1509   5.674   1.578   0.569
  522TIP3    H2 1510   5.628   1.567   0.712
  523TIP3   OH2 1511   5.593   1.504   0.909
  523TIP3    H1 1512   5.506   1.541   0.922
  523TIP3    H2 1513   5.651   1.561   0.959
  524TIP3   OH2 1514   5.288   1.931  -0.008
  524TIP3    H1 1515   5.250   1.843  -0.016
  524TIP3    H2 1516   5.298   1.944   0.086
  525TIP3   OH2 1517   6.224   2.134   0.631
  525TIP3    H1 1518   6.249   2.184   0.553
  525TIP3    H2 1519   6.137   2.099   0.611
  526TIP3   OH2 1520   5.723   2.212   1.006
  526TIP3    H1 1521   5.761   2.198   1.093
  526TIP3    H2 1522   5.689   2.301   1.009
  527TIP3   OH2 1523   4.978   1.903   0.646
  527TIP3    H1 1524   5.042   1.877   0.580
  527TIP3    H2 1525   5.011   1.865   0.728
  528TIP3   OH2 1526   8.315   6.084   6.799
  528TIP3    H1 1527   8.266   6.165   6.790
  528TIP3    H2 1528   8.252   6.021   6.832
  529TIP3   OH2 1529   4.904   1.824   1.293
  529TIP3    H1 1530   4.909   1.815   1.388
  529TIP3    H2 1531   4.827   1.773   1.268
  530TIP3   OH2 1532   5.632   1.953   1.314
  530TIP3    H1 1533   5.571   1.897   1.265
  530TIP3    H2 1534   5.719   1.922   1.288
  531TIP3   OH2 1535   5.884   2.476   0.902
  531TIP3    H1 1536   5.789   2.473   0.912
  531TIP3    H2 1537   5.915   2.526   0.977
  532TIP3   OH2 1538   6.514   2.403   0.886
  532TIP3    H1 1539   6.419   2.400   0.882
  532TIP3    H2 1540   6.543   2.374   0.800
  533TIP3   OH2 1541   5.981   2.012   0.560
  533TIP3    H1 1542   5.889   1.989   0.574
  533TIP3    H2 1543   6.021   1.933   0.525
  534TIP3   OH2 1544   5.119   2.224   0.311
  534TIP3    H1 1545   5.144   2.299   0.256
  534TIP3    H2 1546   5.024   2.217   0.300
  535TIP3   OH2 1547   4.708   1.511   0.052
  535TIP3    H1 1548   4.737   1.601   0.036
  535TIP3    H2 1549   4.618   1.520   0.083
  536TIP3   OH2 1550   5.263   1.989   0.259
  536TIP3    H1 1551   5.226   2.077   0.272
  536TIP3    H2 1552   5.225   1.937   0.330
  537TIP3   OH2 1553   5.396   2.565   0.774
  537TIP3    H1 1554   5.437   2.636   0.725
  537TIP3    H2 1555   5.468   2.526   0.824
  538TIP3   OH2 1556   5.036   2.465   0.157
  538TIP3    H1 1557   4.952   2.466   0.202
  538TIP3    H2 1558   5.066   2.556   0.161
  539TIP3   OH2 1559   5.778   2.202   0.736
  539TIP3    H1 1560   5.768   2.198   0.831
  539TIP3    H2 1561   5.855   2.148   0.717
  540TIP3   OH2 1562   6.025   2.733   0.785
  540TIP3    H1 1563   5.949   2.676   0.781
  540TIP3    H2 1564   6.012   2.796   0.714
  541TIP3   OH2 1565   4.839   2.422   0.932
  541TIP3    H1 1566   4.889   2.355   0.980
  541TIP3    H2 1567   4.846   2.500   0.986
  542TIP3   OH2 1568   7.999   6.023   6.605
  542TIP3    H1 1569   7.939   6.001   6.534
  542TIP3    H2 1570   7.943   6.031   6.682
  543TIP3   OH2 1571   7.890   6.088   6.862
  543TIP3    H1 1572   7.973   6.048   6.886
  543TIP3    H2 1573   7.908   6.182   6.859
  544TIP3   OH2 1574   4.807   1.783   0.093
  544TIP3    H1 1575   4.738   1.831   0.139
  544TIP3    H2 1576   4.830   1.839   0.018
  545TIP3   OH2 1577   5.948   1.410   0.994
  545TIP3    H1 1578   6.029   1.451   1.024
  545TIP3    H2 1579   5.941   1.330   1.046
  546TIP3   OH2 1580   8.164   6.312   6.774
  546TIP3    H1 1581   8.072   6.327   6.797
  546TIP3    H2 1582   8.170   6.338   6.682
  547TIP3   OH2 1583   5.788   1.650   1.063
  547TIP3    H1 1584   5.812   1.705   1.137
  547TIP3    H2 1585   5.845   1.573   1.070
  548TIP3   OH2 1586   7.906   6.363   6.845
  548TIP3    H1 1587   7.882   6.432   6.783
  548TIP3    H2 1588   7.889   6.401   6.931
  549TIP3   OH2 1589   6.428   1.558   1.067
  549TIP3    H1 1590   6.335   1.546   1.047
  549TIP3    H2 1591   6.471   1.560   0.981
  550TIP3   OH2 1592   6.075   1.767   0.476
  550TIP3    H1 1593   6.001   1.713   0.505
  550TIP3    H2 1594   6.150   1.734   0.526
  551TIP3   OH2 1595   7.629   6.009   6.848
  551TIP3    H1 1596   7.708   6.060   6.866
  551TIP3    H2 1597   7.657   5.943   6.785
  552TIP3   OH2 1598   6.047   2.719   0.369
  552TIP3    H1 1599   6.003   2.764   0.297
  552TIP3    H2 1600   6.140   2.737   0.356
  553TIP3   OH2 1601   5.119   0.969   0.908
  553TIP3    H1 1602   5.096   0.925   0.826
  553TIP3    H2 1603   5.113   0.900   0.974
  554TIP3   OH2 1604   4.654   2.186   0.301
  554TIP3    H1 1605   4.586   2.228   0.354
  554TIP3    H2 1606   4.644   2.225   0.214
  555TIP3   OH2 1607   4.824   2.741   1.355
  555TIP3    H1 1608   4.907   2.744   1.403
  555TIP3    H2 1609   4.800   2.648   1.355
  556TIP3   OH2 1610   5.300   2.698   1.400
  556TIP3    H1 1611   5.394   2.683   1.410
  556TIP3    H2 1612   5.274   2.639   1.329
  557TIP3   OH2 1613   5.940   2.608   1.137
  557TIP3    H1 1614   5.933   2.539   1.203
  557TIP3    H2 1615   6.016   2.659   1.164
  558TIP3   OH2 1616   4.949   2.145   1.555
  558TIP3    H1 1617   4.967   2.051   1.559
  558TIP3    H2 1618   4.863   2.151   1.513
  559TIP3   OH2 1619   7.758   5.822   6.714
  559TIP3    H1 1620   7.809   5.745   6.741
  559TIP3    H2 1621   7.777   5.831   6.621
  560TIP3   OH2 1622   5.558   2.229   1.329
  560TIP3    H1 1623   5.519   2.249   1.244
  560TIP3    H2 1624   5.591   2.140   1.320
  561TIP3   OH2 1625   6.050   2.245   0.936
  561TIP3    H1 1626   6.128   2.283   0.894
  561TIP3    H2 1627   5.981   2.310   0.921
  562TIP3   OH2 1628   5.066   1.889   1.544
  562TIP3    H1 1629   5.143   1.842   1.513
  562TIP3    H2 1630   5.088   1.914   1.634
  563TIP3   OH2 1631   5.148   1.689  -0.012
  563TIP3    H1 1632   5.107   1.670   0.073
  563TIP3    H2 1633   5.145   1.605  -0.059
  564TIP3   OH2 1634   5.412   1.765   1.203
  564TIP3    H1 1635   5.333   1.819   1.205
  564TIP3    H2 1636   5.460   1.794   1.126
  565TIP3   OH2 1637   5.922   2.161   1.333
  565TIP3    H1 1638   6.003   2.139   1.286
  565TIP3    H2 1639   5.918   2.100   1.406
  566TIP3   OH2 1640   5.491   1.535   1.332
  566TIP3    H1 1641   5.514   1.466   1.270
  566TIP3    H2 1642   5.467   1.610   1.276
  567TIP3   OH2 1643   5.526   1.339   1.134
  567TIP3    H1 1644   5.557   1.377   1.052
  567TIP3    H2 1645   5.434   1.317   1.116
  568TIP3   OH2 1646   5.557   1.872   1.004
  568TIP3    H1 1647   5.644   1.884   0.964
  568TIP3    H2 1648   5.502   1.937   0.961
  569TIP3   OH2 1649   6.141   1.837   1.386
  569TIP3    H1 1650   6.186   1.754   1.398
  569TIP3    H2 1651   6.208   1.895   1.349
  570TIP3   OH2 1652   6.178   2.096   1.121
  570TIP3    H1 1653   6.120   2.149   1.066
  570TIP3    H2 1654   6.265   2.112   1.086
  571TIP3   OH2 1655   5.410   1.662   1.569
  571TIP3    H1 1656   5.315   1.652   1.572
  571TIP3    H2 1657   5.434   1.634   1.480
  572TIP3   OH2 1658   5.661   1.102   1.202
  572TIP3    H1 1659   5.610   1.178   1.177
  572TIP3    H2 1660   5.603   1.028   1.188
  573TIP3   OH2 1661   5.788   1.603   1.421
  573TIP3    H1 1662   5.798   1.595   1.516
  573TIP3    H2 1663   5.699   1.571   1.404
  574TIP3   OH2 1664   6.030   1.554   1.272
  574TIP3    H1 1665   5.956   1.554   1.333
  574TIP3    H2 1666   6.105   1.525   1.324
  575TIP3   OH2 1667   6.249   1.494   1.426
  575TIP3    H1 1668   6.264   1.401   1.440
  575TIP3    H2 1669   6.253   1.533   1.513
  576TIP3   OH2 1670   5.744   1.114   1.463
  576TIP3    H1 1671   5.816   1.052   1.468
  576TIP3    H2 1672   5.712   1.107   1.373
  577TIP3   OH2 1673   5.822   1.324   1.619
  577TIP3    H1 1674   5.802   1.253   1.558
  577TIP3    H2 1675   5.747   1.382   1.613
  578TIP3   OH2 1676   7.896   6.556   6.647
  578TIP3    H1 1677   7.979   6.543   6.602
  578TIP3    H2 1678   7.843   6.609   6.587
  579TIP3   OH2 1679   7.372   5.930   6.907
  579TIP3    H1 1680   7.454   5.974   6.884
  579TIP3    H2 1681   7.357   5.867   6.837
  580TIP3   OH2 1682   4.444   2.549   0.351
  580TIP3    H1 1683   4.378   2.495   0.308
  580TIP3    H2 1684   4.484   2.490   0.416
  581TIP3   OH2 1685   4.586   2.394   0.532
  581TIP3    H1 1686   4.547   2.334   0.596
  581TIP3    H2 1687   4.633   2.458   0.584
  582TIP3   OH2 1688   6.297   2.815   0.339
  582TIP3    H1 1689   6.333   2.835   0.426
  582TIP3    H2 1690   6.373   2.818   0.281
  583TIP3   OH2 1691   6.332   2.816   0.622
  583TIP3    H1 1692   6.288   2.732   0.616
  583TIP3    H2 1693   6.412   2.798   0.672
  584TIP3   OH2 1694   6.376   2.498   1.191
  584TIP3    H1 1695   6.306   2.504   1.256
  584TIP3    H2 1696   6.420   2.583   1.194
  585TIP3   OH2 1697   6.374   2.272   0.445
  585TIP3    H1 1698   6.428   2.207   0.401
  585TIP3    H2 1699   6.374   2.347   0.386
  586TIP3   OH2 1700   6.204   2.569   0.639
  586TIP3    H1 1701   6.136   2.610   0.692
  586TIP3    H2 1702   6.157   2.522   0.570
  587TIP3   OH2 1703   4.772   1.798   0.877
  587TIP3    H1 1704   4.793   1.722   0.822
  587TIP3    H2 1705   4.855   1.821   0.919
  588TIP3   OH2 1706   6.422   2.159   1.016
  588TIP3    H1 1707   6.491   2.093   1.008
  588TIP3    H2 1708   6.450   2.229   0.957
  589TIP3   OH2 1709   6.604   1.961   1.029
  589TIP3    H1 1710   6.531   1.915   1.070
  589TIP3    H2 1711   6.679   1.902   1.041
  590TIP3   OH2 1712   6.281   1.643   0.613
  590TIP3    H1 1713   6.371   1.628   0.583
  590TIP3    H2 1714   6.291   1.686   0.698
  591TIP3   OH2 1715   6.367   1.797   0.819
  591TIP3    H1 1716   6.286   1.833   0.855
  591TIP3    H2 1717   6.404   1.869   0.767
  592TIP3   OH2 1718   5.086   1.445   1.594
  592TIP3    H1 1719   5.075   1.519   1.653
  592TIP3    H2 1720   5.004   1.396   1.601
  593TIP3   OH2 1721   6.821   1.355   1.334
  593TIP3    H1 1722   6.878   1.297   1.283
  593TIP3    H2 1723   6.783   1.414   1.268
  594TIP3   OH2 1724   4.947   1.183   0.897
  594TIP3    H1 1725   5.008   1.110   0.911
  594TIP3    H2 1726   4.999   1.262   0.913
  595TIP3   OH2 1727   4.780   1.444   1.006
  595TIP3    H1 1728   4.798   1.448   0.912
  595TIP3    H2 1729   4.757   1.534   1.030
  596TIP3   OH2 1730   6.682   1.508   1.155
  596TIP3    H1 1731   6.590   1.535   1.156
  596TIP3    H2 1732   6.683   1.429   1.101
  597TIP3   OH2 1733   4.696   0.990   0.511
  597TIP3    H1 1734   4.608   0.974   0.544
  597TIP3    H2 1735   4.686   1.062   0.448
  598TIP3   OH2 1736   0.212   6.654   6.931
  598TIP3    H1 1737   0.236   6.599   6.857
  598TIP3    H2 1738   0.268   6.730   6.924
  599TIP3   OH2 1739   4.942   1.040   1.299
  599TIP3    H1 1740   4.893   1.039   1.382
  599TIP3    H2 1741   4.884   1.087   1.238
  600TIP3   OH2 1742   4.985   2.466   1.376
  600TIP3    H1 1743   4.893   2.445   1.360
  600TIP3    H2 1744   4.997   2.453   1.470
  601TIP3   OH2 1745   5.168   2.506   0.922
  601TIP3    H1 1746   5.115   2.577   0.887
  601TIP3    H2 1747   5.254   2.517   0.880
  602TIP3   OH2 1748   5.609   2.749   1.061
  602TIP3    H1 1749   5.647   2.745   1.149
  602TIP3    H2 1750   5.673   2.799   1.009
  603TIP3   OH2 1751   5.789   2.902   0.922
  603TIP3    H1 1752   5.857   2.848   0.880
  603TIP3    H2 1753   5.838   2.958   0.982
  604TIP3   OH2 1754   4.839   2.762   0.950
  604TIP3    H1 1755   4.751   2.789   0.926
  604TIP3    H2 1756   4.855   2.802   1.035
  605TIP3   OH2 1757   5.075   2.741   0.807
  605TIP3    H1 1758   4.992   2.750   0.854
  605TIP3    H2 1759   5.055   2.769   0.718
  606TIP3   OH2 1760   5.502   2.767   0.605
  606TIP3    H1 1761   5.432   2.785   0.543
  606TIP3    H2 1762   5.516   2.849   0.652
  607TIP3   OH2 1763   5.772   2.706   0.658
  607TIP3    H1 1764   5.680   2.721   0.638
  607TIP3    H2 1765   5.819   2.777   0.613
  608TIP3   OH2 1766   5.975   2.896   0.566
  608TIP3    H1 1767   5.964   2.980   0.522
  608TIP3    H2 1768   6.004   2.836   0.497
  609TIP3   OH2 1769   4.761   2.554   0.689
  609TIP3    H1 1770   4.777   2.529   0.779
  609TIP3    H2 1771   4.830   2.511   0.639
  610TIP3   OH2 1772   4.953   2.423   0.550
  610TIP3    H1 1773   4.965   2.340   0.597
  610TIP3    H2 1774   5.040   2.461   0.547
  611TIP3   OH2 1775   5.219   2.520   0.557
  611TIP3    H1 1776   5.246   2.431   0.537
  611TIP3    H2 1777   5.262   2.542   0.639
  612TIP3   OH2 1778   4.542   2.322   0.092
  612TIP3    H1 1779   4.458   2.283   0.067
  612TIP3    H2 1780   4.533   2.415   0.071
  613TIP3   OH2 1781   5.452   1.175   1.643
  613TIP3    H1 1782   5.540   1.157   1.609
  613TIP3    H2 1783   5.439   1.110   1.712
  614TIP3   OH2 1784   7.501   6.376   6.703
  614TIP3    H1 1785   7.434   6.411   6.762
  614TIP3    H2 1786   7.513   6.285   6.731
  615TIP3   OH2 1787   6.307   1.225   1.461
  615TIP3    H1 1788   6.326   1.196   1.550
  615TIP3    H2 1789   6.392   1.227   1.417
  616TIP3   OH2 1790   6.254   2.777   0.946
  616TIP3    H1 1791   6.178   2.744   0.897
  616TIP3    H2 1792   6.238   2.871   0.954
  617TIP3   OH2 1793   6.842   2.066   0.467
  617TIP3    H1 1794   6.880   2.051   0.553
  617TIP3    H2 1795   6.883   2.147   0.436
  618TIP3   OH2 1796   6.782   2.455   0.200
  618TIP3    H1 1797   6.760   2.392   0.132
  618TIP3    H2 1798   6.875   2.443   0.216
  619TIP3   OH2 1799   7.071   2.300   0.308
  619TIP3    H1 1800   7.041   2.371   0.366
  619TIP3    H2 1801   7.163   2.287   0.332
  620TIP3   OH2 1802   6.992   2.504   0.476
  620TIP3    H1 1803   6.977   2.593   0.443
  620TIP3    H2 1804   6.920   2.487   0.536
  621TIP3   OH2 1805   7.206   2.607   0.623
  621TIP3    H1 1806   7.149   2.673   0.661
  621TIP3    H2 1807   7.148   2.553   0.569
  622TIP3   OH2 1808   6.950   2.177   0.710
  622TIP3    H1 1809   6.966   2.261   0.753
  622TIP3    H2 1810   6.863   2.151   0.739
  623TIP3   OH2 1811   7.000   2.776   0.697
  623TIP3    H1 1812   6.968   2.782   0.607
  623TIP3    H2 1813   6.922   2.755   0.748
  624TIP3   OH2 1814   6.580   2.301   0.646
  624TIP3    H1 1815   6.513   2.283   0.580
  624TIP3    H2 1816   6.615   2.215   0.668
  625TIP3   OH2 1817   6.445   2.493   0.286
  625TIP3    H1 1818   6.538   2.495   0.263
  625TIP3    H2 1819   6.432   2.574   0.336
  626TIP3   OH2 1820   7.400   2.728   0.465
  626TIP3    H1 1821   7.404   2.820   0.493
  626TIP3    H2 1822   7.333   2.688   0.521
  627TIP3   OH2 1823   6.779   2.492   0.640
  627TIP3    H1 1824   6.829   2.476   0.720
  627TIP3    H2 1825   6.706   2.429   0.644
  628TIP3   OH2 1826   6.961   1.873   0.719
  628TIP3    H1 1827   6.911   1.921   0.785
  628TIP3    H2 1828   6.919   1.787   0.716
  629TIP3   OH2 1829   6.947   2.414   0.857
  629TIP3    H1 1830   7.029   2.443   0.899
  629TIP3    H2 1831   6.883   2.413   0.928
  630TIP3   OH2 1832   7.508   2.452   0.561
  630TIP3    H1 1833   7.518   2.481   0.652
  630TIP3    H2 1834   7.493   2.533   0.512
  631TIP3   OH2 1835   6.700   2.086   0.786
  631TIP3    H1 1836   6.715   2.078   0.881
  631TIP3    H2 1837   6.625   2.029   0.768
  632TIP3   OH2 1838   7.417   2.205   0.797
  632TIP3    H1 1839   7.338   2.159   0.770
  632TIP3    H2 1840   7.480   2.186   0.728
  633TIP3   OH2 1841   7.185   2.831   0.303
  633TIP3    H1 1842   7.193   2.839   0.208
  633TIP3    H2 1843   7.270   2.796   0.331
  634TIP3   OH2 1844   6.625   2.684   0.436
  634TIP3    H1 1845   6.679   2.610   0.465
  634TIP3    H2 1846   6.661   2.759   0.483
  635TIP3   OH2 1847   6.620   2.997   0.845
  635TIP3    H1 1848   6.704   3.001   0.891
  635TIP3    H2 1849   6.600   2.904   0.840
  636TIP3   OH2 1850   7.094   2.953   0.889
  636TIP3    H1 1851   7.188   2.941   0.898
  636TIP3    H2 1852   7.069   2.896   0.816
  637TIP3   OH2 1853   6.745   2.400   1.043
  637TIP3    H1 1854   6.762   2.306   1.053
  637TIP3    H2 1855   6.660   2.405   1.000
  638TIP3   OH2 1856   7.367   2.486   0.814
  638TIP3    H1 1857   7.318   2.506   0.735
  638TIP3    H2 1858   7.385   2.392   0.808
  639TIP3   OH2 1859   6.873   2.130   1.027
  639TIP3    H1 1860   6.954   2.085   1.003
  639TIP3    H2 1861   6.891   2.166   1.114
  640TIP3   OH2 1862   7.211   2.066   0.688
  640TIP3    H1 1863   7.121   2.095   0.699
  640TIP3    H2 1864   7.205   1.992   0.627
  641TIP3   OH2 1865   7.166   1.942   1.053
  641TIP3    H1 1866   7.110   1.874   1.090
  641TIP3    H2 1867   7.194   1.907   0.968
  642TIP3   OH2 1868   7.031   1.714   1.120
  642TIP3    H1 1869   7.062   1.660   1.048
  642TIP3    H2 1870   7.073   1.677   1.198
  643TIP3   OH2 1871   6.354   2.659   0.037
  643TIP3    H1 1872   6.347   2.575   0.081
  643TIP3    H2 1873   6.423   2.706   0.085
  644TIP3   OH2 1874   6.568   2.064   0.412
  644TIP3    H1 1875   6.568   2.005   0.337
  644TIP3    H2 1876   6.661   2.077   0.432
  645TIP3   OH2 1877   6.770   1.749   1.061
  645TIP3    H1 1878   6.864   1.747   1.076
  645TIP3    H2 1879   6.736   1.670   1.102
  646TIP3   OH2 1880   6.781   2.728   0.863
  646TIP3    H1 1881   6.690   2.702   0.845
  646TIP3    H2 1882   6.793   2.712   0.957
  647TIP3   OH2 1883   6.951   2.771   0.417
  647TIP3    H1 1884   6.900   2.837   0.370
  647TIP3    H2 1885   7.041   2.782   0.385
  648TIP3   OH2 1886   7.406   3.004   0.544
  648TIP3    H1 1887   7.450   3.007   0.629
  648TIP3    H2 1888   7.465   3.050   0.484
  649TIP3   OH2 1889   7.575   3.139   0.335
  649TIP3    H1 1890   7.611   3.113   0.250
  649TIP3    H2 1891   7.587   3.234   0.338
  650TIP3   OH2 1892   6.630   3.011   0.453
  650TIP3    H1 1893   6.546   3.045   0.421
  650TIP3    H2 1894   6.647   3.062   0.532
  651TIP3   OH2 1895   6.848   2.997   0.286
  651TIP3    H1 1896   6.776   2.998   0.350
  651TIP3    H2 1897   6.820   3.060   0.220
  652TIP3   OH2 1898   6.537   2.795   0.199
  652TIP3    H1 1899   6.572   2.772   0.285
  652TIP3    H2 1900   6.610   2.780   0.139
  653TIP3   OH2 1901   6.754   2.697   0.071
  653TIP3    H1 1902   6.764   2.613   0.115
  653TIP3    H2 1903   6.830   2.703   0.013
  654TIP3   OH2 1904   0.879   2.672   2.052
  654TIP3    H1 1905   0.807   2.713   2.004
  654TIP3    H2 1906   0.908   2.739   2.114
  655TIP3   OH2 1907   0.352   3.490   1.646
  655TIP3    H1 1908   0.292   3.417   1.659
  655TIP3    H2 1909   0.333   3.522   1.558
  656TIP3   OH2 1910   0.512   3.402   1.983
  656TIP3    H1 1911   0.510   3.324   1.927
  656TIP3    H2 1912   0.504   3.475   1.923
  657TIP3   OH2 1913   0.723   3.026   1.824
  657TIP3    H1 1914   0.648   3.083   1.834
  657TIP3    H2 1915   0.758   3.046   1.737
  658TIP3   OH2 1916   0.439   2.907   2.148
  658TIP3    H1 1917   0.410   2.980   2.203
  658TIP3    H2 1918   0.363   2.887   2.093
  659TIP3   OH2 1919   0.749   3.744   2.026
  659TIP3    H1 1920   0.752   3.649   2.035
  659TIP3    H2 1921   0.667   3.770   2.069
  660TIP3   OH2 1922   8.368   3.534   2.186
  660TIP3    H1 1923   8.366   3.629   2.199
  660TIP3    H2 1924   8.276   3.508   2.181
  661TIP3   OH2 1925   0.654   2.864   2.307
  661TIP3    H1 1926   0.575   2.882   2.257
  661TIP3    H2 1927   0.660   2.768   2.307
  662TIP3   OH2 1928   0.105   2.867   2.521
  662TIP3    H1 1929   0.139   2.780   2.544
  662TIP3    H2 1930   0.183   2.923   2.519
  663TIP3   OH2 1931   0.447   4.092   2.122
  663TIP3    H1 1932   0.441   4.116   2.029
  663TIP3    H2 1933   0.524   4.137   2.154
  664TIP3   OH2 1934   0.495   3.170   1.826
  664TIP3    H1 1935   0.497   3.199   1.735
  664TIP3    H2 1936   0.448   3.087   1.824
  665TIP3   OH2 1937   8.519   3.304   2.194
  665TIP3    H1 1938   8.514   3.267   2.282
  665TIP3    H2 1939   8.463   3.382   2.197
  666TIP3   OH2 1940   0.127   3.550   2.067
  666TIP3    H1 1941   0.037   3.545   2.099
  666TIP3    H2 1942   0.176   3.592   2.137
  667TIP3   OH2 1943   0.759   3.461   2.073
  667TIP3    H1 1944   0.665   3.449   2.062
  667TIP3    H2 1945   0.797   3.430   1.991
  668TIP3   OH2 1946   0.270   3.781   1.962
  668TIP3    H1 1947   0.197   3.720   1.954
  668TIP3    H2 1948   0.253   3.848   1.895
  669TIP3   OH2 1949   0.658   2.597   2.230
  669TIP3    H1 1950   0.570   2.559   2.219
  669TIP3    H2 1951   0.692   2.602   2.141
  670TIP3   OH2 1952   0.292   3.794   1.574
  670TIP3    H1 1953   0.248   3.802   1.489
  670TIP3    H2 1954   0.386   3.799   1.552
  671TIP3   OH2 1955   8.047   3.737   2.589
  671TIP3    H1 1956   8.138   3.744   2.616
  671TIP3    H2 1957   8.051   3.730   2.494
  672TIP3   OH2 1958   0.197   3.659   2.313
  672TIP3    H1 1959   0.191   3.588   2.377
  672TIP3    H2 1960   0.274   3.709   2.339
  673TIP3   OH2 1961   8.322   3.286   2.519
  673TIP3    H1 1962   8.290   3.265   2.431
  673TIP3    H2 1963   8.375   3.210   2.543
  674TIP3   OH2 1964   0.293   3.268   2.093
  674TIP3    H1 1965   0.353   3.337   2.064
  674TIP3    H2 1966   0.210   3.313   2.111
  675TIP3   OH2 1967   0.387   2.855   2.542
  675TIP3    H1 1968   0.455   2.793   2.567
  675TIP3    H2 1969   0.434   2.938   2.531
  676TIP3   OH2 1970   0.430   3.156   2.296
  676TIP3    H1 1971   0.375   3.187   2.224
  676TIP3    H2 1972   0.520   3.167   2.264
  677TIP3   OH2 1973   0.541   2.547   2.596
  677TIP3    H1 1974   0.539   2.452   2.610
  677TIP3    H2 1975   0.518   2.584   2.681
  678TIP3   OH2 1976   0.555   3.845   1.517
  678TIP3    H1 1977   0.577   3.879   1.604
  678TIP3    H2 1978   0.610   3.896   1.457
  679TIP3   OH2 1979   0.588   3.873   1.797
  679TIP3    H1 1980   0.544   3.788   1.799
  679TIP3    H2 1981   0.668   3.859   1.848
  680TIP3   OH2 1982   0.704   3.357   1.617
  680TIP3    H1 1983   0.729   3.272   1.581
  680TIP3    H2 1984   0.677   3.408   1.541
  681TIP3   OH2 1985   0.471   3.633   1.839
  681TIP3    H1 1986   0.395   3.673   1.882
  681TIP3    H2 1987   0.434   3.588   1.763
  682TIP3   OH2 1988   0.681   3.207   2.195
  682TIP3    H1 1989   0.744   3.135   2.191
  682TIP3    H2 1990   0.707   3.267   2.126
  683TIP3   OH2 1991   0.858   3.004   2.206
  683TIP3    H1 1992   0.784   2.957   2.243
  683TIP3    H2 1993   0.934   2.949   2.226
  684TIP3   OH2 1994   0.647   2.803   1.965
  684TIP3    H1 1995   0.570   2.824   2.018
  684TIP3    H2 1996   0.665   2.883   1.916
  685TIP3   OH2 1997   1.064   2.409   2.513
  685TIP3    H1 1998   1.125   2.347   2.471
  685TIP3    H2 1999   1.028   2.460   2.440
  686TIP3   OH2 2000   0.925   2.543   2.322
  686TIP3    H1 2001   0.843   2.581   2.353
  686TIP3    H2 2002   0.907   2.520   2.231
  687TIP3   OH2 2003   8.361   3.799   2.239
  687TIP3    H1 2004   8.398   3.801   2.327
  687TIP3    H2 2005   8.425   3.848   2.186
  688TIP3   OH2 2006   0.045   3.939   2.098
  688TIP3    H1 2007   0.117   3.892   2.056
  688TIP3    H2 2008   0.089   4.001   2.157
  689TIP3   OH2 2009   8.518   3.766   1.821
  689TIP3    H1 2010   8.427   3.785   1.844
  689TIP3    H2 2011   8.554   3.851   1.796
  690TIP3   OH2 2012   0.220   3.967   1.765
  690TIP3    H1 2013   0.206   4.049   1.719
  690TIP3    H2 2014   0.245   3.905   1.696
  691TIP3   OH2 2015   0.587   2.278   2.644
  691TIP3    H1 2016   0.599   2.245   2.733
  691TIP3    H2 2017   0.665   2.249   2.597
  692TIP3   OH2 2018   0.494   3.822   2.127
  692TIP3    H1 2019   0.422   3.793   2.071
  692TIP3    H2 2020   0.487   3.917   2.128
  693TIP3   OH2 2021   1.758   3.205   0.872
  693TIP3    H1 2022   1.749   3.287   0.921
  693TIP3    H2 2023   1.699   3.144   0.915
  694TIP3   OH2 2024   1.769   3.185   1.273
  694TIP3    H1 2025   1.807   3.176   1.361
  694TIP3    H2 2026   1.728   3.101   1.257
  695TIP3   OH2 2027   1.077   3.089   1.639
  695TIP3    H1 2028   1.097   3.016   1.697
  695TIP3    H2 2029   1.157   3.141   1.637
  696TIP3   OH2 2030   2.001   3.500   0.968
  696TIP3    H1 2031   2.012   3.429   1.031
  696TIP3    H2 2032   2.040   3.576   1.011
  697TIP3   OH2 2033   1.045   3.489   1.350
  697TIP3    H1 2034   1.038   3.395   1.362
  697TIP3    H2 2035   1.139   3.506   1.348
  698TIP3   OH2 2036   1.667   3.961   0.969
  698TIP3    H1 2037   1.709   3.883   0.932
  698TIP3    H2 2038   1.660   3.941   1.063
  699TIP3   OH2 2039   1.576   3.420   1.316
  699TIP3    H1 2040   1.608   3.338   1.278
  699TIP3    H2 2041   1.655   3.467   1.342
  700TIP3   OH2 2042   2.587   2.741   1.317
  700TIP3    H1 2043   2.614   2.821   1.362
  700TIP3    H2 2044   2.607   2.756   1.225
  701TIP3   OH2 2045   1.987   2.919   1.347
  701TIP3    H1 2046   2.025   2.835   1.371
  701TIP3    H2 2047   1.952   2.905   1.259
  702TIP3   OH2 2048   2.012   2.678   0.952
  702TIP3    H1 2049   2.088   2.660   1.007
  702TIP3    H2 2050   2.049   2.698   0.866
  703TIP3   OH2 2051   1.409   2.976   1.229
  703TIP3    H1 2052   1.501   2.957   1.250
  703TIP3    H2 2053   1.394   2.931   1.146
  704TIP3   OH2 2054   2.657   2.950   1.487
  704TIP3    H1 2055   2.574   2.993   1.467
  704TIP3    H2 2056   2.677   2.976   1.577
  705TIP3   OH2 2057   1.312   2.559   1.754
  705TIP3    H1 2058   1.246   2.602   1.698
  705TIP3    H2 2059   1.275   2.563   1.842
  706TIP3   OH2 2060   1.426   3.344   1.541
  706TIP3    H1 2061   1.364   3.406   1.580
  706TIP3    H2 2062   1.469   3.393   1.471
  707TIP3   OH2 2063   2.226   2.670   1.121
  707TIP3    H1 2064   2.200   2.633   1.206
  707TIP3    H2 2065   2.276   2.748   1.144
  708TIP3   OH2 2066   1.156   2.693   1.578
  708TIP3    H1 2067   1.222   2.762   1.579
  708TIP3    H2 2068   1.179   2.639   1.502
  709TIP3   OH2 2069   1.250   3.537   1.639
  709TIP3    H1 2070   1.230   3.623   1.603
  709TIP3    H2 2071   1.176   3.517   1.697
  710TIP3   OH2 2072   2.078   3.740   1.112
  710TIP3    H1 2073   1.993   3.731   1.154
  710TIP3    H2 2074   2.077   3.827   1.072
  711TIP3   OH2 2075   2.379   2.635   1.480
  711TIP3    H1 2076   2.291   2.664   1.454
  711TIP3    H2 2077   2.437   2.668   1.412
  712TIP3   OH2 2078   1.693   2.292   1.456
  712TIP3    H1 2079   1.657   2.204   1.465
  712TIP3    H2 2080   1.617   2.350   1.466
  713TIP3   OH2 2081   1.796   3.775   0.793
  713TIP3    H1 2082   1.886   3.741   0.793
  713TIP3    H2 2083   1.804   3.861   0.752
  714TIP3   OH2 2084   1.861   3.505   0.728
  714TIP3    H1 2085   1.901   3.462   0.652
  714TIP3    H2 2086   1.924   3.493   0.799
  715TIP3   OH2 2087   2.311   3.651   1.460
  715TIP3    H1 2088   2.299   3.574   1.405
  715TIP3    H2 2089   2.294   3.725   1.402
  716TIP3   OH2 2090   2.505   3.291   1.306
  716TIP3    H1 2091   2.424   3.340   1.315
  716TIP3    H2 2092   2.537   3.312   1.219
  717TIP3   OH2 2093   1.956   3.135   0.687
  717TIP3    H1 2094   1.893   3.149   0.757
  717TIP3    H2 2095   2.034   3.101   0.732
  718TIP3   OH2 2096   2.183   3.167   1.607
  718TIP3    H1 2097   2.185   3.245   1.661
  718TIP3    H2 2098   2.099   3.171   1.562
  719TIP3   OH2 2099   1.314   3.531   1.255
  719TIP3    H1 2100   1.298   3.502   1.165
  719TIP3    H2 2101   1.401   3.497   1.276
  720TIP3   OH2 2102   1.313   3.102   1.459
  720TIP3    H1 2103   1.348   3.071   1.376
  720TIP3    H2 2104   1.361   3.183   1.477
  721TIP3   OH2 2105   1.839   3.731   1.236
  721TIP3    H1 2106   1.829   3.812   1.285
  721TIP3    H2 2107   1.828   3.662   1.301
  722TIP3   OH2 2108   1.455   3.653   1.784
  722TIP3    H1 2109   1.400   3.714   1.832
  722TIP3    H2 2110   1.393   3.599   1.735
  723TIP3   OH2 2111   1.212   3.214   1.889
  723TIP3    H1 2112   1.217   3.298   1.933
  723TIP3    H2 2113   1.122   3.185   1.902
  724TIP3   OH2 2114   1.249   3.818   1.873
  724TIP3    H1 2115   1.216   3.819   1.783
  724TIP3    H2 2116   1.172   3.798   1.927
  725TIP3   OH2 2117   2.098   3.605   0.108
  725TIP3    H1 2118   2.114   3.698   0.093
  725TIP3    H2 2119   2.185   3.565   0.103
  726TIP3   OH2 2120   0.845   3.357   1.846
  726TIP3    H1 2121   0.793   3.351   1.766
  726TIP3    H2 2122   0.879   3.268   1.859
  727TIP3   OH2 2123   0.713   3.576   1.426
  727TIP3    H1 2124   0.807   3.569   1.442
  727TIP3    H2 2125   0.683   3.642   1.489
  728TIP3   OH2 2126   2.547   3.996   1.511
  728TIP3    H1 2127   2.549   3.901   1.525
  728TIP3    H2 2128   2.467   4.024   1.554
  729TIP3   OH2 2129   1.651   3.784   1.643
  729TIP3    H1 2130   1.652   3.874   1.675
  729TIP3    H2 2131   1.584   3.741   1.695
  730TIP3   OH2 2132   1.363   3.903   0.609
  730TIP3    H1 2133   1.364   3.885   0.515
  730TIP3    H2 2134   1.397   3.993   0.615
  731TIP3   OH2 2135   0.849   3.768   0.976
  731TIP3    H1 2136   0.889   3.746   1.060
  731TIP3    H2 2137   0.804   3.687   0.949
  732TIP3   OH2 2138   1.617   3.799   0.258
  732TIP3    H1 2139   1.681   3.752   0.205
  732TIP3    H2 2140   1.668   3.867   0.302
  733TIP3   OH2 2141   2.441   3.125   1.782
  733TIP3    H1 2142   2.355   3.138   1.742
  733TIP3    H2 2143   2.456   3.031   1.777
  734TIP3   OH2 2144   1.041   3.541   1.810
  734TIP3    H1 2145   1.094   3.530   1.889
  734TIP3    H2 2146   0.969   3.479   1.821
  735TIP3   OH2 2147   1.969   2.472   1.792
  735TIP3    H1 2148   2.036   2.448   1.856
  735TIP3    H2 2149   1.886   2.455   1.836
  736TIP3   OH2 2150   2.207   2.905   1.710
  736TIP3    H1 2151   2.158   2.898   1.792
  736TIP3    H2 2152   2.181   2.990   1.674
  737TIP3   OH2 2153   1.365   2.880   1.609
  737TIP3    H1 2154   1.321   2.896   1.693
  737TIP3    H2 2155   1.348   2.959   1.558
  738TIP3   OH2 2156   1.762   2.895   0.844
  738TIP3    H1 2157   1.672   2.875   0.821
  738TIP3    H2 2158   1.811   2.881   0.762
  739TIP3   OH2 2159   1.916   3.118   1.935
  739TIP3    H1 2160   1.891   3.050   1.997
  739TIP3    H2 2161   2.006   3.141   1.960
  740TIP3   OH2 2162   1.895   2.878   1.088
  740TIP3    H1 2163   1.843   2.910   1.014
  740TIP3    H2 2164   1.935   2.797   1.056
  741TIP3   OH2 2165   1.187   2.904   1.822
  741TIP3    H1 2166   1.219   2.959   1.893
  741TIP3    H2 2167   1.169   2.820   1.862
  742TIP3   OH2 2168   1.905   3.117   1.510
  742TIP3    H1 2169   1.940   3.050   1.452
  742TIP3    H2 2170   1.877   3.070   1.588
  743TIP3   OH2 2171   2.066   2.657   1.389
  743TIP3    H1 2172   2.038   2.671   1.479
  743TIP3    H2 2173   2.004   2.592   1.354
  744TIP3   OH2 2174   2.243   4.347   1.609
  744TIP3    H1 2175   2.239   4.370   1.516
  744TIP3    H2 2176   2.320   4.393   1.642
  745TIP3   OH2 2177   1.198   3.461   2.034
  745TIP3    H1 2178   1.279   3.486   2.076
  745TIP3    H2 2179   1.134   3.456   2.105
  746TIP3   OH2 2180   1.670   2.912   1.288
  746TIP3    H1 2181   1.740   2.871   1.238
  746TIP3    H2 2182   1.671   2.867   1.372
  747TIP3   OH2 2183   1.636   2.814   1.573
  747TIP3    H1 2184   1.548   2.848   1.590
  747TIP3    H2 2185   1.693   2.871   1.624
  748TIP3   OH2 2186   2.272   3.434   1.293
  748TIP3    H1 2187   2.299   3.483   1.216
  748TIP3    H2 2188   2.189   3.393   1.269
  749TIP3   OH2 2189   1.772   3.516   1.667
  749TIP3    H1 2190   1.804   3.492   1.754
  749TIP3    H2 2191   1.733   3.603   1.678
  750TIP3   OH2 2192   1.054   3.208   1.343
  750TIP3    H1 2193   1.108   3.179   1.270
  750TIP3    H2 2194   1.091   3.165   1.420
  751TIP3   OH2 2195   0.952   3.130   1.962
  751TIP3    H1 2196   0.969   3.118   2.055
  751TIP3    H2 2197   0.885   3.065   1.941
  752TIP3   OH2 2198   1.678   3.258   1.968
  752TIP3    H1 2199   1.617   3.196   1.928
  752TIP3    H2 2200   1.765   3.225   1.946
  753TIP3   OH2 2201   1.929   3.777   1.562
  753TIP3    H1 2202   1.834   3.774   1.574
  753TIP3    H2 2203   1.961   3.826   1.638
  754TIP3   OH2 2204   2.342   2.846   0.455
  754TIP3    H1 2205   2.275   2.789   0.416
  754TIP3    H2 2206   2.327   2.931   0.414
  755TIP3   OH2 2207   2.560   3.706   1.549
  755TIP3    H1 2208   2.464   3.701   1.545
  755TIP3    H2 2209   2.588   3.677   1.462
  756TIP3   OH2 2210   2.045   3.656   0.377
  756TIP3    H1 2211   2.016   3.576   0.421
  756TIP3    H2 2212   2.055   3.631   0.285
  757TIP3   OH2 2213   2.036   3.298   1.200
  757TIP3    H1 2214   1.948   3.273   1.226
  757TIP3    H2 2215   2.075   3.217   1.165
  758TIP3   OH2 2216   1.195   3.538   0.975
  758TIP3    H1 2217   1.173   3.625   0.940
  758TIP3    H2 2218   1.110   3.497   0.991
  759TIP3   OH2 2219   1.373   3.328   0.959
  759TIP3    H1 2220   1.321   3.408   0.956
  759TIP3    H2 2221   1.307   3.258   0.966
  760TIP3   OH2 2222   1.440   3.866   1.438
  760TIP3    H1 2223   1.478   3.939   1.389
  760TIP3    H2 2224   1.513   3.831   1.489
  761TIP3   OH2 2225   1.101   3.768   0.860
  761TIP3    H1 2226   1.009   3.781   0.882
  761TIP3    H2 2227   1.130   3.853   0.827
  762TIP3   OH2 2228   1.825   3.499   1.401
  762TIP3    H1 2229   1.808   3.504   1.495
  762TIP3    H2 2230   1.909   3.453   1.394
  763TIP3   OH2 2231   1.815   3.421   0.292
  763TIP3    H1 2232   1.869   3.387   0.363
  763TIP3    H2 2233   1.734   3.369   0.297
  764TIP3   OH2 2234   2.071   4.032   1.446
  764TIP3    H1 2235   1.994   3.975   1.443
  764TIP3    H2 2236   2.056   4.096   1.376
  765TIP3   OH2 2237   2.134   3.880   0.095
  765TIP3    H1 2238   2.189   3.953   0.065
  765TIP3    H2 2239   2.058   3.922   0.133
  766TIP3   OH2 2240   1.153   2.642   1.972
  766TIP3    H1 2241   1.058   2.642   1.984
  766TIP3    H2 2242   1.186   2.592   2.047
  767TIP3   OH2 2243   1.973   3.355   0.524
  767TIP3    H1 2244   1.951   3.274   0.570
  767TIP3    H2 2245   2.062   3.341   0.492
  768TIP3   OH2 2246   0.884   3.729   1.607
  768TIP3    H1 2247   0.934   3.661   1.652
  768TIP3    H2 2248   0.903   3.809   1.656
  769TIP3   OH2 2249   2.000   2.706   1.648
  769TIP3    H1 2250   2.074   2.749   1.693
  769TIP3    H2 2251   1.983   2.628   1.701
  770TIP3   OH2 2252   1.381   3.579   0.498
  770TIP3    H1 2253   1.333   3.611   0.574
  770TIP3    H2 2254   1.394   3.656   0.443
  771TIP3   OH2 2255   1.838   2.959   1.721
  771TIP3    H1 2256   1.857   3.013   1.797
  771TIP3    H2 2257   1.888   2.878   1.735
  772TIP3   OH2 2258   2.471   2.856   1.702
  772TIP3    H1 2259   2.376   2.859   1.715
  772TIP3    H2 2260   2.482   2.816   1.616
  773TIP3   OH2 2261   2.124   3.052   1.094
  773TIP3    H1 2262   2.048   2.995   1.106
  773TIP3    H2 2263   2.195   3.007   1.139
  774TIP3   OH2 2264   2.093   4.010   1.034
  774TIP3    H1 2265   2.048   4.056   0.964
  774TIP3    H2 2266   2.186   4.027   1.018
  775TIP3   OH2 2267   0.870   4.040   2.021
  775TIP3    H1 2268   0.953   4.046   2.068
  775TIP3    H2 2269   0.851   3.946   2.018
  776TIP3   OH2 2270   1.343   3.999   2.063
  776TIP3    H1 2271   1.436   3.985   2.077
  776TIP3    H2 2272   1.320   3.940   1.991
  777TIP3   OH2 2273   1.990   3.906   1.796
  777TIP3    H1 2274   1.978   3.839   1.863
  777TIP3    H2 2275   2.062   3.959   1.827
  778TIP3   OH2 2276   1.777   3.610   0.100
  778TIP3    H1 2277   1.793   3.556   0.178
  778TIP3    H2 2278   1.865   3.628   0.065
  779TIP3   OH2 2279   0.993   3.441   2.223
  779TIP3    H1 2280   1.016   3.348   2.225
  779TIP3    H2 2281   0.912   3.444   2.173
  780TIP3   OH2 2282   1.602   3.531   1.994
  780TIP3    H1 2283   1.562   3.549   1.909
  780TIP3    H2 2284   1.636   3.442   1.986
  781TIP3   OH2 2285   2.093   3.542   1.596
  781TIP3    H1 2286   2.170   3.585   1.558
  781TIP3    H2 2287   2.023   3.607   1.588
  782TIP3   OH2 2288   1.120   3.182   2.204
  782TIP3    H1 2289   1.195   3.129   2.176
  782TIP3    H2 2290   1.143   3.213   2.292
  783TIP3   OH2 2291   1.449   3.063   1.861
  783TIP3    H1 2292   1.374   3.122   1.866
  783TIP3    H2 2293   1.499   3.094   1.786
  784TIP3   OH2 2294   1.965   3.463   1.992
  784TIP3    H1 2295   2.050   3.441   1.956
  784TIP3    H2 2296   1.955   3.406   2.068
  785TIP3   OH2 2297   1.573   2.852   1.987
  785TIP3    H1 2298   1.573   2.773   1.933
  785TIP3    H2 2299   1.531   2.918   1.933
  786TIP3   OH2 2300   1.573   2.638   1.793
  786TIP3    H1 2301   1.600   2.680   1.711
  786TIP3    H2 2302   1.482   2.611   1.778
  787TIP3   OH2 2303   1.598   3.169   1.664
  787TIP3    H1 2304   1.686   3.183   1.628
  787TIP3    H2 2305   1.545   3.237   1.624
  788TIP3   OH2 2306   2.183   3.136   2.046
  788TIP3    H1 2307   2.231   3.057   2.072
  788TIP3    H2 2308   2.250   3.199   2.023
  789TIP3   OH2 2309   2.227   3.394   1.780
  789TIP3    H1 2310   2.166   3.446   1.727
  789TIP3    H2 2311   2.313   3.414   1.744
  790TIP3   OH2 2312   1.444   2.962   2.212
  790TIP3    H1 2313   1.381   2.893   2.233
  790TIP3    H2 2314   1.484   2.934   2.130
  791TIP3   OH2 2315   1.705   2.404   1.864
  791TIP3    H1 2316   1.661   2.487   1.845
  791TIP3    H2 2317   1.640   2.337   1.843
  792TIP3   OH2 2318   1.834   2.904   2.082
  792TIP3    H1 2319   1.830   2.897   2.177
  792TIP3    H2 2320   1.746   2.880   2.052
  793TIP3   OH2 2321   2.070   2.845   1.935
  793TIP3    H1 2322   1.996   2.855   1.995
  793TIP3    H2 2323   2.144   2.822   1.991
  794TIP3   OH2 2324   2.307   2.794   2.083
  794TIP3    H1 2325   2.315   2.701   2.102
  794TIP3    H2 2326   2.296   2.836   2.169
  795TIP3   OH2 2327   1.292   2.742   2.279
  795TIP3    H1 2328   1.292   2.651   2.247
  795TIP3    H2 2329   1.327   2.736   2.368
  796TIP3   OH2 2330   1.799   2.409   2.123
  796TIP3    H1 2331   1.866   2.342   2.119
  796TIP3    H2 2332   1.757   2.407   2.037
  797TIP3   OH2 2333   1.863   2.625   2.284
  797TIP3    H1 2334   1.844   2.555   2.221
  797TIP3    H2 2335   1.789   2.685   2.277
  798TIP3   OH2 2336   0.622   3.730   1.219
  798TIP3    H1 2337   0.648   3.664   1.284
  798TIP3    H2 2338   0.667   3.810   1.246
  799TIP3   OH2 2339   2.349   4.097   1.001
  799TIP3    H1 2340   2.372   4.128   1.089
  799TIP3    H2 2341   2.409   4.143   0.942
  800TIP3   OH2 2342   2.377   4.117   1.283
  800TIP3    H1 2343   2.331   4.033   1.277
  800TIP3    H2 2344   2.451   4.099   1.341
  801TIP3   OH2 2345   2.421   3.799   1.855
  801TIP3    H1 2346   2.350   3.804   1.919
  801TIP3    H2 2347   2.464   3.884   1.859
  802TIP3   OH2 2348   2.244   3.305   0.468
  802TIP3    H1 2349   2.308   3.370   0.440
  802TIP3    H2 2350   2.283   3.267   0.547
  803TIP3   OH2 2351   2.365   3.177   0.679
  803TIP3    H1 2352   2.301   3.135   0.736
  803TIP3    H2 2353   2.430   3.213   0.740
  804TIP3   OH2 2354   2.420   3.569   1.104
  804TIP3    H1 2355   2.475   3.504   1.061
  804TIP3    H2 2356   2.420   3.644   1.044
  805TIP3   OH2 2357   2.248   3.869   1.302
  805TIP3    H1 2358   2.181   3.912   1.355
  805TIP3    H2 2359   2.200   3.824   1.233
  806TIP3   OH2 2360   2.281   3.079   0.312
  806TIP3    H1 2361   2.219   3.095   0.240
  806TIP3    H2 2362   2.267   3.152   0.372
  807TIP3   OH2 2363   2.179   3.034   0.824
  807TIP3    H1 2364   2.175   2.939   0.810
  807TIP3    H2 2365   2.166   3.044   0.919
  808TIP3   OH2 2366   0.816   3.106   1.574
  808TIP3    H1 2367   0.815   3.064   1.489
  808TIP3    H2 2368   0.908   3.107   1.600
  809TIP3   OH2 2369   2.473   3.460   1.678
  809TIP3    H1 2370   2.541   3.393   1.669
  809TIP3    H2 2371   2.499   3.530   1.619
  810TIP3   OH2 2372   2.655   3.259   1.689
  810TIP3    H1 2373   2.579   3.216   1.728
  810TIP3    H2 2374   2.728   3.199   1.705
  811TIP3   OH2 2375   2.176   2.769   0.735
  811TIP3    H1 2376   2.217   2.690   0.770
  811TIP3    H2 2377   2.229   2.791   0.658
  812TIP3   OH2 2378   2.339   2.924   1.213
  812TIP3    H1 2379   2.421   2.946   1.169
  812TIP3    H2 2380   2.348   2.958   1.302
  813TIP3   OH2 2381   2.406   3.069   1.443
  813TIP3    H1 2382   2.332   3.099   1.495
  813TIP3    H2 2383   2.439   3.149   1.400
  814TIP3   OH2 2384   1.028   2.799   2.257
  814TIP3    H1 2385   1.123   2.794   2.256
  814TIP3    H2 2386   1.001   2.718   2.301
  815TIP3   OH2 2387   2.861   2.662   1.998
  815TIP3    H1 2388   2.919   2.597   1.957
  815TIP3    H2 2389   2.829   2.715   1.925
  816TIP3   OH2 2390   2.296   2.544   0.800
  816TIP3    H1 2391   2.330   2.496   0.875
  816TIP3    H2 2392   2.265   2.476   0.740
  817TIP3   OH2 2393   2.725   2.798   1.805
  817TIP3    H1 2394   2.645   2.842   1.833
  817TIP3    H2 2395   2.696   2.727   1.748
  818TIP3   OH2 2396   1.959   3.943   0.677
  818TIP3    H1 2397   1.971   3.946   0.582
  818TIP3    H2 2398   1.983   4.031   0.707
  819TIP3   OH2 2399   1.030   3.772   2.038
  819TIP3    H1 2400   0.938   3.748   2.026
  819TIP3    H2 2401   1.047   3.756   2.131
  820TIP3   OH2 2402   1.212   3.807   1.584
  820TIP3    H1 2403   1.162   3.881   1.550
  820TIP3    H2 2404   1.298   3.816   1.542
  821TIP3   OH2 2405   1.654   4.049   1.725
  821TIP3    H1 2406   1.692   4.045   1.813
  821TIP3    H2 2407   1.718   4.099   1.674
  822TIP3   OH2 2408   1.836   4.202   1.586
  822TIP3    H1 2409   1.905   4.148   1.547
  822TIP3    H2 2410   1.881   4.259   1.647
  823TIP3   OH2 2411   2.627   2.560   1.683
  823TIP3    H1 2412   2.537   2.557   1.650
  823TIP3    H2 2413   2.659   2.470   1.674
  824TIP3   OH2 2414   0.884   4.059   1.618
  824TIP3    H1 2415   0.796   4.087   1.593
  824TIP3    H2 2416   0.904   4.109   1.697
  825TIP3   OH2 2417   1.119   4.040   1.471
  825TIP3    H1 2418   1.035   4.051   1.516
  825TIP3    H2 2419   1.103   4.072   1.382
  826TIP3   OH2 2420   1.548   4.069   1.266
  826TIP3    H1 2421   1.478   4.085   1.203
  826TIP3    H2 2422   1.561   4.153   1.310
  827TIP3   OH2 2423   1.816   4.004   1.312
  827TIP3    H1 2424   1.723   4.023   1.301
  827TIP3    H2 2425   1.861   4.080   1.276
  828TIP3   OH2 2426   2.022   4.197   1.230
  828TIP3    H1 2427   2.008   4.282   1.187
  828TIP3    H2 2428   2.047   4.138   1.158
  829TIP3   OH2 2429   0.813   3.869   1.364
  829TIP3    H1 2430   0.834   3.843   1.453
  829TIP3    H2 2431   0.876   3.820   1.310
  830TIP3   OH2 2432   0.989   3.723   1.215
  830TIP3    H1 2433   1.005   3.641   1.261
  830TIP3    H2 2434   1.076   3.762   1.206
  831TIP3   OH2 2435   1.259   3.817   1.223
  831TIP3    H1 2436   1.285   3.726   1.208
  831TIP3    H2 2437   1.304   3.842   1.303
  832TIP3   OH2 2438   1.843   2.480   1.311
  832TIP3    H1 2439   1.795   2.421   1.369
  832TIP3    H2 2440   1.878   2.424   1.242
  833TIP3   OH2 2441   2.371   2.339   1.205
  833TIP3    H1 2442   2.410   2.398   1.142
  833TIP3    H2 2443   2.281   2.370   1.215
  834TIP3   OH2 2444   2.476   2.461   0.989
  834TIP3    H1 2445   2.541   2.407   0.944
  834TIP3    H2 2446   2.499   2.551   0.966
  835TIP3   OH2 2447   2.103   2.370   1.225
  835TIP3    H1 2448   2.058   2.380   1.141
  835TIP3    H2 2449   2.072   2.286   1.259
  836TIP3   OH2 2450   1.364   3.813   0.347
  836TIP3    H1 2451   1.452   3.816   0.310
  836TIP3    H2 2452   1.308   3.788   0.273
  837TIP3   OH2 2453   2.081   3.930   0.418
  837TIP3    H1 2454   2.071   3.835   0.410
  837TIP3    H2 2455   2.021   3.966   0.353
  838TIP3   OH2 2456   1.285   2.474   2.223
  838TIP3    H1 2457   1.251   2.398   2.272
  838TIP3    H2 2458   1.379   2.472   2.238
  839TIP3   OH2 2459   1.540   2.462   2.329
  839TIP3    H1 2460   1.624   2.441   2.288
  839TIP3    H2 2461   1.527   2.392   2.394
  840TIP3   OH2 2462   2.366   2.523   2.118
  840TIP3    H1 2463   2.381   2.496   2.208
  840TIP3    H2 2464   2.452   2.521   2.077
  841TIP3   OH2 2465   2.300   4.078   1.606
  841TIP3    H1 2466   2.223   4.044   1.561
  841TIP3    H2 2467   2.283   4.171   1.616
  842TIP3   OH2 2468   3.570   3.454   0.370
  842TIP3    H1 2469   3.541   3.543   0.351
  842TIP3    H2 2470   3.495   3.399   0.345
  843TIP3   OH2 2471   3.569   3.447   0.762
  843TIP3    H1 2472   3.604   3.425   0.848
  843TIP3    H2 2473   3.527   3.367   0.732
  844TIP3   OH2 2474   2.867   3.342   1.124
  844TIP3    H1 2475   2.894   3.274   1.186
  844TIP3    H2 2476   2.942   3.400   1.118
  845TIP3   OH2 2477   3.815   3.754   0.440
  845TIP3    H1 2478   3.796   3.686   0.504
  845TIP3    H2 2479   3.842   3.829   0.493
  846TIP3   OH2 2480   2.842   3.752   0.844
  846TIP3    H1 2481   2.830   3.657   0.846
  846TIP3    H2 2482   2.937   3.764   0.840
  847TIP3   OH2 2483   2.544   2.966   0.629
  847TIP3    H1 2484   2.497   3.048   0.644
  847TIP3    H2 2485   2.476   2.903   0.605
  848TIP3   OH2 2486   2.604   3.243   0.807
  848TIP3    H1 2487   2.651   3.167   0.842
  848TIP3    H2 2488   2.663   3.280   0.742
  849TIP3   OH2 2489   3.463   4.210   0.454
  849TIP3    H1 2490   3.508   4.141   0.406
  849TIP3    H2 2491   3.453   4.176   0.542
  850TIP3   OH2 2492   3.369   3.675   0.804
  850TIP3    H1 2493   3.404   3.597   0.761
  850TIP3    H2 2494   3.447   3.724   0.831
  851TIP3   OH2 2495   4.389   2.997   0.803
  851TIP3    H1 2496   4.412   3.079   0.847
  851TIP3    H2 2497   4.398   3.017   0.709
  852TIP3   OH2 2498   3.782   3.176   0.833
  852TIP3    H1 2499   3.825   3.093   0.857
  852TIP3    H2 2500   3.748   3.160   0.745
  853TIP3   OH2 2501   3.116   2.835   0.799
  853TIP3    H1 2502   3.099   2.908   0.740
  853TIP3    H2 2503   3.072   2.760   0.759
  854TIP3   OH2 2504   3.814   2.927   0.423
  854TIP3    H1 2505   3.879   2.913   0.492
  854TIP3    H2 2506   3.864   2.961   0.349
  855TIP3   OH2 2507   2.753   3.035   0.908
  855TIP3    H1 2508   2.833   3.018   0.957
  855TIP3    H2 2509   2.762   2.982   0.829
  856TIP3   OH2 2510   3.192   3.234   0.704
  856TIP3    H1 2511   3.284   3.212   0.717
  856TIP3    H2 2512   3.152   3.153   0.673
  857TIP3   OH2 2513   4.455   3.210   0.970
  857TIP3    H1 2514   4.371   3.250   0.949
  857TIP3    H2 2515   4.463   3.220   1.065
  858TIP3   OH2 2516   3.112   2.821   1.238
  858TIP3    H1 2517   3.055   2.856   1.168
  858TIP3    H2 2518   3.062   2.836   1.318
  859TIP3   OH2 2519   3.461   3.676   0.240
  859TIP3    H1 2520   3.416   3.654   0.159
  859TIP3    H2 2521   3.418   3.756   0.271
  860TIP3   OH2 2522   3.220   3.597   1.028
  860TIP3    H1 2523   3.160   3.662   1.066
  860TIP3    H2 2524   3.263   3.644   0.957
  861TIP3   OH2 2525   4.018   2.929   0.598
  861TIP3    H1 2526   4.041   2.856   0.656
  861TIP3    H2 2527   4.065   3.004   0.634
  862TIP3   OH2 2528   2.988   2.935   1.019
  862TIP3    H1 2529   3.046   3.007   1.044
  862TIP3    H2 2530   3.034   2.892   0.946
  863TIP3   OH2 2531   3.047   3.793   1.129
  863TIP3    H1 2532   3.026   3.879   1.091
  863TIP3    H2 2533   2.972   3.772   1.184
  864TIP3   OH2 2534   2.441   3.482   0.369
  864TIP3    H1 2535   2.402   3.502   0.284
  864TIP3    H2 2536   2.471   3.567   0.402
  865TIP3   OH2 2537   3.879   3.996   0.603
  865TIP3    H1 2538   3.793   3.985   0.644
  865TIP3    H2 2539   3.875   4.081   0.560
  866TIP3   OH2 2540   4.174   2.905   0.972
  866TIP3    H1 2541   4.085   2.919   0.940
  866TIP3    H2 2542   4.230   2.923   0.897
  867TIP3   OH2 2543   3.465   2.535   0.953
  867TIP3    H1 2544   3.454   2.441   0.969
  867TIP3    H2 2545   3.391   2.575   0.998
  868TIP3   OH2 2546   3.587   4.040   0.272
  868TIP3    H1 2547   3.632   3.957   0.256
  868TIP3    H2 2548   3.648   4.107   0.241
  869TIP3   OH2 2549   3.728   3.821   0.188
  869TIP3    H1 2550   3.674   3.747   0.160
  869TIP3    H2 2551   3.767   3.793   0.270
  870TIP3   OH2 2552   4.107   3.907   0.947
  870TIP3    H1 2553   4.094   3.830   0.891
  870TIP3    H2 2554   4.088   3.981   0.890
  871TIP3   OH2 2555   3.399   3.301   0.206
  871TIP3    H1 2556   3.320   3.352   0.189
  871TIP3    H2 2557   3.444   3.297   0.122
  872TIP3   OH2 2558   6.186   7.083   6.878
  872TIP3    H1 2559   6.255   7.143   6.906
  872TIP3    H2 2560   6.232   7.001   6.857
  873TIP3   OH2 2561   4.302   3.551   0.794
  873TIP3    H1 2562   4.219   3.597   0.802
  873TIP3    H2 2563   4.333   3.571   0.706
  874TIP3   OH2 2564   3.747   3.381   0.179
  874TIP3    H1 2565   3.691   3.407   0.252
  874TIP3    H2 2566   3.830   3.356   0.220
  875TIP3   OH2 2567   3.979   3.424   1.092
  875TIP3    H1 2568   3.978   3.505   1.143
  875TIP3    H2 2569   3.895   3.424   1.046
  876TIP3   OH2 2570   2.981   3.378   0.593
  876TIP3    H1 2571   2.941   3.322   0.527
  876TIP3    H2 2572   3.056   3.328   0.625
  877TIP3   OH2 2573   3.111   3.793   0.741
  877TIP3    H1 2574   3.089   3.755   0.656
  877TIP3    H2 2575   3.198   3.759   0.760
  878TIP3   OH2 2576   3.115   3.354   0.948
  878TIP3    H1 2577   3.148   3.329   0.861
  878TIP3    H2 2578   3.158   3.437   0.968
  879TIP3   OH2 2579   3.643   3.990   0.728
  879TIP3    H1 2580   3.628   4.070   0.779
  879TIP3    H2 2581   3.626   3.919   0.789
  880TIP3   OH2 2582   3.251   3.909   1.274
  880TIP3    H1 2583   3.195   3.971   1.321
  880TIP3    H2 2584   3.190   3.855   1.223
  881TIP3   OH2 2585   6.421   7.251   6.939
  881TIP3    H1 2586   6.476   7.306   6.994
  881TIP3    H2 2587   6.448   7.271   6.849
  882TIP3   OH2 2588   3.006   3.466   1.377
  882TIP3    H1 2589   3.015   3.552   1.418
  882TIP3    H2 2590   2.914   3.442   1.389
  883TIP3   OH2 2591   3.333   3.918   0.283
  883TIP3    H1 2592   3.411   3.973   0.293
  883TIP3    H2 2593   3.269   3.975   0.240
  884TIP3   OH2 2594   3.045   4.075   1.361
  884TIP3    H1 2595   3.013   4.076   1.271
  884TIP3    H2 2596   2.968   4.054   1.414
  885TIP3   OH2 2597   4.104   2.485   0.051
  885TIP3    H1 2598   4.023   2.499   0.100
  885TIP3    H2 2599   4.114   2.563  -0.002
  886TIP3   OH2 2600   2.848   3.224   0.388
  886TIP3    H1 2601   2.778   3.269   0.341
  886TIP3    H2 2602   2.809   3.141   0.415
  887TIP3   OH2 2603   2.626   3.606   1.307
  887TIP3    H1 2604   2.561   3.584   1.240
  887TIP3    H2 2605   2.664   3.522   1.332
  888TIP3   OH2 2606   2.482   3.800   0.943
  888TIP3    H1 2607   2.577   3.796   0.931
  888TIP3    H2 2608   2.467   3.879   0.995
  889TIP3   OH2 2609   4.344   4.253   1.000
  889TIP3    H1 2610   4.345   4.158   1.013
  889TIP3    H2 2611   4.263   4.281   1.042
  890TIP3   OH2 2612   3.449   4.039   1.133
  890TIP3    H1 2613   3.449   4.130   1.162
  890TIP3    H2 2614   3.380   3.997   1.184
  891TIP3   OH2 2615   3.206   4.169   0.082
  891TIP3    H1 2616   3.160   4.149   0.001
  891TIP3    H2 2617   3.175   4.256   0.106
  892TIP3   OH2 2618   2.650   4.014   0.469
  892TIP3    H1 2619   2.697   4.007   0.552
  892TIP3    H2 2620   2.594   3.936   0.467
  893TIP3   OH2 2621   0.594   0.023   6.711
  893TIP3    H1 2622   0.681  -0.012   6.694
  893TIP3    H2 2623   0.598   0.055   6.801
  894TIP3   OH2 2624   3.462   4.115   0.024
  894TIP3    H1 2625   3.373   4.129   0.056
  894TIP3    H2 2626   3.510   4.083   0.100
  895TIP3   OH2 2627   4.235   3.381   1.268
  895TIP3    H1 2628   4.151   3.395   1.223
  895TIP3    H2 2629   4.252   3.288   1.260
  896TIP3   OH2 2630   2.831   3.789   1.294
  896TIP3    H1 2631   2.880   3.776   1.375
  896TIP3    H2 2632   2.757   3.729   1.300
  897TIP3   OH2 2633   3.227   2.615   1.083
  897TIP3    H1 2634   3.142   2.582   1.053
  897TIP3    H2 2635   3.206   2.695   1.130
  898TIP3   OH2 2636   3.764   2.730   1.278
  898TIP3    H1 2637   3.832   2.702   1.339
  898TIP3    H2 2638   3.682   2.710   1.323
  899TIP3   OH2 2639   4.005   3.163   1.199
  899TIP3    H1 2640   3.954   3.157   1.280
  899TIP3    H2 2641   3.977   3.246   1.159
  900TIP3   OH2 2642   6.506   7.312   6.687
  900TIP3    H1 2643   6.497   7.273   6.600
  900TIP3    H2 2644   6.540   7.400   6.671
  901TIP3   OH2 2645   3.389   2.685   0.057
  901TIP3    H1 2646   3.356   2.676   0.146
  901TIP3    H2 2647   3.362   2.604   0.013
  902TIP3   OH2 2648   3.161   3.133   1.099
  902TIP3    H1 2649   3.112   3.149   1.180
  902TIP3    H2 2650   3.146   3.211   1.046
  903TIP3   OH2 2651   3.042   3.017   0.614
  903TIP3    H1 2652   2.953   2.990   0.635
  903TIP3    H2 2653   3.059   2.978   0.529
  904TIP3   OH2 2654   3.537   3.103   0.342
  904TIP3    H1 2655   3.485   3.171   0.300
  904TIP3    H2 2656   3.591   3.067   0.271
  905TIP3   OH2 2657   3.712   3.376   1.428
  905TIP3    H1 2658   3.687   3.306   1.487
  905TIP3    H2 2659   3.805   3.392   1.448
  906TIP3   OH2 2660   3.693   3.127   0.574
  906TIP3    H1 2661   3.629   3.156   0.508
  906TIP3    H2 2662   3.730   3.047   0.538
  907TIP3   OH2 2663   2.981   3.158   1.309
  907TIP3    H1 2664   3.008   3.222   1.375
  907TIP3    H2 2665   2.969   3.076   1.358
  908TIP3   OH2 2666   3.033   2.616   0.026
  908TIP3    H1 2667   3.042   2.622   0.121
  908TIP3    H2 2668   2.949   2.657   0.007
  909TIP3   OH2 2669   2.586   2.683   0.883
  909TIP3    H1 2670   2.649   2.718   0.946
  909TIP3    H2 2671   2.639   2.648   0.812
  910TIP3   OH2 2672   2.599   2.720   0.445
  910TIP3    H1 2673   2.640   2.736   0.361
  910TIP3    H2 2674   2.523   2.779   0.447
  911TIP3   OH2 2675   3.706   3.372   1.000
  911TIP3    H1 2676   3.738   3.305   0.940
  911TIP3    H2 2677   3.675   3.323   1.076
  912TIP3   OH2 2678   3.374   2.847   0.675
  912TIP3    H1 2679   3.297   2.839   0.731
  912TIP3    H2 2680   3.448   2.826   0.732
  913TIP3   OH2 2681   2.807   2.893   0.678
  913TIP3    H1 2682   2.716   2.901   0.649
  913TIP3    H2 2683   2.832   2.804   0.654
  914TIP3   OH2 2684   3.079   2.893   0.377
  914TIP3    H1 2685   3.172   2.907   0.359
  914TIP3    H2 2686   3.035   2.914   0.294
  915TIP3   OH2 2687   3.870   2.919   0.885
  915TIP3    H1 2688   3.829   2.927   0.971
  915TIP3    H2 2689   3.818   2.852   0.840
  916TIP3   OH2 2690   2.923   2.921   0.158
  916TIP3    H1 2691   2.830   2.900   0.144
  916TIP3    H2 2692   2.952   2.957   0.075
  917TIP3   OH2 2693   4.040   4.604   1.095
  917TIP3    H1 2694   4.034   4.627   1.002
  917TIP3    H2 2695   4.116   4.651   1.128
  918TIP3   OH2 2696   2.994   3.714   1.517
  918TIP3    H1 2697   3.073   3.743   1.563
  918TIP3    H2 2698   2.927   3.710   1.586
  919TIP3   OH2 2699   3.457   3.170   0.774
  919TIP3    H1 2700   3.524   3.125   0.723
  919TIP3    H2 2701   3.459   3.126   0.859
  920TIP3   OH2 2702   2.976   2.650   0.651
  920TIP3    H1 2703   2.937   2.576   0.698
  920TIP3    H2 2704   3.021   2.609   0.576
  921TIP3   OH2 2705   3.432   3.068   1.059
  921TIP3    H1 2706   3.343   3.100   1.075
  921TIP3    H2 2707   3.488   3.127   1.109
  922TIP3   OH2 2708   3.169   3.453   0.156
  922TIP3    H1 2709   3.098   3.390   0.142
  922TIP3    H2 2710   3.153   3.488   0.244
  923TIP3   OH2 2711   4.067   3.689   0.781
  923TIP3    H1 2712   4.090   3.740   0.703
  923TIP3    H2 2713   3.984   3.647   0.759
  924TIP3   OH2 2714   3.646   2.767   0.009
  924TIP3    H1 2715   3.553   2.743   0.015
  924TIP3    H2 2716   3.648   2.859   0.036
  925TIP3   OH2 2717   3.569   3.774   1.154
  925TIP3    H1 2718   3.594   3.753   1.244
  925TIP3    H2 2719   3.529   3.861   1.160
  926TIP3   OH2 2720   3.695   3.016   0.125
  926TIP3    H1 2721   3.789   3.017   0.140
  926TIP3    H2 2722   3.678   3.093   0.071
  927TIP3   OH2 2723   2.863   3.475   0.829
  927TIP3    H1 2724   2.901   3.448   0.745
  927TIP3    H2 2725   2.905   3.417   0.894
  928TIP3   OH2 2726   6.145   7.611   6.915
  928TIP3    H1 2727   6.103   7.696   6.922
  928TIP3    H2 2728   6.095   7.554   6.974
  929TIP3   OH2 2729   2.744   3.394   1.446
  929TIP3    H1 2730   2.762   3.383   1.539
  929TIP3    H2 2731   2.674   3.331   1.427
  930TIP3   OH2 2732   3.470   3.511   1.464
  930TIP3    H1 2733   3.407   3.454   1.420
  930TIP3    H2 2734   3.556   3.478   1.437
  931TIP3   OH2 2735   3.727   4.033   1.052
  931TIP3    H1 2736   3.632   4.029   1.062
  931TIP3    H2 2737   3.757   4.084   1.127
  932TIP3   OH2 2738   6.965   7.113   6.892
  932TIP3    H1 2739   6.907   7.066   6.832
  932TIP3    H2 2740   6.964   7.203   6.860
  933TIP3   OH2 2741   4.356   3.962   1.035
  933TIP3    H1 2742   4.260   3.958   1.032
  933TIP3    H2 2743   4.385   3.933   0.949
  934TIP3   OH2 2744   6.697   7.920   6.796
  934TIP3    H1 2745   6.663   7.872   6.871
  934TIP3    H2 2746   6.648   7.886   6.721
  935TIP3   OH2 2747   3.834   3.550   0.698
  935TIP3    H1 2748   3.742   3.529   0.715
  935TIP3    H2 2749   3.869   3.472   0.656
  936TIP3   OH2 2750   2.963   3.782   0.455
  936TIP3    H1 2751   2.963   3.862   0.402
  936TIP3    H2 2752   2.870   3.764   0.471
  937TIP3   OH2 2753   2.528   3.085   0.175
  937TIP3    H1 2754   2.571   3.169   0.188
  937TIP3    H2 2755   2.444   3.093   0.220
  938TIP3   OH2 2756   3.096   3.546   0.399
  938TIP3    H1 2757   3.064   3.635   0.416
  938TIP3    H2 2758   3.064   3.494   0.473
  939TIP3   OH2 2759   3.236   4.124   0.925
  939TIP3    H1 2760   3.274   4.196   0.874
  939TIP3    H2 2761   3.309   4.087   0.973
  940TIP3   OH2 2762   2.882   4.021   0.311
  940TIP3    H1 2763   2.797   4.027   0.354
  940TIP3    H2 2764   2.915   4.111   0.312
  941TIP3   OH2 2765   3.620   3.758   0.887
  941TIP3    H1 2766   3.607   3.759   0.982
  941TIP3    H2 2767   3.698   3.704   0.874
  942TIP3   OH2 2768   6.411   7.622   6.713
  942TIP3    H1 2769   6.475   7.616   6.784
  942TIP3    H2 2770   6.327   7.633   6.757
  943TIP3   OH2 2771   3.867   4.289   0.932
  943TIP3    H1 2772   3.790   4.234   0.929
  943TIP3    H2 2773   3.854   4.354   0.863
  944TIP3   OH2 2774   2.951   2.901   1.452
  944TIP3    H1 2775   2.856   2.907   1.463
  944TIP3    H2 2776   2.981   2.846   1.525
  945TIP3   OH2 2777   3.756   3.578  -0.019
  945TIP3    H1 2778   3.744   3.516   0.054
  945TIP3    H2 2779   3.851   3.585  -0.028
  946TIP3   OH2 2780   2.673   3.985   1.084
  946TIP3    H1 2781   2.725   3.912   1.119
  946TIP3    H2 2782   2.694   4.059   1.141
  947TIP3   OH2 2783   5.798   7.651   6.714
  947TIP3    H1 2784   5.803   7.563   6.675
  947TIP3    H2 2785   5.770   7.635   6.804
  948TIP3   OH2 2786   2.905   3.639   0.045
  948TIP3    H1 2787   2.976   3.613   0.104
  948TIP3    H2 2788   2.907   3.735   0.046
  949TIP3   OH2 2789   2.638   3.334   0.246
  949TIP3    H1 2790   2.574   3.376   0.304
  949TIP3    H2 2791   2.653   3.398   0.176
  950TIP3   OH2 2792   3.789   2.969   1.143
  950TIP3    H1 2793   3.873   3.003   1.176
  950TIP3    H2 2794   3.776   2.888   1.192
  951TIP3   OH2 2795   3.668   2.720   0.298
  951TIP3    H1 2796   3.662   2.739   0.205
  951TIP3    H2 2797   3.709   2.798   0.336
  952TIP3   OH2 2798   6.008   7.841   6.933
  952TIP3    H1 2799   5.923   7.869   6.967
  952TIP3    H2 2800   6.018   7.891   6.852
  953TIP3   OH2 2801   3.358   2.900   0.405
  953TIP3    H1 2802   3.422   2.968   0.386
  953TIP3    H2 2803   3.362   2.887   0.499
  954TIP3   OH2 2804   3.631   3.214   1.208
  954TIP3    H1 2805   3.654   3.265   1.286
  954TIP3    H2 2806   3.682   3.133   1.217
  955TIP3   OH2 2807   3.507   2.621   0.502
  955TIP3    H1 2808   3.513   2.687   0.571
  955TIP3    H2 2809   3.564   2.653   0.433
  956TIP3   OH2 2810   2.918   3.910   0.060
  956TIP3    H1 2811   2.891   3.977  -0.004
  956TIP3    H2 2812   2.902   3.951   0.145
  957TIP3   OH2 2813   3.031   2.635   0.304
  957TIP3    H1 2814   3.024   2.723   0.342
  957TIP3    H2 2815   3.124   2.613   0.311
  958TIP3   OH2 2816   4.266   3.111   1.181
  958TIP3    H1 2817   4.173   3.119   1.200
  958TIP3    H2 2818   4.270   3.056   1.103
  959TIP3   OH2 2819   3.921   3.306   0.578
  959TIP3    H1 2820   3.843   3.251   0.590
  959TIP3    H2 2821   3.990   3.261   0.626
  960TIP3   OH2 2822   2.636   3.541   0.053
  960TIP3    H1 2823   2.704   3.607   0.065
  960TIP3    H2 2824   2.673   3.479  -0.009
  961TIP3   OH2 2825   2.624   2.832   0.165
  961TIP3    H1 2826   2.592   2.922   0.167
  961TIP3    H2 2827   2.556   2.783   0.120
  962TIP3   OH2 2828   3.892   4.266   0.526
  962TIP3    H1 2829   3.845   4.312   0.457
  962TIP3    H2 2830   3.985   4.283   0.507
  963TIP3   OH2 2831   2.964   2.534   1.056
  963TIP3    H1 2832   2.933   2.504   0.971
  963TIP3    H2 2833   2.955   2.457   1.113
  964TIP3   OH2 2834   2.499   3.752   0.433
  964TIP3    H1 2835   2.437   3.782   0.499
  964TIP3    H2 2836   2.470   3.793   0.351
  965TIP3   OH2 2837   2.665   4.298   1.507
  965TIP3    H1 2838   2.748   4.301   1.554
  965TIP3    H2 2839   2.642   4.205   1.505
  966TIP3   OH2 2840   3.142   4.255   1.550
  966TIP3    H1 2841   3.236   4.238   1.559
  966TIP3    H2 2842   3.114   4.197   1.479
  967TIP3   OH2 2843   5.973   7.837   6.634
  967TIP3    H1 2844   5.894   7.789   6.659
  967TIP3    H2 2845   6.037   7.769   6.612
  968TIP3   OH2 2846   3.783   4.165   1.286
  968TIP3    H1 2847   3.774   4.097   1.352
  968TIP3    H2 2848   3.857   4.218   1.315
  969TIP3   OH2 2849   2.791   3.701   1.705
  969TIP3    H1 2850   2.809   3.608   1.714
  969TIP3    H2 2851   2.705   3.706   1.663
  970TIP3   OH2 2852   5.614   7.365   6.862
  970TIP3    H1 2853   5.681   7.335   6.925
  970TIP3    H2 2854   5.650   7.343   6.777
  971TIP3   OH2 2855   3.400   3.788   1.479
  971TIP3    H1 2856   3.357   3.807   1.396
  971TIP3    H2 2857   3.430   3.697   1.471
  972TIP3   OH2 2858   6.094   7.551   6.651
  972TIP3    H1 2859   6.107   7.582   6.741
  972TIP3    H2 2860   6.113   7.457   6.656
  973TIP3   OH2 2861   3.892   3.800   1.087
  973TIP3    H1 2862   3.967   3.842   1.045
  973TIP3    H2 2863   3.820   3.862   1.075
  974TIP3   OH2 2864   2.913   3.439   1.692
  974TIP3    H1 2865   2.986   3.382   1.667
  974TIP3    H2 2866   2.937   3.471   1.779
  975TIP3   OH2 2867   2.974   3.256   0.118
  975TIP3    H1 2868   2.947   3.227   0.205
  975TIP3    H2 2869   3.010   3.177   0.076
  976TIP3   OH2 2870   3.246   3.323   1.351
  976TIP3    H1 2871   3.169   3.378   1.354
  976TIP3    H2 2872   3.295   3.354   1.275
  977TIP3   OH2 2873   5.912   7.052   6.896
  977TIP3    H1 2874   5.908   7.013   6.809
  977TIP3    H2 2875   6.005   7.070   6.911
  978TIP3   OH2 2876   3.764   3.721   1.484
  978TIP3    H1 2877   3.842   3.693   1.436
  978TIP3    H2 2878   3.756   3.658   1.556
  979TIP3   OH2 2879   3.370   3.109   1.473
  979TIP3    H1 2880   3.370   3.031   1.418
  979TIP3    H2 2881   3.327   3.176   1.420
  980TIP3   OH2 2882   3.371   2.896   1.282
  980TIP3    H1 2883   3.401   2.936   1.200
  980TIP3    H2 2884   3.280   2.873   1.266
  981TIP3   OH2 2885   3.396   3.431   1.157
  981TIP3    H1 2886   3.481   3.440   1.114
  981TIP3    H2 2887   3.340   3.495   1.113
  982TIP3   OH2 2888   3.980   3.397   1.537
  982TIP3    H1 2889   4.024   3.313   1.549
  982TIP3    H2 2890   4.048   3.455   1.502
  983TIP3   OH2 2891   4.022   3.653   1.272
  983TIP3    H1 2892   3.962   3.704   1.217
  983TIP3    H2 2893   4.108   3.670   1.235
  984TIP3   OH2 2894   3.249   3.214   1.707
  984TIP3    H1 2895   3.180   3.150   1.725
  984TIP3    H2 2896   3.282   3.191   1.621
  985TIP3   OH2 2897   3.502   2.660   1.354
  985TIP3    H1 2898   3.456   2.741   1.331
  985TIP3    H2 2899   3.436   2.591   1.342
  986TIP3   OH2 2900   3.627   3.160   1.570
  986TIP3    H1 2901   3.616   3.148   1.664
  986TIP3    H2 2902   3.541   3.138   1.533
  987TIP3   OH2 2903   3.869   3.112   1.427
  987TIP3    H1 2904   3.793   3.112   1.485
  987TIP3    H2 2905   3.942   3.081   1.481
  988TIP3   OH2 2906   4.103   3.054   1.575
  988TIP3    H1 2907   4.113   2.960   1.589
  988TIP3    H2 2908   4.095   3.091   1.663
  989TIP3   OH2 2909   3.088   2.995   1.764
  989TIP3    H1 2910   3.092   2.906   1.728
  989TIP3    H2 2911   3.123   2.987   1.853
  990TIP3   OH2 2912   3.597   2.666   1.611
  990TIP3    H1 2913   3.663   2.596   1.606
  990TIP3    H2 2914   3.556   2.665   1.525
  991TIP3   OH2 2915   3.662   2.882   1.769
  991TIP3    H1 2916   3.643   2.812   1.707
  991TIP3    H2 2917   3.587   2.941   1.763
  992TIP3   OH2 2918   0.043   0.099   6.812
  992TIP3    H1 2919   0.134   0.104   6.782
  992TIP3    H2 2920  -0.007   0.140   6.742
  993TIP3   OH2 2921   2.365   3.497   0.100
  993TIP3    H1 2922   2.452   3.531   0.077
  993TIP3    H2 2923   2.358   3.414   0.052
  994TIP3   OH2 2924   2.280   4.102   0.500
  994TIP3    H1 2925   2.213   4.046   0.461
  994TIP3    H2 2926   2.325   4.046   0.564
  995TIP3   OH2 2927   2.419   3.952   0.687
  995TIP3    H1 2928   2.401   3.882   0.750
  995TIP3    H2 2929   2.469   4.017   0.737
  996TIP3   OH2 2930   4.148   4.351   0.487
  996TIP3    H1 2931   4.166   4.385   0.574
  996TIP3    H2 2932   4.202   4.405   0.429
  997TIP3   OH2 2933   4.171   4.373   0.769
  997TIP3    H1 2934   4.126   4.289   0.764
  997TIP3    H2 2935   4.247   4.357   0.825
  998TIP3   OH2 2936   4.219   4.055   1.342
  998TIP3    H1 2937   4.147   4.061   1.405
  998TIP3    H2 2938   4.261   4.141   1.345
  999TIP3   OH2 2939   6.869   7.571   6.910
  999TIP3    H1 2940   6.937   7.634   6.885
  999TIP3    H2 2941   6.905   7.526   6.987
 1000TIP3   OH2 2942   4.164   3.430   0.170
 1000TIP3    H1 2943   4.097   3.388   0.224
 1000TIP3    H2 2944   4.223   3.470   0.234
 1001TIP3   OH2 2945   4.221   3.829   0.596
 1001TIP3    H1 2946   4.272   3.764   0.547
 1001TIP3    H2 2947   4.211   3.902   0.535
 1002TIP3   OH2 2948   4.044   4.125   0.790
 1002TIP3    H1 2949   3.977   4.169   0.842
 1002TIP3    H2 2950   3.996   4.080   0.720
 1003TIP3   OH2 2951   6.920   7.355   6.749
 1003TIP3    H1 2952   6.846   7.341   6.690
 1003TIP3    H2 2953   6.893   7.430   6.802
 1004TIP3   OH2 2954   6.810   7.028   6.687
 1004TIP3    H1 2955   6.801   7.051   6.594
 1004TIP3    H2 2956   6.778   6.938   6.692
 1005TIP3   OH2 2957   3.976   3.288   0.310
 1005TIP3    H1 2958   3.980   3.193   0.302
 1005TIP3    H2 2959   3.961   3.303   0.404
 1006TIP3   OH2 2960   2.603   3.365   1.056
 1006TIP3    H1 2961   2.597   3.332   0.966
 1006TIP3    H2 2962   2.697   3.366   1.075
 1007TIP3   OH2 2963   4.267   3.715   1.167
 1007TIP3    H1 2964   4.336   3.650   1.156
 1007TIP3    H2 2965   4.291   3.785   1.106
 1008TIP3   OH2 2966   4.451   3.515   1.175
 1008TIP3    H1 2967   4.375   3.471   1.213
 1008TIP3    H2 2968   4.524   3.455   1.191
 1009TIP3   OH2 2969   6.746   6.763   6.712
 1009TIP3    H1 2970   6.830   6.728   6.743
 1009TIP3    H2 2971   6.680   6.718   6.766
 1010TIP3   OH2 2972   3.975   3.004   0.201
 1010TIP3    H1 2973   4.012   2.918   0.220
 1010TIP3    H2 2974   4.029   3.038   0.130
 1011TIP3   OH2 2975   4.137   3.180   0.701
 1011TIP3    H1 2976   4.219   3.203   0.659
 1011TIP3    H2 2977   4.144   3.214   0.790
 1012TIP3   OH2 2978   4.204   3.328   0.930
 1012TIP3    H1 2979   4.127   3.356   0.980
 1012TIP3    H2 2980   4.235   3.408   0.887
 1013TIP3   OH2 2981   2.822   3.047   1.730
 1013TIP3    H1 2982   2.917   3.045   1.734
 1013TIP3    H2 2983   2.794   2.965   1.771
 1014TIP3   OH2 2984   4.656   2.919   1.483
 1014TIP3    H1 2985   4.714   2.854   1.443
 1014TIP3    H2 2986   4.625   2.972   1.410
 1015TIP3   OH2 2987   4.082   2.754   0.243
 1015TIP3    H1 2988   4.127   2.740   0.326
 1015TIP3    H2 2989   4.020   2.681   0.238
 1016TIP3   OH2 2990   2.783   2.744   1.064
 1016TIP3    H1 2991   2.841   2.668   1.072
 1016TIP3    H2 2992   2.842   2.818   1.055
 1017TIP3   OH2 2993   2.583   3.016   1.132
 1017TIP3    H1 2994   2.632   3.011   1.050
 1017TIP3    H2 2995   2.611   3.099   1.172
 1018TIP3   OH2 2996   4.521   3.054   1.289
 1018TIP3    H1 2997   4.440   3.098   1.315
 1018TIP3    H2 2998   4.492   2.982   1.233
 1019TIP3   OH2 2999   7.007   6.696   6.799
 1019TIP3    H1 3000   7.050   6.646   6.730
 1019TIP3    H2 3001   7.061   6.774   6.809
 1020TIP3   OH2 3002   2.555   2.521   0.628
 1020TIP3    H1 3003   2.477   2.544   0.678
 1020TIP3    H2 3004   2.571   2.597   0.572
 1021TIP3   OH2 3005   3.741   4.221   0.146
 1021TIP3    H1 3006   3.777   4.209   0.058
 1021TIP3    H2 3007   3.781   4.302   0.178
 1022TIP3   OH2 3008   2.784   2.596   1.449
 1022TIP3    H1 3009   2.738   2.594   1.533
 1022TIP3    H2 3010   2.722   2.637   1.389
 1023TIP3   OH2 3011   2.826   4.027   1.527
 1023TIP3    H1 3012   2.735   4.004   1.509
 1023TIP3    H2 3013   2.838   4.009   1.620
 1024TIP3   OH2 3014   3.009   4.065   1.072
 1024TIP3    H1 3015   2.957   4.137   1.037
 1024TIP3    H2 3016   3.094   4.074   1.030
 1025TIP3   OH2 3017   3.450   4.305   1.212
 1025TIP3    H1 3018   3.488   4.303   1.300
 1025TIP3    H2 3019   3.513   4.355   1.160
 1026TIP3   OH2 3020   3.630   4.458   1.074
 1026TIP3    H1 3021   3.698   4.407   1.030
 1026TIP3    H2 3022   3.678   4.515   1.134
 1027TIP3   OH2 3023   4.423   2.814   1.169
 1027TIP3    H1 3024   4.333   2.809   1.137
 1027TIP3    H2 3025   4.456   2.725   1.160
 1028TIP3   OH2 3026   2.680   4.319   1.100
 1028TIP3    H1 3027   2.592   4.348   1.075
 1028TIP3    H2 3028   2.696   4.359   1.185
 1029TIP3   OH2 3029   2.916   4.298   0.957
 1029TIP3    H1 3030   2.832   4.308   1.002
 1029TIP3    H2 3031   2.899   4.328   0.867
 1030TIP3   OH2 3032   3.343   4.325   0.754
 1030TIP3    H1 3033   3.273   4.340   0.690
 1030TIP3    H2 3034   3.356   4.409   0.796
 1031TIP3   OH2 3035   3.612   4.263   0.805
 1031TIP3    H1 3036   3.519   4.279   0.788
 1031TIP3    H2 3037   3.657   4.337   0.763
 1032TIP3   OH2 3038   3.818   4.454   0.717
 1032TIP3    H1 3039   3.804   4.538   0.674
 1032TIP3    H2 3040   3.844   4.395   0.646
 1033TIP3   OH2 3041   2.596   4.108   0.843
 1033TIP3    H1 3042   2.618   4.084   0.933
 1033TIP3    H2 3043   2.665   4.069   0.790
 1034TIP3   OH2 3044   2.791   3.982   0.702
 1034TIP3    H1 3045   2.802   3.900   0.750
 1034TIP3    H2 3046   2.879   4.019   0.698
 1035TIP3   OH2 3047   3.057   4.073   0.708
 1035TIP3    H1 3048   3.084   3.982   0.695
 1035TIP3    H2 3049   3.101   4.100   0.789
 1036TIP3   OH2 3050   3.607   2.728   0.781
 1036TIP3    H1 3051   3.577   2.661   0.842
 1036TIP3    H2 3052   3.689   2.693   0.746
 1037TIP3   OH2 3053   4.144   2.663   0.706
 1037TIP3    H1 3054   4.184   2.678   0.621
 1037TIP3    H2 3055   4.079   2.594   0.691
 1038TIP3   OH2 3056   4.250   2.719   0.457
 1038TIP3    H1 3057   4.319   2.663   0.421
 1038TIP3    H2 3058   4.281   2.808   0.442
 1039TIP3   OH2 3059   2.872   2.444   0.813
 1039TIP3    H1 3060   2.785   2.407   0.800
 1039TIP3    H2 3061   2.932   2.369   0.803
 1040TIP3   OH2 3062   2.780   2.385   0.528
 1040TIP3    H1 3063   2.733   2.350   0.451
 1040TIP3    H2 3064   2.711   2.426   0.580
 1041TIP3   OH2 3065   3.325   2.474   0.686
 1041TIP3    H1 3066   3.382   2.520   0.623
 1041TIP3    H2 3067   3.350   2.509   0.771
 1042TIP3   OH2 3068   3.834   2.622   0.678
 1042TIP3    H1 3069   3.849   2.621   0.584
 1042TIP3    H2 3070   3.864   2.536   0.709
 1043TIP3   OH2 3071   3.899   2.542   0.236
 1043TIP3    H1 3072   3.811   2.580   0.242
 1043TIP3    H2 3073   3.892   2.458   0.281
 1044TIP3   OH2 3074   2.378   3.886   0.233
 1044TIP3    H1 3075   2.299   3.846   0.197
 1044TIP3    H2 3076   2.365   3.980   0.220
 1045TIP3   OH2 3077   2.790   2.508   0.245
 1045TIP3    H1 3078   2.838   2.425   0.245
 1045TIP3    H2 3079   2.851   2.570   0.285
 1046TIP3   OH2 3080   3.304   2.648   0.318
 1046TIP3    H1 3081   3.361   2.601   0.378
 1046TIP3    H2 3082   3.317   2.741   0.339
 1047TIP3   OH2 3083   0.316   0.071   6.747
 1047TIP3    H1 3084   0.408   0.086   6.728
 1047TIP3    H2 3085   0.293  -0.008   6.696
 1048TIP3   OH2 3086   1.037   0.177   6.842
 1048TIP3    H1 3087   1.031   0.084   6.823
 1048TIP3    H2 3088   1.031   0.219   6.756
 1049TIP3   OH2 3089   3.086   2.719   1.698
 1049TIP3    H1 3090   3.049   2.652   1.754
 1049TIP3    H2 3091   3.179   2.723   1.723
 1050TIP3   OH2 3092   3.335   2.717   1.817
 1050TIP3    H1 3093   3.419   2.695   1.777
 1050TIP3    H2 3094   3.321   2.649   1.883
 1051TIP3   OH2 3095   5.284   7.914   6.838
 1051TIP3    H1 3096   5.277   7.964   6.919
 1051TIP3    H2 3097   5.377   7.891   6.832
 1052TIP3   OH2 3098   4.163   2.782   1.605
 1052TIP3    H1 3099   4.178   2.752   1.694
 1052TIP3    H2 3100   4.249   2.777   1.563
 1053TIP3   OH2 3101   4.095   4.335   1.095
 1053TIP3    H1 3102   4.019   4.301   1.047
 1053TIP3    H2 3103   4.079   4.429   1.102
 1054TIP3   OH2 3104   5.330   3.689   0.257
 1054TIP3    H1 3105   5.384   3.686   0.336
 1054TIP3    H2 3106   5.380   3.638   0.192
 1055TIP3   OH2 3107   4.678   3.603   0.599
 1055TIP3    H1 3108   4.697   3.529   0.658
 1055TIP3    H2 3109   4.724   3.677   0.638
 1056TIP3   OH2 3110   4.638   4.007   0.335
 1056TIP3    H1 3111   4.627   3.912   0.338
 1056TIP3    H2 3112   4.733   4.020   0.331
 1057TIP3   OH2 3113   4.343   3.223   0.110
 1057TIP3    H1 3114   4.291   3.300   0.131
 1057TIP3    H2 3115   4.280   3.158   0.080
 1058TIP3   OH2 3116   4.403   3.502   0.297
 1058TIP3    H1 3117   4.446   3.424   0.332
 1058TIP3    H2 3118   4.459   3.530   0.225
 1059TIP3   OH2 3119   5.169   3.925   0.288
 1059TIP3    H1 3120   5.205   3.840   0.263
 1059TIP3    H2 3121   5.245   3.977   0.314
 1060TIP3   OH2 3122   6.177   3.258   0.286
 1060TIP3    H1 3123   6.199   3.328   0.347
 1060TIP3    H2 3124   6.257   3.246   0.233
 1061TIP3   OH2 3125   5.534   3.414   0.350
 1061TIP3    H1 3126   5.598   3.345   0.371
 1061TIP3    H2 3127   5.528   3.412   0.255
 1062TIP3   OH2 3128   4.921   3.101   0.278
 1062TIP3    H1 3129   4.881   3.177   0.235
 1062TIP3    H2 3130   4.873   3.026   0.243
 1063TIP3   OH2 3131   8.424   7.173   6.904
 1063TIP3    H1 3132   8.500   7.165   6.961
 1063TIP3    H2 3133   8.461   7.180   6.816
 1064TIP3   OH2 3134   4.548   3.293   0.396
 1064TIP3    H1 3135   4.627   3.273   0.446
 1064TIP3    H2 3136   4.552   3.235   0.321
 1065TIP3   OH2 3137   6.243   3.457   0.464
 1065TIP3    H1 3138   6.160   3.503   0.451
 1065TIP3    H2 3139   6.277   3.491   0.547
 1066TIP3   OH2 3140   4.906   3.076   0.726
 1066TIP3    H1 3141   4.847   3.110   0.658
 1066TIP3    H2 3142   4.859   3.090   0.808
 1067TIP3   OH2 3143   5.010   3.854   0.521
 1067TIP3    H1 3144   4.949   3.917   0.559
 1067TIP3    H2 3145   5.050   3.902   0.448
 1068TIP3   OH2 3146   5.826   3.187   0.096
 1068TIP3    H1 3147   5.858   3.116   0.151
 1068TIP3    H2 3148   5.870   3.265   0.129
 1069TIP3   OH2 3149   4.784   3.190   0.505
 1069TIP3    H1 3150   4.840   3.263   0.531
 1069TIP3    H2 3151   4.832   3.149   0.433
 1070TIP3   OH2 3152   4.841   4.050   0.617
 1070TIP3    H1 3153   4.823   4.135   0.576
 1070TIP3    H2 3154   4.765   4.033   0.672
 1071TIP3   OH2 3155   7.066   7.745   6.814
 1071TIP3    H1 3156   7.001   7.765   6.746
 1071TIP3    H2 3157   7.070   7.825   6.867
 1072TIP3   OH2 3158   5.970   3.154   0.456
 1072TIP3    H1 3159   5.883   3.183   0.428
 1072TIP3    H2 3160   6.028   3.182   0.385
 1073TIP3   OH2 3161   5.258   2.792   0.439
 1073TIP3    H1 3162   5.253   2.699   0.459
 1073TIP3    H2 3163   5.184   2.831   0.486
 1074TIP3   OH2 3164   5.900   4.172   0.446
 1074TIP3    H1 3165   5.900   4.097   0.387
 1074TIP3    H2 3166   5.879   4.247   0.390
 1075TIP3   OH2 3167   6.095   3.796   0.318
 1075TIP3    H1 3168   6.026   3.861   0.303
 1075TIP3    H2 3169   6.133   3.781   0.231
 1076TIP3   OH2 3170   5.774   3.680   0.584
 1076TIP3    H1 3171   5.781   3.758   0.639
 1076TIP3    H2 3172   5.693   3.694   0.534
 1077TIP3   OH2 3173   4.778   3.593   0.095
 1077TIP3    H1 3174   4.714   3.565   0.030
 1077TIP3    H2 3175   4.822   3.512   0.121
 1078TIP3   OH2 3176   4.901   4.022   0.253
 1078TIP3    H1 3177   4.878   4.012   0.160
 1078TIP3    H2 3178   4.995   4.000   0.256
 1079TIP3   OH2 3179   4.947   3.608   0.421
 1079TIP3    H1 3180   4.932   3.641   0.333
 1079TIP3    H2 3181   4.970   3.686   0.472
 1080TIP3   OH2 3182   5.438   4.225   0.209
 1080TIP3    H1 3183   5.429   4.309   0.254
 1080TIP3    H2 3184   5.419   4.160   0.276
 1081TIP3   OH2 3185   5.047   4.164   0.762
 1081TIP3    H1 3186   4.992   4.227   0.808
 1081TIP3    H2 3187   4.986   4.112   0.711
 1082TIP3   OH2 3188   4.797   3.723   0.855
 1082TIP3    H1 3189   4.811   3.808   0.897
 1082TIP3    H2 3190   4.708   3.698   0.880
 1083TIP3   OH2 3191   4.842   4.331   0.847
 1083TIP3    H1 3192   4.810   4.335   0.758
 1083TIP3    H2 3193   4.765   4.310   0.900
 1084TIP3   OH2 3194   7.426   7.485   6.862
 1084TIP3    H1 3195   7.334   7.512   6.863
 1084TIP3    H2 3196   7.423   7.389   6.863
 1085TIP3   OH2 3197   4.422   3.862   0.794
 1085TIP3    H1 3198   4.354   3.845   0.730
 1085TIP3    H2 3199   4.456   3.775   0.817
 1086TIP3   OH2 3200   4.277   4.062   0.425
 1086TIP3    H1 3201   4.373   4.060   0.422
 1086TIP3    H2 3202   4.256   4.139   0.479
 1087TIP3   OH2 3203   6.143   4.501   0.503
 1087TIP3    H1 3204   6.149   4.407   0.515
 1087TIP3    H2 3205   6.065   4.527   0.552
 1088TIP3   OH2 3206   5.245   4.293   0.619
 1088TIP3    H1 3207   5.246   4.385   0.648
 1088TIP3    H2 3208   5.177   4.252   0.672
 1089TIP3   OH2 3209   4.427   4.249  -0.029
 1089TIP3    H1 3210   4.500   4.254   0.033
 1089TIP3    H2 3211   4.351   4.232   0.026
 1090TIP3   OH2 3212   6.028   3.635   0.763
 1090TIP3    H1 3213   5.948   3.650   0.713
 1090TIP3    H2 3214   6.045   3.541   0.753
 1091TIP3   OH2 3215   4.627   4.045   0.781
 1091TIP3    H1 3216   4.675   4.034   0.862
 1091TIP3    H2 3217   4.552   3.985   0.788
 1092TIP3   OH2 3218   5.023   2.877   0.569
 1092TIP3    H1 3219   4.940   2.841   0.537
 1092TIP3    H2 3220   4.997   2.951   0.623
 1093TIP3   OH2 3221   5.562   2.982   0.765
 1093TIP3    H1 3222   5.632   2.958   0.825
 1093TIP3    H2 3223   5.481   2.964   0.813
 1094TIP3   OH2 3224   5.787   3.413   0.675
 1094TIP3    H1 3225   5.747   3.409   0.762
 1094TIP3    H2 3226   5.771   3.503   0.646
 1095TIP3   OH2 3227   4.961   3.387   0.583
 1095TIP3    H1 3228   4.911   3.405   0.662
 1095TIP3    H2 3229   4.950   3.466   0.529
 1096TIP3   OH2 3230   4.817   3.314   0.133
 1096TIP3    H1 3231   4.731   3.279   0.154
 1096TIP3    H2 3232   4.847   3.260   0.059
 1097TIP3   OH2 3233   5.506   3.631   0.909
 1097TIP3    H1 3234   5.483   3.562   0.971
 1097TIP3    H2 3235   5.597   3.653   0.930
 1098TIP3   OH2 3236   5.491   3.391   0.084
 1098TIP3    H1 3237   5.456   3.423   0.001
 1098TIP3    H2 3238   5.525   3.304   0.064
 1099TIP3   OH2 3239   4.781   3.412   0.792
 1099TIP3    H1 3240   4.797   3.478   0.859
 1099TIP3    H2 3241   4.764   3.332   0.842
 1100TIP3   OH2 3242   4.371   2.945   0.368
 1100TIP3    H1 3243   4.447   2.966   0.422
 1100TIP3    H2 3244   4.406   2.899   0.292
 1101TIP3   OH2 3245   7.171   6.928   6.843
 1101TIP3    H1 3246   7.216   6.955   6.763
 1101TIP3    H2 3247   7.108   6.998   6.859
 1102TIP3   OH2 3248   5.487   3.636   0.492
 1102TIP3    H1 3249   5.518   3.563   0.438
 1102TIP3    H2 3250   5.461   3.596   0.575
 1103TIP3   OH2 3251   5.191   3.164   0.233
 1103TIP3    H1 3252   5.101   3.132   0.240
 1103TIP3    H2 3253   5.245   3.084   0.228
 1104TIP3   OH2 3254   4.604   3.151   0.169
 1104TIP3    H1 3255   4.513   3.157   0.140
 1104TIP3    H2 3256   4.630   3.061   0.149
 1105TIP3   OH2 3257   7.716   7.137   6.883
 1105TIP3    H1 3258   7.810   7.121   6.878
 1105TIP3    H2 3259   7.691   7.161   6.794
 1106TIP3   OH2 3260   5.667   3.174   0.365
 1106TIP3    H1 3261   5.637   3.177   0.456
 1106TIP3    H2 3262   5.630   3.093   0.330
 1107TIP3   OH2 3263   5.843   4.855   0.593
 1107TIP3    H1 3264   5.827   4.874   0.501
 1107TIP3    H2 3265   5.918   4.910   0.616
 1108TIP3   OH2 3266   4.791   3.967   1.004
 1108TIP3    H1 3267   4.870   3.998   1.048
 1108TIP3    H2 3268   4.724   3.966   1.072
 1109TIP3   OH2 3269   4.772   2.908   0.153
 1109TIP3    H1 3270   4.733   2.833   0.199
 1109TIP3    H2 3271   4.820   2.868   0.081
 1110TIP3   OH2 3272   5.228   3.349   0.527
 1110TIP3    H1 3273   5.142   3.372   0.561
 1110TIP3    H2 3274   5.290   3.393   0.586
 1111TIP3   OH2 3275   5.866   3.957   0.280
 1111TIP3    H1 3276   5.843   4.004   0.200
 1111TIP3    H2 3277   5.790   3.902   0.299
 1112TIP3   OH2 3278   5.357   4.026   0.644
 1112TIP3    H1 3279   5.394   4.014   0.732
 1112TIP3    H2 3280   5.325   4.116   0.643
 1113TIP3   OH2 3281   4.662   3.729   0.322
 1113TIP3    H1 3282   4.702   3.686   0.246
 1113TIP3    H2 3283   4.682   3.671   0.396
 1114TIP3   OH2 3284   4.542   3.644   0.932
 1114TIP3    H1 3285   4.557   3.635   1.026
 1114TIP3    H2 3286   4.468   3.586   0.913
 1115TIP3   OH2 3287   5.266   3.766   0.951
 1115TIP3    H1 3288   5.204   3.704   0.914
 1115TIP3    H2 3289   5.352   3.735   0.923
 1116TIP3   OH2 3290   5.522   4.279   0.544
 1116TIP3    H1 3291   5.427   4.287   0.549
 1116TIP3    H2 3292   5.555   4.333   0.615
 1117TIP3   OH2 3293   6.151   4.217   0.529
 1117TIP3    H1 3294   6.055   4.219   0.533
 1117TIP3    H2 3295   6.171   4.184   0.441
 1118TIP3   OH2 3296   5.643   3.801   0.243
 1118TIP3    H1 3297   5.556   3.826   0.213
 1118TIP3    H2 3298   5.660   3.718   0.200
 1119TIP3   OH2 3299   4.749   4.021  -0.003
 1119TIP3    H1 3300   4.794   4.101  -0.029
 1119TIP3    H2 3301   4.666   4.051   0.034
 1120TIP3   OH2 3302   7.156   7.324   6.621
 1120TIP3    H1 3303   7.178   7.410   6.586
 1120TIP3    H2 3304   7.075   7.339   6.671
 1121TIP3   OH2 3305   7.707   7.799   6.859
 1121TIP3    H1 3306   7.661   7.876   6.893
 1121TIP3    H2 3307   7.690   7.731   6.924
 1122TIP3   OH2 3308   5.035   4.372   0.413
 1122TIP3    H1 3309   5.068   4.448   0.365
 1122TIP3    H2 3310   5.110   4.342   0.464
 1123TIP3   OH2 3311   5.422   3.999   0.381
 1123TIP3    H1 3312   5.397   4.004   0.474
 1123TIP3    H2 3313   5.515   3.976   0.383
 1124TIP3   OH2 3314   5.657   4.554   0.422
 1124TIP3    H1 3315   5.579   4.499   0.419
 1124TIP3    H2 3316   5.645   4.616   0.349
 1125TIP3   OH2 3317   4.746   3.156   0.938
 1125TIP3    H1 3318   4.652   3.164   0.949
 1125TIP3    H2 3319   4.775   3.103   1.012
 1126TIP3   OH2 3320   4.470   4.241   0.571
 1126TIP3    H1 3321   4.522   4.173   0.613
 1126TIP3    H2 3322   4.489   4.320   0.621
 1127TIP3   OH2 3323   5.588   3.212   0.619
 1127TIP3    H1 3324   5.661   3.263   0.654
 1127TIP3    H2 3325   5.579   3.138   0.678
 1128TIP3   OH2 3326   7.992   7.152   6.839
 1128TIP3    H1 3327   8.044   7.213   6.786
 1128TIP3    H2 3328   8.016   7.173   6.930
 1129TIP3   OH2 3329   5.426   3.466   0.698
 1129TIP3    H1 3330   5.441   3.525   0.771
 1129TIP3    H2 3331   5.483   3.391   0.715
 1130TIP3   OH2 3332   5.323   2.892  -0.003
 1130TIP3    H1 3333   5.348   2.923   0.084
 1130TIP3    H2 3334   5.388   2.931  -0.061
 1131TIP3   OH2 3335   7.643   6.877   6.715
 1131TIP3    H1 3336   7.615   6.953   6.765
 1131TIP3    H2 3337   7.732   6.859   6.746
 1132TIP3   OH2 3338   6.055   3.370   0.680
 1132TIP3    H1 3339   5.959   3.369   0.684
 1132TIP3    H2 3340   6.076   3.325   0.598
 1133TIP3   OH2 3341   5.708   3.565   0.116
 1133TIP3    H1 3342   5.641   3.498   0.105
 1133TIP3    H2 3343   5.784   3.517   0.149
 1134TIP3   OH2 3344   7.214   7.062   6.609
 1134TIP3    H1 3345   7.203   7.156   6.617
 1134TIP3    H2 3346   7.137   7.033   6.560
 1135TIP3   OH2 3347   4.766   2.789   0.537
 1135TIP3    H1 3348   4.732   2.758   0.454
 1135TIP3    H2 3349   4.755   2.715   0.597
 1136TIP3   OH2 3350   1.433  -0.015   6.913
 1136TIP3    H1 3351   1.394   0.039   6.982
 1136TIP3    H2 3352   1.476   0.048   6.855
 1137TIP3   OH2 3353   4.461   4.555   0.995
 1137TIP3    H1 3354   4.545   4.558   1.041
 1137TIP3    H2 3355   4.438   4.462   0.993
 1138TIP3   OH2 3356   4.937   4.510   1.039
 1138TIP3    H1 3357   5.032   4.497   1.046
 1138TIP3    H2 3358   4.911   4.453   0.967
 1139TIP3   OH2 3359   5.580   4.420   0.772
 1139TIP3    H1 3360   5.572   4.352   0.839
 1139TIP3    H2 3361   5.654   4.473   0.801
 1140TIP3   OH2 3362   4.587   3.959   1.192
 1140TIP3    H1 3363   4.604   3.865   1.201
 1140TIP3    H2 3364   4.501   3.964   1.150
 1141TIP3   OH2 3365   5.196   4.045   0.967
 1141TIP3    H1 3366   5.154   4.066   0.883
 1141TIP3    H2 3367   5.227   3.955   0.956
 1142TIP3   OH2 3368   5.683   4.054   0.565
 1142TIP3    H1 3369   5.762   4.096   0.532
 1142TIP3    H2 3370   5.616   4.122   0.562
 1143TIP3   OH2 3371   4.712   3.694   1.178
 1143TIP3    H1 3372   4.784   3.634   1.158
 1143TIP3    H2 3373   4.733   3.729   1.265
 1144TIP3   OH2 3374   5.047   3.581   0.833
 1144TIP3    H1 3375   4.968   3.636   0.836
 1144TIP3    H2 3376   5.095   3.613   0.756
 1145TIP3   OH2 3377   5.558   3.975   0.970
 1145TIP3    H1 3378   5.643   3.957   0.929
 1145TIP3    H2 3379   5.553   3.915   1.044
 1146TIP3   OH2 3380   5.165   3.368   0.961
 1146TIP3    H1 3381   5.165   3.289   0.907
 1146TIP3    H2 3382   5.122   3.435   0.908
 1147TIP3   OH2 3383   5.164   3.152   0.770
 1147TIP3    H1 3384   5.191   3.182   0.683
 1147TIP3    H2 3385   5.072   3.128   0.760
 1148TIP3   OH2 3386   5.195   3.684   0.630
 1148TIP3    H1 3387   5.281   3.709   0.597
 1148TIP3    H2 3388   5.136   3.751   0.595
 1149TIP3   OH2 3389   5.776   3.652   1.022
 1149TIP3    H1 3390   5.823   3.571   1.042
 1149TIP3    H2 3391   5.844   3.712   0.991
 1150TIP3   OH2 3392   5.817   3.906   0.750
 1150TIP3    H1 3393   5.757   3.959   0.697
 1150TIP3    H2 3394   5.904   3.927   0.717
 1151TIP3   OH2 3395   5.043   3.472   1.194
 1151TIP3    H1 3396   4.975   3.407   1.213
 1151TIP3    H2 3397   5.078   3.446   1.109
 1152TIP3   OH2 3398   5.297   2.914   0.838
 1152TIP3    H1 3399   5.249   2.996   0.821
 1152TIP3    H2 3400   5.230   2.846   0.830
 1153TIP3   OH2 3401   5.424   3.417   1.056
 1153TIP3    H1 3402   5.420   3.406   1.151
 1153TIP3    H2 3403   5.337   3.394   1.025
 1154TIP3   OH2 3404   5.662   3.362   0.908
 1154TIP3    H1 3405   5.589   3.368   0.970
 1154TIP3    H2 3406   5.737   3.336   0.962
 1155TIP3   OH2 3407   5.889   3.308   1.060
 1155TIP3    H1 3408   5.905   3.215   1.075
 1155TIP3    H2 3409   5.887   3.347   1.147
 1156TIP3   OH2 3410   4.886   3.251   1.250
 1156TIP3    H1 3411   4.887   3.162   1.216
 1156TIP3    H2 3412   4.921   3.243   1.339
 1157TIP3   OH2 3413   5.395   2.923   1.095
 1157TIP3    H1 3414   5.462   2.856   1.093
 1157TIP3    H2 3415   5.353   2.918   1.009
 1158TIP3   OH2 3416   5.458   3.140   1.255
 1158TIP3    H1 3417   5.439   3.069   1.193
 1158TIP3    H2 3418   5.382   3.197   1.250
 1159TIP3   OH2 3419   1.235   0.344   6.931
 1159TIP3    H1 3420   1.168   0.289   6.889
 1159TIP3    H2 3421   1.278   0.285   6.993
 1160TIP3   OH2 3422   4.227   4.203   0.168
 1160TIP3    H1 3423   4.201   4.139   0.236
 1160TIP3    H2 3424   4.266   4.275   0.217
 1161TIP3   OH2 3425   5.973   4.629   0.315
 1161TIP3    H1 3426   5.934   4.542   0.324
 1161TIP3    H2 3427   6.052   4.625   0.369
 1162TIP3   OH2 3428   6.013   4.311   0.829
 1162TIP3    H1 3429   5.942   4.318   0.893
 1162TIP3    H2 3430   6.057   4.396   0.832
 1163TIP3   OH2 3431   5.831   4.387   0.290
 1163TIP3    H1 3432   5.764   4.432   0.342
 1163TIP3    H2 3433   5.794   4.384   0.202
 1164TIP3   OH2 3434   4.405   3.617   0.545
 1164TIP3    H1 3435   4.394   3.587   0.455
 1164TIP3    H2 3436   4.500   3.621   0.558
 1165TIP3   OH2 3437   6.063   3.972   0.653
 1165TIP3    H1 3438   6.131   3.905   0.645
 1165TIP3    H2 3439   6.091   4.043   0.595
 1166TIP3   OH2 3440   6.241   3.769   0.670
 1166TIP3    H1 3441   6.168   3.722   0.711
 1166TIP3    H2 3442   6.317   3.712   0.682
 1167TIP3   OH2 3443   5.934   3.435   0.190
 1167TIP3    H1 3444   6.012   3.451   0.137
 1167TIP3    H2 3445   5.956   3.470   0.276
 1168TIP3   OH2 3446   5.989   3.573   0.423
 1168TIP3    H1 3447   5.914   3.601   0.475
 1168TIP3    H2 3448   6.029   3.654   0.392
 1169TIP3   OH2 3449   4.620   3.306   1.223
 1169TIP3    H1 3450   4.716   3.302   1.225
 1169TIP3    H2 3451   4.592   3.222   1.259
 1170TIP3   OH2 3452   6.449   3.172   0.971
 1170TIP3    H1 3453   6.509   3.108   0.933
 1170TIP3    H2 3454   6.422   3.227   0.897
 1171TIP3   OH2 3455   4.581   2.996   0.540
 1171TIP3    H1 3456   4.640   2.922   0.555
 1171TIP3    H2 3457   4.639   3.072   0.541
 1172TIP3   OH2 3458   4.382   3.272   0.622
 1172TIP3    H1 3459   4.428   3.269   0.538
 1172TIP3    H2 3460   4.404   3.358   0.659
 1173TIP3   OH2 3461   6.317   3.309   0.776
 1173TIP3    H1 3462   6.235   3.352   0.804
 1173TIP3    H2 3463   6.288   3.237   0.721
 1174TIP3   OH2 3464   4.364   2.780   0.132
 1174TIP3    H1 3465   4.273   2.767   0.156
 1174TIP3    H2 3466   4.361   2.833   0.053
 1175TIP3   OH2 3467   4.581   2.852   0.935
 1175TIP3    H1 3468   4.535   2.847   1.019
 1175TIP3    H2 3469   4.519   2.895   0.876
 1176TIP3   OH2 3470   4.623   4.281   1.013
 1176TIP3    H1 3471   4.530   4.260   0.997
 1176TIP3    H2 3472   4.634   4.268   1.107
 1177TIP3   OH2 3473   4.805   4.321   0.558
 1177TIP3    H1 3474   4.754   4.393   0.523
 1177TIP3    H2 3475   4.891   4.330   0.517
 1178TIP3   OH2 3476   5.244   4.558   0.700
 1178TIP3    H1 3477   5.283   4.557   0.788
 1178TIP3    H2 3478   5.302   4.615   0.649
 1179TIP3   OH2 3479   5.415   4.725   0.569
 1179TIP3    H1 3480   5.475   4.670   0.519
 1179TIP3    H2 3481   5.473   4.777   0.626
 1180TIP3   OH2 3482   6.218   3.067   0.659
 1180TIP3    H1 3483   6.128   3.057   0.629
 1180TIP3    H2 3484   6.256   2.979   0.652
 1181TIP3   OH2 3485   4.474   4.570   0.591
 1181TIP3    H1 3486   4.387   4.600   0.564
 1181TIP3    H2 3487   4.493   4.620   0.671
 1182TIP3   OH2 3488   4.710   4.554   0.446
 1182TIP3    H1 3489   4.627   4.565   0.493
 1182TIP3    H2 3490   4.693   4.590   0.359
 1183TIP3   OH2 3491   5.135   4.576   0.257
 1183TIP3    H1 3492   5.057   4.588   0.202
 1183TIP3    H2 3493   5.153   4.664   0.291
 1184TIP3   OH2 3494   5.394   4.525   0.331
 1184TIP3    H1 3495   5.300   4.527   0.311
 1184TIP3    H2 3496   5.433   4.587   0.269
 1185TIP3   OH2 3497   4.392   4.361   0.329
 1185TIP3    H1 3498   4.412   4.337   0.420
 1185TIP3    H2 3499   4.463   4.323   0.278
 1186TIP3   OH2 3500   4.589   4.230   0.190
 1186TIP3    H1 3501   4.598   4.154   0.246
 1186TIP3    H2 3502   4.672   4.278   0.201
 1187TIP3   OH2 3503   4.836   4.340   0.213
 1187TIP3    H1 3504   4.879   4.297   0.138
 1187TIP3    H2 3505   4.900   4.332   0.284
 1188TIP3   OH2 3506   5.395   2.966   0.249
 1188TIP3    H1 3507   5.369   2.906   0.318
 1188TIP3    H2 3508   5.484   2.940   0.226
 1189TIP3   OH2 3509   5.938   2.908   0.186
 1189TIP3    H1 3510   5.976   2.901   0.099
 1189TIP3    H2 3511   5.845   2.888   0.173
 1190TIP3   OH2 3512   4.672   2.694   0.294
 1190TIP3    H1 3513   4.581   2.665   0.298
 1190TIP3    H2 3514   4.723   2.613   0.287
 1191TIP3   OH2 3515   7.292   6.568   6.882
 1191TIP3    H1 3516   7.329   6.621   6.812
 1191TIP3    H2 3517   7.262   6.631   6.948
 1192TIP3   OH2 3518   5.117   2.735   0.179
 1192TIP3    H1 3519   5.189   2.764   0.122
 1192TIP3    H2 3520   5.144   2.759   0.267
 1193TIP3   OH2 3521   5.646   2.872   0.156
 1193TIP3    H1 3522   5.670   2.831   0.072
 1193TIP3    H2 3523   5.642   2.798   0.218
 1194TIP3   OH2 3524   7.410   6.718   6.688
 1194TIP3    H1 3525   7.417   6.669   6.606
 1194TIP3    H2 3526   7.491   6.770   6.692
 1195TIP3   OH2 3527   7.899   6.893   6.801
 1195TIP3    H1 3528   7.955   6.825   6.837
 1195TIP3    H2 3529   7.948   6.974   6.813
 1196TIP3   OH2 3530   4.884   2.977   1.186
 1196TIP3    H1 3531   4.845   2.909   1.241
 1196TIP3    H2 3532   4.976   2.979   1.212
 1197TIP3   OH2 3533   5.132   2.973   1.304
 1197TIP3    H1 3534   5.217   2.950   1.266
 1197TIP3    H2 3535   5.116   2.906   1.371
 1198TIP3   OH2 3536   5.959   3.038   1.091
 1198TIP3    H1 3537   5.974   3.009   1.181
 1198TIP3    H2 3538   6.045   3.035   1.050
 1199TIP3   OH2 3539   5.888   4.584   0.596
 1199TIP3    H1 3540   5.810   4.558   0.546
 1199TIP3    H2 3541   5.884   4.680   0.599
 1200TIP3   OH2 3542   6.719   3.296   0.252
 1200TIP3    H1 3543   6.669   3.293   0.170
 1200TIP3    H2 3544   6.661   3.339   0.315
 1201TIP3   OH2 3545   6.611   3.966   0.386
 1201TIP3    H1 3546   6.618   4.053   0.426
 1201TIP3    H2 3547   6.519   3.959   0.360
 1202TIP3   OH2 3548   6.213   4.104   0.287
 1202TIP3    H1 3549   6.262   4.143   0.214
 1202TIP3    H2 3550   6.269   4.033   0.318
 1203TIP3   OH2 3551   6.449   4.276   0.300
 1203TIP3    H1 3552   6.523   4.295   0.358
 1203TIP3    H2 3553   6.380   4.245   0.358
 1204TIP3   OH2 3554   7.330   3.254   0.266
 1204TIP3    H1 3555   7.399   3.194   0.294
 1204TIP3    H2 3556   7.249   3.214   0.297
 1205TIP3   OH2 3557   7.303   3.904   0.400
 1205TIP3    H1 3558   7.265   3.827   0.443
 1205TIP3    H2 3559   7.398   3.887   0.400
 1206TIP3   OH2 3560   6.563   3.673   0.298
 1206TIP3    H1 3561   6.578   3.746   0.358
 1206TIP3    H2 3562   6.557   3.596   0.355
 1207TIP3   OH2 3563   6.605   4.207   0.524
 1207TIP3    H1 3564   6.680   4.250   0.565
 1207TIP3    H2 3565   6.531   4.227   0.583
 1208TIP3   OH2 3566   6.337   3.908   0.436
 1208TIP3    H1 3567   6.367   3.898   0.526
 1208TIP3    H2 3568   6.263   3.848   0.428
 1209TIP3   OH2 3569   7.059   4.025   0.450
 1209TIP3    H1 3570   6.992   3.962   0.422
 1209TIP3    H2 3571   7.142   3.983   0.429
 1210TIP3   OH2 3572   6.542   3.422   0.436
 1210TIP3    H1 3573   6.447   3.421   0.447
 1210TIP3    H2 3574   6.575   3.364   0.505
 1211TIP3   OH2 3575   6.234   4.781   0.508
 1211TIP3    H1 3576   6.324   4.802   0.536
 1211TIP3    H2 3577   6.237   4.687   0.490
 1212TIP3   OH2 3578   6.727   4.758   0.554
 1212TIP3    H1 3579   6.808   4.733   0.599
 1212TIP3    H2 3580   6.710   4.687   0.493
 1213TIP3   OH2 3581   6.379   4.209   0.692
 1213TIP3    H1 3582   6.396   4.114   0.690
 1213TIP3    H2 3583   6.297   4.220   0.645
 1214TIP3   OH2 3584   6.987   4.302   0.450
 1214TIP3    H1 3585   6.953   4.305   0.361
 1214TIP3    H2 3586   7.026   4.215   0.458
 1215TIP3   OH2 3587   6.501   3.936   0.674
 1215TIP3    H1 3588   6.584   3.904   0.637
 1215TIP3    H2 3589   6.527   3.977   0.757
 1216TIP3   OH2 3590   6.859   3.865   0.347
 1216TIP3    H1 3591   6.776   3.896   0.382
 1216TIP3    H2 3592   6.862   3.897   0.257
 1217TIP3   OH2 3593   7.292   4.230   0.486
 1217TIP3    H1 3594   7.377   4.267   0.464
 1217TIP3    H2 3595   7.310   4.170   0.559
 1218TIP3   OH2 3596   6.953   3.618   0.461
 1218TIP3    H1 3597   6.961   3.538   0.409
 1218TIP3    H2 3598   6.930   3.686   0.397
 1219TIP3   OH2 3599   6.968   3.401   0.290
 1219TIP3    H1 3600   7.006   3.436   0.209
 1219TIP3    H2 3601   6.883   3.367   0.264
 1220TIP3   OH2 3602   7.568   3.894   0.552
 1220TIP3    H1 3603   7.574   3.817   0.496
 1220TIP3    H2 3604   7.645   3.946   0.531
 1221TIP3   OH2 3605   6.835   3.730   0.683
 1221TIP3    H1 3606   6.767   3.666   0.702
 1221TIP3    H2 3607   6.873   3.701   0.600
 1222TIP3   OH2 3608   7.085   3.157   0.342
 1222TIP3    H1 3609   7.039   3.239   0.324
 1222TIP3    H2 3610   7.024   3.089   0.316
 1223TIP3   OH2 3611   7.206   3.691   0.541
 1223TIP3    H1 3612   7.211   3.674   0.635
 1223TIP3    H2 3613   7.121   3.655   0.514
 1224TIP3   OH2 3614   7.470   3.666   0.416
 1224TIP3    H1 3615   7.386   3.632   0.449
 1224TIP3    H2 3616   7.535   3.604   0.449
 1225TIP3   OH2 3617   7.671   3.538   0.558
 1225TIP3    H1 3618   7.711   3.455   0.583
 1225TIP3    H2 3619   7.676   3.592   0.637
 1226TIP3   OH2 3620   6.677   3.509   0.741
 1226TIP3    H1 3621   6.684   3.422   0.703
 1226TIP3    H2 3622   6.716   3.501   0.828
 1227TIP3   OH2 3623   7.185   3.174   0.593
 1227TIP3    H1 3624   7.254   3.107   0.587
 1227TIP3    H2 3625   7.143   3.173   0.507
 1228TIP3   OH2 3626   7.256   3.397   0.742
 1228TIP3    H1 3627   7.236   3.326   0.681
 1228TIP3    H2 3628   7.180   3.456   0.736
 1229TIP3   OH2 3629   6.411   3.556   0.696
 1229TIP3    H1 3630   6.507   3.559   0.703
 1229TIP3    H2 3631   6.386   3.475   0.741
 1230TIP3   OH2 3632   6.378   3.125   0.436
 1230TIP3    H1 3633   6.339   3.110   0.522
 1230TIP3    H2 3634   6.303   3.129   0.377
 1231TIP3   OH2 3635   6.422   4.490   0.536
 1231TIP3    H1 3636   6.333   4.494   0.500
 1231TIP3    H2 3637   6.419   4.548   0.612
 1232TIP3   OH2 3638   6.677   3.233   0.674
 1232TIP3    H1 3639   6.643   3.164   0.731
 1232TIP3    H2 3640   6.771   3.237   0.695
 1233TIP3   OH2 3641   6.928   3.231   0.788
 1233TIP3    H1 3642   7.011   3.212   0.747
 1233TIP3    H2 3643   6.917   3.163   0.854
 1234TIP3   OH2 3644   0.432   4.296   1.468
 1234TIP3    H1 3645   0.457   4.375   1.515
 1234TIP3    H2 3646   0.446   4.317   1.375
 1235TIP3   OH2 3647   8.385   4.487   1.495
 1235TIP3    H1 3648   8.402   4.396   1.518
 1235TIP3    H2 3649   8.449   4.507   1.427
 1236TIP3   OH2 3650   0.501   4.505   1.638
 1236TIP3    H1 3651   0.416   4.545   1.622
 1236TIP3    H2 3652   0.530   4.541   1.722
 1237TIP3   OH2 3653   0.057   4.245   1.257
 1237TIP3    H1 3654   0.086   4.180   1.321
 1237TIP3    H2 3655   0.096   4.327   1.285
 1238TIP3   OH2 3656   0.223   4.210   1.637
 1238TIP3    H1 3657   0.137   4.227   1.598
 1238TIP3    H2 3658   0.285   4.230   1.567
 1239TIP3   OH2 3659   0.153   5.241   1.602
 1239TIP3    H1 3660   0.168   5.154   1.565
 1239TIP3    H2 3661   0.123   5.294   1.529
 1240TIP3   OH2 3662   0.354   4.836   1.464
 1240TIP3    H1 3663   0.281   4.898   1.476
 1240TIP3    H2 3664   0.389   4.858   1.378
 1241TIP3   OH2 3665   0.046   4.727   1.767
 1241TIP3    H1 3666   0.047   4.813   1.809
 1241TIP3    H2 3667  -0.041   4.719   1.729
 1242TIP3   OH2 3668   0.409   5.532   1.673
 1242TIP3    H1 3669   0.420   5.437   1.682
 1242TIP3    H2 3670   0.319   5.549   1.703
 1243TIP3   OH2 3671   0.276   4.679   1.934
 1243TIP3    H1 3672   0.197   4.692   1.881
 1243TIP3    H2 3673   0.296   4.586   1.926
 1244TIP3   OH2 3674   8.317   4.032   1.938
 1244TIP3    H1 3675   8.379   4.001   2.004
 1244TIP3    H2 3676   8.233   3.998   1.967
 1245TIP3   OH2 3677   0.045   4.458   1.857
 1245TIP3    H1 3678   0.000   4.456   1.941
 1245TIP3    H2 3679   0.030   4.546   1.824
 1246TIP3   OH2 3680   8.283   4.684   2.105
 1246TIP3    H1 3681   8.253   4.610   2.157
 1246TIP3    H2 3682   8.376   4.691   2.123
 1247TIP3   OH2 3683   8.296   4.675   1.677
 1247TIP3    H1 3684   8.318   4.598   1.624
 1247TIP3    H2 3685   8.245   4.640   1.749
 1248TIP3   OH2 3686   8.397   4.220   1.546
 1248TIP3    H1 3687   8.368   4.240   1.635
 1248TIP3    H2 3688   8.354   4.137   1.525
 1249TIP3   OH2 3689   8.025   4.356   1.803
 1249TIP3    H1 3690   7.998   4.421   1.738
 1249TIP3    H2 3691   8.111   4.386   1.832
 1250TIP3   OH2 3692   0.147   5.011   1.461
 1250TIP3    H1 3693   0.133   5.059   1.379
 1250TIP3    H2 3694   0.059   4.996   1.495
 1251TIP3   OH2 3695   8.050   4.786   2.196
 1251TIP3    H1 3696   7.991   4.763   2.124
 1251TIP3    H2 3697   8.137   4.770   2.160
 1252TIP3   OH2 3698   0.402   5.253   1.700
 1252TIP3    H1 3699   0.307   5.264   1.697
 1252TIP3    H2 3700   0.426   5.225   1.612
 1253TIP3   OH2 3701   8.339   4.269   1.803
 1253TIP3    H1 3702   8.420   4.307   1.835
 1253TIP3    H2 3703   8.328   4.189   1.854
 1254TIP3   OH2 3704   8.217   4.531   1.892
 1254TIP3    H1 3705   8.226   4.595   1.963
 1254TIP3    H2 3706   8.270   4.457   1.921
 1255TIP3   OH2 3707   0.310   4.414   1.854
 1255TIP3    H1 3708   0.214   4.413   1.862
 1255TIP3    H2 3709   0.328   4.373   1.769
 1256TIP3   OH2 3710   8.316   5.544   2.083
 1256TIP3    H1 3711   8.333   5.452   2.100
 1256TIP3    H2 3712   8.397   5.576   2.043
 1257TIP3   OH2 3713   8.481   5.060   1.725
 1257TIP3    H1 3714   8.531   5.141   1.713
 1257TIP3    H2 3715   8.390   5.086   1.717
 1258TIP3   OH2 3716   8.312   5.011   2.160
 1258TIP3    H1 3717   8.384   4.983   2.104
 1258TIP3    H2 3718   8.309   4.945   2.230
 1259TIP3   OH2 3719   7.887   4.133   1.893
 1259TIP3    H1 3720   7.948   4.205   1.875
 1259TIP3    H2 3721   7.809   4.177   1.927
 1260TIP3   OH2 3722   0.040   4.694   2.201
 1260TIP3    H1 3723   0.086   4.612   2.214
 1260TIP3    H2 3724   0.105   4.752   2.161
 1261TIP3   OH2 3725   0.078   4.951   1.949
 1261TIP3    H1 3726   0.024   4.996   1.884
 1261TIP3    H2 3727   0.168   4.962   1.917
 1262TIP3   OH2 3728   8.054   3.953   2.013
 1262TIP3    H1 3729   8.009   4.028   1.975
 1262TIP3    H2 3730   7.990   3.882   2.011
 1263TIP3   OH2 3731   8.184   4.465   2.239
 1263TIP3    H1 3732   8.209   4.461   2.331
 1263TIP3    H2 3733   8.097   4.425   2.236
 1264TIP3   OH2 3734   8.414   4.411   2.088
 1264TIP3    H1 3735   8.341   4.410   2.149
 1264TIP3    H2 3736   8.489   4.383   2.140
 1265TIP3   OH2 3737   0.139   4.354   2.241
 1265TIP3    H1 3738   0.154   4.261   2.255
 1265TIP3    H2 3739   0.136   4.392   2.329
 1266TIP3   OH2 3740   8.148   3.967   2.273
 1266TIP3    H1 3741   8.216   3.901   2.259
 1266TIP3    H2 3742   8.101   3.970   2.189
 1267TIP3   OH2 3743   8.221   4.180   2.422
 1267TIP3    H1 3744   8.202   4.103   2.368
 1267TIP3    H2 3745   8.138   4.229   2.424
 1268TIP3   OH2 3746   0.265   5.358   1.999
 1268TIP3    H1 3747   0.195   5.364   2.065
 1268TIP3    H2 3748   0.311   5.441   2.005
 1269TIP3   OH2 3749   0.314   5.017   1.827
 1269TIP3    H1 3750   0.381   4.949   1.820
 1269TIP3    H2 3751   0.348   5.090   1.776
 1270TIP3   OH2 3752   0.490   4.815   1.841
 1270TIP3    H1 3753   0.419   4.765   1.881
 1270TIP3    H2 3754   0.568   4.761   1.855
 1271TIP3   OH2 3755   0.177   4.468   1.373
 1271TIP3    H1 3756   0.252   4.496   1.320
 1271TIP3    H2 3757   0.191   4.508   1.458
 1272TIP3   OH2 3758   0.248   4.620   1.594
 1272TIP3    H1 3759   0.178   4.656   1.649
 1272TIP3    H2 3760   0.286   4.696   1.550
 1273TIP3   OH2 3761   0.698   4.214   2.147
 1273TIP3    H1 3762   0.759   4.152   2.107
 1273TIP3    H2 3763   0.669   4.269   2.074
 1274TIP3   OH2 3764   0.566   4.354   1.957
 1274TIP3    H1 3765   0.485   4.399   1.982
 1274TIP3    H2 3766   0.537   4.285   1.898
 1275TIP3   OH2 3767   0.468   4.120   1.835
 1275TIP3    H1 3768   0.378   4.112   1.804
 1275TIP3    H2 3769   0.505   4.032   1.823
 1276TIP3   OH2 3770   0.145   4.016   1.387
 1276TIP3    H1 3771   0.221   4.032   1.331
 1276TIP3    H2 3772   0.094   3.951   1.339
 1277TIP3   OH2 3773   0.320   4.038   1.173
 1277TIP3    H1 3774   0.294   4.008   1.087
 1277TIP3    H2 3775   0.352   4.128   1.159
 1278TIP3   OH2 3776   0.208   4.084   2.269
 1278TIP3    H1 3777   0.227   4.054   2.358
 1278TIP3    H2 3778   0.293   4.083   2.225
 1279TIP3   OH2 3779   0.147   5.566   1.736
 1279TIP3    H1 3780   0.061   5.528   1.752
 1279TIP3    H2 3781   0.136   5.660   1.749
 1280TIP3   OH2 3782   1.408   4.996   0.531
 1280TIP3    H1 3783   1.380   5.086   0.512
 1280TIP3    H2 3784   1.335   4.941   0.502
 1281TIP3   OH2 3785   1.407   5.006   0.914
 1281TIP3    H1 3786   1.444   4.984   1.000
 1281TIP3    H2 3787   1.368   4.924   0.884
 1282TIP3   OH2 3788   0.718   4.901   1.275
 1282TIP3    H1 3789   0.745   4.835   1.339
 1282TIP3    H2 3790   0.795   4.957   1.264
 1283TIP3   OH2 3791   1.649   5.314   0.596
 1283TIP3    H1 3792   1.643   5.240   0.656
 1283TIP3    H2 3793   1.684   5.385   0.650
 1284TIP3   OH2 3794   0.695   5.295   1.064
 1284TIP3    H1 3795   0.686   5.201   1.054
 1284TIP3    H2 3796   0.789   5.312   1.052
 1285TIP3   OH2 3797   0.547   4.804   0.935
 1285TIP3    H1 3798   0.566   4.731   0.994
 1285TIP3    H2 3799   0.500   4.765   0.862
 1286TIP3   OH2 3800   1.360   5.737   0.667
 1286TIP3    H1 3801   1.428   5.699   0.612
 1286TIP3    H2 3802   1.375   5.699   0.754
 1287TIP3   OH2 3803   1.222   5.229   0.952
 1287TIP3    H1 3804   1.260   5.148   0.919
 1287TIP3    H2 3805   1.298   5.282   0.978
 1288TIP3   OH2 3806   2.224   4.555   0.953
 1288TIP3    H1 3807   2.252   4.635   0.997
 1288TIP3    H2 3808   2.244   4.569   0.861
 1289TIP3   OH2 3809   1.623   4.732   0.984
 1289TIP3    H1 3810   1.663   4.649   1.007
 1289TIP3    H2 3811   1.587   4.718   0.896
 1290TIP3   OH2 3812   0.969   4.397   0.955
 1290TIP3    H1 3813   0.946   4.471   0.898
 1290TIP3    H2 3814   0.924   4.322   0.916
 1291TIP3   OH2 3815   1.658   4.486   0.578
 1291TIP3    H1 3816   1.727   4.468   0.642
 1291TIP3    H2 3817   1.705   4.514   0.500
 1292TIP3   OH2 3818   0.596   4.582   1.081
 1292TIP3    H1 3819   0.680   4.569   1.125
 1292TIP3    H2 3820   0.601   4.526   1.004
 1293TIP3   OH2 3821   1.038   4.802   0.850
 1293TIP3    H1 3822   1.128   4.777   0.867
 1293TIP3    H2 3823   0.994   4.719   0.828
 1294TIP3   OH2 3824   2.295   4.765   1.123
 1294TIP3    H1 3825   2.211   4.806   1.103
 1294TIP3    H2 3826   2.312   4.786   1.215
 1295TIP3   OH2 3827   0.954   4.375   1.391
 1295TIP3    H1 3828   0.900   4.411   1.320
 1295TIP3    H2 3829   0.903   4.393   1.471
 1296TIP3   OH2 3830   1.300   5.207   0.396
 1296TIP3    H1 3831   1.294   5.179   0.305
 1296TIP3    H2 3832   1.320   5.301   0.390
 1297TIP3   OH2 3833   1.064   5.154   1.183
 1297TIP3    H1 3834   1.002   5.216   1.222
 1297TIP3    H2 3835   1.097   5.200   1.105
 1298TIP3   OH2 3836   1.867   4.493   0.751
 1298TIP3    H1 3837   1.853   4.441   0.831
 1298TIP3    H2 3838   1.916   4.569   0.781
 1299TIP3   OH2 3839   0.836   4.490   1.174
 1299TIP3    H1 3840   0.893   4.563   1.198
 1299TIP3    H2 3841   0.880   4.449   1.099
 1300TIP3   OH2 3842   0.893   5.344   1.290
 1300TIP3    H1 3843   0.873   5.430   1.252
 1300TIP3    H2 3844   0.816   5.322   1.342
 1301TIP3   OH2 3845   1.714   5.550   0.756
 1301TIP3    H1 3846   1.627   5.542   0.795
 1301TIP3    H2 3847   1.714   5.636   0.714
 1302TIP3   OH2 3848   2.016   4.454   1.120
 1302TIP3    H1 3849   1.928   4.479   1.090
 1302TIP3    H2 3850   2.074   4.484   1.050
 1303TIP3   OH2 3851   1.306   4.091   1.103
 1303TIP3    H1 3852   1.292   3.998   1.120
 1303TIP3    H2 3853   1.232   4.134   1.146
 1304TIP3   OH2 3854   1.517   5.627   0.471
 1304TIP3    H1 3855   1.553   5.541   0.450
 1304TIP3    H2 3856   1.548   5.683   0.399
 1305TIP3   OH2 3857   1.551   5.384   0.350
 1305TIP3    H1 3858   1.571   5.320   0.282
 1305TIP3    H2 3859   1.586   5.345   0.430
 1306TIP3   OH2 3860   1.947   5.466   1.097
 1306TIP3    H1 3861   1.936   5.388   1.042
 1306TIP3    H2 3862   1.932   5.539   1.037
 1307TIP3   OH2 3863   1.239   4.855   0.337
 1307TIP3    H1 3864   1.161   4.901   0.305
 1307TIP3    H2 3865   1.303   4.866   0.268
 1308TIP3   OH2 3866   1.147   4.590   0.191
 1308TIP3    H1 3867   1.205   4.637   0.251
 1308TIP3    H2 3868   1.207   4.540   0.135
 1309TIP3   OH2 3869   2.143   5.107   0.944
 1309TIP3    H1 3870   2.060   5.154   0.951
 1309TIP3    H2 3871   2.174   5.126   0.856
 1310TIP3   OH2 3872   1.599   4.949   0.345
 1310TIP3    H1 3873   1.544   4.966   0.421
 1310TIP3    H2 3874   1.682   4.917   0.382
 1311TIP3   OH2 3875   1.820   4.981   1.243
 1311TIP3    H1 3876   1.820   5.062   1.295
 1311TIP3    H2 3877   1.736   4.982   1.198
 1312TIP3   OH2 3878   0.809   4.922   0.752
 1312TIP3    H1 3879   0.794   4.864   0.678
 1312TIP3    H2 3880   0.892   4.894   0.789
 1313TIP3   OH2 3881   0.944   5.293   0.938
 1313TIP3    H1 3882   0.925   5.339   0.856
 1313TIP3    H2 3883   1.040   5.282   0.937
 1314TIP3   OH2 3884   0.967   4.909   1.102
 1314TIP3    H1 3885   0.992   4.892   1.011
 1314TIP3    H2 3886   1.000   4.997   1.119
 1315TIP3   OH2 3887   1.471   5.554   0.877
 1315TIP3    H1 3888   1.474   5.626   0.940
 1315TIP3    H2 3889   1.464   5.476   0.932
 1316TIP3   OH2 3890   1.096   5.468   1.425
 1316TIP3    H1 3891   1.040   5.531   1.470
 1316TIP3    H2 3892   1.035   5.413   1.376
 1317TIP3   OH2 3893   1.452   4.831   0.152
 1317TIP3    H1 3894   1.504   4.866   0.224
 1317TIP3    H2 3895   1.459   4.897   0.083
 1318TIP3   OH2 3896   0.851   5.026   1.526
 1318TIP3    H1 3897   0.860   5.110   1.571
 1318TIP3    H2 3898   0.760   5.000   1.541
 1319TIP3   OH2 3899   0.892   5.638   1.512
 1319TIP3    H1 3900   0.861   5.637   1.422
 1319TIP3    H2 3901   0.815   5.615   1.564
 1320TIP3   OH2 3902   1.936   4.037   0.203
 1320TIP3    H1 3903   1.864   4.042   0.266
 1320TIP3    H2 3904   1.939   4.125   0.163
 1321TIP3   OH2 3905   0.470   5.154   1.457
 1321TIP3    H1 3906   0.445   5.123   1.370
 1321TIP3    H2 3907   0.514   5.079   1.497
 1322TIP3   OH2 3908   2.183   5.810   1.148
 1322TIP3    H1 3909   2.186   5.715   1.161
 1322TIP3    H2 3910   2.103   5.837   1.192
 1323TIP3   OH2 3911   1.293   5.596   1.284
 1323TIP3    H1 3912   1.291   5.688   1.313
 1323TIP3    H2 3913   1.223   5.554   1.333
 1324TIP3   OH2 3914   2.075   4.939   1.420
 1324TIP3    H1 3915   1.992   4.951   1.373
 1324TIP3    H2 3916   2.093   4.846   1.414
 1325TIP3   OH2 3917   0.675   5.344   1.455
 1325TIP3    H1 3918   0.728   5.325   1.533
 1325TIP3    H2 3919   0.602   5.283   1.461
 1326TIP3   OH2 3920   1.069   4.173   1.234
 1326TIP3    H1 3921   0.985   4.142   1.201
 1326TIP3    H2 3922   1.048   4.253   1.282
 1327TIP3   OH2 3923   1.606   4.285   1.427
 1327TIP3    H1 3924   1.674   4.260   1.490
 1327TIP3    H2 3925   1.524   4.267   1.473
 1328TIP3   OH2 3926   1.843   4.718   1.346
 1328TIP3    H1 3927   1.794   4.713   1.429
 1328TIP3    H2 3928   1.817   4.803   1.309
 1329TIP3   OH2 3929   1.215   4.282   0.209
 1329TIP3    H1 3930   1.212   4.250   0.299
 1329TIP3    H2 3931   1.195   4.205   0.155
 1330TIP3   OH2 3932   1.004   4.689   1.252
 1330TIP3    H1 3933   0.956   4.708   1.333
 1330TIP3    H2 3934   0.992   4.767   1.198
 1331TIP3   OH2 3935   0.883   4.582   0.777
 1331TIP3    H1 3936   0.794   4.555   0.797
 1331TIP3    H2 3937   0.899   4.549   0.688
 1332TIP3   OH2 3938   1.381   4.664   0.488
 1332TIP3    H1 3939   1.330   4.731   0.444
 1332TIP3    H2 3940   1.436   4.626   0.420
 1333TIP3   OH2 3941   1.554   4.934   1.577
 1333TIP3    H1 3942   1.527   4.864   1.637
 1333TIP3    H2 3943   1.645   4.950   1.599
 1334TIP3   OH2 3944   1.533   4.684   0.725
 1334TIP3    H1 3945   1.471   4.712   0.657
 1334TIP3    H2 3946   1.574   4.605   0.689
 1335TIP3   OH2 3947   0.823   4.716   1.461
 1335TIP3    H1 3948   0.854   4.778   1.527
 1335TIP3    H2 3949   0.810   4.635   1.509
 1336TIP3   OH2 3950   0.420   4.257   1.049
 1336TIP3    H1 3951   0.488   4.284   1.111
 1336TIP3    H2 3952   0.469   4.228   0.972
 1337TIP3   OH2 3953   1.545   4.931   1.149
 1337TIP3    H1 3954   1.578   4.863   1.090
 1337TIP3    H2 3955   1.515   4.883   1.226
 1338TIP3   OH2 3956   1.223   4.405   0.831
 1338TIP3    H1 3957   1.142   4.397   0.880
 1338TIP3    H2 3958   1.292   4.392   0.896
 1339TIP3   OH2 3959   0.659   4.436   0.859
 1339TIP3    H1 3960   0.591   4.450   0.794
 1339TIP3    H2 3961   0.704   4.356   0.831
 1340TIP3   OH2 3962   0.940   4.499   0.526
 1340TIP3    H1 3963   1.032   4.477   0.536
 1340TIP3    H2 3964   0.916   4.463   0.440
 1341TIP3   OH2 3965   1.704   4.470   1.028
 1341TIP3    H1 3966   1.675   4.485   1.118
 1341TIP3    H2 3967   1.639   4.411   0.991
 1342TIP3   OH2 3968   1.880   6.163   1.246
 1342TIP3    H1 3969   1.878   6.183   1.153
 1342TIP3    H2 3970   1.959   6.206   1.278
 1343TIP3   OH2 3971   0.836   5.270   1.670
 1343TIP3    H1 3972   0.916   5.299   1.714
 1343TIP3    H2 3973   0.770   5.266   1.739
 1344TIP3   OH2 3974   1.299   4.729   0.924
 1344TIP3    H1 3975   1.366   4.684   0.872
 1344TIP3    H2 3976   1.301   4.685   1.009
 1345TIP3   OH2 3977   0.829   4.214   0.810
 1345TIP3    H1 3978   0.788   4.136   0.847
 1345TIP3    H2 3979   0.887   4.180   0.742
 1346TIP3   OH2 3980   1.273   4.627   1.209
 1346TIP3    H1 3981   1.184   4.658   1.226
 1346TIP3    H2 3982   1.329   4.685   1.260
 1347TIP3   OH2 3983   1.908   5.249   0.931
 1347TIP3    H1 3984   1.934   5.297   0.852
 1347TIP3    H2 3985   1.826   5.206   0.907
 1348TIP3   OH2 3986   1.481   4.340   0.139
 1348TIP3    H1 3987   1.389   4.320   0.159
 1348TIP3    H2 3988   1.498   4.423   0.184
 1349TIP3   OH2 3989   1.417   5.336   1.301
 1349TIP3    H1 3990   1.434   5.306   1.390
 1349TIP3    H2 3991   1.369   5.418   1.312
 1350TIP3   OH2 3992   1.539   4.582   0.273
 1350TIP3    H1 3993   1.633   4.576   0.291
 1350TIP3    H2 3994   1.532   4.654   0.209
 1351TIP3   OH2 3995   0.707   5.041   0.983
 1351TIP3    H1 3996   0.743   5.008   0.900
 1351TIP3    H2 3997   0.708   4.965   1.042
 1352TIP3   OH2 3998   0.589   4.957   1.600
 1352TIP3    H1 3999   0.621   4.950   1.690
 1352TIP3    H2 4000   0.525   4.886   1.592
 1353TIP3   OH2 4001   1.313   5.071   1.607
 1353TIP3    H1 4002   1.249   5.012   1.566
 1353TIP3    H2 4003   1.398   5.036   1.583
 1354TIP3   OH2 4004   1.567   5.602   1.195
 1354TIP3    H1 4005   1.473   5.588   1.211
 1354TIP3    H2 4006   1.598   5.646   1.274
 1355TIP3   OH2 4007   1.978   4.662   0.109
 1355TIP3    H1 4008   1.920   4.616   0.049
 1355TIP3    H2 4009   1.982   4.752   0.075
 1356TIP3   OH2 4010   2.196   5.522   1.185
 1356TIP3    H1 4011   2.101   5.516   1.182
 1356TIP3    H2 4012   2.225   5.492   1.099
 1357TIP3   OH2 4013   1.674   5.110   0.845
 1357TIP3    H1 4014   1.583   5.086   0.864
 1357TIP3    H2 4015   1.711   5.031   0.806
 1358TIP3   OH2 4016   1.075   5.694   1.109
 1358TIP3    H1 4017   1.089   5.709   1.015
 1358TIP3    H2 4018   1.157   5.655   1.139
 1359TIP3   OH2 4019   1.470   5.321   1.035
 1359TIP3    H1 4020   1.452   5.323   1.129
 1359TIP3    H2 4021   1.544   5.262   1.025
 1360TIP3   OH2 4022   1.712   5.846   1.090
 1360TIP3    H1 4023   1.637   5.787   1.091
 1360TIP3    H2 4024   1.694   5.907   1.018
 1361TIP3   OH2 4025   0.793   4.458   1.603
 1361TIP3    H1 4026   0.698   4.465   1.616
 1361TIP3    H2 4027   0.824   4.405   1.676
 1362TIP3   OH2 4028   1.623   5.176   0.187
 1362TIP3    H1 4029   1.605   5.098   0.239
 1362TIP3    H2 4030   1.708   5.159   0.148
 1363TIP3   OH2 4031   0.560   5.545   1.289
 1363TIP3    H1 4032   0.568   5.458   1.248
 1363TIP3    H2 4033   0.608   5.536   1.372
 1364TIP3   OH2 4034   1.635   4.522   1.288
 1364TIP3    H1 4035   1.713   4.561   1.326
 1364TIP3    H2 4036   1.620   4.443   1.339
 1365TIP3   OH2 4037   1.467   4.312   0.451
 1365TIP3    H1 4038   1.504   4.273   0.372
 1365TIP3    H2 4039   1.539   4.364   0.488
 1366TIP3   OH2 4040   1.205   4.457   0.562
 1366TIP3    H1 4041   1.276   4.515   0.536
 1366TIP3    H2 4042   1.214   4.449   0.657
 1367TIP3   OH2 4043   1.474   4.773   1.358
 1367TIP3    H1 4044   1.494   4.825   1.436
 1367TIP3    H2 4045   1.523   4.692   1.370
 1368TIP3   OH2 4046   1.358   4.190   0.667
 1368TIP3    H1 4047   1.345   4.265   0.726
 1368TIP3    H2 4048   1.404   4.227   0.591
 1369TIP3   OH2 4049   0.896   4.176   0.446
 1369TIP3    H1 4050   0.880   4.267   0.419
 1369TIP3    H2 4051   0.992   4.168   0.448
 1370TIP3   OH2 4052   2.107   4.672   1.338
 1370TIP3    H1 4053   2.012   4.675   1.350
 1370TIP3    H2 4054   2.119   4.625   1.255
 1371TIP3   OH2 4055   1.761   4.865   0.731
 1371TIP3    H1 4056   1.684   4.809   0.741
 1371TIP3    H2 4057   1.830   4.820   0.778
 1372TIP3   OH2 4058   1.743   5.819   0.682
 1372TIP3    H1 4059   1.707   5.864   0.607
 1372TIP3    H2 4060   1.837   5.832   0.675
 1373TIP3   OH2 4061   0.806   4.095   1.202
 1373TIP3    H1 4062   0.775   4.058   1.119
 1373TIP3    H2 4063   0.803   4.021   1.263
 1374TIP3   OH2 4064   0.490   5.826   1.666
 1374TIP3    H1 4065   0.579   5.833   1.702
 1374TIP3    H2 4066   0.474   5.732   1.661
 1375TIP3   OH2 4067   0.986   5.818   1.698
 1375TIP3    H1 4068   1.078   5.793   1.710
 1375TIP3    H2 4069   0.954   5.759   1.629
 1376TIP3   OH2 4070   1.625   5.722   1.435
 1376TIP3    H1 4071   1.614   5.654   1.501
 1376TIP3    H2 4072   1.699   5.774   1.465
 1377TIP3   OH2 4073   0.634   5.273   1.856
 1377TIP3    H1 4074   0.654   5.192   1.903
 1377TIP3    H2 4075   0.550   5.256   1.814
 1378TIP3   OH2 4076   1.242   5.346   1.630
 1378TIP3    H1 4077   1.198   5.365   1.547
 1378TIP3    H2 4078   1.271   5.255   1.621
 1379TIP3   OH2 4079   1.734   5.356   1.236
 1379TIP3    H1 4080   1.807   5.401   1.195
 1379TIP3    H2 4081   1.659   5.415   1.225
 1380TIP3   OH2 4082   0.758   4.976   1.832
 1380TIP3    H1 4083   0.839   4.926   1.825
 1380TIP3    H2 4084   0.764   5.021   1.917
 1381TIP3   OH2 4085   1.086   4.878   1.498
 1381TIP3    H1 4086   1.010   4.936   1.504
 1381TIP3    H2 4087   1.136   4.911   1.424
 1382TIP3   OH2 4088   1.606   5.279   1.634
 1382TIP3    H1 4089   1.684   5.251   1.587
 1382TIP3    H2 4090   1.597   5.218   1.707
 1383TIP3   OH2 4091   1.211   4.667   1.622
 1383TIP3    H1 4092   1.212   4.589   1.568
 1383TIP3    H2 4093   1.168   4.733   1.569
 1384TIP3   OH2 4094   1.214   4.453   1.431
 1384TIP3    H1 4095   1.241   4.494   1.349
 1384TIP3    H2 4096   1.122   4.430   1.417
 1385TIP3   OH2 4097   1.240   4.988   1.308
 1385TIP3    H1 4098   1.323   4.996   1.261
 1385TIP3    H2 4099   1.182   5.051   1.264
 1386TIP3   OH2 4100   1.821   4.953   1.686
 1386TIP3    H1 4101   1.865   4.870   1.704
 1386TIP3    H2 4102   1.890   5.009   1.651
 1387TIP3   OH2 4103   1.864   5.210   1.422
 1387TIP3    H1 4104   1.804   5.261   1.367
 1387TIP3    H2 4105   1.951   5.227   1.385
 1388TIP3   OH2 4106   1.078   4.776   1.845
 1388TIP3    H1 4107   1.017   4.705   1.867
 1388TIP3    H2 4108   1.121   4.746   1.765
 1389TIP3   OH2 4109   1.343   4.216   1.502
 1389TIP3    H1 4110   1.298   4.297   1.480
 1389TIP3    H2 4111   1.276   4.148   1.492
 1390TIP3   OH2 4112   1.468   4.718   1.721
 1390TIP3    H1 4113   1.460   4.706   1.815
 1390TIP3    H2 4114   1.382   4.695   1.686
 1391TIP3   OH2 4115   1.709   4.667   1.575
 1391TIP3    H1 4116   1.634   4.670   1.635
 1391TIP3    H2 4117   1.782   4.638   1.630
 1392TIP3   OH2 4118   1.941   4.610   1.724
 1392TIP3    H1 4119   1.953   4.517   1.740
 1392TIP3    H2 4120   1.935   4.649   1.812
 1393TIP3   OH2 4121   0.926   4.554   1.918
 1393TIP3    H1 4122   0.932   4.466   1.881
 1393TIP3    H2 4123   0.962   4.545   2.006
 1394TIP3   OH2 4124   1.439   4.224   1.760
 1394TIP3    H1 4125   1.505   4.156   1.758
 1394TIP3    H2 4126   1.398   4.221   1.673
 1395TIP3   OH2 4127   1.502   4.442   1.918
 1395TIP3    H1 4128   1.483   4.371   1.856
 1395TIP3    H2 4129   1.425   4.499   1.913
 1396TIP3   OH2 4130   1.992   5.914   0.641
 1396TIP3    H1 4131   2.016   5.944   0.728
 1396TIP3    H2 4132   2.055   5.957   0.583
 1397TIP3   OH2 4133   2.014   5.931   0.922
 1397TIP3    H1 4134   1.968   5.848   0.917
 1397TIP3    H2 4135   2.090   5.914   0.978
 1398TIP3   OH2 4136   2.058   5.614   1.492
 1398TIP3    H1 4137   1.988   5.619   1.556
 1398TIP3    H2 4138   2.101   5.699   1.496
 1399TIP3   OH2 4139   1.883   5.120   0.108
 1399TIP3    H1 4140   1.948   5.183   0.076
 1399TIP3    H2 4141   1.923   5.081   0.186
 1400TIP3   OH2 4142   2.003   4.993   0.318
 1400TIP3    H1 4143   1.941   4.947   0.375
 1400TIP3    H2 4144   2.070   5.027   0.377
 1401TIP3   OH2 4145   2.059   5.385   0.742
 1401TIP3    H1 4146   2.114   5.318   0.701
 1401TIP3    H2 4147   2.053   5.455   0.677
 1402TIP3   OH2 4148   1.885   5.685   0.938
 1402TIP3    H1 4149   1.818   5.724   0.994
 1402TIP3    H2 4150   1.836   5.636   0.871
 1403TIP3   OH2 4151   7.610   0.886   6.904
 1403TIP3    H1 4152   7.533   0.860   6.853
 1403TIP3    H2 4153   7.583   0.966   6.949
 1404TIP3   OH2 4154   7.482   0.578   6.852
 1404TIP3    H1 4155   7.414   0.629   6.810
 1404TIP3    H2 4156   7.453   0.487   6.843
 1405TIP3   OH2 4157   1.823   4.843   0.465
 1405TIP3    H1 4158   1.828   4.748   0.455
 1405TIP3    H2 4159   1.808   4.856   0.559
 1406TIP3   OH2 4160   0.457   4.908   1.220
 1406TIP3    H1 4161   0.454   4.883   1.128
 1406TIP3    H2 4162   0.550   4.910   1.242
 1407TIP3   OH2 4163   2.109   5.273   1.316
 1407TIP3    H1 4164   2.177   5.206   1.307
 1407TIP3    H2 4165   2.136   5.342   1.255
 1408TIP3   OH2 4166   2.291   5.073   1.328
 1408TIP3    H1 4167   2.215   5.028   1.366
 1408TIP3    H2 4168   2.364   5.014   1.343
 1409TIP3   OH2 4169   7.415   0.312   6.859
 1409TIP3    H1 4170   7.500   0.279   6.888
 1409TIP3    H2 4171   7.352   0.269   6.917
 1410TIP3   OH2 4172   1.814   4.560   0.350
 1410TIP3    H1 4173   1.849   4.473   0.369
 1410TIP3    H2 4174   1.872   4.594   0.281
 1411TIP3   OH2 4175   1.977   4.739   0.851
 1411TIP3    H1 4176   2.059   4.761   0.808
 1411TIP3    H2 4177   1.986   4.773   0.940
 1412TIP3   OH2 4178   2.044   4.885   1.081
 1412TIP3    H1 4179   1.968   4.915   1.131
 1412TIP3    H2 4180   2.077   4.963   1.037
 1413TIP3   OH2 4181   0.657   4.599   1.868
 1413TIP3    H1 4182   0.752   4.607   1.881
 1413TIP3    H2 4183   0.634   4.519   1.914
 1414TIP3   OH2 4184   2.496   4.476   1.634
 1414TIP3    H1 4185   2.555   4.411   1.595
 1414TIP3    H2 4186   2.466   4.529   1.560
 1415TIP3   OH2 4187   1.917   4.312   0.399
 1415TIP3    H1 4188   1.968   4.300   0.480
 1415TIP3    H2 4189   1.852   4.242   0.401
 1416TIP3   OH2 4190   0.627   4.302   1.217
 1416TIP3    H1 4191   0.685   4.226   1.223
 1416TIP3    H2 4192   0.686   4.377   1.207
 1417TIP3   OH2 4193   0.417   4.573   1.287
 1417TIP3    H1 4194   0.472   4.568   1.209
 1417TIP3    H2 4195   0.440   4.656   1.328
 1418TIP3   OH2 4196   2.362   4.612   1.440
 1418TIP3    H1 4197   2.280   4.655   1.464
 1418TIP3    H2 4198   2.335   4.539   1.384
 1419TIP3   OH2 4199   2.011   4.254   0.009
 1419TIP3    H1 4200   2.074   4.187  -0.017
 1419TIP3    H2 4201   2.063   4.334   0.017
 1420TIP3   OH2 4202   0.627   4.151   1.599
 1420TIP3    H1 4203   0.581   4.153   1.683
 1420TIP3    H2 4204   0.566   4.194   1.538
 1421TIP3   OH2 4205   0.677   5.585   1.676
 1421TIP3    H1 4206   0.587   5.558   1.662
 1421TIP3    H2 4207   0.694   5.565   1.768
 1422TIP3   OH2 4208   0.850   5.608   1.233
 1422TIP3    H1 4209   0.780   5.632   1.173
 1422TIP3    H2 4210   0.930   5.641   1.191
 1423TIP3   OH2 4211   1.295   5.862   1.364
 1423TIP3    H1 4212   1.333   5.858   1.452
 1423TIP3    H2 4213   1.360   5.911   1.313
 1424TIP3   OH2 4214   1.474   6.016   1.224
 1424TIP3    H1 4215   1.541   5.961   1.183
 1424TIP3    H2 4216   1.524   6.072   1.284
 1425TIP3   OH2 4217   2.264   4.372   1.320
 1425TIP3    H1 4218   2.174   4.367   1.287
 1425TIP3    H2 4219   2.298   4.284   1.311
 1426TIP3   OH2 4220   1.216   5.911   0.881
 1426TIP3    H1 4221   1.124   5.887   0.869
 1426TIP3    H2 4222   1.215   5.976   0.950
 1427TIP3   OH2 4223   1.463   5.823   0.957
 1427TIP3    H1 4224   1.372   5.845   0.933
 1427TIP3    H2 4225   1.515   5.894   0.918
 1428TIP3   OH2 4226   1.659   6.004   0.870
 1428TIP3    H1 4227   1.650   6.089   0.826
 1428TIP3    H2 4228   1.689   5.945   0.801
 1429TIP3   OH2 4229   1.472   4.291   0.943
 1429TIP3    H1 4230   1.429   4.221   0.992
 1429TIP3    H2 4231   1.537   4.246   0.888
 1430TIP3   OH2 4232   1.985   4.177   0.846
 1430TIP3    H1 4233   2.025   4.223   0.772
 1430TIP3    H2 4234   1.891   4.191   0.835
 1431TIP3   OH2 4235   2.091   4.271   0.611
 1431TIP3    H1 4236   2.160   4.217   0.572
 1431TIP3    H2 4237   2.120   4.361   0.596
 1432TIP3   OH2 4238   0.712   3.997   0.954
 1432TIP3    H1 4239   0.627   3.952   0.957
 1432TIP3    H2 4240   0.776   3.926   0.950
 1433TIP3   OH2 4241   1.155   4.048   0.833
 1433TIP3    H1 4242   1.220   4.071   0.767
 1433TIP3    H2 4243   1.194   4.073   0.917
 1434TIP3   OH2 4244   1.709   4.173   0.802
 1434TIP3    H1 4245   1.702   4.142   0.712
 1434TIP3    H2 4246   1.691   4.096   0.856
 1435TIP3   OH2 4247   1.165   4.203   0.469
 1435TIP3    H1 4248   1.218   4.150   0.529
 1435TIP3    H2 4249   1.183   4.293   0.494
 1436TIP3   OH2 4250   0.928   4.277   1.847
 1436TIP3    H1 4251   0.891   4.209   1.904
 1436TIP3    H2 4252   1.020   4.281   1.872
 1437TIP3   OH2 4253   1.175   4.274   1.966
 1437TIP3    H1 4254   1.261   4.254   1.927
 1437TIP3    H2 4255   1.163   4.207   2.032
 1438TIP3   OH2 4256   2.003   4.339   1.755
 1438TIP3    H1 4257   2.018   4.310   1.845
 1438TIP3    H2 4258   2.089   4.335   1.714
 1439TIP3   OH2 4259   1.938   5.893   1.246
 1439TIP3    H1 4260   1.861   5.859   1.200
 1439TIP3    H2 4261   1.920   5.987   1.255
 1440TIP3   OH2 4262   3.197   5.274   0.062
 1440TIP3    H1 4263   3.192   5.354   0.010
 1440TIP3    H2 4264   3.120   5.278   0.119
 1441TIP3   OH2 4265   3.200   5.257   0.401
 1441TIP3    H1 4266   3.235   5.246   0.490
 1441TIP3    H2 4267   3.163   5.172   0.380
 1442TIP3   OH2 4268   2.503   5.156   0.762
 1442TIP3    H1 4269   2.531   5.088   0.824
 1442TIP3    H2 4270   2.580   5.212   0.752
 1443TIP3   OH2 4271   3.467   5.557   0.074
 1443TIP3    H1 4272   3.436   5.494   0.139
 1443TIP3    H2 4273   3.482   5.637   0.124
 1444TIP3   OH2 4274   2.478   5.567   0.480
 1444TIP3    H1 4275   2.467   5.472   0.483
 1444TIP3    H2 4276   2.573   5.580   0.473
 1445TIP3   OH2 4277   2.181   4.773   0.266
 1445TIP3    H1 4278   2.135   4.855   0.282
 1445TIP3    H2 4279   2.114   4.715   0.229
 1446TIP3   OH2 4280   2.243   5.058   0.444
 1446TIP3    H1 4281   2.289   4.982   0.480
 1446TIP3    H2 4282   2.301   5.091   0.376
 1447TIP3   OH2 4283   3.063   5.992   0.130
 1447TIP3    H1 4284   3.123   5.993   0.055
 1447TIP3    H2 4285   3.119   5.979   0.206
 1448TIP3   OH2 4286   3.007   5.490   0.442
 1448TIP3    H1 4287   3.043   5.410   0.401
 1448TIP3    H2 4288   3.085   5.539   0.469
 1449TIP3   OH2 4289   4.018   4.808   0.442
 1449TIP3    H1 4290   4.043   4.892   0.479
 1449TIP3    H2 4291   4.057   4.807   0.355
 1450TIP3   OH2 4292   3.437   5.005   0.505
 1450TIP3    H1 4293   3.459   4.912   0.515
 1450TIP3    H2 4294   3.445   5.021   0.411
 1451TIP3   OH2 4295   2.753   4.651   0.437
 1451TIP3    H1 4296   2.736   4.724   0.377
 1451TIP3    H2 4297   2.707   4.577   0.398
 1452TIP3   OH2 4298   3.452   4.745   0.055
 1452TIP3    H1 4299   3.519   4.728   0.121
 1452TIP3    H2 4300   3.500   4.772  -0.023
 1453TIP3   OH2 4301   2.390   4.851   0.546
 1453TIP3    H1 4302   2.470   4.833   0.596
 1453TIP3    H2 4303   2.398   4.798   0.468
 1454TIP3   OH2 4304   2.830   5.047   0.342
 1454TIP3    H1 4305   2.922   5.022   0.356
 1454TIP3    H2 4306   2.788   4.967   0.309
 1455TIP3   OH2 4307   4.091   5.020   0.612
 1455TIP3    H1 4308   4.009   5.063   0.590
 1455TIP3    H2 4309   4.112   5.052   0.700
 1456TIP3   OH2 4310   2.749   4.635   0.875
 1456TIP3    H1 4311   2.692   4.670   0.805
 1456TIP3    H2 4312   2.699   4.650   0.955
 1457TIP3   OH2 4313   0.296   1.474   6.851
 1457TIP3    H1 4314   0.256   1.428   6.778
 1457TIP3    H2 4315   0.242   1.553   6.862
 1458TIP3   OH2 4316   2.855   5.412   0.665
 1458TIP3    H1 4317   2.796   5.477   0.703
 1458TIP3    H2 4318   2.900   5.459   0.594
 1459TIP3   OH2 4319   3.652   4.749   0.238
 1459TIP3    H1 4320   3.637   4.699   0.318
 1459TIP3    H2 4321   3.708   4.822   0.264
 1460TIP3   OH2 4322   2.625   4.751   0.657
 1460TIP3    H1 4323   2.683   4.822   0.683
 1460TIP3    H2 4324   2.670   4.708   0.583
 1461TIP3   OH2 4325   2.684   5.608   0.766
 1461TIP3    H1 4326   2.663   5.693   0.728
 1461TIP3    H2 4327   2.609   5.587   0.822
 1462TIP3   OH2 4328   7.744   1.285   6.941
 1462TIP3    H1 4329   7.709   1.298   6.853
 1462TIP3    H2 4330   7.761   1.374   6.973
 1463TIP3   OH2 4331   3.516   5.800   0.242
 1463TIP3    H1 4332   3.432   5.783   0.285
 1463TIP3    H2 4333   3.510   5.890   0.211
 1464TIP3   OH2 4334   3.810   4.708   0.604
 1464TIP3    H1 4335   3.724   4.736   0.574
 1464TIP3    H2 4336   3.870   4.739   0.537
 1465TIP3   OH2 4337   3.104   4.350   0.593
 1465TIP3    H1 4338   3.091   4.256   0.606
 1465TIP3    H2 4339   3.029   4.390   0.636
 1466TIP3   OH2 4340   3.736   5.723   0.588
 1466TIP3    H1 4341   3.733   5.647   0.530
 1466TIP3    H2 4342   3.734   5.798   0.530
 1467TIP3   OH2 4343   0.259   1.215   6.697
 1467TIP3    H1 4344   0.176   1.200   6.743
 1467TIP3    H2 4345   0.323   1.163   6.744
 1468TIP3   OH2 4346   3.939   5.362   0.433
 1468TIP3    H1 4347   3.857   5.411   0.443
 1468TIP3    H2 4348   3.968   5.380   0.344
 1469TIP3   OH2 4349   0.505   1.121   6.827
 1469TIP3    H1 4350   0.467   1.183   6.889
 1469TIP3    H2 4351   0.599   1.134   6.834
 1470TIP3   OH2 4352   3.616   5.240   0.733
 1470TIP3    H1 4353   3.620   5.320   0.786
 1470TIP3    H2 4354   3.533   5.246   0.686
 1471TIP3   OH2 4355   2.615   5.192   0.233
 1471TIP3    H1 4356   2.573   5.136   0.168
 1471TIP3    H2 4357   2.691   5.142   0.262
 1472TIP3   OH2 4358   2.744   5.603   0.379
 1472TIP3    H1 4359   2.724   5.571   0.291
 1472TIP3    H2 4360   2.832   5.570   0.397
 1473TIP3   OH2 4361   2.750   5.169   0.585
 1473TIP3    H1 4362   2.784   5.144   0.499
 1473TIP3    H2 4363   2.793   5.252   0.605
 1474TIP3   OH2 4364   3.279   5.802   0.365
 1474TIP3    H1 4365   3.264   5.883   0.413
 1474TIP3    H2 4366   3.262   5.733   0.428
 1475TIP3   OH2 4367   2.888   5.724   0.911
 1475TIP3    H1 4368   2.832   5.786   0.957
 1475TIP3    H2 4369   2.827   5.670   0.861
 1476TIP3   OH2 4370   2.644   5.281   1.015
 1476TIP3    H1 4371   2.652   5.367   1.056
 1476TIP3    H2 4372   2.552   5.258   1.025
 1477TIP3   OH2 4373   0.142   1.727   6.888
 1477TIP3    H1 4374   0.199   1.774   6.948
 1477TIP3    H2 4375   0.059   1.775   6.889
 1478TIP3   OH2 4376   2.682   5.890   0.997
 1478TIP3    H1 4377   2.651   5.891   0.907
 1478TIP3    H2 4378   2.605   5.870   1.050
 1479TIP3   OH2 4379   2.478   5.034   0.044
 1479TIP3    H1 4380   2.412   5.073  -0.013
 1479TIP3    H2 4381   2.453   4.942   0.052
 1480TIP3   OH2 4382   2.263   5.421   0.944
 1480TIP3    H1 4383   2.198   5.399   0.878
 1480TIP3    H2 4384   2.302   5.337   0.969
 1481TIP3   OH2 4385   2.120   5.622   0.569
 1481TIP3    H1 4386   2.214   5.605   0.565
 1481TIP3    H2 4387   2.112   5.694   0.632
 1482TIP3   OH2 4388   3.086   5.855   0.770
 1482TIP3    H1 4389   3.086   5.946   0.800
 1482TIP3    H2 4390   3.018   5.812   0.821
 1483TIP3   OH2 4391   2.271   5.806   0.121
 1483TIP3    H1 4392   2.348   5.810   0.177
 1483TIP3    H2 4393   2.200   5.779   0.179
 1484TIP3   OH2 4394   3.870   5.193   0.911
 1484TIP3    H1 4395   3.791   5.209   0.860
 1484TIP3    H2 4396   3.888   5.100   0.901
 1485TIP3   OH2 4397   2.468   5.605   0.932
 1485TIP3    H1 4398   2.518   5.590   1.012
 1485TIP3    H2 4399   2.395   5.543   0.938
 1486TIP3   OH2 4400   2.864   4.430   0.719
 1486TIP3    H1 4401   2.779   4.397   0.690
 1486TIP3    H2 4402   2.843   4.510   0.767
 1487TIP3   OH2 4403   3.402   4.542   0.914
 1487TIP3    H1 4404   3.470   4.516   0.976
 1487TIP3    H2 4405   3.320   4.523   0.959
 1488TIP3   OH2 4406   3.638   4.973   0.831
 1488TIP3    H1 4407   3.591   4.971   0.915
 1488TIP3    H2 4408   3.615   5.058   0.793
 1489TIP3   OH2 4409   0.190   0.492   6.640
 1489TIP3    H1 4410   0.149   0.463   6.721
 1489TIP3    H2 4411   0.150   0.437   6.572
 1490TIP3   OH2 4412   2.798   4.948   0.736
 1490TIP3    H1 4413   2.750   4.964   0.817
 1490TIP3    H2 4414   2.783   5.026   0.683
 1491TIP3   OH2 4415   2.679   4.831   0.250
 1491TIP3    H1 4416   2.589   4.806   0.273
 1491TIP3    H2 4417   2.694   4.792   0.164
 1492TIP3   OH2 4418   0.353   0.889   6.849
 1492TIP3    H1 4419   0.343   0.982   6.870
 1492TIP3    H2 4420   0.441   0.882   6.812
 1493TIP3   OH2 4421   3.350   5.191   1.066
 1493TIP3    H1 4422   3.325   5.121   1.126
 1493TIP3    H2 4423   3.442   5.208   1.085
 1494TIP3   OH2 4424   3.332   4.930   0.226
 1494TIP3    H1 4425   3.272   4.969   0.163
 1494TIP3    H2 4426   3.363   4.850   0.184
 1495TIP3   OH2 4427   2.618   4.972   0.946
 1495TIP3    H1 4428   2.648   5.036   1.011
 1495TIP3    H2 4429   2.606   4.891   0.995
 1496TIP3   OH2 4430   8.357   0.378   6.614
 1496TIP3    H1 4431   8.331   0.416   6.698
 1496TIP3    H2 4432   8.319   0.436   6.548
 1497TIP3   OH2 4433   2.213   4.495   0.524
 1497TIP3    H1 4434   2.286   4.525   0.578
 1497TIP3    H2 4435   2.254   4.460   0.445
 1498TIP3   OH2 4436   2.177   4.479   0.040
 1498TIP3    H1 4437   2.231   4.512  -0.032
 1498TIP3    H2 4438   2.120   4.552   0.063
 1499TIP3   OH2 4439   3.323   5.198   0.651
 1499TIP3    H1 4440   3.367   5.132   0.597
 1499TIP3    H2 4441   3.297   5.151   0.730
 1500TIP3   OH2 4442   3.013   4.640   0.314
 1500TIP3    H1 4443   2.931   4.640   0.364
 1500TIP3    H2 4444   3.081   4.643   0.380
 1501TIP3   OH2 4445   2.443   4.708   0.318
 1501TIP3    H1 4446   2.352   4.716   0.291
 1501TIP3    H2 4447   2.467   4.618   0.296
 1502TIP3   OH2 4448   8.370   0.700   6.950
 1502TIP3    H1 4449   8.462   0.716   6.929
 1502TIP3    H2 4450   8.322   0.730   6.872
 1503TIP3   OH2 4451   3.499   4.730   0.516
 1503TIP3    H1 4452   3.471   4.742   0.606
 1503TIP3    H2 4453   3.434   4.672   0.477
 1504TIP3   OH2 4454   8.206   0.744   6.740
 1504TIP3    H1 4455   8.126   0.694   6.721
 1504TIP3    H2 4456   8.264   0.724   6.666
 1505TIP3   OH2 4457   3.673   6.427   0.733
 1505TIP3    H1 4458   3.673   6.447   0.639
 1505TIP3    H2 4459   3.755   6.466   0.766
 1506TIP3   OH2 4460   2.630   5.529   1.154
 1506TIP3    H1 4461   2.710   5.557   1.199
 1506TIP3    H2 4462   2.564   5.526   1.224
 1507TIP3   OH2 4463   3.101   4.979   0.415
 1507TIP3    H1 4464   3.181   4.942   0.377
 1507TIP3    H2 4465   3.095   4.940   0.502
 1508TIP3   OH2 4466   2.613   4.465   0.292
 1508TIP3    H1 4467   2.578   4.390   0.340
 1508TIP3    H2 4468   2.651   4.428   0.213
 1509TIP3   OH2 4469   3.069   4.885   0.695
 1509TIP3    H1 4470   2.980   4.917   0.714
 1509TIP3    H2 4471   3.125   4.941   0.748
 1510TIP3   OH2 4472   8.470   1.253   6.749
 1510TIP3    H1 4473   8.388   1.207   6.732
 1510TIP3    H2 4474   8.454   1.301   6.831
 1511TIP3   OH2 4475   3.703   5.502   0.421
 1511TIP3    H1 4476   3.730   5.550   0.343
 1511TIP3    H2 4477   3.620   5.461   0.397
 1512TIP3   OH2 4478   3.200   5.587   0.791
 1512TIP3    H1 4479   3.236   5.568   0.878
 1512TIP3    H2 4480   3.166   5.676   0.798
 1513TIP3   OH2 4481   2.499   5.290   0.467
 1513TIP3    H1 4482   2.536   5.264   0.383
 1513TIP3    H2 4483   2.541   5.233   0.531
 1514TIP3   OH2 4484   2.380   5.210   1.084
 1514TIP3    H1 4485   2.400   5.198   1.176
 1514TIP3    H2 4486   2.312   5.145   1.065
 1515TIP3   OH2 4487   3.108   5.325   1.101
 1515TIP3    H1 4488   3.046   5.267   1.055
 1515TIP3    H2 4489   3.194   5.293   1.075
 1516TIP3   OH2 4490   3.361   5.849   0.689
 1516TIP3    H1 4491   3.266   5.846   0.702
 1516TIP3    H2 4492   3.394   5.899   0.764
 1517TIP3   OH2 4493   3.998   5.747   0.688
 1517TIP3    H1 4494   3.909   5.784   0.690
 1517TIP3    H2 4495   4.020   5.744   0.595
 1518TIP3   OH2 4496   3.467   5.365   0.336
 1518TIP3    H1 4497   3.374   5.345   0.350
 1518TIP3    H2 4498   3.502   5.285   0.297
 1519TIP3   OH2 4499   2.607   5.589   0.107
 1519TIP3    H1 4500   2.606   5.664   0.048
 1519TIP3    H2 4501   2.516   5.562   0.114
 1520TIP3   OH2 4502   7.833   0.892   6.741
 1520TIP3    H1 4503   7.879   0.973   6.759
 1520TIP3    H2 4504   7.756   0.894   6.797
 1521TIP3   OH2 4505   2.750   5.362   0.057
 1521TIP3    H1 4506   2.712   5.449   0.065
 1521TIP3    H2 4507   2.705   5.309   0.123
 1522TIP3   OH2 4508   2.871   5.937   0.563
 1522TIP3    H1 4509   2.908   6.010   0.512
 1522TIP3    H2 4510   2.946   5.901   0.610
 1523TIP3   OH2 4511   8.186   1.799   6.912
 1523TIP3    H1 4512   8.092   1.813   6.928
 1523TIP3    H2 4513   8.224   1.886   6.912
 1524TIP3   OH2 4514   3.257   5.571   0.525
 1524TIP3    H1 4515   3.243   5.572   0.620
 1524TIP3    H2 4516   3.339   5.522   0.514
 1525TIP3   OH2 4517   3.502   6.095   0.577
 1525TIP3    H1 4518   3.427   6.036   0.571
 1525TIP3    H2 4519   3.486   6.159   0.508
 1526TIP3   OH2 4520   2.588   4.716   1.089
 1526TIP3    H1 4521   2.493   4.721   1.099
 1526TIP3    H2 4522   2.618   4.660   1.161
 1527TIP3   OH2 4523   2.307   5.799   0.722
 1527TIP3    H1 4524   2.361   5.727   0.756
 1527TIP3    H2 4525   2.333   5.875   0.774
 1528TIP3   OH2 4526   7.946   1.132   6.826
 1528TIP3    H1 4527   7.879   1.181   6.874
 1528TIP3    H2 4528   7.996   1.198   6.778
 1529TIP3   OH2 4529   3.429   4.780   0.775
 1529TIP3    H1 4530   3.508   4.820   0.810
 1529TIP3    H2 4531   3.417   4.701   0.827
 1530TIP3   OH2 4532   0.462   0.541   6.875
 1530TIP3    H1 4533   0.441   0.576   6.788
 1530TIP3    H2 4534   0.518   0.607   6.915
 1531TIP3   OH2 4535   2.985   4.706   0.031
 1531TIP3    H1 4536   3.053   4.765  -0.001
 1531TIP3    H2 4537   3.000   4.700   0.125
 1532TIP3   OH2 4538   3.265   5.025   0.852
 1532TIP3    H1 4539   3.291   5.075   0.930
 1532TIP3    H2 4540   3.320   4.947   0.855
 1533TIP3   OH2 4541   3.140   4.437   0.137
 1533TIP3    H1 4542   3.133   4.507   0.203
 1533TIP3    H2 4543   3.196   4.474   0.069
 1534TIP3   OH2 4544   8.314   0.435   6.887
 1534TIP3    H1 4545   8.316   0.526   6.917
 1534TIP3    H2 4546   8.406   0.408   6.887
 1535TIP3   OH2 4547   3.903   4.927   0.828
 1535TIP3    H1 4548   3.808   4.928   0.837
 1535TIP3    H2 4549   3.919   4.890   0.741
 1536TIP3   OH2 4550   3.545   5.110   0.236
 1536TIP3    H1 4551   3.480   5.040   0.228
 1536TIP3    H2 4552   3.621   5.068   0.275
 1537TIP3   OH2 4553   7.900   0.630   6.751
 1537TIP3    H1 4554   7.888   0.725   6.746
 1537TIP3    H2 4555   7.820   0.594   6.713
 1538TIP3   OH2 4556   3.534   6.071   0.183
 1538TIP3    H1 4557   3.489   6.079   0.099
 1538TIP3    H2 4558   3.626   6.062   0.161
 1539TIP3   OH2 4559   2.602   4.346   0.690
 1539TIP3    H1 4560   2.571   4.315   0.605
 1539TIP3    H2 4561   2.592   4.271   0.748
 1540TIP3   OH2 4562   2.114   5.560   0.055
 1540TIP3    H1 4563   2.080   5.604   0.133
 1540TIP3    H2 4564   2.178   5.621   0.020
 1541TIP3   OH2 4565   2.303   6.112   1.145
 1541TIP3    H1 4566   2.386   6.116   1.191
 1541TIP3    H2 4567   2.281   6.019   1.142
 1542TIP3   OH2 4568   2.778   6.069   1.187
 1542TIP3    H1 4569   2.872   6.054   1.197
 1542TIP3    H2 4570   2.752   6.011   1.116
 1543TIP3   OH2 4571   3.417   5.980   0.926
 1543TIP3    H1 4572   3.410   5.911   0.991
 1543TIP3    H2 4573   3.495   6.030   0.951
 1544TIP3   OH2 4574   2.427   5.515   1.343
 1544TIP3    H1 4575   2.446   5.422   1.351
 1544TIP3    H2 4576   2.342   5.520   1.300
 1545TIP3   OH2 4577   3.035   5.601   1.117
 1545TIP3    H1 4578   2.996   5.621   1.032
 1545TIP3    H2 4579   3.068   5.511   1.108
 1546TIP3   OH2 4580   3.525   5.614   0.723
 1546TIP3    H1 4581   3.603   5.653   0.684
 1546TIP3    H2 4582   3.457   5.681   0.711
 1547TIP3   OH2 4583   2.550   5.254   1.328
 1547TIP3    H1 4584   2.623   5.198   1.302
 1547TIP3    H2 4585   2.574   5.285   1.416
 1548TIP3   OH2 4586   8.275   1.054   6.703
 1548TIP3    H1 4587   8.243   1.011   6.783
 1548TIP3    H2 4588   8.359   1.013   6.685
 1549TIP3   OH2 4589   2.883   5.136   0.986
 1549TIP3    H1 4590   2.806   5.193   0.990
 1549TIP3    H2 4591   2.933   5.167   0.911
 1550TIP3   OH2 4592   3.401   5.535   1.120
 1550TIP3    H1 4593   3.480   5.510   1.072
 1550TIP3    H2 4594   3.396   5.472   1.192
 1551TIP3   OH2 4595   3.006   4.924   1.111
 1551TIP3    H1 4596   3.008   4.846   1.057
 1551TIP3    H2 4597   2.964   4.990   1.057
 1552TIP3   OH2 4598   3.008   4.711   0.919
 1552TIP3    H1 4599   3.037   4.750   0.837
 1552TIP3    H2 4600   2.917   4.687   0.904
 1553TIP3   OH2 4601   3.034   5.246   0.793
 1553TIP3    H1 4602   3.119   5.257   0.751
 1553TIP3    H2 4603   2.978   5.310   0.750
 1554TIP3   OH2 4604   3.619   5.211   1.174
 1554TIP3    H1 4605   3.665   5.128   1.182
 1554TIP3    H2 4606   3.684   5.271   1.137
 1555TIP3   OH2 4607   3.653   5.465   0.908
 1555TIP3    H1 4608   3.596   5.519   0.853
 1555TIP3    H2 4609   3.741   5.482   0.875
 1556TIP3   OH2 4610   2.885   5.029   1.345
 1556TIP3    H1 4611   2.817   4.964   1.362
 1556TIP3    H2 4612   2.920   5.006   1.258
 1557TIP3   OH2 4613   3.139   4.473   0.990
 1557TIP3    H1 4614   3.093   4.554   0.968
 1557TIP3    H2 4615   3.073   4.405   0.979
 1558TIP3   OH2 4616   3.264   4.974   1.207
 1558TIP3    H1 4617   3.254   4.961   1.301
 1558TIP3    H2 4618   3.179   4.952   1.170
 1559TIP3   OH2 4619   3.506   4.926   1.063
 1559TIP3    H1 4620   3.431   4.927   1.122
 1559TIP3    H2 4621   3.579   4.896   1.117
 1560TIP3   OH2 4622   3.737   4.868   1.214
 1560TIP3    H1 4623   3.749   4.774   1.228
 1560TIP3    H2 4624   3.732   4.905   1.302
 1561TIP3   OH2 4625   2.725   4.809   1.401
 1561TIP3    H1 4626   2.728   4.720   1.366
 1561TIP3    H2 4627   2.761   4.801   1.490
 1562TIP3   OH2 4628   3.235   4.480   1.246
 1562TIP3    H1 4629   3.301   4.411   1.244
 1562TIP3    H2 4630   3.194   4.478   1.160
 1563TIP3   OH2 4631   3.300   4.697   1.405
 1563TIP3    H1 4632   3.280   4.627   1.343
 1563TIP3    H2 4633   3.224   4.755   1.400
 1564TIP3   OH2 4634   7.679   1.298   6.674
 1564TIP3    H1 4635   7.742   1.302   6.601
 1564TIP3    H2 4636   7.624   1.222   6.654
 1565TIP3   OH2 4637   1.923   5.901   0.130
 1565TIP3    H1 4638   1.836   5.929   0.159
 1565TIP3    H2 4639   1.958   5.852   0.205
 1566TIP3   OH2 4640   2.068   5.762   0.324
 1566TIP3    H1 4641   2.049   5.692   0.386
 1566TIP3    H2 4642   2.113   5.829   0.375
 1567TIP3   OH2 4643   3.808   6.194   0.410
 1567TIP3    H1 4644   3.773   6.106   0.402
 1567TIP3    H2 4645   3.888   6.184   0.462
 1568TIP3   OH2 4646   3.856   5.865   0.984
 1568TIP3    H1 4647   3.784   5.877   1.046
 1568TIP3    H2 4648   3.897   5.951   0.977
 1569TIP3   OH2 4649   3.854   5.633   0.231
 1569TIP3    H1 4650   3.899   5.569   0.175
 1569TIP3    H2 4651   3.815   5.695   0.170
 1570TIP3   OH2 4652   3.684   5.941   0.426
 1570TIP3    H1 4653   3.623   5.982   0.487
 1570TIP3    H2 4654   3.629   5.888   0.368
 1571TIP3   OH2 4655   0.778   1.083   6.904
 1571TIP3    H1 4656   0.791   0.989   6.892
 1571TIP3    H2 4657   0.770   1.094   6.999
 1572TIP3   OH2 4658   2.240   5.181   0.692
 1572TIP3    H1 4659   2.235   5.146   0.603
 1572TIP3    H2 4660   2.334   5.182   0.712
 1573TIP3   OH2 4661   3.898   5.521   0.805
 1573TIP3    H1 4662   3.969   5.459   0.795
 1573TIP3    H2 4663   3.924   5.597   0.753
 1574TIP3   OH2 4664   4.085   5.327   0.814
 1574TIP3    H1 4665   4.012   5.282   0.856
 1574TIP3    H2 4666   4.160   5.269   0.829
 1575TIP3   OH2 4667   0.780   0.808   6.778
 1575TIP3    H1 4668   0.815   0.721   6.796
 1575TIP3    H2 4669   0.847   0.849   6.723
 1576TIP3   OH2 4670   3.764   4.991   0.346
 1576TIP3    H1 4671   3.845   5.017   0.303
 1576TIP3    H2 4672   3.774   5.023   0.436
 1577TIP3   OH2 4673   3.839   5.141   0.572
 1577TIP3    H1 4674   3.763   5.174   0.619
 1577TIP3    H2 4675   3.873   5.217   0.525
 1578TIP3   OH2 4676   2.459   4.863   1.371
 1578TIP3    H1 4677   2.555   4.860   1.372
 1578TIP3    H2 4678   2.432   4.779   1.408
 1579TIP3   OH2 4679   4.294   4.733   1.122
 1579TIP3    H1 4680   4.352   4.668   1.082
 1579TIP3    H2 4681   4.262   4.786   1.049
 1580TIP3   OH2 4682   0.868   0.562   6.831
 1580TIP3    H1 4683   0.928   0.542   6.904
 1580TIP3    H2 4684   0.815   0.482   6.822
 1581TIP3   OH2 4685   2.421   4.557   0.699
 1581TIP3    H1 4686   2.479   4.482   0.708
 1581TIP3    H2 4687   2.480   4.632   0.692
 1582TIP3   OH2 4688   2.220   4.831   0.770
 1582TIP3    H1 4689   2.268   4.824   0.687
 1582TIP3    H2 4690   2.251   4.913   0.808
 1583TIP3   OH2 4691   4.157   4.866   0.929
 1583TIP3    H1 4692   4.076   4.912   0.950
 1583TIP3    H2 4693   4.131   4.795   0.871
 1584TIP3   OH2 4694   2.204   4.336   0.271
 1584TIP3    H1 4695   2.114   4.328   0.302
 1584TIP3    H2 4696   2.198   4.391   0.194
 1585TIP3   OH2 4697   2.422   4.414   1.087
 1585TIP3    H1 4698   2.375   4.408   1.170
 1585TIP3    H2 4699   2.359   4.452   1.026
 1586TIP3   OH2 4700   2.462   5.844   1.163
 1586TIP3    H1 4701   2.371   5.818   1.146
 1586TIP3    H2 4702   2.476   5.823   1.255
 1587TIP3   OH2 4703   2.644   5.879   0.709
 1587TIP3    H1 4704   2.595   5.953   0.674
 1587TIP3    H2 4705   2.731   5.886   0.668
 1588TIP3   OH2 4706   3.088   6.121   0.849
 1588TIP3    H1 4707   3.127   6.118   0.937
 1588TIP3    H2 4708   3.152   6.169   0.797
 1589TIP3   OH2 4709   3.272   6.270   0.709
 1589TIP3    H1 4710   3.342   6.216   0.673
 1589TIP3    H2 4711   3.315   6.330   0.769
 1590TIP3   OH2 4712   4.059   4.630   0.807
 1590TIP3    H1 4713   3.970   4.626   0.773
 1590TIP3    H2 4714   4.093   4.540   0.797
 1591TIP3   OH2 4715   2.314   6.130   0.738
 1591TIP3    H1 4716   2.227   6.163   0.714
 1591TIP3    H2 4717   2.334   6.174   0.821
 1592TIP3   OH2 4718   2.553   6.112   0.594
 1592TIP3    H1 4719   2.468   6.123   0.638
 1592TIP3    H2 4720   2.538   6.144   0.505
 1593TIP3   OH2 4721   2.978   6.139   0.402
 1593TIP3    H1 4722   2.925   6.150   0.324
 1593TIP3    H2 4723   2.987   6.227   0.438
 1594TIP3   OH2 4724   3.244   6.073   0.434
 1594TIP3    H1 4725   3.151   6.093   0.426
 1594TIP3    H2 4726   3.289   6.154   0.410
 1595TIP3   OH2 4727   3.455   6.263   0.370
 1595TIP3    H1 4728   3.435   6.343   0.321
 1595TIP3    H2 4729   3.485   6.201   0.303
 1596TIP3   OH2 4730   2.234   5.920   0.479
 1596TIP3    H1 4731   2.254   5.897   0.570
 1596TIP3    H2 4732   2.306   5.882   0.429
 1597TIP3   OH2 4733   2.429   5.797   0.338
 1597TIP3    H1 4734   2.442   5.715   0.385
 1597TIP3    H2 4735   2.517   5.836   0.334
 1598TIP3   OH2 4736   2.691   5.889   0.348
 1598TIP3    H1 4737   2.721   5.800   0.330
 1598TIP3    H2 4738   2.738   5.915   0.427
 1599TIP3   OH2 4739   3.271   4.544   0.429
 1599TIP3    H1 4740   3.228   4.475   0.479
 1599TIP3    H2 4741   3.345   4.500   0.386
 1600TIP3   OH2 4742   3.783   4.434   0.343
 1600TIP3    H1 4743   3.820   4.478   0.267
 1600TIP3    H2 4744   3.688   4.448   0.335
 1601TIP3   OH2 4745   3.881   4.515   0.099
 1601TIP3    H1 4746   3.948   4.460   0.058
 1601TIP3    H2 4747   3.911   4.604   0.085
 1602TIP3   OH2 4748   2.513   4.252   0.443
 1602TIP3    H1 4749   2.422   4.223   0.446
 1602TIP3    H2 4750   2.564   4.171   0.439
 1603TIP3   OH2 4751   2.285   4.125   0.090
 1603TIP3    H1 4752   2.332   4.173   0.022
 1603TIP3    H2 4753   2.268   4.190   0.158
 1604TIP3   OH2 4754   2.960   4.288   0.325
 1604TIP3    H1 4755   3.012   4.338   0.262
 1604TIP3    H2 4756   2.981   4.326   0.410
 1605TIP3   OH2 4757   3.503   4.432   0.306
 1605TIP3    H1 4758   3.506   4.400   0.216
 1605TIP3    H2 4759   3.490   4.353   0.360
 1606TIP3   OH2 4760   0.700   0.351   6.851
 1606TIP3    H1 4761   0.612   0.383   6.830
 1606TIP3    H2 4762   0.685   0.262   6.883
 1607TIP3   OH2 4763   8.095   0.262   6.844
 1607TIP3    H1 4764   8.114   0.231   6.755
 1607TIP3    H2 4765   8.164   0.325   6.863
 1608TIP3   OH2 4766   0.090   0.444   6.899
 1608TIP3    H1 4767   0.155   0.402   6.956
 1608TIP3    H2 4768   0.100   0.537   6.916
 1609TIP3   OH2 4769   2.723   4.535   1.337
 1609TIP3    H1 4770   2.686   4.465   1.391
 1609TIP3    H2 4771   2.816   4.537   1.362
 1610TIP3   OH2 4772   2.973   4.532   1.455
 1610TIP3    H1 4773   3.057   4.509   1.415
 1610TIP3    H2 4774   2.958   4.465   1.521
 1611TIP3   OH2 4775   3.800   4.596   1.242
 1611TIP3    H1 4776   3.816   4.567   1.332
 1611TIP3    H2 4777   3.886   4.592   1.200
 1612TIP3   OH2 4778   3.709   6.151   0.753
 1612TIP3    H1 4779   3.643   6.119   0.691
 1612TIP3    H2 4780   3.707   6.246   0.742
 1613TIP3   OH2 4781   4.317   5.416   0.241
 1613TIP3    H1 4782   4.340   5.351   0.307
 1613TIP3    H2 4783   4.352   5.498   0.275
 1614TIP3   OH2 4784   4.190   5.053   0.097
 1614TIP3    H1 4785   4.286   5.046   0.097
 1614TIP3    H2 4786   4.172   5.113   0.025
 1615TIP3   OH2 4787   4.545   4.892   0.374
 1615TIP3    H1 4788   4.497   4.923   0.297
 1615TIP3    H2 4789   4.487   4.912   0.447
 1616TIP3   OH2 4790   4.454   4.983   0.133
 1616TIP3    H1 4791   4.499   5.067   0.136
 1616TIP3    H2 4792   4.482   4.943   0.050
 1617TIP3   OH2 4793   4.488   5.840   0.293
 1617TIP3    H1 4794   4.474   5.911   0.231
 1617TIP3    H2 4795   4.407   5.834   0.343
 1618TIP3   OH2 4796   4.890   4.593   0.132
 1618TIP3    H1 4797   4.861   4.507   0.161
 1618TIP3    H2 4798   4.816   4.651   0.151
 1619TIP3   OH2 4799   4.646   5.946   0.488
 1619TIP3    H1 4800   4.597   6.027   0.500
 1619TIP3    H2 4801   4.597   5.899   0.420
 1620TIP3   OH2 4802   4.430   5.542   0.496
 1620TIP3    H1 4803   4.442   5.629   0.534
 1620TIP3    H2 4804   4.341   5.516   0.520
 1621TIP3   OH2 4805   4.460   6.151   0.496
 1621TIP3    H1 4806   4.421   6.160   0.409
 1621TIP3    H2 4807   4.386   6.150   0.556
 1622TIP3   OH2 4808   4.056   5.676   0.430
 1622TIP3    H1 4809   3.987   5.651   0.368
 1622TIP3    H2 4810   4.091   5.593   0.461
 1623TIP3   OH2 4811   5.623   5.467   0.440
 1623TIP3    H1 4812   5.675   5.498   0.366
 1623TIP3    H2 4813   5.604   5.376   0.419
 1624TIP3   OH2 4814   4.255   5.858   0.425
 1624TIP3    H1 4815   4.294   5.867   0.512
 1624TIP3    H2 4816   4.185   5.795   0.436
 1625TIP3   OH2 4817   4.653   4.696   0.218
 1625TIP3    H1 4818   4.568   4.662   0.189
 1625TIP3    H2 4819   4.632   4.774   0.268
 1626TIP3   OH2 4820   5.199   4.800   0.398
 1626TIP3    H1 4821   5.267   4.781   0.462
 1626TIP3    H2 4822   5.117   4.782   0.444
 1627TIP3   OH2 4823   5.461   5.246   0.345
 1627TIP3    H1 4824   5.403   5.220   0.417
 1627TIP3    H2 4825   5.404   5.247   0.268
 1628TIP3   OH2 4826   4.605   5.222   0.214
 1628TIP3    H1 4827   4.555   5.230   0.295
 1628TIP3    H2 4828   4.547   5.255   0.146
 1629TIP3   OH2 4829   5.144   5.448   0.555
 1629TIP3    H1 4830   5.120   5.374   0.609
 1629TIP3    H2 4831   5.239   5.458   0.568
 1630TIP3   OH2 4832   4.413   5.226   0.426
 1630TIP3    H1 4833   4.452   5.286   0.490
 1630TIP3    H2 4834   4.399   5.145   0.475
 1631TIP3   OH2 4835   4.010   4.738   0.029
 1631TIP3    H1 4836   4.077   4.765   0.091
 1631TIP3    H2 4837   4.022   4.796  -0.047
 1632TIP3   OH2 4838   4.423   5.779   0.645
 1632TIP3    H1 4839   4.503   5.819   0.681
 1632TIP3    H2 4840   4.358   5.789   0.715
 1633TIP3   OH2 4841   4.861   5.097   0.205
 1633TIP3    H1 4842   4.780   5.146   0.191
 1633TIP3    H2 4843   4.927   5.163   0.224
 1634TIP3   OH2 4844   4.997   5.827   0.332
 1634TIP3    H1 4845   5.012   5.820   0.427
 1634TIP3    H2 4846   4.916   5.878   0.324
 1635TIP3   OH2 4847   4.176   5.464   0.569
 1635TIP3    H1 4848   4.197   5.456   0.663
 1635TIP3    H2 4849   4.105   5.401   0.555
 1636TIP3   OH2 4850   4.904   5.577   0.595
 1636TIP3    H1 4851   4.844   5.532   0.535
 1636TIP3    H2 4852   4.991   5.543   0.571
 1637TIP3   OH2 4853   4.380   4.975   0.579
 1637TIP3    H1 4854   4.285   4.979   0.588
 1637TIP3    H2 4855   4.409   4.917   0.650
 1638TIP3   OH2 4856   4.095   6.039   0.294
 1638TIP3    H1 4857   4.137   5.953   0.302
 1638TIP3    H2 4858   4.116   6.084   0.376
 1639TIP3   OH2 4859   5.203   5.059   0.295
 1639TIP3    H1 4860   5.290   5.061   0.257
 1639TIP3    H2 4861   5.194   4.969   0.329
 1640TIP3   OH2 4862   5.044   5.287   0.334
 1640TIP3    H1 4863   5.089   5.337   0.403
 1640TIP3    H2 4864   5.100   5.210   0.320
 1641TIP3   OH2 4865   4.399   4.608   0.200
 1641TIP3    H1 4866   4.364   4.580   0.115
 1641TIP3    H2 4867   4.391   4.530   0.256
 1642TIP3   OH2 4868   4.590   6.325   0.668
 1642TIP3    H1 4869   4.679   6.291   0.667
 1642TIP3    H2 4870   4.544   6.273   0.602
 1643TIP3   OH2 4871   4.225   5.765   0.837
 1643TIP3    H1 4872   4.239   5.670   0.832
 1643TIP3    H2 4873   4.142   5.779   0.791
 1644TIP3   OH2 4874   4.866   5.855   0.610
 1644TIP3    H1 4875   4.791   5.877   0.554
 1644TIP3    H2 4876   4.873   5.760   0.605
 1645TIP3   OH2 4877   4.346   5.498   0.817
 1645TIP3    H1 4878   4.428   5.455   0.791
 1645TIP3    H2 4879   4.368   5.541   0.900
 1646TIP3   OH2 4880   4.654   5.383   0.490
 1646TIP3    H1 4881   4.582   5.446   0.498
 1646TIP3    H2 4882   4.710   5.420   0.422
 1647TIP3   OH2 4883   5.196   5.794   0.608
 1647TIP3    H1 4884   5.291   5.795   0.598
 1647TIP3    H2 4885   5.179   5.726   0.674
 1648TIP3   OH2 4886   4.803   5.178   0.602
 1648TIP3    H1 4887   4.806   5.098   0.550
 1648TIP3    H2 4888   4.754   5.240   0.549
 1649TIP3   OH2 4889   4.803   4.956   0.430
 1649TIP3    H1 4890   4.832   4.999   0.349
 1649TIP3    H2 4891   4.711   4.935   0.413
 1650TIP3   OH2 4892   4.824   5.510   0.323
 1650TIP3    H1 4893   4.911   5.470   0.316
 1650TIP3    H2 4894   4.826   5.582   0.260
 1651TIP3   OH2 4895   5.427   5.467   0.661
 1651TIP3    H1 4896   5.439   5.372   0.661
 1651TIP3    H2 4897   5.504   5.501   0.615
 1652TIP3   OH2 4898   4.682   5.285   0.835
 1652TIP3    H1 4899   4.614   5.220   0.849
 1652TIP3    H2 4900   4.715   5.267   0.747
 1653TIP3   OH2 4901   4.938   4.724   0.478
 1653TIP3    H1 4902   4.893   4.806   0.462
 1653TIP3    H2 4903   4.871   4.657   0.466
 1654TIP3   OH2 4904   5.058   5.231   0.695
 1654TIP3    H1 4905   5.042   5.219   0.789
 1654TIP3    H2 4906   4.974   5.209   0.653
 1655TIP3   OH2 4907   5.310   5.197   0.566
 1655TIP3    H1 4908   5.227   5.185   0.613
 1655TIP3    H2 4909   5.375   5.151   0.619
 1656TIP3   OH2 4910   5.540   5.122   0.705
 1656TIP3    H1 4911   5.551   5.028   0.719
 1656TIP3    H2 4912   5.534   5.159   0.793
 1657TIP3   OH2 4913   4.520   5.066   0.888
 1657TIP3    H1 4914   4.524   4.978   0.851
 1657TIP3    H2 4915   4.556   5.056   0.977
 1658TIP3   OH2 4916   5.031   4.735   0.736
 1658TIP3    H1 4917   5.097   4.667   0.732
 1658TIP3    H2 4918   4.990   4.734   0.649
 1659TIP3   OH2 4919   5.095   4.953   0.893
 1659TIP3    H1 4920   5.076   4.883   0.830
 1659TIP3    H2 4921   5.021   5.012   0.886
 1660TIP3   OH2 4922   4.048   5.423   0.179
 1660TIP3    H1 4923   4.050   5.420   0.083
 1660TIP3    H2 4924   4.139   5.431   0.205
 1661TIP3   OH2 4925   4.253   5.116   0.855
 1661TIP3    H1 4926   4.349   5.115   0.856
 1661TIP3    H2 4927   4.228   5.033   0.895
 1662TIP3   OH2 4928   6.106   4.986   0.620
 1662TIP3    H1 4929   6.151   4.913   0.577
 1662TIP3    H2 4930   6.086   5.047   0.549
 1663TIP3   OH2 4931   4.201   4.798   0.228
 1663TIP3    H1 4932   4.275   4.738   0.224
 1663TIP3    H2 4933   4.232   4.878   0.186
 1664TIP3   OH2 4934   4.002   5.096   0.282
 1664TIP3    H1 4935   4.064   5.068   0.214
 1664TIP3    H2 4936   4.034   5.181   0.311
 1665TIP3   OH2 4937   5.910   5.117   0.479
 1665TIP3    H1 4938   5.818   5.126   0.456
 1665TIP3    H2 4939   5.956   5.115   0.395
 1666TIP3   OH2 4940   4.218   4.667   0.573
 1666TIP3    H1 4941   4.170   4.666   0.656
 1666TIP3    H2 4942   4.158   4.709   0.511
 1667TIP3   OH2 4943   5.816   4.866   0.315
 1667TIP3    H1 4944   5.738   4.834   0.270
 1667TIP3    H2 4945   5.879   4.795   0.309
 1668TIP3   OH2 4946   4.093   6.403   0.340
 1668TIP3    H1 4947   4.028   6.445   0.282
 1668TIP3    H2 4948   4.083   6.310   0.323
 1669TIP3   OH2 4949   1.466   0.489   6.920
 1669TIP3    H1 4950   1.374   0.464   6.911
 1669TIP3    H2 4951   1.515   0.413   6.889
 1670TIP3   OH2 4952   4.519   4.790   0.823
 1670TIP3    H1 4953   4.483   4.721   0.879
 1670TIP3    H2 4954   4.612   4.794   0.847
 1671TIP3   OH2 4955   4.768   4.789   0.941
 1671TIP3    H1 4956   4.852   4.768   0.900
 1671TIP3    H2 4957   4.755   4.720   1.006
 1672TIP3   OH2 4958   5.601   4.852   0.731
 1672TIP3    H1 4959   5.615   4.824   0.821
 1672TIP3    H2 4960   5.688   4.848   0.691
 1673TIP3   OH2 4961   0.389   6.050   1.800
 1673TIP3    H1 4962   0.417   5.965   1.766
 1673TIP3    H2 4963   0.294   6.042   1.809
 1674TIP3   OH2 4964   1.850   6.363   0.587
 1674TIP3    H1 4965   1.885   6.445   0.621
 1674TIP3    H2 4966   1.858   6.371   0.492
 1675TIP3   OH2 4967   1.933   6.577   0.749
 1675TIP3    H1 4968   1.869   6.633   0.705
 1675TIP3    H2 4969   1.940   6.612   0.837
 1676TIP3   OH2 4970   1.669   6.259   0.766
 1676TIP3    H1 4971   1.588   6.311   0.762
 1676TIP3    H2 4972   1.722   6.292   0.694
 1677TIP3   OH2 4973   1.713   6.752   1.064
 1677TIP3    H1 4974   1.628   6.764   1.022
 1677TIP3    H2 4975   1.731   6.659   1.057
 1678TIP3   OH2 4976   1.245   6.087   1.085
 1678TIP3    H1 4977   1.316   6.059   1.143
 1678TIP3    H2 4978   1.165   6.066   1.134
 1679TIP3   OH2 4979   1.487   6.543   0.984
 1679TIP3    H1 4980   1.449   6.510   1.065
 1679TIP3    H2 4981   1.432   6.617   0.959
 1680TIP3   OH2 4982   1.189   6.779   1.245
 1680TIP3    H1 4983   1.158   6.691   1.265
 1680TIP3    H2 4984   1.279   6.781   1.278
 1681TIP3   OH2 4985   1.349   6.283   0.930
 1681TIP3    H1 4986   1.396   6.330   0.999
 1681TIP3    H2 4987   1.310   6.208   0.975
 1682TIP3   OH2 4988   1.752   6.491   0.976
 1682TIP3    H1 4989   1.656   6.496   0.979
 1682TIP3    H2 4990   1.771   6.442   0.896
 1683TIP3   OH2 4991   1.237   7.108   1.331
 1683TIP3    H1 4992   1.301   7.107   1.260
 1683TIP3    H2 4993   1.261   7.033   1.386
 1684TIP3   OH2 4994   1.464   6.768   1.319
 1684TIP3    H1 4995   1.513   6.688   1.339
 1684TIP3    H2 4996   1.531   6.832   1.295
 1685TIP3   OH2 4997   1.515   7.021   1.056
 1685TIP3    H1 4998   1.449   7.083   1.025
 1685TIP3    H2 4999   1.594   7.044   1.007
 1686TIP3   OH2 5000   0.985   6.017   1.149
 1686TIP3    H1 5001   0.957   6.064   1.071
 1686TIP3    H2 5002   0.942   5.932   1.143
 1687TIP3   OH2 5003   1.104   6.544   1.363
 1687TIP3    H1 5004   1.136   6.550   1.453
 1687TIP3    H2 5005   1.040   6.473   1.365
 1688TIP3   OH2 5006   1.355   6.472   1.205
 1688TIP3    H1 5007   1.278   6.477   1.261
 1688TIP3    H2 5008   1.427   6.448   1.264
 1689TIP3   OH2 5009   1.575   6.422   1.361
 1689TIP3    H1 5010   1.590   6.329   1.378
 1689TIP3    H2 5011   1.570   6.462   1.448
 1690TIP3   OH2 5012   1.086   6.040   1.405
 1690TIP3    H1 5013   1.149   5.968   1.402
 1690TIP3    H2 5014   1.036   6.032   1.324
 1691TIP3   OH2 5015   1.145   6.261   1.551
 1691TIP3    H1 5016   1.130   6.182   1.499
 1691TIP3    H2 5017   1.060   6.305   1.552
 1692TIP3   OH2 5018   1.705   7.447   1.136
 1692TIP3    H1 5019   1.632   7.436   1.198
 1692TIP3    H2 5020   1.740   7.534   1.155
 1693TIP3   OH2 5021   1.776   7.102   0.936
 1693TIP3    H1 5022   1.830   7.025   0.956
 1693TIP3    H2 5023   1.793   7.120   0.843
 1694TIP3   OH2 5024   1.929   6.887   0.982
 1694TIP3    H1 5025   1.854   6.838   1.017
 1694TIP3    H2 5026   2.003   6.827   0.989
 1695TIP3   OH2 5027   2.132   6.288   1.272
 1695TIP3    H1 5028   2.192   6.223   1.234
 1695TIP3    H2 5029   2.105   6.342   1.198
 1696TIP3   OH2 5030   2.002   6.425   1.077
 1696TIP3    H1 5031   1.920   6.469   1.099
 1696TIP3    H2 5032   1.977   6.352   1.021
 1697TIP3   OH2 5033   1.902   6.185   0.958
 1697TIP3    H1 5034   1.813   6.177   0.924
 1697TIP3    H2 5035   1.939   6.098   0.950
 1698TIP3   OH2 5036   1.674   5.983   0.483
 1698TIP3    H1 5037   1.711   6.060   0.440
 1698TIP3    H2 5038   1.581   5.985   0.460
 1699TIP3   OH2 5039   1.271   6.855   1.131
 1699TIP3    H1 5040   1.300   6.820   1.216
 1699TIP3    H2 5041   1.353   6.875   1.085
 1700TIP3   OH2 5042   0.818   6.073   1.623
 1700TIP3    H1 5043   0.901   6.032   1.598
 1700TIP3    H2 5044   0.779   6.012   1.685
 1701TIP3   OH2 5045   1.642   6.155   1.393
 1701TIP3    H1 5046   1.656   6.123   1.482
 1701TIP3    H2 5047   1.728   6.149   1.351
 1702TIP3   OH2 5048   2.164   6.985   0.435
 1702TIP3    H1 5049   2.190   6.909   0.488
 1702TIP3    H2 5050   2.244   7.010   0.389
 1703TIP3   OH2 5051   2.408   6.481   0.078
 1703TIP3    H1 5052   2.344   6.527   0.025
 1703TIP3    H2 5053   2.390   6.388   0.062
 1704TIP3   OH2 5054   3.716   6.832   0.252
 1704TIP3    H1 5055   3.677   6.914   0.223
 1704TIP3    H2 5056   3.775   6.857   0.323
 1705TIP3   OH2 5057   2.388   6.443   0.519
 1705TIP3    H1 5058   2.339   6.480   0.445
 1705TIP3    H2 5059   2.334   6.463   0.595
 1706TIP3   OH2 5060   2.535   7.234   0.293
 1706TIP3    H1 5061   2.445   7.255   0.316
 1706TIP3    H2 5062   2.566   7.312   0.246
 1707TIP3   OH2 5063   2.266   6.548   0.303
 1707TIP3    H1 5064   2.294   6.638   0.320
 1707TIP3    H2 5065   2.313   6.522   0.224
 1708TIP3   OH2 5066   3.409   6.493   0.231
 1708TIP3    H1 5067   3.314   6.495   0.221
 1708TIP3    H2 5068   3.439   6.578   0.198
 1709TIP3   OH2 5069   2.743   6.173   0.226
 1709TIP3    H1 5070   2.740   6.078   0.241
 1709TIP3    H2 5071   2.668   6.207   0.274
 1710TIP3   OH2 5072   3.260   7.072   0.381
 1710TIP3    H1 5073   3.243   7.134   0.452
 1710TIP3    H2 5074   3.173   7.054   0.344
 1711TIP3   OH2 5075   2.425   6.983   0.232
 1711TIP3    H1 5076   2.421   6.963   0.139
 1711TIP3    H2 5077   2.477   7.064   0.238
 1712TIP3   OH2 5078   2.546   7.437   0.549
 1712TIP3    H1 5079   2.512   7.525   0.564
 1712TIP3    H2 5080   2.486   7.400   0.483
 1713TIP3   OH2 5081   2.295   7.105   0.667
 1713TIP3    H1 5082   2.295   7.190   0.711
 1713TIP3    H2 5083   2.202   7.086   0.651
 1714TIP3   OH2 5084   3.497   7.006   0.528
 1714TIP3    H1 5085   3.423   7.018   0.469
 1714TIP3    H2 5086   3.511   6.912   0.529
 1715TIP3   OH2 5087   2.083   7.422   0.615
 1715TIP3    H1 5088   2.162   7.404   0.666
 1715TIP3    H2 5089   2.035   7.339   0.613
 1716TIP3   OH2 5090   2.504   6.244   0.357
 1716TIP3    H1 5091   2.419   6.211   0.328
 1716TIP3    H2 5092   2.484   6.325   0.404
 1717TIP3   OH2 5093   3.040   6.362   0.553
 1717TIP3    H1 5094   3.109   6.332   0.612
 1717TIP3    H2 5095   2.958   6.339   0.598
 1718TIP3   OH2 5096   3.274   6.790   0.466
 1718TIP3    H1 5097   3.228   6.790   0.550
 1718TIP3    H2 5098   3.250   6.873   0.426
 1719TIP3   OH2 5099   2.435   6.759   0.382
 1719TIP3    H1 5100   2.385   6.780   0.460
 1719TIP3    H2 5101   2.429   6.837   0.327
 1720TIP3   OH2 5102   2.991   7.004   0.702
 1720TIP3    H1 5103   2.965   6.933   0.760
 1720TIP3    H2 5104   3.083   7.019   0.721
 1721TIP3   OH2 5105   2.265   6.782   0.606
 1721TIP3    H1 5106   2.320   6.828   0.669
 1721TIP3    H2 5107   2.251   6.696   0.644
 1722TIP3   OH2 5108   3.007   7.002   0.310
 1722TIP3    H1 5109   2.989   6.989   0.217
 1722TIP3    H2 5110   2.960   6.932   0.354
 1723TIP3   OH2 5111   2.664   6.471  -0.023
 1723TIP3    H1 5112   2.581   6.496   0.017
 1723TIP3    H2 5113   2.725   6.465   0.050
 1724TIP3   OH2 5114   3.137   6.508   0.196
 1724TIP3    H1 5115   3.103   6.563   0.267
 1724TIP3    H2 5116   3.061   6.461   0.163
 1725TIP3   OH2 5117   2.274   7.348   0.799
 1725TIP3    H1 5118   2.354   7.371   0.848
 1725TIP3    H2 5119   2.208   7.337   0.867
 1726TIP3   OH2 5120   2.830   6.765   0.125
 1726TIP3    H1 5121   2.785   6.709   0.060
 1726TIP3    H2 5122   2.799   6.733   0.209
 1727TIP3   OH2 5123   7.979   2.243   6.904
 1727TIP3    H1 5124   7.951   2.155   6.930
 1727TIP3    H2 5125   8.054   2.227   6.846
 1728TIP3   OH2 5126   2.701   6.687   0.354
 1728TIP3    H1 5127   2.610   6.719   0.360
 1728TIP3    H2 5128   2.751   6.748   0.408
 1729TIP3   OH2 5129   2.863   7.442   0.434
 1729TIP3    H1 5130   2.884   7.370   0.494
 1729TIP3    H2 5131   2.778   7.473   0.463
 1730TIP3   OH2 5132   2.002   7.053   0.743
 1730TIP3    H1 5133   2.044   7.031   0.826
 1730TIP3    H2 5134   1.986   6.968   0.701
 1731TIP3   OH2 5135   2.750   7.129   0.743
 1731TIP3    H1 5136   2.688   7.083   0.686
 1731TIP3    H2 5137   2.836   7.098   0.715
 1732TIP3   OH2 5138   2.228   6.527   0.732
 1732TIP3    H1 5139   2.132   6.529   0.740
 1732TIP3    H2 5140   2.257   6.469   0.803
 1733TIP3   OH2 5141   3.052   6.612   0.437
 1733TIP3    H1 5142   3.139   6.643   0.461
 1733TIP3    H2 5143   3.045   6.526   0.479
 1734TIP3   OH2 5144   2.891   6.831   0.492
 1734TIP3    H1 5145   2.925   6.883   0.564
 1734TIP3    H2 5146   2.948   6.754   0.489
 1735TIP3   OH2 5147   3.539   6.737   0.477
 1735TIP3    H1 5148   3.443   6.734   0.476
 1735TIP3    H2 5149   3.564   6.732   0.385
 1736TIP3   OH2 5150   2.245   6.156   0.327
 1736TIP3    H1 5151   2.215   6.122   0.243
 1736TIP3    H2 5152   2.235   6.083   0.388
 1737TIP3   OH2 5153   2.058   7.297   0.966
 1737TIP3    H1 5154   2.098   7.210   0.962
 1737TIP3    H2 5155   1.967   7.280   0.988
 1738TIP3   OH2 5156   2.684   7.392   0.776
 1738TIP3    H1 5157   2.641   7.404   0.691
 1738TIP3    H2 5158   2.722   7.305   0.772
 1739TIP3   OH2 5159   3.144   7.435   0.386
 1739TIP3    H1 5160   3.177   7.499   0.323
 1739TIP3    H2 5161   3.052   7.458   0.399
 1740TIP3   OH2 5162   2.192   7.059   0.965
 1740TIP3    H1 5163   2.269   7.010   0.936
 1740TIP3    H2 5164   2.215   7.090   1.053
 1741TIP3   OH2 5165   2.516   6.946   0.625
 1741TIP3    H1 5166   2.446   7.011   0.633
 1741TIP3    H2 5167   2.571   6.980   0.554
 1742TIP3   OH2 5168   3.045   7.342   0.757
 1742TIP3    H1 5169   3.119   7.315   0.702
 1742TIP3    H2 5170   3.042   7.279   0.828
 1743TIP3   OH2 5171   2.641   6.737   0.752
 1743TIP3    H1 5172   2.644   6.658   0.698
 1743TIP3    H2 5173   2.602   6.804   0.695
 1744TIP3   OH2 5174   2.644   6.521   0.567
 1744TIP3    H1 5175   2.672   6.564   0.486
 1744TIP3    H2 5176   2.553   6.496   0.551
 1745TIP3   OH2 5177   2.682   7.062   0.448
 1745TIP3    H1 5178   2.767   7.050   0.405
 1745TIP3    H2 5179   2.636   7.125   0.392
 1746TIP3   OH2 5180   3.258   7.026   0.812
 1746TIP3    H1 5181   3.302   6.941   0.815
 1746TIP3    H2 5182   3.323   7.086   0.777
 1747TIP3   OH2 5183   3.273   7.281   0.568
 1747TIP3    H1 5184   3.224   7.337   0.508
 1747TIP3    H2 5185   3.364   7.290   0.540
 1748TIP3   OH2 5186   2.519   6.845   0.982
 1748TIP3    H1 5187   2.454   6.777   0.999
 1748TIP3    H2 5188   2.556   6.823   0.897
 1749TIP3   OH2 5189   2.778   6.286   0.628
 1749TIP3    H1 5190   2.731   6.367   0.608
 1749TIP3    H2 5191   2.713   6.217   0.616
 1750TIP3   OH2 5192   2.900   6.789   0.843
 1750TIP3    H1 5193   2.891   6.776   0.938
 1750TIP3    H2 5194   2.815   6.766   0.807
 1751TIP3   OH2 5195   3.148   6.748   0.702
 1751TIP3    H1 5196   3.071   6.744   0.760
 1751TIP3    H2 5197   3.220   6.715   0.756
 1752TIP3   OH2 5198   3.373   6.681   0.852
 1752TIP3    H1 5199   3.387   6.587   0.865
 1752TIP3    H2 5200   3.371   6.717   0.940
 1753TIP3   OH2 5201   2.362   6.624   1.039
 1753TIP3    H1 5202   2.366   6.536   1.002
 1753TIP3    H2 5203   2.399   6.615   1.127
 1754TIP3   OH2 5204   2.872   6.294   0.885
 1754TIP3    H1 5205   2.939   6.227   0.882
 1754TIP3    H2 5206   2.832   6.292   0.798
 1755TIP3   OH2 5207   2.936   6.511   1.043
 1755TIP3    H1 5208   2.917   6.440   0.981
 1755TIP3    H2 5209   2.861   6.569   1.036
 1756TIP3   OH2 5210   3.512   7.707   0.584
 1756TIP3    H1 5211   3.442   7.685   0.645
 1756TIP3    H2 5212   3.564   7.773   0.630
 1757TIP3   OH2 5213   3.536   7.334   0.494
 1757TIP3    H1 5214   3.604   7.269   0.512
 1757TIP3    H2 5215   3.551   7.361   0.404
 1758TIP3   OH2 5216   3.724   7.143   0.535
 1758TIP3    H1 5217   3.645   7.091   0.527
 1758TIP3    H2 5218   3.794   7.088   0.498
 1759TIP3   OH2 5219   2.097   6.676   1.005
 1759TIP3    H1 5220   2.192   6.673   1.007
 1759TIP3    H2 5221   2.070   6.592   1.042
 1760TIP3   OH2 5222   3.931   6.540   0.760
 1760TIP3    H1 5223   3.994   6.476   0.727
 1760TIP3    H2 5224   3.911   6.595   0.685
 1761TIP3   OH2 5225   2.059   6.367   0.340
 1761TIP3    H1 5226   2.127   6.301   0.353
 1761TIP3    H2 5227   2.106   6.448   0.325
 1762TIP3   OH2 5228   3.793   6.684   0.568
 1762TIP3    H1 5229   3.708   6.723   0.584
 1762TIP3    H2 5230   3.775   6.609   0.512
 1763TIP3   OH2 5231   2.058   6.230   0.723
 1763TIP3    H1 5232   2.010   6.225   0.806
 1763TIP3    H2 5233   1.996   6.268   0.662
 1764TIP3   OH2 5234   3.696   6.441   0.448
 1764TIP3    H1 5235   3.603   6.428   0.428
 1764TIP3    H2 5236   3.734   6.353   0.441
 1765TIP3   OH2 5237   2.931   6.343   0.079
 1765TIP3    H1 5238   2.871   6.293   0.134
 1765TIP3    H2 5239   2.945   6.288   0.002
 1766TIP3   OH2 5240   2.148   6.044   0.085
 1766TIP3    H1 5241   2.060   6.007   0.090
 1766TIP3    H2 5242   2.206   5.968   0.080
 1767TIP3   OH2 5243   2.605   6.063   0.004
 1767TIP3    H1 5244   2.686   6.044  -0.043
 1767TIP3    H2 5245   2.631   6.122   0.075
 1768TIP3   OH2 5246   2.360   6.348   0.974
 1768TIP3    H1 5247   2.324   6.278   1.029
 1768TIP3    H2 5248   2.453   6.351   0.997
 1769TIP3   OH2 5249   2.609   6.347   1.091
 1769TIP3    H1 5250   2.693   6.326   1.050
 1769TIP3    H2 5251   2.596   6.279   1.157
 1770TIP3   OH2 5252   3.436   6.411   0.879
 1770TIP3    H1 5253   3.454   6.380   0.968
 1770TIP3    H2 5254   3.522   6.409   0.836
 1771TIP3   OH2 5255   3.856   7.551   0.496
 1771TIP3    H1 5256   3.892   7.464   0.477
 1771TIP3    H2 5257   3.801   7.571   0.420
 1772TIP3   OH2 5258   3.991   7.321   0.457
 1772TIP3    H1 5259   4.030   7.235   0.443
 1772TIP3    H2 5260   4.019   7.346   0.545
 1773TIP3   OH2 5261   4.321   7.095   0.454
 1773TIP3    H1 5262   4.256   7.036   0.492
 1773TIP3    H2 5263   4.371   7.040   0.394
 1774TIP3   OH2 5264   4.152   6.895   0.534
 1774TIP3    H1 5265   4.152   6.806   0.498
 1774TIP3    H2 5266   4.191   6.885   0.621
 1775TIP3   OH2 5267   4.731   6.765   0.522
 1775TIP3    H1 5268   4.701   6.703   0.456
 1775TIP3    H2 5269   4.659   6.827   0.532
 1776TIP3   OH2 5270   3.889   6.926   0.471
 1776TIP3    H1 5271   3.984   6.929   0.486
 1776TIP3    H2 5272   3.859   6.848   0.517
 1777TIP3   OH2 5273   3.824   6.505   0.211
 1777TIP3    H1 5274   3.788   6.479   0.296
 1777TIP3    H2 5275   3.799   6.597   0.201
 1778TIP3   OH2 5276   4.160   6.631   0.484
 1778TIP3    H1 5277   4.138   6.546   0.445
 1778TIP3    H2 5278   4.250   6.622   0.513
 1779TIP3   OH2 5279   4.413   6.608   0.588
 1779TIP3    H1 5280   4.496   6.574   0.555
 1779TIP3    H2 5281   4.396   6.555   0.666
 1780TIP3   OH2 5282   1.389   0.040   3.992
 1780TIP3    H1 5283   1.389  -0.007   4.076
 1780TIP3    H2 5284   1.418   0.129   4.014
 1781TIP3   OH2 5285   1.048   0.504   3.979
 1781TIP3    H1 5286   1.091   0.427   3.940
 1781TIP3    H2 5287   1.034   0.479   4.071
 1782TIP3   OH2 5288   7.658   7.508   4.522
 1782TIP3    H1 5289   7.585   7.566   4.502
 1782TIP3    H2 5290   7.722   7.563   4.567
 1783TIP3   OH2 5291   1.457   0.301   4.136
 1783TIP3    H1 5292   1.366   0.295   4.165
 1783TIP3    H2 5293   1.461   0.385   4.090
 1784TIP3   OH2 5294   1.683   0.208   4.479
 1784TIP3    H1 5295   1.677   0.134   4.419
 1784TIP3    H2 5296   1.668   0.285   4.423
 1785TIP3   OH2 5297   7.545   7.864   4.322
 1785TIP3    H1 5298   7.465   7.916   4.328
 1785TIP3    H2 5299   7.579   7.882   4.235
 1786TIP3   OH2 5300   1.206   0.315   4.233
 1786TIP3    H1 5301   1.196   0.395   4.284
 1786TIP3    H2 5302   1.197   0.245   4.297
 1787TIP3   OH2 5303   1.920   0.555   4.529
 1787TIP3    H1 5304   1.924   0.461   4.542
 1787TIP3    H2 5305   1.839   0.582   4.572
 1788TIP3   OH2 5306   1.054   0.370   4.628
 1788TIP3    H1 5307   1.045   0.454   4.672
 1788TIP3    H2 5308   0.983   0.316   4.662
 1789TIP3   OH2 5309   7.484   7.688   4.802
 1789TIP3    H1 5310   7.401   7.734   4.792
 1789TIP3    H2 5311   7.462   7.596   4.785
 1790TIP3   OH2 5312   1.617   0.907   4.624
 1790TIP3    H1 5313   1.611   0.929   4.531
 1790TIP3    H2 5314   1.695   0.953   4.655
 1791TIP3   OH2 5315   1.645  -0.001   4.305
 1791TIP3    H1 5316   1.682   0.049   4.232
 1791TIP3    H2 5317   1.566  -0.041   4.269
 1792TIP3   OH2 5318   1.322   0.335   4.601
 1792TIP3    H1 5319   1.227   0.344   4.592
 1792TIP3    H2 5320   1.345   0.395   4.672
 1793TIP3   OH2 5321   1.934   0.271   4.562
 1793TIP3    H1 5322   1.839   0.262   4.562
 1793TIP3    H2 5323   1.961   0.243   4.475
 1794TIP3   OH2 5324   7.093   7.862   4.216
 1794TIP3    H1 5325   7.003   7.840   4.241
 1794TIP3    H2 5326   7.115   7.797   4.149
 1795TIP3   OH2 5327   0.832   0.446   4.476
 1795TIP3    H1 5328   0.851   0.510   4.408
 1795TIP3    H2 5329   0.917   0.423   4.513
 1796TIP3   OH2 5330   1.248   0.099   4.412
 1796TIP3    H1 5331   1.221   0.107   4.503
 1796TIP3    H2 5332   1.344   0.100   4.414
 1797TIP3   OH2 5333   1.442   0.597   4.461
 1797TIP3    H1 5334   1.362   0.545   4.449
 1797TIP3    H2 5335   1.438   0.662   4.392
 1798TIP3   OH2 5336   1.471   0.566   4.056
 1798TIP3    H1 5337   1.424   0.614   3.988
 1798TIP3    H2 5338   1.563   0.585   4.038
 1799TIP3   OH2 5339   1.364   0.468   4.846
 1799TIP3    H1 5340   1.401   0.391   4.889
 1799TIP3    H2 5341   1.432   0.535   4.855
 1800TIP3   OH2 5342   1.471   0.108   4.622
 1800TIP3    H1 5343   1.555   0.133   4.582
 1800TIP3    H2 5344   1.419   0.188   4.621
 1801TIP3   OH2 5345   7.301   7.952   4.785
 1801TIP3    H1 5346   7.242   8.005   4.731
 1801TIP3    H2 5347   7.388   7.975   4.754
 1802TIP3   OH2 5348   1.724   0.656   4.020
 1802TIP3    H1 5349   1.750   0.696   4.103
 1802TIP3    H2 5350   1.780   0.699   3.955
 1803TIP3   OH2 5351   1.749   0.678   4.305
 1803TIP3    H1 5352   1.707   0.593   4.293
 1803TIP3    H2 5353   1.827   0.659   4.356
 1804TIP3   OH2 5354   1.793   0.358   4.870
 1804TIP3    H1 5355   1.724   0.362   4.937
 1804TIP3    H2 5356   1.838   0.442   4.877
 1805TIP3   OH2 5357   1.798   0.130   4.122
 1805TIP3    H1 5358   1.850   0.064   4.076
 1805TIP3    H2 5359   1.798   0.206   4.064
 1806TIP3   OH2 5360   1.623   0.427   4.323
 1806TIP3    H1 5361   1.554   0.473   4.371
 1806TIP3    H2 5362   1.577   0.383   4.251
 1807TIP3   OH2 5363   1.867   0.025   4.684
 1807TIP3    H1 5364   1.933  -0.043   4.678
 1807TIP3    H2 5365   1.900   0.096   4.628
 1808TIP3   OH2 5366   7.697   7.829   4.709
 1808TIP3    H1 5367   7.623   7.780   4.745
 1808TIP3    H2 5368   7.773   7.772   4.725
 1809TIP3   OH2 5369   7.375   7.502   4.246
 1809TIP3    H1 5370   7.452   7.525   4.193
 1809TIP3    H2 5371   7.390   7.545   4.330
 1810TIP3   OH2 5372   7.428   7.660   4.467
 1810TIP3    H1 5373   7.344   7.696   4.495
 1810TIP3    H2 5374   7.471   7.732   4.422
 1811TIP3   OH2 5375   1.284   0.541   3.671
 1811TIP3    H1 5376   1.325   0.493   3.599
 1811TIP3    H2 5377   1.358   0.581   3.717
 1812TIP3   OH2 5378   1.032   0.617   4.750
 1812TIP3    H1 5379   1.071   0.606   4.836
 1812TIP3    H2 5380   1.096   0.667   4.700
 1813TIP3   OH2 5381   1.215   0.759   4.606
 1813TIP3    H1 5382   1.282   0.713   4.556
 1813TIP3    H2 5383   1.265   0.817   4.664
 1814TIP3   OH2 5384   0.929   0.631   4.283
 1814TIP3    H1 5385   0.855   0.645   4.223
 1814TIP3    H2 5386   0.947   0.718   4.319
 1815TIP3   OH2 5387   1.194   0.570   4.338
 1815TIP3    H1 5388   1.100   0.585   4.323
 1815TIP3    H2 5389   1.237   0.643   4.292
 1816TIP3   OH2 5390   1.398   0.757   4.246
 1816TIP3    H1 5391   1.382   0.841   4.203
 1816TIP3    H2 5392   1.424   0.698   4.174
 1817TIP3   OH2 5393   1.671   0.637   4.625
 1817TIP3    H1 5394   1.597   0.606   4.573
 1817TIP3    H2 5395   1.657   0.732   4.631
 1818TIP3   OH2 5396   2.935   0.015   3.396
 1818TIP3    H1 5397   2.905   0.101   3.367
 1818TIP3    H2 5398   2.874  -0.047   3.355
 1819TIP3   OH2 5399   0.109   8.045   3.773
 1819TIP3    H1 5400   0.130   8.021   3.863
 1819TIP3    H2 5401   0.065   7.967   3.738
 1820TIP3   OH2 5402   7.905   7.913   4.140
 1820TIP3    H1 5403   7.931   7.843   4.200
 1820TIP3    H2 5404   7.979   7.973   4.140
 1821TIP3   OH2 5405   3.141   0.310   3.508
 1821TIP3    H1 5406   3.203   0.240   3.525
 1821TIP3    H2 5407   3.189   0.390   3.526
 1822TIP3   OH2 5408   2.205   0.307   3.865
 1822TIP3    H1 5409   2.197   0.212   3.865
 1822TIP3    H2 5410   2.300   0.323   3.860
 1823TIP3   OH2 5411   7.657   7.832   3.802
 1823TIP3    H1 5412   7.691   7.751   3.840
 1823TIP3    H2 5413   7.734   7.888   3.791
 1824TIP3   OH2 5414   2.831   0.775   3.469
 1824TIP3    H1 5415   2.876   0.702   3.428
 1824TIP3    H2 5416   2.829   0.752   3.562
 1825TIP3   OH2 5417   0.323   7.753   3.864
 1825TIP3    H1 5418   0.352   7.669   3.900
 1825TIP3    H2 5419   0.288   7.732   3.778
 1826TIP3   OH2 5420   8.106   7.363   3.801
 1826TIP3    H1 5421   8.100   7.449   3.759
 1826TIP3    H2 5422   8.067   7.303   3.738
 1827TIP3   OH2 5423   0.321   7.525   3.492
 1827TIP3    H1 5424   0.379   7.479   3.553
 1827TIP3    H2 5425   0.369   7.526   3.409
 1828TIP3   OH2 5426   7.767   7.605   3.910
 1828TIP3    H1 5427   7.855   7.615   3.948
 1828TIP3    H2 5428   7.772   7.523   3.861
 1829TIP3   OH2 5429   8.229   7.804   3.719
 1829TIP3    H1 5430   8.322   7.790   3.738
 1829TIP3    H2 5431   8.194   7.716   3.703
 1830TIP3   OH2 5432   0.953   7.760   4.020
 1830TIP3    H1 5433   0.879   7.813   3.988
 1830TIP3    H2 5434   1.011   7.823   4.063
 1831TIP3   OH2 5435   2.825   0.229   3.268
 1831TIP3    H1 5436   2.797   0.215   3.177
 1831TIP3    H2 5437   2.785   0.313   3.292
 1832TIP3   OH2 5438   2.598   0.171   4.039
 1832TIP3    H1 5439   2.519   0.208   4.079
 1832TIP3    H2 5440   2.662   0.242   4.042
 1833TIP3   OH2 5441   8.020   7.581   3.988
 1833TIP3    H1 5442   8.089   7.626   4.038
 1833TIP3    H2 5443   8.045   7.488   3.991
 1834TIP3   OH2 5444   2.415   0.350   4.144
 1834TIP3    H1 5445   2.397   0.438   4.109
 1834TIP3    H2 5446   2.341   0.331   4.201
 1835TIP3   OH2 5447   3.236   0.560   3.626
 1835TIP3    H1 5448   3.160   0.577   3.681
 1835TIP3    H2 5449   3.248   0.640   3.576
 1836TIP3   OH2 5450   2.963   0.598   3.301
 1836TIP3    H1 5451   3.006   0.516   3.278
 1836TIP3    H2 5452   3.017   0.666   3.261
 1837TIP3   OH2 5453   3.098   0.377   3.213
 1837TIP3    H1 5454   3.082   0.305   3.153
 1837TIP3    H2 5455   3.110   0.335   3.298
 1838TIP3   OH2 5456   3.485   0.468   3.967
 1838TIP3    H1 5457   3.474   0.390   3.913
 1838TIP3    H2 5458   3.467   0.541   3.907
 1839TIP3   OH2 5459   8.450   7.877   3.219
 1839TIP3    H1 5460   8.369   7.922   3.196
 1839TIP3    H2 5461   8.491   7.860   3.134
 1840TIP3   OH2 5462   3.681   0.107   3.809
 1840TIP3    H1 5463   3.600   0.157   3.821
 1840TIP3    H2 5464   3.710   0.128   3.721
 1841TIP3   OH2 5465   0.290   7.970   3.202
 1841TIP3    H1 5466   0.234   7.986   3.278
 1841TIP3    H2 5467   0.373   7.938   3.239
 1842TIP3   OH2 5468   3.350  -0.014   4.098
 1842TIP3    H1 5469   3.369   0.059   4.158
 1842TIP3    H2 5470   3.260   0.001   4.070
 1843TIP3   OH2 5471   8.025   7.952   3.609
 1843TIP3    H1 5472   8.000   7.904   3.530
 1843TIP3    H2 5473   8.099   7.903   3.644
 1844TIP3   OH2 5474   2.462   0.359   3.753
 1844TIP3    H1 5475   2.442   0.328   3.664
 1844TIP3    H2 5476   2.544   0.314   3.776
 1845TIP3   OH2 5477   8.157   7.930   3.967
 1845TIP3    H1 5478   8.190   7.898   3.883
 1845TIP3    H2 5479   8.204   8.013   3.981
 1846TIP3   OH2 5480   2.624   0.468   4.287
 1846TIP3    H1 5481   2.573   0.531   4.337
 1846TIP3    H2 5482   2.559   0.415   4.241
 1847TIP3   OH2 5483   0.145   7.820   3.021
 1847TIP3    H1 5484   0.199   7.878   3.074
 1847TIP3    H2 5485   0.166   7.842   2.930
 1848TIP3   OH2 5486   2.372   0.041   4.381
 1848TIP3    H1 5487   2.382   0.121   4.432
 1848TIP3    H2 5488   2.283   0.011   4.400
 1849TIP3   OH2 5489   2.709   0.478   3.308
 1849TIP3    H1 5490   2.784   0.537   3.313
 1849TIP3    H2 5491   2.645   0.526   3.254
 1850TIP3   OH2 5492   2.420   0.634   4.377
 1850TIP3    H1 5493   2.388   0.636   4.287
 1850TIP3    H2 5494   2.342   0.614   4.430
 1851TIP3   OH2 5495   3.280   0.410   2.620
 1851TIP3    H1 5496   3.284   0.504   2.603
 1851TIP3    H2 5497   3.370   0.380   2.606
 1852TIP3   OH2 5498   2.000   0.166   4.323
 1852TIP3    H1 5499   1.938   0.144   4.254
 1852TIP3    H2 5500   2.039   0.082   4.348
 1853TIP3   OH2 5501   1.858   0.356   3.964
 1853TIP3    H1 5502   1.953   0.357   3.950
 1853TIP3    H2 5503   1.840   0.439   4.009
 1854TIP3   OH2 5504   3.716   0.811   4.014
 1854TIP3    H1 5505   3.720   0.716   4.029
 1854TIP3    H2 5506   3.636   0.838   4.058
 1855TIP3   OH2 5507   2.816   0.604   4.143
 1855TIP3    H1 5508   2.820   0.693   4.178
 1855TIP3    H2 5509   2.753   0.559   4.199
 1856TIP3   OH2 5510   2.590   0.729   3.100
 1856TIP3    H1 5511   2.540   0.711   3.020
 1856TIP3    H2 5512   2.557   0.813   3.130
 1857TIP3   OH2 5513   2.034   0.588   3.485
 1857TIP3    H1 5514   2.076   0.577   3.570
 1857TIP3    H2 5515   1.982   0.508   3.473
 1858TIP3   OH2 5516   2.787   0.627   2.743
 1858TIP3    H1 5517   2.842   0.558   2.706
 1858TIP3    H2 5518   2.818   0.636   2.833
 1859TIP3   OH2 5519   2.840   0.677   3.009
 1859TIP3    H1 5520   2.753   0.685   3.049
 1859TIP3    H2 5521   2.895   0.642   3.079
 1860TIP3   OH2 5522   0.781   7.945   4.274
 1860TIP3    H1 5523   0.707   7.993   4.311
 1860TIP3    H2 5524   0.757   7.853   4.285
 1861TIP3   OH2 5525   2.205   0.349   4.313
 1861TIP3    H1 5526   2.255   0.335   4.393
 1861TIP3    H2 5527   2.132   0.287   4.319
 1862TIP3   OH2 5528   0.526   7.741   4.236
 1862TIP3    H1 5529   0.525   7.779   4.324
 1862TIP3    H2 5530   0.528   7.817   4.177
 1863TIP3   OH2 5531   0.212   7.881   2.756
 1863TIP3    H1 5532   0.200   7.849   2.666
 1863TIP3    H2 5533   0.294   7.929   2.753
 1864TIP3   OH2 5534   8.217   7.713   4.130
 1864TIP3    H1 5535   8.161   7.727   4.207
 1864TIP3    H2 5536   8.202   7.791   4.076
 1865TIP3   OH2 5537   8.086   7.572   3.620
 1865TIP3    H1 5538   7.992   7.578   3.605
 1865TIP3    H2 5539   8.124   7.558   3.533
 1866TIP3   OH2 5540   0.075   7.675   3.354
 1866TIP3    H1 5541   0.030   7.746   3.307
 1866TIP3    H2 5542   0.134   7.637   3.290
 1867TIP3   OH2 5543   0.251   7.981   4.423
 1867TIP3    H1 5544   0.247   7.903   4.479
 1867TIP3    H2 5545   0.342   8.010   4.429
 1868TIP3   OH2 5546   0.213   7.740   3.608
 1868TIP3    H1 5547   0.155   7.777   3.541
 1868TIP3    H2 5548   0.244   7.658   3.569
 1869TIP3   OH2 5549   8.020   7.736   4.329
 1869TIP3    H1 5550   8.055   7.794   4.397
 1869TIP3    H2 5551   8.006   7.653   4.373
 1870TIP3   OH2 5552   0.222   7.952   4.010
 1870TIP3    H1 5553   0.266   7.886   3.957
 1870TIP3    H2 5554   0.208   7.910   4.095
 1871TIP3   OH2 5555   3.413   1.164   4.113
 1871TIP3    H1 5556   3.409   1.188   4.020
 1871TIP3    H2 5557   3.490   1.209   4.147
 1872TIP3   OH2 5558   2.367   0.275   4.536
 1872TIP3    H1 5559   2.449   0.301   4.580
 1872TIP3    H2 5560   2.303   0.273   4.607
 1873TIP3   OH2 5561  -0.014   7.749   3.791
 1873TIP3    H1 5562   0.066   7.717   3.749
 1873TIP3    H2 5563  -0.010   7.714   3.880
 1874TIP3   OH2 5564   8.491   7.669   4.051
 1874TIP3    H1 5565   8.404   7.667   4.089
 1874TIP3    H2 5566   8.546   7.707   4.120
 1875TIP3   OH2 5567   2.535  -0.001   3.188
 1875TIP3    H1 5568   2.440  -0.004   3.174
 1875TIP3    H2 5569   2.545   0.040   3.274
 1876TIP3   OH2 5570   3.450   0.253   3.796
 1876TIP3    H1 5571   3.475   0.302   3.718
 1876TIP3    H2 5572   3.362   0.221   3.777
 1877TIP3   OH2 5573   2.917   0.329   4.147
 1877TIP3    H1 5574   2.972   0.298   4.220
 1877TIP3    H2 5575   2.903   0.422   4.165
 1878TIP3   OH2 5576   0.235   7.591   3.149
 1878TIP3    H1 5577   0.330   7.602   3.150
 1878TIP3    H2 5578   0.204   7.660   3.090
 1879TIP3   OH2 5579   7.898   8.034   3.845
 1879TIP3    H1 5580   7.943   8.015   3.762
 1879TIP3    H2 5581   7.951   7.988   3.911
 1880TIP3   OH2 5582   2.687   0.166   3.022
 1880TIP3    H1 5583   2.648   0.253   3.028
 1880TIP3    H2 5584   2.630   0.110   3.074
 1881TIP3   OH2 5585   7.785   7.970   4.466
 1881TIP3    H1 5586   7.814   7.958   4.556
 1881TIP3    H2 5587   7.719   7.903   4.451
 1882TIP3   OH2 5588   2.841   0.074   4.484
 1882TIP3    H1 5589   2.781   0.016   4.438
 1882TIP3    H2 5590   2.928   0.046   4.456
 1883TIP3   OH2 5591   3.097   0.587   4.073
 1883TIP3    H1 5592   3.002   0.599   4.076
 1883TIP3    H2 5593   3.130   0.640   4.145
 1884TIP3   OH2 5594   0.678   7.674   2.960
 1884TIP3    H1 5595   0.625   7.619   2.902
 1884TIP3    H2 5596   0.666   7.762   2.926
 1885TIP3   OH2 5597   3.731   0.525   4.055
 1885TIP3    H1 5598   3.636   0.517   4.054
 1885TIP3    H2 5599   3.759   0.493   3.969
 1886TIP3   OH2 5600   3.213   0.481   2.882
 1886TIP3    H1 5601   3.188   0.408   2.939
 1886TIP3    H2 5602   3.227   0.441   2.797
 1887TIP3   OH2 5603   3.195   0.106   3.701
 1887TIP3    H1 5604   3.146   0.048   3.759
 1887TIP3    H2 5605   3.254   0.048   3.654
 1888TIP3   OH2 5606   2.332   0.341   3.473
 1888TIP3    H1 5607   2.336   0.422   3.421
 1888TIP3    H2 5608   2.239   0.320   3.477
 1889TIP3   OH2 5609   2.477   0.112   3.426
 1889TIP3    H1 5610   2.441   0.200   3.434
 1889TIP3    H2 5611   2.440   0.063   3.499
 1890TIP3   OH2 5612   2.612   0.680   3.941
 1890TIP3    H1 5613   2.649   0.753   3.891
 1890TIP3    H2 5614   2.685   0.650   3.996
 1891TIP3   OH2 5615   2.259   0.579   3.327
 1891TIP3    H1 5616   2.175   0.587   3.371
 1891TIP3    H2 5617   2.294   0.669   3.326
 1892TIP3   OH2 5618   3.027   0.296   3.884
 1892TIP3    H1 5619   2.965   0.317   3.954
 1892TIP3    H2 5620   3.113   0.303   3.925
 1893TIP3   OH2 5621   2.977   0.213   2.782
 1893TIP3    H1 5622   3.017   0.189   2.865
 1893TIP3    H2 5623   2.887   0.181   2.789
 1894TIP3   OH2 5624   3.238   0.847   3.948
 1894TIP3    H1 5625   3.161   0.791   3.941
 1894TIP3    H2 5626   3.227   0.912   3.879
 1895TIP3   OH2 5627   3.306   0.686   2.603
 1895TIP3    H1 5628   3.346   0.753   2.547
 1895TIP3    H2 5629   3.227   0.727   2.638
 1896TIP3   OH2 5630   3.133   0.152   3.009
 1896TIP3    H1 5631   3.120   0.084   3.076
 1896TIP3    H2 5632   3.226   0.147   2.989
 1897TIP3   OH2 5633   2.047   0.546   4.102
 1897TIP3    H1 5634   2.098   0.474   4.140
 1897TIP3    H2 5635   2.072   0.623   4.153
 1898TIP3   OH2 5636   2.300   0.203   3.035
 1898TIP3    H1 5637   2.308   0.178   3.127
 1898TIP3    H2 5638   2.289   0.298   3.036
 1899TIP3   OH2 5639   2.557   0.401   3.026
 1899TIP3    H1 5640   2.470   0.427   3.056
 1899TIP3    H2 5641   2.553   0.410   2.930
 1900TIP3   OH2 5642   8.385   7.486   3.406
 1900TIP3    H1 5643   8.449   7.557   3.396
 1900TIP3    H2 5644   8.430   7.421   3.459
 1901TIP3   OH2 5645   0.184   7.793   4.228
 1901TIP3    H1 5646   0.182   7.852   4.303
 1901TIP3    H2 5647   0.246   7.725   4.253
 1902TIP3   OH2 5648   2.294   0.470   3.076
 1902TIP3    H1 5649   2.262   0.538   3.016
 1902TIP3    H2 5650   2.276   0.505   3.163
 1903TIP3   OH2 5651   0.462   7.890   3.600
 1903TIP3    H1 5652   0.385   7.835   3.616
 1903TIP3    H2 5653   0.533   7.845   3.644
 1904TIP3   OH2 5654   3.266   0.820   3.537
 1904TIP3    H1 5655   3.221   0.866   3.466
 1904TIP3    H2 5656   3.359   0.841   3.523
 1905TIP3   OH2 5657   1.911   0.350   3.454
 1905TIP3    H1 5658   1.823   0.317   3.472
 1905TIP3    H2 5659   1.933   0.311   3.369
 1906TIP3   OH2 5660   2.038   0.856   4.530
 1906TIP3    H1 5661   2.124   0.859   4.573
 1906TIP3    H2 5662   2.019   0.763   4.521
 1907TIP3   OH2 5663   2.512   0.814   4.567
 1907TIP3    H1 5664   2.606   0.802   4.581
 1907TIP3    H2 5665   2.490   0.755   4.496
 1908TIP3   OH2 5666   2.511   0.403   2.752
 1908TIP3    H1 5667   2.441   0.338   2.756
 1908TIP3    H2 5668   2.547   0.394   2.664
 1909TIP3   OH2 5669   3.157   0.723   4.302
 1909TIP3    H1 5670   3.148   0.655   4.368
 1909TIP3    H2 5671   3.233   0.774   4.330
 1910TIP3   OH2 5672   2.935   0.435   2.612
 1910TIP3    H1 5673   2.976   0.372   2.671
 1910TIP3    H2 5674   2.992   0.437   2.535
 1911TIP3   OH2 5675   2.165   0.263   4.723
 1911TIP3    H1 5676   2.182   0.170   4.734
 1911TIP3    H2 5677   2.080   0.266   4.679
 1912TIP3   OH2 5678   2.771   0.347   4.499
 1912TIP3    H1 5679   2.736   0.365   4.412
 1912TIP3    H2 5680   2.805   0.257   4.493
 1913TIP3   OH2 5681   2.702   0.113   2.750
 1913TIP3    H1 5682   2.687   0.131   2.843
 1913TIP3    H2 5683   2.688   0.019   2.742
 1914TIP3   OH2 5684   3.238   0.341   4.043
 1914TIP3    H1 5685   3.331   0.358   4.056
 1914TIP3    H2 5686   3.195   0.422   4.071
 1915TIP3   OH2 5687   7.963   8.008   4.704
 1915TIP3    H1 5688   8.041   7.957   4.685
 1915TIP3    H2 5689   7.976   8.040   4.793
 1916TIP3   OH2 5690   8.279   7.919   4.363
 1916TIP3    H1 5691   8.202   7.975   4.360
 1916TIP3    H2 5692   8.329   7.943   4.284
 1917TIP3   OH2 5693   3.151   0.279   4.499
 1917TIP3    H1 5694   3.228   0.238   4.458
 1917TIP3    H2 5695   3.127   0.218   4.568
 1918TIP3   OH2 5696   0.448   7.964   2.641
 1918TIP3    H1 5697   0.423   7.914   2.563
 1918TIP3    H2 5698   0.418   8.053   2.623
 1919TIP3   OH2 5699   8.372   7.701   4.488
 1919TIP3    H1 5700   8.330   7.637   4.431
 1919TIP3    H2 5701   8.348   7.786   4.451
 1920TIP3   OH2 5702   2.773  -0.010   4.164
 1920TIP3    H1 5703   2.862  -0.012   4.127
 1920TIP3    H2 5704   2.728   0.058   4.113
 1921TIP3   OH2 5705   8.244   7.827   4.711
 1921TIP3    H1 5706   8.216   7.755   4.767
 1921TIP3    H2 5707   8.308   7.788   4.651
 1922TIP3   OH2 5708   0.162   7.746   4.527
 1922TIP3    H1 5709   0.201   7.715   4.609
 1922TIP3    H2 5710   0.068   7.739   4.542
 1923TIP3   OH2 5711   2.260   0.666   2.886
 1923TIP3    H1 5712   2.353   0.668   2.866
 1923TIP3    H2 5713   2.219   0.711   2.812
 1924TIP3   OH2 5714   1.650   0.649   3.503
 1924TIP3    H1 5715   1.582   0.587   3.481
 1924TIP3    H2 5716   1.699   0.607   3.574
 1925TIP3   OH2 5717   1.774   0.530   3.713
 1925TIP3    H1 5718   1.778   0.446   3.759
 1925TIP3    H2 5719   1.834   0.587   3.761
 1926TIP3   OH2 5720   3.519   0.914   3.505
 1926TIP3    H1 5721   3.541   0.945   3.593
 1926TIP3    H2 5722   3.578   0.961   3.447
 1927TIP3   OH2 5723   3.548   0.932   3.786
 1927TIP3    H1 5724   3.504   0.848   3.782
 1927TIP3    H2 5725   3.622   0.918   3.845
 1928TIP3   OH2 5726   3.594   0.613   4.359
 1928TIP3    H1 5727   3.522   0.616   4.423
 1928TIP3    H2 5728   3.635   0.699   4.364
 1929TIP3   OH2 5729   3.410   0.126   2.975
 1929TIP3    H1 5730   3.474   0.190   2.943
 1929TIP3    H2 5731   3.452   0.088   3.053
 1930TIP3   OH2 5732   0.701   8.012   3.180
 1930TIP3    H1 5733   0.638   7.971   3.241
 1930TIP3    H2 5734   0.769   8.048   3.237
 1931TIP3   OH2 5735   3.579   0.382   3.595
 1931TIP3    H1 5736   3.643   0.319   3.562
 1931TIP3    H2 5737   3.590   0.459   3.540
 1932TIP3   OH2 5738   3.421   0.686   3.806
 1932TIP3    H1 5739   3.355   0.728   3.862
 1932TIP3    H2 5740   3.370   0.641   3.738
 1933TIP3   OH2 5741   0.633   7.912   2.829
 1933TIP3    H1 5742   0.572   7.924   2.757
 1933TIP3    H2 5743   0.615   7.986   2.888
 1934TIP3   OH2 5744   0.505   7.571   2.773
 1934TIP3    H1 5745   0.492   7.655   2.728
 1934TIP3    H2 5746   0.417   7.538   2.788
 1935TIP3   OH2 5747   0.515   7.874   3.327
 1935TIP3    H1 5748   0.516   7.782   3.302
 1935TIP3    H2 5749   0.505   7.873   3.423
 1936TIP3   OH2 5750   7.641   7.934   4.071
 1936TIP3    H1 5751   7.634   7.906   3.980
 1936TIP3    H2 5752   7.735   7.936   4.088
 1937TIP3   OH2 5753   3.633   0.272   4.173
 1937TIP3    H1 5754   3.705   0.208   4.173
 1937TIP3    H2 5755   3.670   0.349   4.130
 1938TIP3   OH2 5756   3.825   0.079   4.195
 1938TIP3    H1 5757   3.749   0.029   4.222
 1938TIP3    H2 5758   3.900   0.022   4.214
 1939TIP3   OH2 5759   0.512   7.624   3.191
 1939TIP3    H1 5760   0.534   7.547   3.243
 1939TIP3    H2 5761   0.577   7.625   3.121
 1940TIP3   OH2 5762   0.670   7.761   3.718
 1940TIP3    H1 5763   0.754   7.780   3.676
 1940TIP3    H2 5764   0.681   7.794   3.808
 1941TIP3   OH2 5765   0.734   7.905   3.945
 1941TIP3    H1 5766   0.667   7.937   4.005
 1941TIP3    H2 5767   0.772   7.984   3.906
 1942TIP3   OH2 5768   7.859   7.616   4.740
 1942TIP3    H1 5769   7.955   7.614   4.744
 1942TIP3    H2 5770   7.832   7.531   4.776
 1943TIP3   OH2 5771   7.617   7.593   4.147
 1943TIP3    H1 5772   7.664   7.595   4.063
 1943TIP3    H2 5773   7.651   7.668   4.196
 1944TIP3   OH2 5774   3.101   0.780   3.159
 1944TIP3    H1 5775   3.152   0.772   3.078
 1944TIP3    H2 5776   3.145   0.848   3.209
 1945TIP3   OH2 5777   2.199   0.589   4.541
 1945TIP3    H1 5778   2.108   0.562   4.527
 1945TIP3    H2 5779   2.217   0.568   4.633
 1946TIP3   OH2 5780   2.383   0.621   4.087
 1946TIP3    H1 5781   2.332   0.694   4.052
 1946TIP3    H2 5782   2.469   0.631   4.046
 1947TIP3   OH2 5783   2.824   0.867   4.228
 1947TIP3    H1 5784   2.863   0.862   4.316
 1947TIP3    H2 5785   2.889   0.915   4.176
 1948TIP3   OH2 5786   3.009   1.014   4.090
 1948TIP3    H1 5787   3.080   0.964   4.051
 1948TIP3    H2 5788   3.052   1.074   4.150
 1949TIP3   OH2 5789   2.054   0.875   4.120
 1949TIP3    H1 5790   1.967   0.903   4.093
 1949TIP3    H2 5791   2.072   0.925   4.199
 1950TIP3   OH2 5792   2.289   0.853   3.972
 1950TIP3    H1 5793   2.205   0.865   4.017
 1950TIP3    H2 5794   2.274   0.887   3.884
 1951TIP3   OH2 5795   2.717   0.883   3.770
 1951TIP3    H1 5796   2.647   0.901   3.707
 1951TIP3    H2 5797   2.732   0.966   3.814
 1952TIP3   OH2 5798   2.991   0.820   3.800
 1952TIP3    H1 5799   2.897   0.837   3.794
 1952TIP3    H2 5800   3.032   0.902   3.773
 1953TIP3   OH2 5801   3.193   1.013   3.733
 1953TIP3    H1 5802   3.180   1.098   3.691
 1953TIP3    H2 5803   3.219   0.955   3.661
 1954TIP3   OH2 5804   1.968   0.666   3.861
 1954TIP3    H1 5805   1.991   0.642   3.950
 1954TIP3    H2 5806   2.037   0.628   3.807
 1955TIP3   OH2 5807   2.163   0.543   3.722
 1955TIP3    H1 5808   2.175   0.459   3.767
 1955TIP3    H2 5809   2.251   0.580   3.717
 1956TIP3   OH2 5810   2.429   0.638   3.724
 1956TIP3    H1 5811   2.451   0.545   3.714
 1956TIP3    H2 5812   2.474   0.664   3.804
 1957TIP3   OH2 5813   1.718   0.448   3.230
 1957TIP3    H1 5814   1.625   0.440   3.251
 1957TIP3    H2 5815   1.741   0.536   3.258
 1958TIP3   OH2 5816   2.526   0.668   2.817
 1958TIP3    H1 5817   2.617   0.684   2.794
 1958TIP3    H2 5818   2.510   0.576   2.795
 1959TIP3   OH2 5819   3.246   0.748   2.925
 1959TIP3    H1 5820   3.239   0.653   2.915
 1959TIP3    H2 5821   3.203   0.784   2.848
 1960TIP3   OH2 5822   3.469   0.895   4.110
 1960TIP3    H1 5823   3.392   0.861   4.065
 1960TIP3    H2 5824   3.453   0.989   4.119
 1961TIP3   OH2 5825   4.737   0.264   2.877
 1961TIP3    H1 5826   4.713   0.355   2.860
 1961TIP3    H2 5827   4.663   0.213   2.843
 1962TIP3   OH2 5828   4.738   0.265   3.266
 1962TIP3    H1 5829   4.771   0.244   3.354
 1962TIP3    H2 5830   4.696   0.184   3.236
 1963TIP3   OH2 5831   4.034   0.158   3.626
 1963TIP3    H1 5832   4.062   0.088   3.686
 1963TIP3    H2 5833   4.111   0.215   3.619
 1964TIP3   OH2 5834   4.983   0.570   2.946
 1964TIP3    H1 5835   4.969   0.500   3.010
 1964TIP3    H2 5836   5.013   0.644   2.998
 1965TIP3   OH2 5837   4.010   0.566   3.346
 1965TIP3    H1 5838   3.999   0.471   3.348
 1965TIP3    H2 5839   4.104   0.579   3.347
 1966TIP3   OH2 5840   0.869   7.796   3.143
 1966TIP3    H1 5841   0.820   7.878   3.156
 1966TIP3    H2 5842   0.810   7.740   3.094
 1967TIP3   OH2 5843   3.768   0.068   3.305
 1967TIP3    H1 5844   3.808  -0.012   3.340
 1967TIP3    H2 5845   3.837   0.107   3.250
 1968TIP3   OH2 5846   4.635   1.028   2.961
 1968TIP3    H1 5847   4.677   0.959   2.910
 1968TIP3    H2 5848   4.627   0.991   3.049
 1969TIP3   OH2 5849   4.540   0.492   3.308
 1969TIP3    H1 5850   4.574   0.413   3.265
 1969TIP3    H2 5851   4.617   0.541   3.334
 1970TIP3   OH2 5852   2.121   8.008   3.353
 1970TIP3    H1 5853   2.145   7.921   3.385
 1970TIP3    H2 5854   2.084   7.993   3.266
 1971TIP3   OH2 5855   1.443   7.626   3.271
 1971TIP3    H1 5856   1.420   7.715   3.245
 1971TIP3    H2 5857   1.363   7.575   3.257
 1972TIP3   OH2 5858   2.113   7.778   2.979
 1972TIP3    H1 5859   2.169   7.734   3.043
 1972TIP3    H2 5860   2.166   7.781   2.899
 1973TIP3   OH2 5861   1.068   7.866   3.403
 1973TIP3    H1 5862   1.156   7.872   3.441
 1973TIP3    H2 5863   1.078   7.807   3.329
 1974TIP3   OH2 5864   4.358   0.052   3.209
 1974TIP3    H1 5865   4.450   0.030   3.225
 1974TIP3    H2 5866   4.318  -0.031   3.184
 1975TIP3   OH2 5867   5.613   0.023   3.471
 1975TIP3    H1 5868   5.527   0.062   3.458
 1975TIP3    H2 5869   5.644   0.061   3.554
 1976TIP3   OH2 5870   4.628   0.487   2.746
 1976TIP3    H1 5871   4.589   0.467   2.661
 1976TIP3    H2 5872   4.585   0.567   2.775
 1977TIP3   OH2 5873   4.390   0.413   3.532
 1977TIP3    H1 5874   4.330   0.477   3.570
 1977TIP3    H2 5875   4.433   0.460   3.461
 1978TIP3   OH2 5876   1.323   7.832   3.473
 1978TIP3    H1 5877   1.388   7.881   3.523
 1978TIP3    H2 5878   1.347   7.740   3.485
 1979TIP3   OH2 5879   4.216   0.608   3.632
 1979TIP3    H1 5880   4.195   0.694   3.596
 1979TIP3    H2 5881   4.142   0.586   3.688
 1980TIP3   OH2 5882   3.609   0.298   2.868
 1980TIP3    H1 5883   3.571   0.323   2.783
 1980TIP3    H2 5884   3.641   0.381   2.905
 1981TIP3   OH2 5885   5.048   0.813   3.107
 1981TIP3    H1 5886   4.962   0.802   3.147
 1981TIP3    H2 5887   5.043   0.899   3.064
 1982TIP3   OH2 5888   4.753   0.857   2.777
 1982TIP3    H1 5889   4.800   0.775   2.762
 1982TIP3    H2 5890   4.810   0.924   2.740
 1983TIP3   OH2 5891   4.895   0.640   2.694
 1983TIP3    H1 5892   4.855   0.562   2.657
 1983TIP3    H2 5893   4.934   0.610   2.777
 1984TIP3   OH2 5894   5.278   0.723   3.450
 1984TIP3    H1 5895   5.266   0.645   3.395
 1984TIP3    H2 5896   5.260   0.797   3.392
 1985TIP3   OH2 5897   4.568   0.123   2.706
 1985TIP3    H1 5898   4.488   0.171   2.688
 1985TIP3    H2 5899   4.612   0.116   2.622
 1986TIP3   OH2 5900   1.694   7.915   2.428
 1986TIP3    H1 5901   1.764   7.966   2.470
 1986TIP3    H2 5902   1.740   7.846   2.381
 1987TIP3   OH2 5903   5.472   0.365   3.298
 1987TIP3    H1 5904   5.389   0.413   3.305
 1987TIP3    H2 5905   5.503   0.383   3.210
 1988TIP3   OH2 5906   4.916   0.201   2.682
 1988TIP3    H1 5907   4.860   0.224   2.757
 1988TIP3    H2 5908   5.000   0.179   2.721
 1989TIP3   OH2 5909   5.151   0.247   3.602
 1989TIP3    H1 5910   5.147   0.326   3.655
 1989TIP3    H2 5911   5.068   0.245   3.556
 1990TIP3   OH2 5912   4.151   0.195   3.098
 1990TIP3    H1 5913   4.111   0.138   3.032
 1990TIP3    H2 5914   4.226   0.145   3.130
 1991TIP3   OH2 5915   4.282   0.612   3.243
 1991TIP3    H1 5916   4.260   0.570   3.160
 1991TIP3    H2 5917   4.369   0.578   3.265
 1992TIP3   OH2 5918   4.286   0.167   3.457
 1992TIP3    H1 5919   4.317   0.140   3.370
 1992TIP3    H2 5920   4.329   0.251   3.473
 1993TIP3   OH2 5921   4.810   0.806   3.231
 1993TIP3    H1 5922   4.798   0.884   3.284
 1993TIP3    H2 5923   4.796   0.733   3.291
 1994TIP3   OH2 5924   4.421   0.725   3.776
 1994TIP3    H1 5925   4.365   0.786   3.824
 1994TIP3    H2 5926   4.360   0.671   3.727
 1995TIP3   OH2 5927   4.758   0.058   2.507
 1995TIP3    H1 5928   4.813   0.117   2.558
 1995TIP3    H2 5929   4.782   0.077   2.416
 1996TIP3   OH2 5930   4.168   0.292   3.874
 1996TIP3    H1 5931   4.177   0.375   3.921
 1996TIP3    H2 5932   4.079   0.264   3.891
 1997TIP3   OH2 5933   4.504   0.734   2.783
 1997TIP3    H1 5934   4.584   0.785   2.794
 1997TIP3    H2 5935   4.442   0.796   2.744
 1998TIP3   OH2 5936   4.215   0.890   3.865
 1998TIP3    H1 5937   4.182   0.891   3.775
 1998TIP3    H2 5938   4.138   0.870   3.918
 1999TIP3   OH2 5939   4.015   0.039   2.900
 1999TIP3    H1 5940   3.949   0.084   2.848
 1999TIP3    H2 5941   3.979  -0.048   2.915
 2000TIP3   OH2 5942   5.074   0.666   2.105
 2000TIP3    H1 5943   5.079   0.761   2.091
 2000TIP3    H2 5944   5.164   0.635   2.095
 2001TIP3   OH2 5945   3.798   0.421   3.813
 2001TIP3    H1 5946   3.736   0.393   3.744
 2001TIP3    H2 5947   3.839   0.339   3.842
 2002TIP3   OH2 5948   3.654   0.615   3.447
 2002TIP3    H1 5949   3.749   0.609   3.434
 2002TIP3    H2 5950   3.642   0.694   3.501
 2003TIP3   OH2 5951   5.513   1.068   3.502
 2003TIP3    H1 5952   5.515   0.973   3.515
 2003TIP3    H2 5953   5.433   1.096   3.545
 2004TIP3   OH2 5954   4.617   0.856   3.634
 2004TIP3    H1 5955   4.618   0.947   3.665
 2004TIP3    H2 5956   4.550   0.813   3.687
 2005TIP3   OH2 5957   4.381   0.986   2.581
 2005TIP3    H1 5958   4.339   0.956   2.501
 2005TIP3    H2 5959   4.338   1.069   2.602
 2006TIP3   OH2 5960   3.821   0.829   2.973
 2006TIP3    H1 5961   3.868   0.823   3.056
 2006TIP3    H2 5962   3.766   0.751   2.971
 2007TIP3   OH2 5963   4.586   0.884   2.227
 2007TIP3    H1 5964   4.641   0.815   2.189
 2007TIP3    H2 5965   4.618   0.893   2.316
 2008TIP3   OH2 5966   4.634   0.932   2.497
 2008TIP3    H1 5967   4.547   0.942   2.537
 2008TIP3    H2 5968   4.687   0.892   2.566
 2009TIP3   OH2 5969   5.404   0.184   3.775
 2009TIP3    H1 5970   5.326   0.211   3.726
 2009TIP3    H2 5971   5.395   0.089   3.782
 2010TIP3   OH2 5972   4.000   0.606   3.797
 2010TIP3    H1 5973   4.051   0.593   3.877
 2010TIP3    H2 5974   3.927   0.545   3.805
 2011TIP3   OH2 5975   5.180  -0.023   3.693
 2011TIP3    H1 5976   5.181  -0.034   3.788
 2011TIP3    H2 5977   5.151   0.068   3.680
 2012TIP3   OH2 5978   4.838   0.097   2.251
 2012TIP3    H1 5979   4.797   0.079   2.166
 2012TIP3    H2 5980   4.917   0.146   2.229
 2013TIP3   OH2 5981   1.513   7.968   3.618
 2013TIP3    H1 5982   1.455   7.983   3.693
 2013TIP3    H2 5983   1.500   8.044   3.562
 2014TIP3   OH2 5984   1.380   7.847   3.121
 2014TIP3    H1 5985   1.288   7.825   3.136
 2014TIP3    H2 5986   1.399   7.815   3.033
 2015TIP3   OH2 5987   1.866   7.937   2.843
 2015TIP3    H1 5988   1.819   8.008   2.800
 2015TIP3    H2 5989   1.932   7.909   2.779
 2016TIP3   OH2 5990   4.890   0.222   3.919
 2016TIP3    H1 5991   4.863   0.144   3.966
 2016TIP3    H2 5992   4.984   0.231   3.939
 2017TIP3   OH2 5993   2.011   7.996   3.099
 2017TIP3    H1 5994   1.955   8.042   3.036
 2017TIP3    H2 5995   2.037   7.916   3.054
 2018TIP3   OH2 5996   1.317   7.993   3.813
 2018TIP3    H1 5997   1.338   8.056   3.882
 2018TIP3    H2 5998   1.300   7.911   3.860
 2019TIP3   OH2 5999   0.947   7.596   2.942
 2019TIP3    H1 6000   0.965   7.604   2.848
 2019TIP3    H2 6001   0.854   7.619   2.950
 2020TIP3   OH2 6002   4.869   0.195   3.506
 2020TIP3    H1 6003   4.907   0.129   3.449
 2020TIP3    H2 6004   4.844   0.147   3.586
 2021TIP3   OH2 6005   1.128   7.722   3.167
 2021TIP3    H1 6006   1.039   7.756   3.153
 2021TIP3    H2 6007   1.131   7.641   3.116
 2022TIP3   OH2 6008   1.423   7.743   2.875
 2022TIP3    H1 6009   1.514   7.729   2.846
 2022TIP3    H2 6010   1.371   7.734   2.795
 2023TIP3   OH2 6011   1.257   7.728   2.645
 2023TIP3    H1 6012   1.184   7.706   2.588
 2023TIP3    H2 6013   1.319   7.775   2.589
 2024TIP3   OH2 6014   5.210   1.419   3.599
 2024TIP3    H1 6015   5.206   1.443   3.506
 2024TIP3    H2 6016   5.287   1.465   3.633
 2025TIP3   OH2 6017   4.163   0.532   4.021
 2025TIP3    H1 6018   4.243   0.559   4.066
 2025TIP3    H2 6019   4.097   0.527   4.090
 2026TIP3   OH2 6020   1.782   7.998   3.276
 2026TIP3    H1 6021   1.864   7.969   3.237
 2026TIP3    H2 6022   1.786   7.966   3.366
 2027TIP3   OH2 6023   1.789   7.928   3.538
 2027TIP3    H1 6024   1.701   7.923   3.575
 2027TIP3    H2 6025   1.842   7.967   3.608
 2028TIP3   OH2 6026   4.335   0.269   2.659
 2028TIP3    H1 6027   4.265   0.205   2.645
 2028TIP3    H2 6028   4.320   0.303   2.747
 2029TIP3   OH2 6029   5.238   0.507   3.284
 2029TIP3    H1 6030   5.263   0.555   3.206
 2029TIP3    H2 6031   5.154   0.466   3.262
 2030TIP3   OH2 6032   1.935   7.667   2.483
 2030TIP3    H1 6033   1.878   7.615   2.540
 2030TIP3    H2 6034   1.975   7.731   2.542
 2031TIP3   OH2 6035   4.739   0.590   3.656
 2031TIP3    H1 6036   4.767   0.566   3.744
 2031TIP3    H2 6037   4.699   0.676   3.666
 2032TIP3   OH2 6038   2.042   7.860   2.641
 2032TIP3    H1 6039   2.137   7.868   2.650
 2032TIP3    H2 6040   2.016   7.935   2.588
 2033TIP3   OH2 6041   4.032   0.288   3.333
 2033TIP3    H1 6042   4.072   0.263   3.249
 2033TIP3    H2 6043   4.076   0.233   3.397
 2034TIP3   OH2 6044   4.483   0.420   2.484
 2034TIP3    H1 6045   4.438   0.504   2.488
 2034TIP3    H2 6046   4.432   0.363   2.541
 2035TIP3   OH2 6047   3.913   0.211   3.952
 2035TIP3    H1 6048   3.932   0.200   4.045
 2035TIP3    H2 6049   3.842   0.149   3.934
 2036TIP3   OH2 6050   4.640   0.330   3.970
 2036TIP3    H1 6051   4.579   0.276   3.922
 2036TIP3    H2 6052   4.726   0.303   3.940
 2037TIP3   OH2 6053   4.896   0.852   3.552
 2037TIP3    H1 6054   4.801   0.846   3.564
 2037TIP3    H2 6055   4.927   0.900   3.629
 2038TIP3   OH2 6056   2.474   7.934   2.446
 2038TIP3    H1 6057   2.416   7.882   2.390
 2038TIP3    H2 6058   2.462   8.024   2.415
 2039TIP3   OH2 6059   5.526   0.779   3.538
 2039TIP3    H1 6060   5.431   0.774   3.535
 2039TIP3    H2 6061   5.555   0.750   3.452
 2040TIP3   OH2 6062   5.009   0.738   2.371
 2040TIP3    H1 6063   4.983   0.670   2.432
 2040TIP3    H2 6064   5.022   0.693   2.287
 2041TIP3   OH2 6065   5.003   0.370   3.200
 2041TIP3    H1 6066   4.912   0.346   3.217
 2041TIP3    H2 6067   5.041   0.292   3.158
 2042TIP3   OH2 6068   4.133   0.597   2.958
 2042TIP3    H1 6069   4.132   0.677   2.905
 2042TIP3    H2 6070   4.040   0.579   2.974
 2043TIP3   OH2 6071   0.861   7.919   2.670
 2043TIP3    H1 6072   0.911   7.999   2.688
 2043TIP3    H2 6073   0.788   7.922   2.731
 2044TIP3   OH2 6074   4.266   0.361   2.903
 2044TIP3    H1 6075   4.234   0.449   2.921
 2044TIP3    H2 6076   4.235   0.309   2.977
 2045TIP3   OH2 6077   4.406   0.939   3.429
 2045TIP3    H1 6078   4.447   1.011   3.380
 2045TIP3    H2 6079   4.478   0.901   3.479
 2046TIP3   OH2 6080   4.049   0.839   2.812
 2046TIP3    H1 6081   3.965   0.842   2.859
 2046TIP3    H2 6082   4.082   0.929   2.815
 2047TIP3   OH2 6083   4.790   0.574   3.390
 2047TIP3    H1 6084   4.777   0.575   3.485
 2047TIP3    H2 6085   4.868   0.520   3.377
 2048TIP3   OH2 6086   4.766   0.468   2.274
 2048TIP3    H1 6087   4.821   0.445   2.349
 2048TIP3    H2 6088   4.678   0.439   2.299
 2049TIP3   OH2 6089   5.038   1.105   3.438
 2049TIP3    H1 6090   4.962   1.047   3.436
 2049TIP3    H2 6091   5.022   1.168   3.368
 2050TIP3   OH2 6092   5.103   0.943   2.090
 2050TIP3    H1 6093   5.143   1.012   2.037
 2050TIP3    H2 6094   5.024   0.983   2.126
 2051TIP3   OH2 6095   4.929   0.398   2.486
 2051TIP3    H1 6096   4.915   0.334   2.557
 2051TIP3    H2 6097   5.024   0.398   2.473
 2052TIP3   OH2 6098   3.843   0.800   3.589
 2052TIP3    H1 6099   3.895   0.728   3.625
 2052TIP3    H2 6100   3.862   0.875   3.645
 2053TIP3   OH2 6101   4.131   0.445   2.273
 2053TIP3    H1 6102   4.144   0.356   2.243
 2053TIP3    H2 6103   4.110   0.437   2.366
 2054TIP3   OH2 6104   4.075   0.454   2.545
 2054TIP3    H1 6105   4.148   0.424   2.600
 2054TIP3    H2 6106   4.077   0.549   2.551
 2055TIP3   OH2 6107   3.807   0.146   2.748
 2055TIP3    H1 6108   3.743   0.190   2.805
 2055TIP3    H2 6109   3.826   0.211   2.680
 2056TIP3   OH2 6110   4.341   0.651   2.492
 2056TIP3    H1 6111   4.256   0.674   2.529
 2056TIP3    H2 6112   4.358   0.719   2.426
 2057TIP3   OH2 6113   1.711   7.716   2.868
 2057TIP3    H1 6114   1.761   7.797   2.862
 2057TIP3    H2 6115   1.717   7.690   2.959
 2058TIP3   OH2 6116   4.814   0.032   3.717
 2058TIP3    H1 6117   4.807   0.091   3.792
 2058TIP3    H2 6118   4.875  -0.036   3.746
 2059TIP3   OH2 6119   4.087   0.728   2.561
 2059TIP3    H1 6120   4.058   0.794   2.498
 2059TIP3    H2 6121   4.071   0.767   2.646
 2060TIP3   OH2 6122   5.092   0.127   3.084
 2060TIP3    H1 6123   5.013   0.078   3.106
 2060TIP3    H2 6124   5.162   0.082   3.131
 2061TIP3   OH2 6125   3.807   0.351   2.550
 2061TIP3    H1 6126   3.872   0.420   2.562
 2061TIP3    H2 6127   3.846   0.293   2.485
 2062TIP3   OH2 6128   0.916   7.650   2.677
 2062TIP3    H1 6129   0.910   7.745   2.669
 2062TIP3    H2 6130   0.828   7.619   2.656
 2063TIP3   OH2 6131   5.060   1.085   3.027
 2063TIP3    H1 6132   5.016   1.130   2.955
 2063TIP3    H2 6133   5.154   1.101   3.011
 2064TIP3   OH2 6134   3.669   0.568   2.935
 2064TIP3    H1 6135   3.608   0.598   3.002
 2064TIP3    H2 6136   3.640   0.610   2.854
 2065TIP3   OH2 6137   3.836   1.114   4.010
 2065TIP3    H1 6138   3.919   1.118   4.057
 2065TIP3    H2 6139   3.814   1.020   4.009
 2066TIP3   OH2 6140   4.311   1.071   4.053
 2066TIP3    H1 6141   4.405   1.055   4.064
 2066TIP3    H2 6142   4.285   1.012   3.982
 2067TIP3   OH2 6143   4.294   0.647   2.183
 2067TIP3    H1 6144   4.238   0.580   2.221
 2067TIP3    H2 6145   4.369   0.599   2.149
 2068TIP3   OH2 6146   4.954   0.979   3.788
 2068TIP3    H1 6147   4.944   0.912   3.855
 2068TIP3    H2 6148   5.028   1.032   3.817
 2069TIP3   OH2 6149   4.730   0.688   2.096
 2069TIP3    H1 6150   4.769   0.625   2.156
 2069TIP3    H2 6151   4.786   0.686   2.018
 2070TIP3   OH2 6152   3.962   0.519   4.209
 2070TIP3    H1 6153   3.976   0.425   4.224
 2070TIP3    H2 6154   3.875   0.524   4.170
 2071TIP3   OH2 6155   3.943   0.163   2.407
 2071TIP3    H1 6156   3.996   0.134   2.481
 2071TIP3    H2 6157   4.005   0.171   2.334
 2072TIP3   OH2 6158   4.570   0.603   3.984
 2072TIP3    H1 6159   4.528   0.621   3.899
 2072TIP3    H2 6160   4.600   0.513   3.977
 2073TIP3   OH2 6161   4.454   0.365   2.215
 2073TIP3    H1 6162   4.455   0.381   2.309
 2073TIP3    H2 6163   4.456   0.270   2.207
 2074TIP3   OH2 6164   5.061   0.617   3.589
 2074TIP3    H1 6165   5.137   0.658   3.547
 2074TIP3    H2 6166   4.989   0.679   3.577
 2075TIP3   OH2 6167   4.094   0.252   4.193
 2075TIP3    H1 6168   4.173   0.202   4.173
 2075TIP3    H2 6169   4.109   0.287   4.281
 2076TIP3   OH2 6170   4.141   0.072   2.624
 2076TIP3    H1 6171   4.122   0.036   2.711
 2076TIP3    H2 6172   4.181  -0.001   2.576
 2077TIP3   OH2 6173   4.414   0.166   3.852
 2077TIP3    H1 6174   4.333   0.217   3.849
 2077TIP3    H2 6175   4.461   0.192   3.772
 2078TIP3   OH2 6176   1.415   7.879   2.471
 2078TIP3    H1 6177   1.386   7.883   2.380
 2078TIP3    H2 6178   1.510   7.884   2.465
 2079TIP3   OH2 6179   4.938   0.538   3.988
 2079TIP3    H1 6180   5.010   0.505   3.934
 2079TIP3    H2 6181   4.924   0.472   4.055
 2080TIP3   OH2 6182   5.066   0.194   2.128
 2080TIP3    H1 6183   5.050   0.147   2.046
 2080TIP3    H2 6184   5.037   0.283   2.111
 2081TIP3   OH2 6185   1.667   7.959   3.974
 2081TIP3    H1 6186   1.623   7.896   3.917
 2081TIP3    H2 6187   1.644   8.044   3.938
 2082TIP3   OH2 6188   4.577   0.254   3.656
 2082TIP3    H1 6189   4.659   0.257   3.607
 2082TIP3    H2 6190   4.520   0.316   3.610
 2083TIP3   OH2 6191   5.145   0.216   4.019
 2083TIP3    H1 6192   5.171   0.154   4.087
 2083TIP3    H2 6193   5.225   0.264   3.998
 2084TIP3   OH2 6194   5.193   0.473   3.774
 2084TIP3    H1 6195   5.132   0.524   3.720
 2084TIP3    H2 6196   5.279   0.490   3.737
 2085TIP3   OH2 6197   4.382   0.068   4.204
 2085TIP3    H1 6198   4.343  -0.008   4.247
 2085TIP3    H2 6199   4.442   0.032   4.139
 2086TIP3   OH2 6200   1.951   8.010   4.014
 2086TIP3    H1 6201   1.985   7.978   4.098
 2086TIP3    H2 6202   1.856   7.997   4.021
 2087TIP3   OH2 6203   4.060   0.933   2.373
 2087TIP3    H1 6204   4.153   0.921   2.354
 2087TIP3    H2 6205   4.025   0.978   2.297
 2088TIP3   OH2 6206   3.538   0.307   2.585
 2088TIP3    H1 6207   3.630   0.330   2.573
 2088TIP3    H2 6208   3.529   0.221   2.544
 2089TIP3   OH2 6209   3.451   0.917   3.005
 2089TIP3    H1 6210   3.385   0.860   2.966
 2089TIP3    H2 6211   3.496   0.862   3.069
 2090TIP3   OH2 6212   3.588   0.767   3.193
 2090TIP3    H1 6213   3.574   0.697   3.256
 2090TIP3    H2 6214   3.638   0.833   3.241
 2091TIP3   OH2 6215   5.314   1.175   2.990
 2091TIP3    H1 6216   5.338   1.202   3.078
 2091TIP3    H2 6217   5.381   1.215   2.934
 2092TIP3   OH2 6218   5.343   1.188   3.272
 2092TIP3    H1 6219   5.297   1.105   3.268
 2092TIP3    H2 6220   5.418   1.172   3.330
 2093TIP3   OH2 6221   5.389   0.871   3.846
 2093TIP3    H1 6222   5.317   0.877   3.910
 2093TIP3    H2 6223   5.431   0.956   3.849
 2094TIP3   OH2 6224   5.208   0.382   2.462
 2094TIP3    H1 6225   5.272   0.448   2.433
 2094TIP3    H2 6226   5.248   0.344   2.540
 2095TIP3   OH2 6227   5.331   0.253   2.667
 2095TIP3    H1 6228   5.266   0.214   2.726
 2095TIP3    H2 6229   5.395   0.293   2.726
 2096TIP3   OH2 6230   5.389   0.644   3.097
 2096TIP3    H1 6231   5.442   0.577   3.054
 2096TIP3    H2 6232   5.383   0.715   3.033
 2097TIP3   OH2 6233   5.215   0.942   3.292
 2097TIP3    H1 6234   5.147   0.983   3.346
 2097TIP3    H2 6235   5.167   0.895   3.224
 2098TIP3   OH2 6236   5.261   0.159   2.314
 2098TIP3    H1 6237   5.195   0.163   2.244
 2098TIP3    H2 6238   5.241   0.232   2.371
 2099TIP3   OH2 6239   2.302   7.831   2.256
 2099TIP3    H1 6240   2.277   7.908   2.204
 2099TIP3    H2 6241   2.254   7.758   2.215
 2100TIP3   OH2 6242   5.144   0.119   2.812
 2100TIP3    H1 6243   5.147   0.025   2.791
 2100TIP3    H2 6244   5.131   0.121   2.907
 2101TIP3   OH2 6245   3.772   0.188   3.557
 2101TIP3    H1 6246   3.768   0.155   3.468
 2101TIP3    H2 6247   3.866   0.186   3.579
 2102TIP3   OH2 6248   5.438   0.532   3.669
 2102TIP3    H1 6249   5.506   0.466   3.660
 2102TIP3    H2 6250   5.462   0.600   3.607
 2103TIP3   OH2 6251   5.617   0.330   3.687
 2103TIP3    H1 6252   5.542   0.280   3.720
 2103TIP3    H2 6253   5.693   0.274   3.703
 2104TIP3   OH2 6254   2.313   7.881   2.680
 2104TIP3    H1 6255   2.338   7.805   2.732
 2104TIP3    H2 6256   2.376   7.882   2.608
 2105TIP3   OH2 6257   5.301   0.002   3.211
 2105TIP3    H1 6258   5.383   0.024   3.166
 2105TIP3    H2 6259   5.314   0.034   3.300
 2106TIP3   OH2 6260   5.368   0.147   3.440
 2106TIP3    H1 6261   5.291   0.177   3.488
 2106TIP3    H2 6262   5.401   0.225   3.395
 2107TIP3   OH2 6263   1.153   7.876   4.236
 2107TIP3    H1 6264   1.245   7.855   4.225
 2107TIP3    H2 6265   1.115   7.799   4.278
 2108TIP3   OH2 6266   0.915   7.846   3.634
 2108TIP3    H1 6267   0.963   7.849   3.551
 2108TIP3    H2 6268   0.948   7.920   3.684
 2109TIP3   OH2 6269   4.895   1.044   2.643
 2109TIP3    H1 6270   4.946   1.028   2.564
 2109TIP3    H2 6271   4.948   1.103   2.696
 2110TIP3   OH2 6272   3.995   0.844   4.029
 2110TIP3    H1 6273   3.905   0.818   4.013
 2110TIP3    H2 6274   4.010   0.823   4.122
 2111TIP3   OH2 6275   4.178   0.880   3.575
 2111TIP3    H1 6276   4.127   0.953   3.541
 2111TIP3    H2 6277   4.264   0.889   3.534
 2112TIP3   OH2 6278   4.620   1.122   3.715
 2112TIP3    H1 6279   4.659   1.118   3.803
 2112TIP3    H2 6280   4.684   1.172   3.663
 2113TIP3   OH2 6281   4.801   1.275   3.576
 2113TIP3    H1 6282   4.869   1.220   3.536
 2113TIP3    H2 6283   4.849   1.332   3.636
 2114TIP3   OH2 6284   3.851   1.135   3.603
 2114TIP3    H1 6285   3.762   1.163   3.580
 2114TIP3    H2 6286   3.868   1.177   3.687
 2115TIP3   OH2 6287   4.086   1.114   3.459
 2115TIP3    H1 6288   4.003   1.124   3.506
 2115TIP3    H2 6289   4.067   1.144   3.370
 2116TIP3   OH2 6290   4.514   1.141   3.257
 2116TIP3    H1 6291   4.442   1.160   3.196
 2116TIP3    H2 6292   4.527   1.224   3.304
 2117TIP3   OH2 6293   4.783   1.079   3.308
 2117TIP3    H1 6294   4.690   1.095   3.290
 2117TIP3    H2 6295   4.828   1.154   3.269
 2118TIP3   OH2 6296   4.987   1.270   3.221
 2118TIP3    H1 6297   4.976   1.353   3.176
 2118TIP3    H2 6298   5.015   1.209   3.152
 2119TIP3   OH2 6299   3.766   0.923   3.346
 2119TIP3    H1 6300   3.787   0.900   3.436
 2119TIP3    H2 6301   3.836   0.883   3.294
 2120TIP3   OH2 6302   3.962   0.797   3.206
 2120TIP3    H1 6303   3.973   0.714   3.253
 2120TIP3    H2 6304   4.050   0.835   3.203
 2121TIP3   OH2 6305   4.230   0.890   3.211
 2121TIP3    H1 6306   4.255   0.799   3.197
 2121TIP3    H2 6307   4.273   0.915   3.293
 2122TIP3   OH2 6308   3.548   0.704   2.734
 2122TIP3    H1 6309   3.465   0.668   2.703
 2122TIP3    H2 6310   3.544   0.796   2.712
 2123TIP3   OH2 6311   4.327   0.882   2.318
 2123TIP3    H1 6312   4.413   0.908   2.285
 2123TIP3    H2 6313   4.300   0.810   2.261
 2124TIP3   OH2 6314   5.042   1.004   2.412
 2124TIP3    H1 6315   5.037   0.909   2.404
 2124TIP3    H2 6316   4.999   1.038   2.334
 2125TIP3   OH2 6317   3.630   0.720   2.375
 2125TIP3    H1 6318   3.632   0.744   2.468
 2125TIP3    H2 6319   3.714   0.678   2.360
 2126TIP3   OH2 6320   5.266   1.150   3.598
 2126TIP3    H1 6321   5.190   1.117   3.551
 2126TIP3    H2 6322   5.249   1.244   3.607
 2127TIP3   OH2 6323   6.526   0.521   2.373
 2127TIP3    H1 6324   6.505   0.613   2.354
 2127TIP3    H2 6325   6.454   0.471   2.334
 2128TIP3   OH2 6326   6.535   0.521   2.751
 2128TIP3    H1 6327   6.568   0.498   2.838
 2128TIP3    H2 6328   6.491   0.441   2.720
 2129TIP3   OH2 6329   5.833   0.415   3.112
 2129TIP3    H1 6330   5.861   0.344   3.171
 2129TIP3    H2 6331   5.909   0.472   3.106
 2130TIP3   OH2 6332   6.779   0.824   2.435
 2130TIP3    H1 6333   6.764   0.758   2.501
 2130TIP3    H2 6334   6.809   0.901   2.484
 2131TIP3   OH2 6335   5.808   0.824   2.834
 2131TIP3    H1 6336   5.796   0.729   2.836
 2131TIP3    H2 6337   5.903   0.836   2.831
 2132TIP3   OH2 6338   5.500   0.041   2.629
 2132TIP3    H1 6339   5.451   0.121   2.646
 2132TIP3    H2 6340   5.438  -0.015   2.582
 2133TIP3   OH2 6341   5.565   0.326   2.793
 2133TIP3    H1 6342   5.605   0.246   2.828
 2133TIP3    H2 6343   5.633   0.363   2.736
 2134TIP3   OH2 6344   6.430   1.285   2.448
 2134TIP3    H1 6345   6.471   1.216   2.395
 2134TIP3    H2 6346   6.422   1.247   2.535
 2135TIP3   OH2 6347   6.335   0.748   2.795
 2135TIP3    H1 6348   6.370   0.671   2.749
 2135TIP3    H2 6349   6.413   0.797   2.822
 2136TIP3   OH2 6350   6.747   0.244   2.837
 2136TIP3    H1 6351   6.769   0.157   2.870
 2136TIP3    H2 6352   6.716   0.229   2.748
 2137TIP3   OH2 6353   3.238   7.884   2.760
 2137TIP3    H1 6354   3.214   7.973   2.735
 2137TIP3    H2 6355   3.159   7.832   2.747
 2138TIP3   OH2 6356   0.700   2.581   2.031
 2138TIP3    H1 6357   0.746   2.521   2.089
 2138TIP3    H2 6358   0.698   2.537   1.946
 2139TIP3   OH2 6359   5.699   0.109   2.889
 2139TIP3    H1 6360   5.786   0.114   2.928
 2139TIP3    H2 6361   5.709   0.049   2.815
 2140TIP3   OH2 6362   6.158   0.311   2.696
 2140TIP3    H1 6363   6.249   0.287   2.711
 2140TIP3    H2 6364   6.115   0.228   2.675
 2141TIP3   OH2 6365   7.377   0.257   2.992
 2141TIP3    H1 6366   7.305   0.313   2.962
 2141TIP3    H2 6367   7.442   0.319   3.027
 2142TIP3   OH2 6368   6.416   0.739   2.239
 2142TIP3    H1 6369   6.390   0.728   2.148
 2142TIP3    H2 6370   6.378   0.823   2.265
 2143TIP3   OH2 6371   6.187   0.669   3.019
 2143TIP3    H1 6372   6.126   0.733   3.057
 2143TIP3    H2 6373   6.229   0.716   2.948
 2144TIP3   OH2 6374   5.954   0.074   2.958
 2144TIP3    H1 6375   6.018   0.123   3.010
 2144TIP3    H2 6376   5.978  -0.018   2.971
 2145TIP3   OH2 6377   6.013   0.865   3.119
 2145TIP3    H1 6378   5.992   0.951   3.082
 2145TIP3    H2 6379   5.938   0.843   3.174
 2146TIP3   OH2 6380   5.407   0.555   2.355
 2146TIP3    H1 6381   5.367   0.578   2.272
 2146TIP3    H2 6382   5.438   0.639   2.391
 2147TIP3   OH2 6383   6.846   1.069   2.594
 2147TIP3    H1 6384   6.759   1.059   2.634
 2147TIP3    H2 6385   6.841   1.154   2.549
 2148TIP3   OH2 6386   6.548   1.113   2.264
 2148TIP3    H1 6387   6.594   1.031   2.248
 2148TIP3    H2 6388   6.606   1.181   2.228
 2149TIP3   OH2 6389   6.690   0.897   2.184
 2149TIP3    H1 6390   6.670   0.817   2.135
 2149TIP3    H2 6391   6.727   0.866   2.267
 2150TIP3   OH2 6392   7.074   0.979   2.938
 2150TIP3    H1 6393   7.061   0.902   2.882
 2150TIP3    H2 6394   7.055   1.054   2.881
 2151TIP3   OH2 6395   6.361   0.375   2.196
 2151TIP3    H1 6396   6.288   0.431   2.173
 2151TIP3    H2 6397   6.410   0.365   2.114
 2152TIP3   OH2 6398   7.260   0.612   2.776
 2152TIP3    H1 6399   7.182   0.666   2.785
 2152TIP3    H2 6400   7.300   0.640   2.694
 2153TIP3   OH2 6401   6.706   0.451   2.180
 2153TIP3    H1 6402   6.660   0.479   2.260
 2153TIP3    H2 6403   6.795   0.432   2.210
 2154TIP3   OH2 6404   6.942   0.498   3.085
 2154TIP3    H1 6405   6.942   0.578   3.138
 2154TIP3    H2 6406   6.857   0.499   3.040
 2155TIP3   OH2 6407   5.947   0.449   2.583
 2155TIP3    H1 6408   5.911   0.392   2.516
 2155TIP3    H2 6409   6.023   0.402   2.617
 2156TIP3   OH2 6410   6.077   0.866   2.731
 2156TIP3    H1 6411   6.056   0.828   2.646
 2156TIP3    H2 6412   6.164   0.832   2.752
 2157TIP3   OH2 6413   6.085   0.423   2.944
 2157TIP3    H1 6414   6.115   0.398   2.857
 2157TIP3    H2 6415   6.126   0.508   2.961
 2158TIP3   OH2 6416   6.608   1.063   2.718
 2158TIP3    H1 6417   6.594   1.142   2.770
 2158TIP3    H2 6418   6.592   0.991   2.780
 2159TIP3   OH2 6419   6.217   0.981   3.264
 2159TIP3    H1 6420   6.161   1.043   3.311
 2159TIP3    H2 6421   6.156   0.928   3.214
 2160TIP3   OH2 6422   6.566   0.296   2.007
 2160TIP3    H1 6423   6.622   0.348   2.064
 2160TIP3    H2 6424   6.595   0.317   1.918
 2161TIP3   OH2 6425   5.965   0.547   3.362
 2161TIP3    H1 6426   5.973   0.631   3.408
 2161TIP3    H2 6427   5.874   0.521   3.376
 2162TIP3   OH2 6428   6.300   0.992   2.271
 2162TIP3    H1 6429   6.381   1.042   2.280
 2162TIP3    H2 6430   6.239   1.053   2.228
 2163TIP3   OH2 6431   6.012   1.147   3.351
 2163TIP3    H1 6432   5.980   1.148   3.261
 2163TIP3    H2 6433   5.935   1.126   3.404
 2164TIP3   OH2 6434   5.816   0.293   2.372
 2164TIP3    H1 6435   5.746   0.341   2.328
 2164TIP3    H2 6436   5.772   0.218   2.413
 2165TIP3   OH2 6437   6.807   0.938   1.646
 2165TIP3    H1 6438   6.842   1.023   1.621
 2165TIP3    H2 6439   6.879   0.877   1.630
 2166TIP3   OH2 6440   5.593   0.678   3.297
 2166TIP3    H1 6441   5.527   0.659   3.231
 2166TIP3    H2 6442   5.630   0.593   3.320
 2167TIP3   OH2 6443   5.449   0.876   2.927
 2167TIP3    H1 6444   5.544   0.866   2.919
 2167TIP3    H2 6445   5.438   0.950   2.986
 2168TIP3   OH2 6446   7.315   1.328   2.992
 2168TIP3    H1 6447   7.316   1.233   3.002
 2168TIP3    H2 6448   7.233   1.356   3.032
 2169TIP3   OH2 6449   6.416   1.111   3.123
 2169TIP3    H1 6450   6.415   1.202   3.152
 2169TIP3    H2 6451   6.347   1.069   3.174
 2170TIP3   OH2 6452   6.178   1.238   2.075
 2170TIP3    H1 6453   6.137   1.218   1.991
 2170TIP3    H2 6454   6.146   1.325   2.098
 2171TIP3   OH2 6455   5.616   1.086   2.460
 2171TIP3    H1 6456   5.663   1.080   2.543
 2171TIP3    H2 6457   5.564   1.006   2.456
 2172TIP3   OH2 6458   6.377   1.145   1.718
 2172TIP3    H1 6459   6.430   1.074   1.682
 2172TIP3    H2 6460   6.409   1.157   1.807
 2173TIP3   OH2 6461   6.430   1.190   1.985
 2173TIP3    H1 6462   6.344   1.198   2.026
 2173TIP3    H2 6463   6.485   1.152   2.054
 2174TIP3   OH2 6464   7.195   0.437   3.265
 2174TIP3    H1 6465   7.120   0.479   3.222
 2174TIP3    H2 6466   7.181   0.343   3.253
 2175TIP3   OH2 6467   5.798   0.862   3.284
 2175TIP3    H1 6468   5.847   0.849   3.365
 2175TIP3    H2 6469   5.724   0.801   3.290
 2176TIP3   OH2 6470   6.983   0.243   3.208
 2176TIP3    H1 6471   6.940   0.264   3.291
 2176TIP3    H2 6472   6.957   0.314   3.148
 2177TIP3   OH2 6473   6.144   0.209   3.105
 2177TIP3    H1 6474   6.086   0.223   3.180
 2177TIP3    H2 6475   6.131   0.285   3.049
 2178TIP3   OH2 6476   6.010   0.093   2.609
 2178TIP3    H1 6477   5.919   0.069   2.626
 2178TIP3    H2 6478   6.027   0.062   2.520
 2179TIP3   OH2 6479   6.504   0.183   2.319
 2179TIP3    H1 6480   6.441   0.249   2.290
 2179TIP3    H2 6481   6.576   0.190   2.257
 2180TIP3   OH2 6482   6.686   0.476   3.405
 2180TIP3    H1 6483   6.658   0.399   3.453
 2180TIP3    H2 6484   6.779   0.486   3.428
 2181TIP3   OH2 6485   6.656   0.212   2.578
 2181TIP3    H1 6486   6.594   0.248   2.514
 2181TIP3    H2 6487   6.706   0.147   2.529
 2182TIP3   OH2 6488   5.948   0.235   3.298
 2182TIP3    H1 6489   5.962   0.297   3.369
 2182TIP3    H2 6490   5.921   0.154   3.342
 2183TIP3   OH2 6491   2.741   7.852   2.427
 2183TIP3    H1 6492   2.757   7.860   2.333
 2183TIP3    H2 6493   2.649   7.878   2.438
 2184TIP3   OH2 6494   6.667   0.448   2.991
 2184TIP3    H1 6495   6.702   0.382   2.932
 2184TIP3    H2 6496   6.642   0.400   3.070
 2185TIP3   OH2 6497   2.926   7.981   2.652
 2185TIP3    H1 6498   2.837   8.014   2.639
 2185TIP3    H2 6499   2.925   7.894   2.611
 2186TIP3   OH2 6500   3.216   7.999   2.358
 2186TIP3    H1 6501   3.300   7.967   2.325
 2186TIP3    H2 6502   3.155   7.988   2.285
 2187TIP3   OH2 6503   3.022   7.969   2.136
 2187TIP3    H1 6504   2.926   7.961   2.138
 2187TIP3    H2 6505   3.039   8.040   2.074
 2188TIP3   OH2 6506   7.007   1.676   3.086
 2188TIP3    H1 6507   7.001   1.698   2.993
 2188TIP3    H2 6508   7.083   1.723   3.118
 2189TIP3   OH2 6509   5.959   0.788   3.509
 2189TIP3    H1 6510   6.039   0.816   3.552
 2189TIP3    H2 6511   5.893   0.786   3.579
 2190TIP3   OH2 6512   6.417   0.235   2.758
 2190TIP3    H1 6513   6.501   0.203   2.723
 2190TIP3    H2 6514   6.417   0.209   2.850
 2191TIP3   OH2 6515   6.418   0.172   3.023
 2191TIP3    H1 6516   6.330   0.164   3.059
 2191TIP3    H2 6517   6.470   0.212   3.093
 2192TIP3   OH2 6518   6.131   0.523   2.148
 2192TIP3    H1 6519   6.055   0.467   2.134
 2192TIP3    H2 6520   6.118   0.559   2.236
 2193TIP3   OH2 6521   7.033   0.763   2.772
 2193TIP3    H1 6522   7.058   0.813   2.694
 2193TIP3    H2 6523   6.949   0.722   2.749
 2194TIP3   OH2 6524   6.534   0.846   3.144
 2194TIP3    H1 6525   6.561   0.825   3.233
 2194TIP3    H2 6526   6.496   0.934   3.151
 2195TIP3   OH2 6527   5.830   0.546   2.819
 2195TIP3    H1 6528   5.869   0.519   2.737
 2195TIP3    H2 6529   5.870   0.488   2.885
 2196TIP3   OH2 6530   6.284   0.680   1.985
 2196TIP3    H1 6531   6.239   0.764   1.985
 2196TIP3    H2 6532   6.232   0.625   2.043
 2197TIP3   OH2 6533   5.709   0.465   3.437
 2197TIP3    H1 6534   5.727   0.452   3.530
 2197TIP3    H2 6535   5.639   0.403   3.417
 2198TIP3   OH2 6536   6.435   0.587   3.458
 2198TIP3    H1 6537   6.373   0.533   3.410
 2198TIP3    H2 6538   6.521   0.559   3.425
 2199TIP3   OH2 6539   6.693   1.104   3.043
 2199TIP3    H1 6540   6.598   1.102   3.052
 2199TIP3    H2 6541   6.724   1.156   3.117
 2200TIP3   OH2 6542   7.324   1.038   3.024
 2200TIP3    H1 6543   7.229   1.031   3.017
 2200TIP3    H2 6544   7.356   1.010   2.938
 2201TIP3   OH2 6545   6.787   1.008   1.910
 2201TIP3    H1 6546   6.783   0.943   1.981
 2201TIP3    H2 6547   6.791   0.957   1.830
 2202TIP3   OH2 6548   6.799   0.626   2.689
 2202TIP3    H1 6549   6.707   0.603   2.705
 2202TIP3    H2 6550   6.836   0.548   2.648
 2203TIP3   OH2 6551   5.929   0.854   2.445
 2203TIP3    H1 6552   5.931   0.934   2.392
 2203TIP3    H2 6553   5.836   0.837   2.461
 2204TIP3   OH2 6554   5.493   0.162   2.165
 2204TIP3    H1 6555   5.536   0.246   2.180
 2204TIP3    H2 6556   5.415   0.165   2.219
 2205TIP3   OH2 6557   6.059   0.617   2.389
 2205TIP3    H1 6558   6.030   0.706   2.405
 2205TIP3    H2 6559   6.029   0.567   2.465
 2206TIP3   OH2 6560   6.202   1.196   2.915
 2206TIP3    H1 6561   6.241   1.268   2.865
 2206TIP3    H2 6562   6.275   1.159   2.964
 2207TIP3   OH2 6563   5.847   1.094   2.300
 2207TIP3    H1 6564   5.763   1.099   2.345
 2207TIP3    H2 6565   5.880   1.184   2.302
 2208TIP3   OH2 6566   6.585   0.830   2.877
 2208TIP3    H1 6567   6.573   0.831   2.972
 2208TIP3    H2 6568   6.665   0.778   2.864
 2209TIP3   OH2 6569   6.537   0.710   1.801
 2209TIP3    H1 6570   6.580   0.716   1.886
 2209TIP3    H2 6571   6.444   0.718   1.821
 2210TIP3   OH2 6572   6.833   1.362   2.922
 2210TIP3    H1 6573   6.756   1.307   2.919
 2210TIP3    H2 6574   6.820   1.427   2.853
 2211TIP3   OH2 6575   6.892   1.194   1.576
 2211TIP3    H1 6576   6.932   1.259   1.518
 2211TIP3    H2 6577   6.816   1.240   1.613
 2212TIP3   OH2 6578   6.700   0.673   2.017
 2212TIP3    H1 6579   6.692   0.595   2.072
 2212TIP3    H2 6580   6.794   0.685   2.005
 2213TIP3   OH2 6581   5.638   1.057   3.076
 2213TIP3    H1 6582   5.690   0.984   3.110
 2213TIP3    H2 6583   5.661   1.132   3.131
 2214TIP3   OH2 6584   5.924   0.712   1.760
 2214TIP3    H1 6585   5.932   0.630   1.713
 2214TIP3    H2 6586   5.904   0.687   1.850
 2215TIP3   OH2 6587   5.872   0.708   2.037
 2215TIP3    H1 6588   5.945   0.687   2.095
 2215TIP3    H2 6589   5.870   0.804   2.033
 2216TIP3   OH2 6590   5.605   0.408   2.237
 2216TIP3    H1 6591   5.539   0.449   2.293
 2216TIP3    H2 6592   5.619   0.471   2.166
 2217TIP3   OH2 6593   6.137   0.904   1.983
 2217TIP3    H1 6594   6.053   0.933   2.018
 2217TIP3    H2 6595   6.151   0.961   1.906
 2218TIP3   OH2 6596   6.384  -0.032   2.434
 2218TIP3    H1 6597   6.420   0.044   2.387
 2218TIP3    H2 6598   6.339   0.006   2.509
 2219TIP3   OH2 6599   6.612   0.290   3.205
 2219TIP3    H1 6600   6.605   0.357   3.273
 2219TIP3    H2 6601   6.653   0.215   3.248
 2220TIP3   OH2 6602   5.881   0.982   2.046
 2220TIP3    H1 6603   5.852   1.049   1.984
 2220TIP3    H2 6604   5.867   1.022   2.132
 2221TIP3   OH2 6605   6.887   0.383   2.575
 2221TIP3    H1 6606   6.811   0.328   2.590
 2221TIP3    H2 6607   6.959   0.338   2.620
 2222TIP3   OH2 6608   5.600   0.612   2.039
 2222TIP3    H1 6609   5.668   0.679   2.049
 2222TIP3    H2 6610   5.636   0.550   1.976
 2223TIP3   OH2 6611   2.754   7.923   2.157
 2223TIP3    H1 6612   2.715   8.010   2.159
 2223TIP3    H2 6613   2.684   7.866   2.124
 2224TIP3   OH2 6614   6.857   1.341   2.514
 2224TIP3    H1 6615   6.811   1.385   2.443
 2224TIP3    H2 6616   6.950   1.359   2.499
 2225TIP3   OH2 6617   5.466   0.825   2.422
 2225TIP3    H1 6618   5.405   0.854   2.489
 2225TIP3    H2 6619   5.436   0.867   2.342
 2226TIP3   OH2 6620   5.632   1.370   3.497
 2226TIP3    H1 6621   5.715   1.374   3.543
 2226TIP3    H2 6622   5.609   1.277   3.495
 2227TIP3   OH2 6623   6.107   1.327   3.540
 2227TIP3    H1 6624   6.201   1.312   3.550
 2227TIP3    H2 6625   6.081   1.269   3.469
 2228TIP3   OH2 6626   6.084   0.919   1.688
 2228TIP3    H1 6627   6.032   0.844   1.716
 2228TIP3    H2 6628   6.154   0.881   1.635
 2229TIP3   OH2 6629   6.749   1.238   3.276
 2229TIP3    H1 6630   6.740   1.170   3.343
 2229TIP3    H2 6631   6.824   1.290   3.304
 2230TIP3   OH2 6632   6.543   0.966   1.591
 2230TIP3    H1 6633   6.614   0.934   1.647
 2230TIP3    H2 6634   6.586   1.024   1.528
 2231TIP3   OH2 6635   5.756   0.773   3.696
 2231TIP3    H1 6636   5.775   0.679   3.702
 2231TIP3    H2 6637   5.671   0.778   3.654
 2232TIP3   OH2 6638   5.734   0.419   1.907
 2232TIP3    H1 6639   5.794   0.395   1.978
 2232TIP3    H2 6640   5.790   0.426   1.830
 2233TIP3   OH2 6641   6.366   0.860   3.471
 2233TIP3    H1 6642   6.325   0.879   3.386
 2233TIP3    H2 6643   6.395   0.769   3.463
 2234TIP3   OH2 6644   6.252   0.639   1.711
 2234TIP3    H1 6645   6.248   0.638   1.807
 2234TIP3    H2 6646   6.199   0.563   1.684
 2235TIP3   OH2 6647   6.857   0.873   3.077
 2235TIP3    H1 6648   6.933   0.914   3.035
 2235TIP3    H2 6649   6.786   0.936   3.065
 2236TIP3   OH2 6650   5.882   0.510   3.682
 2236TIP3    H1 6651   5.959   0.459   3.659
 2236TIP3    H2 6652   5.902   0.544   3.770
 2237TIP3   OH2 6653   5.935   0.322   2.117
 2237TIP3    H1 6654   5.908   0.308   2.208
 2237TIP3    H2 6655   6.002   0.256   2.101
 2238TIP3   OH2 6656   6.213   0.425   3.340
 2238TIP3    H1 6657   6.130   0.473   3.337
 2238TIP3    H2 6658   6.257   0.449   3.258
 2239TIP3   OH2 6659   6.732   0.795   3.476
 2239TIP3    H1 6660   6.804   0.763   3.422
 2239TIP3    H2 6661   6.720   0.729   3.543
 2240TIP3   OH2 6662   6.298   0.202   3.459
 2240TIP3    H1 6663   6.251   0.139   3.405
 2240TIP3    H2 6664   6.274   0.287   3.423
 2241TIP3   OH2 6665   6.375   0.510   3.140
 2241TIP3    H1 6666   6.456   0.517   3.091
 2241TIP3    H2 6667   6.316   0.572   3.098
 2242TIP3   OH2 6668   6.940   0.471   3.508
 2242TIP3    H1 6669   6.972   0.413   3.578
 2242TIP3    H2 6670   7.015   0.526   3.487
 2243TIP3   OH2 6671   6.990   0.725   3.258
 2243TIP3    H1 6672   6.929   0.776   3.205
 2243TIP3    H2 6673   7.077   0.746   3.222
 2244TIP3   OH2 6674   6.182   0.325   3.691
 2244TIP3    H1 6675   6.135   0.252   3.730
 2244TIP3    H2 6676   6.238   0.284   3.624
 2245TIP3   OH2 6677   6.577   0.251   3.500
 2245TIP3    H1 6678   6.601   0.226   3.589
 2245TIP3    H2 6679   6.482   0.241   3.497
 2246TIP3   OH2 6680   5.853   1.187   1.859
 2246TIP3    H1 6681   5.948   1.179   1.848
 2246TIP3    H2 6682   5.824   1.234   1.780
 2247TIP3   OH2 6683   5.332   0.569   2.081
 2247TIP3    H1 6684   5.423   0.593   2.065
 2247TIP3    H2 6685   5.321   0.484   2.039
 2248TIP3   OH2 6686   5.246   1.175   2.492
 2248TIP3    H1 6687   5.181   1.117   2.454
 2248TIP3    H2 6688   5.293   1.120   2.556
 2249TIP3   OH2 6689   5.383   1.025   2.680
 2249TIP3    H1 6690   5.370   0.953   2.742
 2249TIP3    H2 6691   5.434   1.089   2.728
 2250TIP3   OH2 6692   7.110   1.429   2.478
 2250TIP3    H1 6693   7.138   1.465   2.561
 2250TIP3    H2 6694   7.176   1.460   2.415
 2251TIP3   OH2 6695   7.136   1.448   2.762
 2251TIP3    H1 6696   7.092   1.364   2.754
 2251TIP3    H2 6697   7.217   1.429   2.810
 2252TIP3   OH2 6698   7.185   1.126   3.334
 2252TIP3    H1 6699   7.113   1.133   3.396
 2252TIP3    H2 6700   7.226   1.212   3.334
 2253TIP3   OH2 6701   6.966   0.688   1.990
 2253TIP3    H1 6702   7.025   0.761   1.967
 2253TIP3    H2 6703   7.020   0.629   2.042
 2254TIP3   OH2 6704   7.117   0.526   2.155
 2254TIP3    H1 6705   7.054   0.468   2.197
 2254TIP3    H2 6706   7.184   0.541   2.222
 2255TIP3   OH2 6707   7.187   0.900   2.585
 2255TIP3    H1 6708   7.228   0.837   2.525
 2255TIP3    H2 6709   7.179   0.980   2.533
 2256TIP3   OH2 6710   7.011   1.197   2.781
 2256TIP3    H1 6711   6.943   1.242   2.832
 2256TIP3    H2 6712   6.963   1.152   2.711
 2257TIP3   OH2 6713   6.943   0.369   2.307
 2257TIP3    H1 6714   6.956   0.274   2.304
 2257TIP3    H2 6715   6.926   0.389   2.399
 2258TIP3   OH2 6716   5.569   0.439   3.046
 2258TIP3    H1 6717   5.563   0.408   2.956
 2258TIP3    H2 6718   5.663   0.439   3.065
 2259TIP3   OH2 6719   7.236   0.789   3.155
 2259TIP3    H1 6720   7.305   0.724   3.146
 2259TIP3    H2 6721   7.260   0.858   3.092
 2260TIP3   OH2 6722   7.408   0.582   3.177
 2260TIP3    H1 6723   7.335   0.532   3.213
 2260TIP3    H2 6724   7.484   0.525   3.189
 2261TIP3   OH2 6725   7.103   0.260   2.696
 2261TIP3    H1 6726   7.184   0.284   2.651
 2261TIP3    H2 6727   7.114   0.294   2.785
 2262TIP3   OH2 6728   7.159   0.406   2.925
 2262TIP3    H1 6729   7.084   0.439   2.973
 2262TIP3    H2 6730   7.192   0.482   2.876
 2263TIP3   OH2 6731   5.781   0.118   3.733
 2263TIP3    H1 6732   5.869   0.090   3.710
 2263TIP3    H2 6733   5.743   0.044   3.780
 2264TIP3   OH2 6734   5.542   0.090   3.119
 2264TIP3    H1 6735   5.591   0.093   3.037
 2264TIP3    H2 6736   5.579   0.161   3.172
 2265TIP3   OH2 6737   6.693   1.299   2.133
 2265TIP3    H1 6738   6.744   1.286   2.052
 2265TIP3    H2 6739   6.744   1.362   2.184
 2266TIP3   OH2 6740   5.792   1.100   3.517
 2266TIP3    H1 6741   5.701   1.076   3.500
 2266TIP3    H2 6742   5.805   1.082   3.610
 2267TIP3   OH2 6743   5.975   1.136   3.063
 2267TIP3    H1 6744   5.924   1.210   3.028
 2267TIP3    H2 6745   6.061   1.145   3.020
 2268TIP3   OH2 6746   6.416   1.377   3.202
 2268TIP3    H1 6747   6.455   1.374   3.290
 2268TIP3    H2 6748   6.479   1.428   3.150
 2269TIP3   OH2 6749   6.596   1.531   3.064
 2269TIP3    H1 6750   6.664   1.479   3.021
 2269TIP3    H2 6751   6.645   1.588   3.124
 2270TIP3   OH2 6752   5.646   1.391   3.090
 2270TIP3    H1 6753   5.558   1.420   3.067
 2270TIP3    H2 6754   5.664   1.433   3.174
 2271TIP3   OH2 6755   5.882   1.369   2.947
 2271TIP3    H1 6756   5.798   1.380   2.992
 2271TIP3    H2 6757   5.866   1.401   2.858
 2272TIP3   OH2 6758   6.309   1.397   2.746
 2272TIP3    H1 6759   6.241   1.414   2.680
 2272TIP3    H2 6760   6.323   1.482   2.788
 2273TIP3   OH2 6761   6.579   1.335   2.796
 2273TIP3    H1 6762   6.486   1.351   2.779
 2273TIP3    H2 6763   6.625   1.408   2.753
 2274TIP3   OH2 6764   6.784   1.526   2.707
 2274TIP3    H1 6765   6.771   1.610   2.663
 2274TIP3    H2 6766   6.811   1.466   2.638
 2275TIP3   OH2 6767   5.562   1.180   2.834
 2275TIP3    H1 6768   5.584   1.156   2.924
 2275TIP3    H2 6769   5.631   1.141   2.780
 2276TIP3   OH2 6770   5.757   1.054   2.693
 2276TIP3    H1 6771   5.768   0.972   2.740
 2276TIP3    H2 6772   5.845   1.091   2.689
 2277TIP3   OH2 6773   6.024   1.146   2.699
 2277TIP3    H1 6774   6.051   1.055   2.685
 2277TIP3    H2 6775   6.068   1.173   2.779
 2278TIP3   OH2 6776   5.345   0.959   2.221
 2278TIP3    H1 6777   5.262   0.922   2.190
 2278TIP3    H2 6778   5.339   1.052   2.200
 2279TIP3   OH2 6779   6.120   1.154   1.809
 2279TIP3    H1 6780   6.206   1.176   1.776
 2279TIP3    H2 6781   6.093   1.077   1.758
 2280TIP3   OH2 6782   6.841   1.270   1.901
 2280TIP3    H1 6783   6.828   1.175   1.905
 2280TIP3    H2 6784   6.795   1.298   1.822
 2281TIP3   OH2 6785   5.430   0.995   1.852
 2281TIP3    H1 6786   5.426   1.000   1.948
 2281TIP3    H2 6787   5.512   0.948   1.835
 2282TIP3   OH2 6788   7.063   1.407   3.085
 2282TIP3    H1 6789   6.988   1.373   3.036
 2282TIP3    H2 6790   7.047   1.501   3.092
 2283TIP3   OH2 6791   7.585   1.056   2.363
 2283TIP3    H1 6792   7.549   0.999   2.295
 2283TIP3    H2 6793   7.677   1.067   2.340
 2284TIP3   OH2 6794   7.385   0.570   2.281
 2284TIP3    H1 6795   7.438   0.491   2.275
 2284TIP3    H2 6796   7.388   0.607   2.193
 2285TIP3   OH2 6797   7.168   0.858   1.939
 2285TIP3    H1 6798   7.210   0.809   1.869
 2285TIP3    H2 6799   7.214   0.942   1.941
 2286TIP3   OH2 6800   7.769   1.436   2.810
 2286TIP3    H1 6801   7.734   1.438   2.721
 2286TIP3    H2 6802   7.692   1.431   2.866
 2287TIP3   OH2 6803   7.394   0.943   2.780
 2287TIP3    H1 6804   7.324   0.917   2.720
 2287TIP3    H2 6805   7.426   0.860   2.816
 2288TIP3   OH2 6806   7.250   1.130   2.425
 2288TIP3    H1 6807   7.345   1.132   2.418
 2288TIP3    H2 6808   7.227   1.210   2.473
 2289TIP3   OH2 6809   7.393   1.352   1.944
 2289TIP3    H1 6810   7.463   1.355   2.009
 2289TIP3    H2 6811   7.361   1.261   1.947
 2290TIP3   OH2 6812   7.603   1.119   2.760
 2290TIP3    H1 6813   7.653   1.090   2.836
 2290TIP3    H2 6814   7.525   1.064   2.761
 2291TIP3   OH2 6815   7.741   1.021   2.975
 2291TIP3    H1 6816   7.807   1.088   2.989
 2291TIP3    H2 6817   7.691   1.019   3.057
 2292TIP3   OH2 6818   7.486   0.733   2.927
 2292TIP3    H1 6819   7.533   0.727   3.010
 2292TIP3    H2 6820   7.430   0.655   2.926
 2293TIP3   OH2 6821   7.432   1.316   2.565
 2293TIP3    H1 6822   7.489   1.248   2.601
 2293TIP3    H2 6823   7.462   1.397   2.606
 2294TIP3   OH2 6824   7.267   1.109   1.918
 2294TIP3    H1 6825   7.196   1.142   1.973
 2294TIP3    H2 6826   7.243   1.137   1.830
 2295TIP3   OH2 6827   7.424   1.622   2.985
 2295TIP3    H1 6828   7.509   1.619   3.029
 2295TIP3    H2 6829   7.395   1.530   2.984
 2296TIP3   OH2 6830   7.549   1.027   3.187
 2296TIP3    H1 6831   7.568   0.933   3.186
 2296TIP3    H2 6832   7.466   1.034   3.140
 2297TIP3   OH2 6833   7.661   0.765   3.169
 2297TIP3    H1 6834   7.734   0.709   3.142
 2297TIP3    H2 6835   7.686   0.798   3.256
 2298TIP3   OH2 6836   7.045   1.437   1.979
 2298TIP3    H1 6837   6.978   1.379   1.941
 2298TIP3    H2 6838   7.090   1.382   2.043
 2299TIP3   OH2 6839   7.169   1.284   2.169
 2299TIP3    H1 6840   7.165   1.210   2.230
 2299TIP3    H2 6841   7.227   1.347   2.213
 2300TIP3   OH2 6842   7.379   0.679   2.533
 2300TIP3    H1 6843   7.368   0.645   2.445
 2300TIP3    H2 6844   7.465   0.721   2.533
 2301TIP3   OH2 6845   7.579   0.373   3.210
 2301TIP3    H1 6846   7.673   0.360   3.214
 2301TIP3    H2 6847   7.542   0.293   3.247
 2302TIP3   OH2 6848   7.348   0.344   2.602
 2302TIP3    H1 6849   7.419   0.333   2.539
 2302TIP3    H2 6850   7.359   0.433   2.636
 2303TIP3   OH2 6851   7.593   1.352   3.013
 2303TIP3    H1 6852   7.504   1.327   2.987
 2303TIP3    H2 6853   7.596   1.332   3.107
 2304TIP3   OH2 6854   7.434   1.633   2.586
 2304TIP3    H1 6855   7.350   1.668   2.556
 2304TIP3    H2 6856   7.460   1.690   2.658
 2305TIP3   OH2 6857   7.690   1.619   2.447
 2305TIP3    H1 6858   7.602   1.624   2.483
 2305TIP3    H2 6859   7.682   1.654   2.358
 2306TIP3   OH2 6860   7.350   1.440   2.323
 2306TIP3    H1 6861   7.378   1.421   2.412
 2306TIP3    H2 6862   7.419   1.402   2.268
 2307TIP3   OH2 6863   7.538   1.306   2.183
 2307TIP3    H1 6864   7.545   1.216   2.213
 2307TIP3    H2 6865   7.627   1.328   2.154
 2308TIP3   OH2 6866   7.145   1.212   1.697
 2308TIP3    H1 6867   7.060   1.176   1.673
 2308TIP3    H2 6868   7.133   1.307   1.693
 2309TIP3   OH2 6869   7.213   1.265   1.376
 2309TIP3    H1 6870   7.200   1.278   1.470
 2309TIP3    H2 6871   7.274   1.192   1.370
 2310TIP3   OH2 6872   0.781   1.576   3.543
 2310TIP3    H1 6873   0.763   1.665   3.512
 2310TIP3    H2 6874   0.697   1.543   3.573
 2311TIP3   OH2 6875   0.781   1.565   3.929
 2311TIP3    H1 6876   0.818   1.547   4.016
 2311TIP3    H2 6877   0.747   1.481   3.900
 2312TIP3   OH2 6878   0.089   1.463   4.297
 2312TIP3    H1 6879   0.128   1.399   4.356
 2312TIP3    H2 6880   0.162   1.520   4.272
 2313TIP3   OH2 6881   1.028   1.870   3.609
 2313TIP3    H1 6882   1.016   1.802   3.676
 2313TIP3    H2 6883   1.059   1.946   3.659
 2314TIP3   OH2 6884   0.059   1.864   4.014
 2314TIP3    H1 6885   0.049   1.769   4.017
 2314TIP3    H2 6886   0.154   1.877   4.003
 2315TIP3   OH2 6887   0.677   2.328   3.624
 2315TIP3    H1 6888   0.719   2.261   3.571
 2315TIP3    H2 6889   0.673   2.291   3.712
 2316TIP3   OH2 6890   0.584   1.790   3.974
 2316TIP3    H1 6891   0.620   1.715   3.928
 2316TIP3    H2 6892   0.660   1.841   4.001
 2317TIP3   OH2 6893   1.599   1.112   3.971
 2317TIP3    H1 6894   1.625   1.194   4.013
 2317TIP3    H2 6895   1.617   1.126   3.878
 2318TIP3   OH2 6896   0.995   1.290   4.004
 2318TIP3    H1 6897   1.038   1.207   4.022
 2318TIP3    H2 6898   0.959   1.280   3.916
 2319TIP3   OH2 6899   1.023   1.053   3.609
 2319TIP3    H1 6900   1.101   1.032   3.661
 2319TIP3    H2 6901   1.058   1.071   3.522
 2320TIP3   OH2 6902   0.415   1.345   3.869
 2320TIP3    H1 6903   0.509   1.347   3.887
 2320TIP3    H2 6904   0.396   1.253   3.850
 2321TIP3   OH2 6905   1.668   1.321   4.145
 2321TIP3    H1 6906   1.586   1.366   4.123
 2321TIP3    H2 6907   1.696   1.361   4.227
 2322TIP3   OH2 6908   0.351   0.931   4.397
 2322TIP3    H1 6909   0.298   0.970   4.327
 2322TIP3    H2 6910   0.293   0.932   4.473
 2323TIP3   OH2 6911   0.655   1.784   3.416
 2323TIP3    H1 6912   0.657   1.787   3.321
 2323TIP3    H2 6913   0.618   1.868   3.443
 2324TIP3   OH2 6914   0.433   1.714   4.196
 2324TIP3    H1 6915   0.375   1.781   4.232
 2324TIP3    H2 6916   0.479   1.758   4.125
 2325TIP3   OH2 6917   1.243   1.045   3.772
 2325TIP3    H1 6918   1.222   1.004   3.856
 2325TIP3    H2 6919   1.291   1.124   3.795
 2326TIP3   OH2 6920   0.205   1.042   4.200
 2326TIP3    H1 6921   0.258   1.122   4.208
 2326TIP3    H2 6922   0.218   1.013   4.110
 2327TIP3   OH2 6923   0.261   1.911   4.296
 2327TIP3    H1 6924   0.242   1.996   4.256
 2327TIP3    H2 6925   0.185   1.894   4.352
 2328TIP3   OH2 6926   1.093   2.114   3.771
 2328TIP3    H1 6927   1.006   2.104   3.810
 2328TIP3    H2 6928   1.090   2.198   3.726
 2329TIP3   OH2 6929   1.390   1.010   4.135
 2329TIP3    H1 6930   1.303   1.036   4.105
 2329TIP3    H2 6931   1.449   1.041   4.067
 2330TIP3   OH2 6932   0.702   0.670   4.126
 2330TIP3    H1 6933   0.677   0.579   4.110
 2330TIP3    H2 6934   0.621   0.712   4.156
 2331TIP3   OH2 6935   0.796   2.157   3.442
 2331TIP3    H1 6936   0.840   2.074   3.424
 2331TIP3    H2 6937   0.855   2.224   3.407
 2332TIP3   OH2 6938   0.931   1.937   3.359
 2332TIP3    H1 6939   0.943   1.864   3.299
 2332TIP3    H2 6940   0.969   1.906   3.441
 2333TIP3   OH2 6941   1.321   2.023   4.115
 2333TIP3    H1 6942   1.311   1.947   4.057
 2333TIP3    H2 6943   1.304   2.099   4.059
 2334TIP3   OH2 6944   1.515   1.662   3.960
 2334TIP3    H1 6945   1.434   1.712   3.966
 2334TIP3    H2 6946   1.550   1.684   3.873
 2335TIP3   OH2 6947   0.960   1.501   3.349
 2335TIP3    H1 6948   0.904   1.525   3.423
 2335TIP3    H2 6949   1.043   1.475   3.389
 2336TIP3   OH2 6950   1.194   1.539   4.261
 2336TIP3    H1 6951   1.195   1.621   4.310
 2336TIP3    H2 6952   1.112   1.542   4.213
 2337TIP3   OH2 6953   0.188   1.486   3.762
 2337TIP3    H1 6954   0.170   1.448   3.676
 2337TIP3    H2 6955   0.269   1.445   3.790
 2338TIP3   OH2 6956   0.322   1.899   3.909
 2338TIP3    H1 6957   0.309   1.870   3.819
 2338TIP3    H2 6958   0.411   1.871   3.931
 2339TIP3   OH2 6959   0.323   1.477   4.110
 2339TIP3    H1 6960   0.361   1.453   4.026
 2339TIP3    H2 6961   0.369   1.558   4.135
 2340TIP3   OH2 6962   0.854   2.108   3.895
 2340TIP3    H1 6963   0.841   2.188   3.946
 2340TIP3    H2 6964   0.839   2.037   3.958
 2341TIP3   OH2 6965   0.467   2.024   4.442
 2341TIP3    H1 6966   0.412   2.088   4.486
 2341TIP3    H2 6967   0.406   1.971   4.390
 2342TIP3   OH2 6968   0.239   1.587   4.540
 2342TIP3    H1 6969   0.239   1.674   4.580
 2342TIP3    H2 6970   0.148   1.559   4.542
 2343TIP3   OH2 6971   0.545   2.044   3.442
 2343TIP3    H1 6972   0.629   2.087   3.454
 2343TIP3    H2 6973   0.486   2.113   3.412
 2344TIP3   OH2 6974   0.264   2.191   4.527
 2344TIP3    H1 6975   0.230   2.197   4.438
 2344TIP3    H2 6976   0.188   2.171   4.581
 2345TIP3   OH2 6977   1.128   1.977   2.775
 2345TIP3    H1 6978   1.129   2.071   2.757
 2345TIP3    H2 6979   1.217   1.948   2.758
 2346TIP3   OH2 6980   8.360   1.711   4.474
 2346TIP3    H1 6981   8.293   1.708   4.406
 2346TIP3    H2 6982   8.378   1.620   4.495
 2347TIP3   OH2 6983   8.209   1.936   4.093
 2347TIP3    H1 6984   8.297   1.901   4.078
 2347TIP3    H2 6985   8.220   2.001   4.162
 2348TIP3   OH2 6986   1.558   2.370   4.167
 2348TIP3    H1 6987   1.559   2.275   4.178
 2348TIP3    H2 6988   1.477   2.398   4.209
 2349TIP3   OH2 6989   0.665   2.155   4.300
 2349TIP3    H1 6990   0.665   2.246   4.328
 2349TIP3    H2 6991   0.597   2.113   4.352
 2350TIP3   OH2 6992   0.427   2.279   3.259
 2350TIP3    H1 6993   0.392   2.262   3.172
 2350TIP3    H2 6994   0.398   2.367   3.280
 2351TIP3   OH2 6995   8.362   2.141   3.629
 2351TIP3    H1 6996   8.400   2.117   3.713
 2351TIP3    H2 6997   8.313   2.063   3.601
 2352TIP3   OH2 6998   0.633   2.174   2.897
 2352TIP3    H1 6999   0.692   2.110   2.857
 2352TIP3    H2 7000   0.668   2.189   2.984
 2353TIP3   OH2 7001   0.680   2.236   3.166
 2353TIP3    H1 7002   0.593   2.243   3.205
 2353TIP3    H2 7003   0.735   2.199   3.235
 2354TIP3   OH2 7004   1.446   1.495   4.441
 2354TIP3    H1 7005   1.368   1.512   4.387
 2354TIP3    H2 7006   1.463   1.402   4.430
 2355TIP3   OH2 7007   0.045   1.911   4.466
 2355TIP3    H1 7008   0.100   1.895   4.543
 2355TIP3    H2 7009  -0.023   1.844   4.470
 2356TIP3   OH2 7010   0.451   0.746   4.214
 2356TIP3    H1 7011   0.371   0.695   4.203
 2356TIP3    H2 7012   0.428   0.813   4.279
 2357TIP3   OH2 7013   1.015   0.850   4.431
 2357TIP3    H1 7014   1.078   0.819   4.496
 2357TIP3    H2 7015   0.929   0.834   4.472
 2358TIP3   OH2 7016   1.214   1.275   4.359
 2358TIP3    H1 7017   1.168   1.274   4.443
 2358TIP3    H2 7018   1.195   1.361   4.322
 2359TIP3   OH2 7019   0.376   1.252   4.255
 2359TIP3    H1 7020   0.333   1.269   4.339
 2359TIP3    H2 7021   0.361   1.332   4.204
 2360TIP3   OH2 7022   0.769   1.249   3.495
 2360TIP3    H1 7023   0.689   1.286   3.457
 2360TIP3    H2 7024   0.833   1.254   3.424
 2361TIP3   OH2 7025   0.928   1.493   4.594
 2361TIP3    H1 7026   0.904   1.421   4.653
 2361TIP3    H2 7027   1.020   1.510   4.613
 2362TIP3   OH2 7028   0.905   1.252   3.744
 2362TIP3    H1 7029   0.852   1.284   3.671
 2362TIP3    H2 7030   0.944   1.171   3.711
 2363TIP3   OH2 7031   0.206   1.285   4.468
 2363TIP3    H1 7032   0.235   1.350   4.532
 2363TIP3    H2 7033   0.174   1.212   4.521
 2364TIP3   OH2 7034   0.915   1.488   4.167
 2364TIP3    H1 7035   0.950   1.422   4.108
 2364TIP3    H2 7036   0.886   1.438   4.244
 2365TIP3   OH2 7037   0.582   0.986   3.863
 2365TIP3    H1 7038   0.522   0.916   3.891
 2365TIP3    H2 7039   0.668   0.956   3.891
 2366TIP3   OH2 7040   1.080   1.029   4.048
 2366TIP3    H1 7041   1.044   1.045   4.136
 2366TIP3    H2 7042   1.016   0.971   4.006
 2367TIP3   OH2 7043   1.255   2.720   4.262
 2367TIP3    H1 7044   1.249   2.743   4.169
 2367TIP3    H2 7045   1.332   2.767   4.294
 2368TIP3   OH2 7046   0.208   1.829   4.685
 2368TIP3    H1 7047   0.290   1.858   4.725
 2368TIP3    H2 7048   0.143   1.836   4.755
 2369TIP3   OH2 7049   0.676   1.293   3.939
 2369TIP3    H1 7050   0.736   1.248   3.879
 2369TIP3    H2 7051   0.677   1.241   4.019
 2370TIP3   OH2 7052   0.648   1.184   4.230
 2370TIP3    H1 7053   0.560   1.221   4.239
 2370TIP3    H2 7054   0.705   1.246   4.275
 2371TIP3   OH2 7055   1.283   1.806   3.948
 2371TIP3    H1 7056   1.310   1.856   3.871
 2371TIP3    H2 7057   1.200   1.766   3.923
 2372TIP3   OH2 7058   0.776   1.886   4.325
 2372TIP3    H1 7059   0.816   1.876   4.411
 2372TIP3    H2 7060   0.745   1.977   4.322
 2373TIP3   OH2 7061   0.072   1.582   4.000
 2373TIP3    H1 7062   0.099   1.558   3.911
 2373TIP3    H2 7063   0.131   1.534   4.057
 2374TIP3   OH2 7064   0.514   1.714   3.149
 2374TIP3    H1 7065   0.489   1.806   3.139
 2374TIP3    H2 7066   0.472   1.687   3.231
 2375TIP3   OH2 7067   8.497   1.471   4.623
 2375TIP3    H1 7068   8.533   1.500   4.707
 2375TIP3    H2 7069   8.402   1.474   4.636
 2376TIP3   OH2 7070   0.687   1.626   4.632
 2376TIP3    H1 7071   0.626   1.572   4.583
 2376TIP3    H2 7072   0.773   1.596   4.606
 2377TIP3   OH2 7073   0.941   2.142   4.225
 2377TIP3    H1 7074   0.845   2.147   4.231
 2377TIP3    H2 7075   0.972   2.197   4.296
 2378TIP3   OH2 7076   1.351   1.218   3.105
 2378TIP3    H1 7077   1.268   1.176   3.084
 2378TIP3    H2 7078   1.342   1.307   3.070
 2379TIP3   OH2 7079   1.570   2.078   4.203
 2379TIP3    H1 7080   1.475   2.075   4.198
 2379TIP3    H2 7081   1.600   2.050   4.117
 2380TIP3   OH2 7082   1.056   2.039   3.037
 2380TIP3    H1 7083   1.023   1.965   3.088
 2380TIP3    H2 7084   1.070   2.003   2.950
 2381TIP3   OH2 7085   1.048   1.668   3.867
 2381TIP3    H1 7086   0.956   1.646   3.881
 2381TIP3    H2 7087   1.085   1.590   3.824
 2382TIP3   OH2 7088   0.173   1.899   3.625
 2382TIP3    H1 7089   0.177   1.987   3.587
 2382TIP3    H2 7090   0.088   1.895   3.669
 2383TIP3   OH2 7091   0.337   1.669   3.607
 2383TIP3    H1 7092   0.300   1.756   3.595
 2383TIP3    H2 7093   0.274   1.624   3.664
 2384TIP3   OH2 7094   0.451   2.240   4.092
 2384TIP3    H1 7095   0.487   2.313   4.041
 2384TIP3    H2 7096   0.526   2.205   4.140
 2385TIP3   OH2 7097   0.116   2.141   3.518
 2385TIP3    H1 7098   0.023   2.152   3.537
 2385TIP3    H2 7099   0.145   2.229   3.494
 2386TIP3   OH2 7100   0.833   1.875   4.056
 2386TIP3    H1 7101   0.822   1.872   4.151
 2386TIP3    H2 7102   0.914   1.827   4.039
 2387TIP3   OH2 7103   0.828   1.787   2.954
 2387TIP3    H1 7104   0.870   1.765   3.036
 2387TIP3    H2 7105   0.740   1.751   2.961
 2388TIP3   OH2 7106   1.081   2.407   4.098
 2388TIP3    H1 7107   1.002   2.354   4.091
 2388TIP3    H2 7108   1.072   2.473   4.030
 2389TIP3   OH2 7109   1.150   2.252   2.754
 2389TIP3    H1 7110   1.192   2.322   2.703
 2389TIP3    H2 7111   1.070   2.292   2.788
 2390TIP3   OH2 7112   0.977   1.722   3.180
 2390TIP3    H1 7113   0.955   1.643   3.228
 2390TIP3    H2 7114   1.066   1.707   3.147
 2391TIP3   OH2 7115   8.382   2.099   4.256
 2391TIP3    H1 7116   8.445   2.038   4.292
 2391TIP3    H2 7117   8.404   2.184   4.296
 2392TIP3   OH2 7118   1.005   1.094   4.307
 2392TIP3    H1 7119   1.089   1.134   4.330
 2392TIP3    H2 7120   1.006   1.010   4.353
 2393TIP3   OH2 7121   0.399   1.956   3.149
 2393TIP3    H1 7122   0.350   1.978   3.228
 2393TIP3    H2 7123   0.400   2.037   3.098
 2394TIP3   OH2 7124   0.843   1.328   4.377
 2394TIP3    H1 7125   0.872   1.379   4.453
 2394TIP3    H2 7126   0.898   1.250   4.379
 2395TIP3   OH2 7127   1.481   1.230   4.361
 2395TIP3    H1 7128   1.385   1.228   4.366
 2395TIP3    H2 7129   1.502   1.200   4.273
 2396TIP3   OH2 7130   1.135   1.426   3.749
 2396TIP3    H1 7131   1.059   1.368   3.757
 2396TIP3    H2 7132   1.206   1.379   3.793
 2397TIP3   OH2 7133   1.106   2.385   3.692
 2397TIP3    H1 7134   1.061   2.429   3.620
 2397TIP3    H2 7135   1.199   2.402   3.675
 2398TIP3   OH2 7136   8.405   2.428   4.648
 2398TIP3    H1 7137   8.480   2.437   4.707
 2398TIP3    H2 7138   8.360   2.349   4.678
 2399TIP3   OH2 7139   0.355   2.371   4.722
 2399TIP3    H1 7140   0.450   2.364   4.728
 2399TIP3    H2 7141   0.332   2.313   4.648
 2400TIP3   OH2 7142   0.996   2.283   4.455
 2400TIP3    H1 7143   0.990   2.214   4.521
 2400TIP3    H2 7144   1.072   2.335   4.481
 2401TIP3   OH2 7145   0.786   1.989   2.758
 2401TIP3    H1 7146   0.815   1.922   2.820
 2401TIP3    H2 7147   0.853   1.990   2.690
 2402TIP3   OH2 7148   8.503   1.809   4.872
 2402TIP3    H1 7149   8.533   1.719   4.867
 2402TIP3    H2 7150   8.408   1.804   4.858
 2403TIP3   OH2 7151   0.613   1.903   4.647
 2403TIP3    H1 7152   0.575   1.926   4.562
 2403TIP3    H2 7153   0.646   1.814   4.636
 2404TIP3   OH2 7154   1.106   1.918   4.254
 2404TIP3    H1 7155   1.184   1.955   4.211
 2404TIP3    H2 7156   1.038   1.985   4.242
 2405TIP3   OH2 7157   0.111   1.553   4.864
 2405TIP3    H1 7158   0.181   1.489   4.848
 2405TIP3    H2 7159   0.124   1.580   4.955
 2406TIP3   OH2 7160   0.466   1.435   4.513
 2406TIP3    H1 7161   0.393   1.497   4.520
 2406TIP3    H2 7162   0.518   1.466   4.439
 2407TIP3   OH2 7163   0.976   1.836   4.651
 2407TIP3    H1 7164   1.056   1.814   4.602
 2407TIP3    H2 7165   0.975   1.773   4.723
 2408TIP3   OH2 7166   0.587   1.220   4.633
 2408TIP3    H1 7167   0.595   1.146   4.572
 2408TIP3    H2 7168   0.547   1.290   4.581
 2409TIP3   OH2 7169   0.605   1.018   4.446
 2409TIP3    H1 7170   0.629   1.061   4.364
 2409TIP3    H2 7171   0.517   0.983   4.430
 2410TIP3   OH2 7172   0.613   1.548   4.321
 2410TIP3    H1 7173   0.699   1.559   4.281
 2410TIP3    H2 7174   0.558   1.614   4.279
 2411TIP3   OH2 7175   1.199   1.515   4.704
 2411TIP3    H1 7176   1.245   1.431   4.703
 2411TIP3    H2 7177   1.261   1.578   4.667
 2412TIP3   OH2 7178   1.236   1.769   4.437
 2412TIP3    H1 7179   1.177   1.822   4.383
 2412TIP3    H2 7180   1.323   1.788   4.402
 2413TIP3   OH2 7181   0.492   1.328   4.871
 2413TIP3    H1 7182   0.399   1.320   4.891
 2413TIP3    H2 7183   0.500   1.293   4.782
 2414TIP3   OH2 7184   0.756   0.799   4.502
 2414TIP3    H1 7185   0.712   0.881   4.481
 2414TIP3    H2 7186   0.687   0.733   4.500
 2415TIP3   OH2 7187   0.842   1.274   4.735
 2415TIP3    H1 7188   0.829   1.268   4.830
 2415TIP3    H2 7189   0.757   1.253   4.698
 2416TIP3   OH2 7190   1.087   1.234   4.594
 2416TIP3    H1 7191   1.010   1.232   4.651
 2416TIP3    H2 7192   1.159   1.201   4.648
 2417TIP3   OH2 7193   1.314   1.170   4.745
 2417TIP3    H1 7194   1.327   1.076   4.758
 2417TIP3    H2 7195   1.310   1.207   4.833
 2418TIP3   OH2 7196   0.801   0.765   4.768
 2418TIP3    H1 7197   0.878   0.707   4.770
 2418TIP3    H2 7198   0.786   0.781   4.675
 2419TIP3   OH2 7199   0.874   0.992   4.919
 2419TIP3    H1 7200   0.847   0.925   4.857
 2419TIP3    H2 7201   0.806   1.059   4.914
 2420TIP3   OH2 7202   8.103   2.091   3.870
 2420TIP3    H1 7203   8.121   2.011   3.919
 2420TIP3    H2 7204   8.163   2.156   3.906
 2421TIP3   OH2 7205   1.360   2.473   3.654
 2421TIP3    H1 7206   1.385   2.508   3.740
 2421TIP3    H2 7207   1.421   2.513   3.593
 2422TIP3   OH2 7208   1.385   2.491   3.939
 2422TIP3    H1 7209   1.343   2.406   3.931
 2422TIP3    H2 7210   1.465   2.475   3.989
 2423TIP3   OH2 7211   1.434   2.171   4.511
 2423TIP3    H1 7212   1.362   2.179   4.573
 2423TIP3    H2 7213   1.477   2.256   4.512
 2424TIP3   OH2 7214   1.257   1.681   3.124
 2424TIP3    H1 7215   1.319   1.748   3.096
 2424TIP3    H2 7216   1.296   1.644   3.203
 2425TIP3   OH2 7217   1.379   1.546   3.331
 2425TIP3    H1 7218   1.313   1.508   3.388
 2425TIP3    H2 7219   1.443   1.585   3.391
 2426TIP3   OH2 7220   1.434   1.944   3.761
 2426TIP3    H1 7221   1.486   1.878   3.714
 2426TIP3    H2 7222   1.430   2.018   3.701
 2427TIP3   OH2 7223   1.260   2.241   3.958
 2427TIP3    H1 7224   1.191   2.286   4.008
 2427TIP3    H2 7225   1.213   2.196   3.888
 2428TIP3   OH2 7226   1.294   1.457   2.975
 2428TIP3    H1 7227   1.212   1.459   2.926
 2428TIP3    H2 7228   1.289   1.531   3.034
 2429TIP3   OH2 7229   1.190   1.408   3.478
 2429TIP3    H1 7230   1.185   1.313   3.466
 2429TIP3    H2 7231   1.177   1.421   3.572
 2430TIP3   OH2 7232   8.327   1.469   4.237
 2430TIP3    H1 7233   8.322   1.496   4.146
 2430TIP3    H2 7234   8.420   1.474   4.258
 2431TIP3   OH2 7235   1.481   1.833   4.334
 2431TIP3    H1 7236   1.551   1.768   4.324
 2431TIP3    H2 7237   1.505   1.903   4.273
 2432TIP3   OH2 7238   1.661   1.631   4.348
 2432TIP3    H1 7239   1.587   1.584   4.388
 2432TIP3    H2 7240   1.736   1.573   4.362
 2433TIP3   OH2 7241   1.187   1.141   3.392
 2433TIP3    H1 7242   1.226   1.060   3.425
 2433TIP3    H2 7243   1.242   1.165   3.317
 2434TIP3   OH2 7244   1.351   1.297   3.869
 2434TIP3    H1 7245   1.432   1.319   3.824
 2434TIP3    H2 7246   1.361   1.333   3.957
 2435TIP3   OH2 7247   1.419   1.444   4.100
 2435TIP3    H1 7248   1.342   1.476   4.146
 2435TIP3    H2 7249   1.452   1.521   4.052
 2436TIP3   OH2 7250   1.871   1.036   4.653
 2436TIP3    H1 7251   1.929   0.970   4.613
 2436TIP3    H2 7252   1.839   1.087   4.579
 2437TIP3   OH2 7253   1.307   0.912   3.448
 2437TIP3    H1 7254   1.339   0.864   3.525
 2437TIP3    H2 7255   1.275   0.844   3.389
 2438TIP3   OH2 7256   1.733   1.168   4.461
 2438TIP3    H1 7257   1.650   1.213   4.474
 2438TIP3    H2 7258   1.712   1.096   4.401
 2439TIP3   OH2 7259   0.943   2.340   3.310
 2439TIP3    H1 7260   0.991   2.327   3.228
 2439TIP3    H2 7261   0.992   2.408   3.357
 2440TIP3   OH2 7262   0.053   2.135   4.699
 2440TIP3    H1 7263  -0.028   2.086   4.681
 2440TIP3    H2 7264   0.055   2.142   4.795
 2441TIP3   OH2 7265   0.223   2.181   4.238
 2441TIP3    H1 7266   0.173   2.255   4.204
 2441TIP3    H2 7267   0.309   2.190   4.196
 2442TIP3   OH2 7268   0.665   2.421   4.378
 2442TIP3    H1 7269   0.703   2.420   4.466
 2442TIP3    H2 7270   0.727   2.471   4.325
 2443TIP3   OH2 7271   0.845   2.575   4.241
 2443TIP3    H1 7272   0.913   2.525   4.195
 2443TIP3    H2 7273   0.893   2.632   4.301
 2444TIP3   OH2 7274   1.638   0.933   4.338
 2444TIP3    H1 7275   1.550   0.930   4.299
 2444TIP3    H2 7276   1.671   0.844   4.328
 2445TIP3   OH2 7277   8.392   2.429   4.271
 2445TIP3    H1 7278   8.304   2.457   4.247
 2445TIP3    H2 7279   8.411   2.476   4.351
 2446TIP3   OH2 7280   0.130   2.412   4.125
 2446TIP3    H1 7281   0.045   2.424   4.169
 2446TIP3    H2 7282   0.115   2.445   4.036
 2447TIP3   OH2 7283   0.556   2.440   3.924
 2447TIP3    H1 7284   0.491   2.457   3.856
 2447TIP3    H2 7285   0.571   2.526   3.965
 2448TIP3   OH2 7286   0.827   2.379   3.974
 2448TIP3    H1 7287   0.735   2.396   3.956
 2448TIP3    H2 7288   0.874   2.451   3.930
 2449TIP3   OH2 7289   1.031   2.570   3.884
 2449TIP3    H1 7290   1.019   2.654   3.841
 2449TIP3    H2 7291   1.059   2.511   3.813
 2450TIP3   OH2 7292   8.310   2.225   4.002
 2450TIP3    H1 7293   8.325   2.205   4.094
 2450TIP3    H2 7294   8.379   2.178   3.955
 2451TIP3   OH2 7295   0.004   2.089   3.865
 2451TIP3    H1 7296   0.020   2.012   3.919
 2451TIP3    H2 7297   0.089   2.134   3.861
 2452TIP3   OH2 7298   0.268   2.192   3.877
 2452TIP3    H1 7299   0.301   2.104   3.859
 2452TIP3    H2 7300   0.314   2.218   3.957
 2453TIP3   OH2 7301   0.845   0.858   3.958
 2453TIP3    H1 7302   0.805   0.790   4.013
 2453TIP3    H2 7303   0.914   0.812   3.909
 2454TIP3   OH2 7304   1.365   0.736   3.875
 2454TIP3    H1 7305   1.408   0.779   3.802
 2454TIP3    H2 7306   1.272   0.748   3.859
 2455TIP3   OH2 7307   1.483   0.823   3.643
 2455TIP3    H1 7308   1.550   0.775   3.596
 2455TIP3    H2 7309   1.503   0.915   3.626
 2456TIP3   OH2 7310   1.081   0.734   3.838
 2456TIP3    H1 7311   1.089   0.703   3.748
 2456TIP3    H2 7312   1.072   0.653   3.890
 2457TIP3   OH2 7313   0.378   2.190   2.998
 2457TIP3    H1 7314   0.461   2.193   2.952
 2457TIP3    H2 7315   0.314   2.162   2.932
 2458TIP3   OH2 7316   1.086   2.306   3.076
 2458TIP3    H1 7317   1.081   2.211   3.067
 2458TIP3    H2 7318   1.042   2.341   2.999
 2459TIP3   OH2 7319   1.380   0.899   4.774
 2459TIP3    H1 7320   1.397   0.868   4.863
 2459TIP3    H2 7321   1.466   0.896   4.731
 2460TIP3   OH2 7322   1.308   2.451   4.264
 2460TIP3    H1 7323   1.234   2.419   4.213
 2460TIP3    H2 7324   1.295   2.545   4.269
 2461TIP3   OH2 7325   2.579   1.822   3.024
 2461TIP3    H1 7326   2.559   1.914   3.008
 2461TIP3    H2 7327   2.495   1.778   3.014
 2462TIP3   OH2 7328   2.510   1.817   3.425
 2462TIP3    H1 7329   2.593   1.858   3.450
 2462TIP3    H2 7330   2.534   1.730   3.393
 2463TIP3   OH2 7331   1.879   1.718   3.781
 2463TIP3    H1 7332   1.909   1.651   3.842
 2463TIP3    H2 7333   1.956   1.771   3.763
 2464TIP3   OH2 7334   2.821   2.128   3.099
 2464TIP3    H1 7335   2.783   2.071   3.165
 2464TIP3    H2 7336   2.851   2.205   3.148
 2465TIP3   OH2 7337   1.853   2.123   3.498
 2465TIP3    H1 7338   1.842   2.028   3.501
 2465TIP3    H2 7339   1.948   2.136   3.493
 2466TIP3   OH2 7340   1.557   1.332   3.280
 2466TIP3    H1 7341   1.513   1.414   3.300
 2466TIP3    H2 7342   1.487   1.275   3.249
 2467TIP3   OH2 7343   1.616   1.617   3.460
 2467TIP3    H1 7344   1.664   1.542   3.495
 2467TIP3    H2 7345   1.680   1.663   3.406
 2468TIP3   OH2 7346   2.476   2.584   3.110
 2468TIP3    H1 7347   2.519   2.514   3.060
 2468TIP3    H2 7348   2.470   2.550   3.199
 2469TIP3   OH2 7349   2.384   2.050   3.467
 2469TIP3    H1 7350   2.407   1.962   3.440
 2469TIP3    H2 7351   2.467   2.096   3.477
 2470TIP3   OH2 7352   3.396   1.370   3.459
 2470TIP3    H1 7353   3.421   1.451   3.505
 2470TIP3    H2 7354   3.408   1.391   3.366
 2471TIP3   OH2 7355   2.785   1.543   3.485
 2471TIP3    H1 7356   2.831   1.463   3.511
 2471TIP3    H2 7357   2.754   1.525   3.396
 2472TIP3   OH2 7358   2.127   1.207   3.454
 2472TIP3    H1 7359   2.111   1.282   3.396
 2472TIP3    H2 7360   2.080   1.134   3.413
 2473TIP3   OH2 7361   2.828   1.298   3.078
 2473TIP3    H1 7362   2.894   1.285   3.147
 2473TIP3    H2 7363   2.876   1.339   3.006
 2474TIP3   OH2 7364   1.764   1.409   3.563
 2474TIP3    H1 7365   1.844   1.394   3.613
 2474TIP3    H2 7366   1.774   1.357   3.484
 2475TIP3   OH2 7367   2.203   1.605   3.356
 2475TIP3    H1 7368   2.295   1.584   3.369
 2475TIP3    H2 7369   2.163   1.524   3.326
 2476TIP3   OH2 7370   3.462   1.579   3.630
 2476TIP3    H1 7371   3.380   1.625   3.610
 2476TIP3    H2 7372   3.488   1.612   3.716
 2477TIP3   OH2 7373   2.122   1.194   3.892
 2477TIP3    H1 7374   2.068   1.231   3.821
 2477TIP3    H2 7375   2.072   1.213   3.971
 2478TIP3   OH2 7376   2.472   2.049   2.891
 2478TIP3    H1 7377   2.429   2.032   2.808
 2478TIP3    H2 7378   2.430   2.128   2.925
 2479TIP3   OH2 7379   2.229   1.970   3.683
 2479TIP3    H1 7380   2.172   2.038   3.720
 2479TIP3    H2 7381   2.280   2.015   3.616
 2480TIP3   OH2 7382   3.030   1.304   3.260
 2480TIP3    H1 7383   3.003   1.271   3.346
 2480TIP3    H2 7384   3.079   1.384   3.279
 2481TIP3   OH2 7385   2.000   1.308   3.673
 2481TIP3    H1 7386   2.056   1.382   3.698
 2481TIP3    H2 7387   2.046   1.266   3.600
 2482TIP3   OH2 7388   2.057   2.167   3.783
 2482TIP3    H1 7389   2.040   2.254   3.745
 2482TIP3    H2 7390   1.981   2.150   3.838
 2483TIP3   OH2 7391   1.453   1.857   3.019
 2483TIP3    H1 7392   1.411   1.882   2.937
 2483TIP3    H2 7393   1.483   1.940   3.056
 2484TIP3   OH2 7394   2.889   2.372   3.255
 2484TIP3    H1 7395   2.804   2.358   3.297
 2484TIP3    H2 7396   2.882   2.458   3.215
 2485TIP3   OH2 7397   3.186   1.264   3.618
 2485TIP3    H1 7398   3.100   1.297   3.593
 2485TIP3    H2 7399   3.246   1.298   3.552
 2486TIP3   OH2 7400   2.478   0.909   3.608
 2486TIP3    H1 7401   2.464   0.816   3.623
 2486TIP3    H2 7402   2.404   0.952   3.652
 2487TIP3   OH2 7403   2.595   2.412   2.925
 2487TIP3    H1 7404   2.644   2.331   2.910
 2487TIP3    H2 7405   2.651   2.481   2.890
 2488TIP3   OH2 7406   2.740   2.193   2.843
 2488TIP3    H1 7407   2.682   2.121   2.820
 2488TIP3    H2 7408   2.780   2.167   2.925
 2489TIP3   OH2 7409   3.120   2.282   3.602
 2489TIP3    H1 7410   3.103   2.203   3.550
 2489TIP3    H2 7411   3.098   2.355   3.544
 2490TIP3   OH2 7412   2.400   1.663   2.853
 2490TIP3    H1 7413   2.325   1.721   2.841
 2490TIP3    H2 7414   2.457   1.682   2.778
 2491TIP3   OH2 7415   2.377   1.453   2.577
 2491TIP3    H1 7416   2.426   1.509   2.638
 2491TIP3    H2 7417   2.444   1.404   2.529
 2492TIP3   OH2 7418   3.309   1.922   3.446
 2492TIP3    H1 7419   3.226   1.968   3.453
 2492TIP3    H2 7420   3.342   1.945   3.359
 2493TIP3   OH2 7421   2.758   1.754   2.832
 2493TIP3    H1 7422   2.704   1.779   2.906
 2493TIP3    H2 7423   2.843   1.731   2.871
 2494TIP3   OH2 7424   2.995   1.798   3.748
 2494TIP3    H1 7425   2.992   1.883   3.792
 2494TIP3    H2 7426   2.908   1.789   3.707
 2495TIP3   OH2 7427   1.992   1.750   3.248
 2495TIP3    H1 7428   1.956   1.694   3.180
 2495TIP3    H2 7429   2.068   1.703   3.281
 2496TIP3   OH2 7430   2.123   2.161   3.399
 2496TIP3    H1 7431   2.109   2.125   3.311
 2496TIP3    H2 7432   2.211   2.134   3.423
 2497TIP3   OH2 7433   2.122   1.731   3.599
 2497TIP3    H1 7434   2.160   1.706   3.515
 2497TIP3    H2 7435   2.167   1.812   3.623
 2498TIP3   OH2 7436   2.647   2.369   3.374
 2498TIP3    H1 7437   2.646   2.433   3.445
 2498TIP3    H2 7438   2.661   2.285   3.418
 2499TIP3   OH2 7439   2.261   2.293   3.927
 2499TIP3    H1 7440   2.201   2.352   3.973
 2499TIP3    H2 7441   2.204   2.233   3.880
 2500TIP3   OH2 7442   2.601   1.617   2.657
 2500TIP3    H1 7443   2.657   1.674   2.709
 2500TIP3    H2 7444   2.624   1.637   2.566
 2501TIP3   OH2 7445   2.019   1.835   4.039
 2501TIP3    H1 7446   2.028   1.924   4.073
 2501TIP3    H2 7447   1.925   1.817   4.042
 2502TIP3   OH2 7448   2.344   2.293   2.931
 2502TIP3    H1 7449   2.424   2.343   2.945
 2502TIP3    H2 7450   2.282   2.356   2.896
 2503TIP3   OH2 7451   2.053   2.453   4.014
 2503TIP3    H1 7452   2.023   2.453   3.923
 2503TIP3    H2 7453   1.975   2.429   4.064
 2504TIP3   OH2 7454   3.114   0.858   2.708
 2504TIP3    H1 7455   3.034   0.877   2.757
 2504TIP3    H2 7456   3.130   0.937   2.657
 2505TIP3   OH2 7457   1.861   1.594   3.037
 2505TIP3    H1 7458   1.792   1.643   2.992
 2505TIP3    H2 7459   1.817   1.517   3.071
 2506TIP3   OH2 7460   2.915   2.223   2.254
 2506TIP3    H1 7461   2.919   2.318   2.242
 2506TIP3    H2 7462   3.005   2.193   2.242
 2507TIP3   OH2 7463   1.636   1.981   3.961
 2507TIP3    H1 7464   1.572   1.962   3.893
 2507TIP3    H2 7465   1.674   1.896   3.983
 2508TIP3   OH2 7466   1.494   2.173   3.598
 2508TIP3    H1 7467   1.589   2.168   3.583
 2508TIP3    H2 7468   1.483   2.253   3.650
 2509TIP3   OH2 7469   3.355   2.627   3.653
 2509TIP3    H1 7470   3.356   2.532   3.667
 2509TIP3    H2 7471   3.275   2.656   3.696
 2510TIP3   OH2 7472   2.454   2.417   3.773
 2510TIP3    H1 7473   2.456   2.505   3.811
 2510TIP3    H2 7474   2.398   2.366   3.832
 2511TIP3   OH2 7475   2.224   2.545   2.736
 2511TIP3    H1 7476   2.177   2.526   2.654
 2511TIP3    H2 7477   2.190   2.630   2.763
 2512TIP3   OH2 7478   1.661   2.388   3.124
 2512TIP3    H1 7479   1.710   2.382   3.206
 2512TIP3    H2 7480   1.605   2.310   3.124
 2513TIP3   OH2 7481   2.426   2.442   2.376
 2513TIP3    H1 7482   2.482   2.373   2.340
 2513TIP3    H2 7483   2.457   2.454   2.465
 2514TIP3   OH2 7484   2.474   2.490   2.646
 2514TIP3    H1 7485   2.387   2.502   2.685
 2514TIP3    H2 7486   2.528   2.456   2.718
 2515TIP3   OH2 7487   3.246   1.756   3.925
 2515TIP3    H1 7488   3.164   1.773   3.878
 2515TIP3    H2 7489   3.260   1.661   3.916
 2516TIP3   OH2 7490   1.842   2.163   3.949
 2516TIP3    H1 7491   1.892   2.149   4.029
 2516TIP3    H2 7492   1.768   2.103   3.955
 2517TIP3   OH2 7493   2.239   0.988   3.736
 2517TIP3    H1 7494   2.153   0.955   3.709
 2517TIP3    H2 7495   2.220   1.070   3.781
 2518TIP3   OH2 7496   2.777   1.098   3.931
 2518TIP3    H1 7497   2.845   1.075   3.994
 2518TIP3    H2 7498   2.695   1.082   3.976
 2519TIP3   OH2 7499   3.010   1.534   3.845
 2519TIP3    H1 7500   2.964   1.531   3.929
 2519TIP3    H2 7501   2.989   1.620   3.809
 2520TIP3   OH2 7502   2.671   1.656   2.399
 2520TIP3    H1 7503   2.640   1.635   2.311
 2520TIP3    H2 7504   2.752   1.704   2.385
 2521TIP3   OH2 7505   2.396   1.022   2.722
 2521TIP3    H1 7506   2.346   1.066   2.790
 2521TIP3    H2 7507   2.441   0.950   2.767
 2522TIP3   OH2 7508   2.169   1.507   3.749
 2522TIP3    H1 7509   2.127   1.528   3.832
 2522TIP3    H2 7510   2.157   1.586   3.695
 2523TIP3   OH2 7511   2.055   1.387   3.267
 2523TIP3    H1 7512   1.965   1.363   3.289
 2523TIP3    H2 7513   2.070   1.346   3.182
 2524TIP3   OH2 7514   2.545   1.472   2.987
 2524TIP3    H1 7515   2.492   1.542   2.949
 2524TIP3    H2 7516   2.606   1.448   2.918
 2525TIP3   OH2 7517   2.726   1.749   4.079
 2525TIP3    H1 7518   2.701   1.679   4.139
 2525TIP3    H2 7519   2.818   1.767   4.099
 2526TIP3   OH2 7520   2.688   1.493   3.235
 2526TIP3    H1 7521   2.636   1.534   3.165
 2526TIP3    H2 7522   2.732   1.420   3.192
 2527TIP3   OH2 7523   1.992   1.534   3.963
 2527TIP3    H1 7524   2.027   1.600   4.023
 2527TIP3    H2 7525   1.984   1.455   4.016
 2528TIP3   OH2 7526   2.039   0.984   2.693
 2528TIP3    H1 7527   2.033   0.987   2.788
 2528TIP3    H2 7528   1.969   1.042   2.663
 2529TIP3   OH2 7529   1.589   1.051   3.547
 2529TIP3    H1 7530   1.662   1.085   3.599
 2529TIP3    H2 7531   1.628   1.025   3.464
 2530TIP3   OH2 7532   1.582   1.061   3.069
 2530TIP3    H1 7533   1.621   1.081   2.984
 2530TIP3    H2 7534   1.512   1.125   3.079
 2531TIP3   OH2 7535   2.739   1.733   3.675
 2531TIP3    H1 7536   2.752   1.674   3.601
 2531TIP3    H2 7537   2.687   1.683   3.737
 2532TIP3   OH2 7538   2.383   1.199   3.325
 2532TIP3    H1 7539   2.303   1.204   3.377
 2532TIP3    H2 7540   2.452   1.224   3.386
 2533TIP3   OH2 7541   1.818   1.267   3.334
 2533TIP3    H1 7542   1.727   1.276   3.306
 2533TIP3    H2 7543   1.841   1.176   3.312
 2534TIP3   OH2 7544   2.090   1.262   3.030
 2534TIP3    H1 7545   2.181   1.286   3.013
 2534TIP3    H2 7546   2.043   1.291   2.951
 2535TIP3   OH2 7547   2.877   1.282   3.526
 2535TIP3    H1 7548   2.853   1.298   3.617
 2535TIP3    H2 7549   2.806   1.227   3.491
 2536TIP3   OH2 7550   1.938   1.303   2.811
 2536TIP3    H1 7551   1.857   1.263   2.780
 2536TIP3    H2 7552   1.984   1.329   2.731
 2537TIP3   OH2 7553   3.047   2.975   3.750
 2537TIP3    H1 7554   3.043   2.997   3.657
 2537TIP3    H2 7555   3.126   3.018   3.782
 2538TIP3   OH2 7556   2.002   2.084   4.172
 2538TIP3    H1 7557   2.084   2.116   4.212
 2538TIP3    H2 7558   1.938   2.088   4.243
 2539TIP3   OH2 7559   2.461   1.509   3.414
 2539TIP3    H1 7560   2.544   1.492   3.369
 2539TIP3    H2 7561   2.481   1.491   3.507
 2540TIP3   OH2 7562   1.985   1.023   3.306
 2540TIP3    H1 7563   1.947   0.950   3.355
 2540TIP3    H2 7564   2.034   0.980   3.236
 2541TIP3   OH2 7565   2.442   1.435   3.726
 2541TIP3    H1 7566   2.356   1.476   3.731
 2541TIP3    H2 7567   2.500   1.496   3.771
 2542TIP3   OH2 7568   2.179   1.824   2.811
 2542TIP3    H1 7569   2.107   1.763   2.796
 2542TIP3    H2 7570   2.162   1.861   2.898
 2543TIP3   OH2 7571   3.071   2.063   3.441
 2543TIP3    H1 7572   3.089   2.112   3.361
 2543TIP3    H2 7573   2.975   2.058   3.445
 2544TIP3   OH2 7574   2.648   1.149   2.670
 2544TIP3    H1 7575   2.554   1.149   2.685
 2544TIP3    H2 7576   2.676   1.237   2.694
 2545TIP3   OH2 7577   2.531   2.133   3.875
 2545TIP3    H1 7578   2.618   2.133   3.914
 2545TIP3    H2 7579   2.537   2.193   3.801
 2546TIP3   OH2 7580   2.715   1.390   2.771
 2546TIP3    H1 7581   2.808   1.399   2.793
 2546TIP3    H2 7582   2.694   1.471   2.724
 2547TIP3   OH2 7583   1.870   1.840   3.482
 2547TIP3    H1 7584   1.909   1.821   3.397
 2547TIP3    H2 7585   1.926   1.793   3.545
 2548TIP3   OH2 7586   2.322   1.977   2.632
 2548TIP3    H1 7587   2.278   2.062   2.634
 2548TIP3    H2 7588   2.271   1.922   2.692
 2549TIP3   OH2 7589   1.752   1.770   4.102
 2549TIP3    H1 7590   1.774   1.757   4.194
 2549TIP3    H2 7591   1.686   1.704   4.084
 2550TIP3   OH2 7592   2.484   1.877   4.124
 2550TIP3    H1 7593   2.424   1.837   4.061
 2550TIP3    H2 7594   2.571   1.853   4.093
 2551TIP3   OH2 7595   2.731   2.453   3.686
 2551TIP3    H1 7596   2.642   2.421   3.700
 2551TIP3    H2 7597   2.762   2.476   3.774
 2552TIP3   OH2 7598   3.147   1.481   2.609
 2552TIP3    H1 7599   3.087   1.434   2.551
 2552TIP3    H2 7600   3.148   1.571   2.575
 2553TIP3   OH2 7601   3.368   2.334   3.690
 2553TIP3    H1 7602   3.272   2.332   3.685
 2553TIP3    H2 7603   3.398   2.307   3.603
 2554TIP3   OH2 7604   2.853   2.297   2.521
 2554TIP3    H1 7605   2.823   2.232   2.586
 2554TIP3    H2 7606   2.862   2.248   2.440
 2555TIP3   OH2 7607   1.974   2.155   3.104
 2555TIP3    H1 7608   1.976   2.237   3.055
 2555TIP3    H2 7609   1.881   2.142   3.125
 2556TIP3   OH2 7610   1.546   1.456   2.839
 2556TIP3    H1 7611   1.588   1.542   2.850
 2556TIP3    H2 7612   1.462   1.465   2.883
 2557TIP3   OH2 7613   2.105   1.918   3.052
 2557TIP3    H1 7614   2.074   2.007   3.067
 2557TIP3    H2 7615   2.075   1.869   3.129
 2558TIP3   OH2 7616   2.248   2.496   3.579
 2558TIP3    H1 7617   2.288   2.567   3.528
 2558TIP3    H2 7618   2.320   2.459   3.629
 2559TIP3   OH2 7619   1.893   2.395   2.964
 2559TIP3    H1 7620   1.808   2.402   3.008
 2559TIP3    H2 7621   1.929   2.484   2.965
 2560TIP3   OH2 7622   2.608   2.022   2.422
 2560TIP3    H1 7623   2.662   1.998   2.498
 2560TIP3    H2 7624   2.518   2.002   2.450
 2561TIP3   OH2 7625   2.885   2.664   3.589
 2561TIP3    H1 7626   2.814   2.601   3.601
 2561TIP3    H2 7627   2.855   2.720   3.518
 2562TIP3   OH2 7628   2.943   2.501   2.240
 2562TIP3    H1 7629   2.983   2.571   2.188
 2562TIP3    H2 7630   2.864   2.540   2.277
 2563TIP3   OH2 7631   1.963   1.274   4.108
 2563TIP3    H1 7632   1.868   1.278   4.117
 2563TIP3    H2 7633   1.991   1.216   4.179
 2564TIP3   OH2 7634   2.770   1.946   2.631
 2564TIP3    H1 7635   2.758   1.888   2.706
 2564TIP3    H2 7636   2.865   1.954   2.621
 2565TIP3   OH2 7637   1.682   2.360   3.740
 2565TIP3    H1 7638   1.736   2.288   3.773
 2565TIP3    H2 7639   1.711   2.437   3.789
 2566TIP3   OH2 7640   1.976   2.006   2.424
 2566TIP3    H1 7641   1.981   1.915   2.394
 2566TIP3    H2 7642   1.955   1.998   2.518
 2567TIP3   OH2 7643   1.919   2.011   2.696
 2567TIP3    H1 7644   1.988   1.988   2.758
 2567TIP3    H2 7645   1.915   2.107   2.698
 2568TIP3   OH2 7646   1.650   1.708   2.899
 2568TIP3    H1 7647   1.585   1.750   2.956
 2568TIP3    H2 7648   1.665   1.772   2.829
 2569TIP3   OH2 7649   2.812   1.332   3.784
 2569TIP3    H1 7650   2.883   1.380   3.827
 2569TIP3    H2 7651   2.796   1.257   3.841
 2570TIP3   OH2 7652   2.685   1.094   2.955
 2570TIP3    H1 7653   2.682   1.120   2.863
 2570TIP3    H2 7654   2.726   1.168   3.000
 2571TIP3   OH2 7655   2.181   2.208   2.639
 2571TIP3    H1 7656   2.096   2.229   2.678
 2571TIP3    H2 7657   2.203   2.284   2.585
 2572TIP3   OH2 7658   2.371   1.273   3.056
 2572TIP3    H1 7659   2.433   1.343   3.038
 2572TIP3    H2 7660   2.374   1.261   3.151
 2573TIP3   OH2 7661   2.633   1.578   3.874
 2573TIP3    H1 7662   2.656   1.644   3.940
 2573TIP3    H2 7663   2.697   1.508   3.887
 2574TIP3   OH2 7664   2.517   0.996   3.160
 2574TIP3    H1 7665   2.504   1.067   3.222
 2574TIP3    H2 7666   2.578   1.031   3.095
 2575TIP3   OH2 7667   1.926   2.282   2.711
 2575TIP3    H1 7668   1.899   2.349   2.648
 2575TIP3    H2 7669   1.912   2.324   2.797
 2576TIP3   OH2 7670   2.041   1.004   2.964
 2576TIP3    H1 7671   2.034   1.094   2.998
 2576TIP3    H2 7672   2.135   0.983   2.972
 2577TIP3   OH2 7673   3.275   1.487   3.846
 2577TIP3    H1 7674   3.180   1.488   3.853
 2577TIP3    H2 7675   3.292   1.455   3.757
 2578TIP3   OH2 7676   2.942   1.657   3.213
 2578TIP3    H1 7677   2.860   1.649   3.261
 2578TIP3    H2 7678   3.009   1.627   3.275
 2579TIP3   OH2 7679   1.648   1.912   2.702
 2579TIP3    H1 7680   1.708   1.985   2.713
 2579TIP3    H2 7681   1.691   1.855   2.638
 2580TIP3   OH2 7682   1.627   1.196   2.798
 2580TIP3    H1 7683   1.615   1.286   2.827
 2580TIP3    H2 7684   1.539   1.164   2.781
 2581TIP3   OH2 7685   2.902   2.643   3.178
 2581TIP3    H1 7686   2.857   2.687   3.106
 2581TIP3    H2 7687   2.995   2.658   3.161
 2582TIP3   OH2 7688   1.977   0.906   3.709
 2582TIP3    H1 7689   1.946   0.877   3.624
 2582TIP3    H2 7690   1.965   0.829   3.766
 2583TIP3   OH2 7691   1.508   2.122   3.086
 2583TIP3    H1 7692   1.448   2.155   3.152
 2583TIP3    H2 7693   1.482   2.166   3.005
 2584TIP3   OH2 7694   1.677   2.672   4.163
 2584TIP3    H1 7695   1.761   2.675   4.209
 2584TIP3    H2 7696   1.656   2.578   4.158
 2585TIP3   OH2 7697   2.151   2.627   4.207
 2585TIP3    H1 7698   2.246   2.615   4.213
 2585TIP3    H2 7699   2.125   2.571   4.133
 2586TIP3   OH2 7700   2.136   2.206   2.329
 2586TIP3    H1 7701   2.080   2.140   2.371
 2586TIP3    H2 7702   2.211   2.156   2.298
 2587TIP3   OH2 7703   2.789   2.541   3.945
 2587TIP3    H1 7704   2.783   2.470   4.009
 2587TIP3    H2 7705   2.867   2.590   3.971
 2588TIP3   OH2 7706   2.571   2.245   2.245
 2588TIP3    H1 7707   2.613   2.184   2.305
 2588TIP3    H2 7708   2.627   2.246   2.167
 2589TIP3   OH2 7709   1.800   2.073   4.362
 2589TIP3    H1 7710   1.818   1.979   4.364
 2589TIP3    H2 7711   1.716   2.080   4.317
 2590TIP3   OH2 7712   1.791   1.727   2.565
 2590TIP3    H1 7713   1.848   1.703   2.638
 2590TIP3    H2 7714   1.850   1.733   2.489
 2591TIP3   OH2 7715   2.404   2.156   4.134
 2591TIP3    H1 7716   2.390   2.183   4.043
 2591TIP3    H2 7717   2.446   2.070   4.127
 2592TIP3   OH2 7718   2.300   1.919   2.364
 2592TIP3    H1 7719   2.298   1.938   2.458
 2592TIP3    H2 7720   2.280   1.825   2.358
 2593TIP3   OH2 7721   2.897   2.163   3.749
 2593TIP3    H1 7722   2.956   2.228   3.711
 2593TIP3    H2 7723   2.835   2.143   3.679
 2594TIP3   OH2 7724   1.922   1.805   4.349
 2594TIP3    H1 7725   2.002   1.773   4.309
 2594TIP3    H2 7726   1.949   1.841   4.434
 2595TIP3   OH2 7727   1.985   1.625   2.775
 2595TIP3    H1 7728   1.955   1.602   2.863
 2595TIP3    H2 7729   2.020   1.544   2.739
 2596TIP3   OH2 7730   2.255   1.689   3.995
 2596TIP3    H1 7731   2.183   1.752   4.004
 2596TIP3    H2 7732   2.309   1.723   3.924
 2597TIP3   OH2 7733   2.098   1.401   2.609
 2597TIP3    H1 7734   2.066   1.424   2.522
 2597TIP3    H2 7735   2.190   1.428   2.609
 2598TIP3   OH2 7736   2.773   2.093   4.140
 2598TIP3    H1 7737   2.848   2.068   4.085
 2598TIP3    H2 7738   2.773   2.028   4.210
 2599TIP3   OH2 7739   2.907   1.752   2.281
 2599TIP3    H1 7740   2.889   1.706   2.199
 2599TIP3    H2 7741   2.878   1.842   2.265
 2600TIP3   OH2 7742   2.378   1.484   4.130
 2600TIP3    H1 7743   2.383   1.406   4.074
 2600TIP3    H2 7744   2.339   1.551   4.073
 2601TIP3   OH2 7745   2.382   1.266   3.939
 2601TIP3    H1 7746   2.413   1.312   3.861
 2601TIP3    H2 7747   2.291   1.246   3.921
 2602TIP3   OH2 7748   2.411   1.806   3.810
 2602TIP3    H1 7749   2.497   1.822   3.771
 2602TIP3    H2 7750   2.353   1.871   3.770
 2603TIP3   OH2 7751   2.992   1.771   4.191
 2603TIP3    H1 7752   3.044   1.691   4.200
 2603TIP3    H2 7753   3.053   1.834   4.153
 2604TIP3   OH2 7754   3.035   2.024   3.931
 2604TIP3    H1 7755   2.975   2.076   3.878
 2604TIP3    H2 7756   3.122   2.041   3.892
 2605TIP3   OH2 7757   2.258   1.588   4.364
 2605TIP3    H1 7758   2.190   1.522   4.376
 2605TIP3    H2 7759   2.293   1.572   4.277
 2606TIP3   OH2 7760   2.513   1.030   4.007
 2606TIP3    H1 7761   2.469   1.112   3.984
 2606TIP3    H2 7762   2.445   0.963   3.995
 2607TIP3   OH2 7763   2.641   1.531   4.223
 2607TIP3    H1 7764   2.631   1.522   4.317
 2607TIP3    H2 7765   2.554   1.511   4.188
 2608TIP3   OH2 7766   2.878   1.479   4.075
 2608TIP3    H1 7767   2.804   1.486   4.135
 2608TIP3    H2 7768   2.952   1.454   4.130
 2609TIP3   OH2 7769   3.107   1.426   4.229
 2609TIP3    H1 7770   3.121   1.333   4.245
 2609TIP3    H2 7771   3.103   1.464   4.317
 2610TIP3   OH2 7772   2.095   1.368   4.420
 2610TIP3    H1 7773   2.103   1.281   4.381
 2610TIP3    H2 7774   2.134   1.359   4.507
 2611TIP3   OH2 7775   2.607   1.039   4.264
 2611TIP3    H1 7776   2.675   0.972   4.261
 2611TIP3    H2 7777   2.567   1.037   4.177
 2612TIP3   OH2 7778   2.671   1.254   4.424
 2612TIP3    H1 7779   2.652   1.185   4.360
 2612TIP3    H2 7780   2.597   1.314   4.416
 2613TIP3   OH2 7781   1.898   2.479   2.519
 2613TIP3    H1 7782   1.993   2.477   2.505
 2613TIP3    H2 7783   1.865   2.534   2.448
 2614TIP3   OH2 7784   1.380   1.869   2.740
 2614TIP3    H1 7785   1.472   1.893   2.727
 2614TIP3    H2 7786   1.372   1.783   2.699
 2615TIP3   OH2 7787   1.291   2.475   3.155
 2615TIP3    H1 7788   1.225   2.418   3.116
 2615TIP3    H2 7789   1.337   2.419   3.218
 2616TIP3   OH2 7790   1.430   2.323   3.340
 2616TIP3    H1 7791   1.414   2.254   3.405
 2616TIP3    H2 7792   1.481   2.389   3.388
 2617TIP3   OH2 7793   3.159   2.725   3.141
 2617TIP3    H1 7794   3.177   2.754   3.230
 2617TIP3    H2 7795   3.217   2.778   3.086
 2618TIP3   OH2 7796   3.185   2.746   3.422
 2618TIP3    H1 7797   3.136   2.664   3.419
 2618TIP3    H2 7798   3.257   2.729   3.483
 2619TIP3   OH2 7799   3.233   2.429   3.998
 2619TIP3    H1 7800   3.159   2.436   4.059
 2619TIP3    H2 7801   3.274   2.515   4.000
 2620TIP3   OH2 7802   3.050   1.940   2.614
 2620TIP3    H1 7803   3.113   2.006   2.585
 2620TIP3    H2 7804   3.091   1.901   2.691
 2621TIP3   OH2 7805   3.178   1.806   2.817
 2621TIP3    H1 7806   3.110   1.764   2.870
 2621TIP3    H2 7807   3.237   1.846   2.881
 2622TIP3   OH2 7808   3.232   2.202   3.253
 2622TIP3    H1 7809   3.281   2.137   3.202
 2622TIP3    H2 7810   3.219   2.275   3.192
 2623TIP3   OH2 7811   3.054   2.499   3.442
 2623TIP3    H1 7812   2.988   2.543   3.496
 2623TIP3    H2 7813   3.004   2.453   3.375
 2624TIP3   OH2 7814   3.109   1.717   2.463
 2624TIP3    H1 7815   3.040   1.717   2.396
 2624TIP3    H2 7816   3.087   1.791   2.520
 2625TIP3   OH2 7817   2.978   1.387   2.419
 2625TIP3    H1 7818   2.941   1.429   2.341
 2625TIP3    H2 7819   2.955   1.295   2.410
 2626TIP3   OH2 7820   2.989   1.660   2.952
 2626TIP3    H1 7821   2.997   1.565   2.944
 2626TIP3    H2 7822   2.975   1.675   3.045
 2627TIP3   OH2 7823   1.616   1.734   3.712
 2627TIP3    H1 7824   1.610   1.704   3.621
 2627TIP3    H2 7825   1.709   1.739   3.730
 2628TIP3   OH2 7826   3.278   2.088   3.822
 2628TIP3    H1 7827   3.348   2.024   3.808
 2628TIP3    H2 7828   3.297   2.159   3.760
 2629TIP3   OH2 7829   3.461   1.887   3.827
 2629TIP3    H1 7830   3.386   1.845   3.869
 2629TIP3    H2 7831   3.535   1.828   3.844
 2630TIP3   OH2 7832   2.926   1.120   2.415
 2630TIP3    H1 7833   3.013   1.102   2.452
 2630TIP3    H2 7834   2.872   1.046   2.444
 2631TIP3   OH2 7835   2.986   1.379   2.853
 2631TIP3    H1 7836   3.025   1.293   2.871
 2631TIP3    H2 7837   3.042   1.416   2.785
 2632TIP3   OH2 7838   3.150   1.547   3.362
 2632TIP3    H1 7839   3.230   1.572   3.317
 2632TIP3    H2 7840   3.156   1.589   3.448
 2633TIP3   OH2 7841   3.213   1.702   3.585
 2633TIP3    H1 7842   3.137   1.732   3.635
 2633TIP3    H2 7843   3.245   1.781   3.541
 2634TIP3   OH2 7844   1.829   1.418   4.383
 2634TIP3    H1 7845   1.924   1.418   4.385
 2634TIP3    H2 7846   1.804   1.335   4.424
 2635TIP3   OH2 7847   3.665   1.290   4.138
 2635TIP3    H1 7848   3.724   1.226   4.099
 2635TIP3    H2 7849   3.635   1.343   4.065
 2636TIP3   OH2 7850   3.094   1.129   2.897
 2636TIP3    H1 7851   3.142   1.117   2.978
 2636TIP3    H2 7852   3.034   1.055   2.893
 2637TIP3   OH2 7853   1.796   1.116   3.718
 2637TIP3    H1 7854   1.856   1.042   3.726
 2637TIP3    H2 7855   1.854   1.192   3.709
 2638TIP3   OH2 7856   1.595   1.390   3.789
 2638TIP3    H1 7857   1.642   1.383   3.706
 2638TIP3    H2 7858   1.619   1.476   3.822
 2639TIP3   OH2 7859   3.532   1.427   3.945
 2639TIP3    H1 7860   3.451   1.472   3.971
 2639TIP3    H2 7861   3.503   1.357   3.888
 2640TIP3   OH2 7862   3.172   1.065   2.525
 2640TIP3    H1 7863   3.211   0.994   2.474
 2640TIP3    H2 7864   3.238   1.134   2.524
 2641TIP3   OH2 7865   1.579   0.904   3.292
 2641TIP3    H1 7866   1.490   0.909   3.326
 2641TIP3    H2 7867   1.577   0.956   3.212
 2642TIP3   OH2 7868   2.740   2.597   2.795
 2642TIP3    H1 7869   2.792   2.588   2.715
 2642TIP3    H2 7870   2.786   2.664   2.846
 2643TIP3   OH2 7871   1.796   0.970   4.104
 2643TIP3    H1 7872   1.748   0.969   4.187
 2643TIP3    H2 7873   1.736   1.010   4.041
 2644TIP3   OH2 7874   1.836   2.400   4.180
 2644TIP3    H1 7875   1.744   2.376   4.165
 2644TIP3    H2 7876   1.848   2.387   4.274
 2645TIP3   OH2 7877   2.019   2.439   3.726
 2645TIP3    H1 7878   1.971   2.513   3.690
 2645TIP3    H2 7879   2.106   2.446   3.686
 2646TIP3   OH2 7880   2.459   2.682   3.869
 2646TIP3    H1 7881   2.501   2.679   3.955
 2646TIP3    H2 7882   2.522   2.729   3.814
 2647TIP3   OH2 7883   2.638   2.833   3.728
 2647TIP3    H1 7884   2.700   2.777   3.682
 2647TIP3    H2 7885   2.692   2.887   3.786
 2648TIP3   OH2 7886   3.436   1.190   3.824
 2648TIP3    H1 7887   3.347   1.187   3.790
 2648TIP3    H2 7888   3.468   1.100   3.814
 2649TIP3   OH2 7889   1.689   2.689   3.756
 2649TIP3    H1 7890   1.602   2.719   3.730
 2649TIP3    H2 7891   1.708   2.736   3.836
 2650TIP3   OH2 7892   1.926   2.670   3.610
 2650TIP3    H1 7893   1.842   2.681   3.654
 2650TIP3    H2 7894   1.911   2.702   3.521
 2651TIP3   OH2 7895   2.352   2.699   3.408
 2651TIP3    H1 7896   2.286   2.717   3.341
 2651TIP3    H2 7897   2.367   2.783   3.450
 2652TIP3   OH2 7898   2.623   2.651   3.463
 2652TIP3    H1 7899   2.530   2.656   3.441
 2652TIP3    H2 7900   2.664   2.723   3.414
 2653TIP3   OH2 7901   2.832   2.831   3.371
 2653TIP3    H1 7902   2.818   2.913   3.324
 2653TIP3    H2 7903   2.856   2.768   3.302
 2654TIP3   OH2 7904   1.606   2.480   3.496
 2654TIP3    H1 7905   1.628   2.457   3.586
 2654TIP3    H2 7906   1.676   2.442   3.443
 2655TIP3   OH2 7907   1.802   2.355   3.357
 2655TIP3    H1 7908   1.815   2.273   3.404
 2655TIP3    H2 7909   1.890   2.393   3.353
 2656TIP3   OH2 7910   2.067   2.446   3.365
 2656TIP3    H1 7911   2.097   2.356   3.351
 2656TIP3    H2 7912   2.114   2.475   3.443
 2657TIP3   OH2 7913   2.645   1.106   3.444
 2657TIP3    H1 7914   2.599   1.039   3.495
 2657TIP3    H2 7915   2.717   1.059   3.402
 2658TIP3   OH2 7916   3.159   0.982   3.345
 2658TIP3    H1 7917   3.199   1.035   3.276
 2658TIP3    H2 7918   3.067   1.009   3.347
 2659TIP3   OH2 7919   3.260   1.085   3.111
 2659TIP3    H1 7920   3.331   1.032   3.074
 2659TIP3    H2 7921   3.290   1.176   3.100
 2660TIP3   OH2 7922   1.885   0.817   3.465
 2660TIP3    H1 7923   1.796   0.784   3.451
 2660TIP3    H2 7924   1.941   0.740   3.457
 2661TIP3   OH2 7925   1.778   0.741   3.187
 2661TIP3    H1 7926   1.727   0.715   3.110
 2661TIP3    H2 7927   1.720   0.800   3.236
 2662TIP3   OH2 7928   2.336   0.847   3.338
 2662TIP3    H1 7929   2.394   0.898   3.281
 2662TIP3    H2 7930   2.348   0.885   3.425
 2663TIP3   OH2 7931   2.875   0.993   3.322
 2663TIP3    H1 7932   2.879   0.959   3.233
 2663TIP3    H2 7933   2.861   0.915   3.377
 2664TIP3   OH2 7934   2.906   0.919   2.888
 2664TIP3    H1 7935   2.824   0.964   2.907
 2664TIP3    H2 7936   2.897   0.833   2.930
 2665TIP3   OH2 7937   1.391   2.262   2.886
 2665TIP3    H1 7938   1.307   2.229   2.854
 2665TIP3    H2 7939   1.389   2.355   2.865
 2666TIP3   OH2 7940   1.798   0.871   2.891
 2666TIP3    H1 7941   1.850   0.799   2.925
 2666TIP3    H2 7942   1.827   0.948   2.940
 2667TIP3   OH2 7943   2.314   1.022   2.979
 2667TIP3    H1 7944   2.370   0.975   3.040
 2667TIP3    H2 7945   2.324   1.114   3.002
 2668TIP3   OH2 7946   2.167   2.439   2.470
 2668TIP3    H1 7947   2.252   2.468   2.436
 2668TIP3    H2 7948   2.142   2.367   2.412
 2669TIP3   OH2 7949   2.886   2.564   2.561
 2669TIP3    H1 7950   2.879   2.469   2.553
 2669TIP3    H2 7951   2.838   2.599   2.486
 2670TIP3   OH2 7952   2.097   1.090   4.353
 2670TIP3    H1 7953   2.062   1.021   4.409
 2670TIP3    H2 7954   2.190   1.095   4.376
 2671TIP3   OH2 7955   2.346   1.093   4.470
 2671TIP3    H1 7956   2.430   1.076   4.427
 2671TIP3    H2 7957   2.337   1.022   4.534
 2672TIP3   OH2 7958   1.470   2.279   2.527
 2672TIP3    H1 7959   1.471   2.309   2.618
 2672TIP3    H2 7960   1.557   2.240   2.514
 2673TIP3   OH2 7961   3.173   1.155   4.259
 2673TIP3    H1 7962   3.189   1.126   4.349
 2673TIP3    H2 7963   3.259   1.152   4.217
 2674TIP3   OH2 7964   3.109   2.709   3.747
 2674TIP3    H1 7965   3.033   2.676   3.699
 2674TIP3    H2 7966   3.092   2.803   3.758
 2675TIP3   OH2 7967   4.370   2.077   2.515
 2675TIP3    H1 7968   4.349   2.169   2.500
 2675TIP3    H2 7969   4.299   2.029   2.472
 2676TIP3   OH2 7970   4.374   2.083   2.903
 2676TIP3    H1 7971   4.410   2.061   2.989
 2676TIP3    H2 7972   4.346   1.999   2.867
 2677TIP3   OH2 7973   3.687   1.975   3.255
 2677TIP3    H1 7974   3.706   1.903   3.316
 2677TIP3    H2 7975   3.736   2.049   3.291
 2678TIP3   OH2 7976   4.621   2.382   2.584
 2678TIP3    H1 7977   4.608   2.317   2.653
 2678TIP3    H2 7978   4.649   2.461   2.630
 2679TIP3   OH2 7979   3.649   2.385   2.983
 2679TIP3    H1 7980   3.637   2.290   2.988
 2679TIP3    H2 7981   3.744   2.398   2.983
 2680TIP3   OH2 7982   3.358   1.591   2.768
 2680TIP3    H1 7983   3.312   1.672   2.788
 2680TIP3    H2 7984   3.292   1.533   2.730
 2681TIP3   OH2 7985   3.413   1.875   2.948
 2681TIP3    H1 7986   3.460   1.800   2.984
 2681TIP3    H2 7987   3.467   1.903   2.874
 2682TIP3   OH2 7988   4.271   2.843   2.596
 2682TIP3    H1 7989   4.313   2.772   2.548
 2682TIP3    H2 7990   4.260   2.809   2.685
 2683TIP3   OH2 7991   4.179   2.300   2.945
 2683TIP3    H1 7992   4.222   2.225   2.903
 2683TIP3    H2 7993   4.250   2.356   2.975
 2684TIP3   OH2 7994   5.189   1.628   2.942
 2684TIP3    H1 7995   5.216   1.707   2.989
 2684TIP3    H2 7996   5.213   1.645   2.851
 2685TIP3   OH2 7997   4.578   1.802   2.974
 2685TIP3    H1 7998   4.626   1.725   3.004
 2685TIP3    H2 7999   4.558   1.783   2.882
 2686TIP3   OH2 8000   3.890   1.480   2.922
 2686TIP3    H1 8001   3.814   1.530   2.890
 2686TIP3    H2 8002   3.877   1.392   2.887
 2687TIP3   OH2 8003   4.623   1.562   2.565
 2687TIP3    H1 8004   4.691   1.546   2.631
 2687TIP3    H2 8005   4.671   1.594   2.488
 2688TIP3   OH2 8006   3.560   1.669   3.053
 2688TIP3    H1 8007   3.638   1.651   3.106
 2688TIP3    H2 8008   3.569   1.612   2.977
 2689TIP3   OH2 8009   5.259   1.835   3.115
 2689TIP3    H1 8010   5.176   1.879   3.097
 2689TIP3    H2 8011   5.284   1.865   3.203
 2690TIP3   OH2 8012   3.918   1.448   3.379
 2690TIP3    H1 8013   3.861   1.485   3.312
 2690TIP3    H2 8014   3.871   1.463   3.461
 2691TIP3   OH2 8015   4.262   2.299   2.383
 2691TIP3    H1 8016   4.227   2.285   2.295
 2691TIP3    H2 8017   4.223   2.381   2.412
 2692TIP3   OH2 8018   4.021   2.227   3.174
 2692TIP3    H1 8019   3.961   2.292   3.211
 2692TIP3    H2 8020   4.066   2.274   3.103
 2693TIP3   OH2 8021   4.826   1.565   2.744
 2693TIP3    H1 8022   4.817   1.519   2.827
 2693TIP3    H2 8023   4.880   1.641   2.764
 2694TIP3   OH2 8024   3.795   1.566   3.164
 2694TIP3    H1 8025   3.852   1.638   3.190
 2694TIP3    H2 8026   3.838   1.527   3.087
 2695TIP3   OH2 8027   3.852   2.423   3.268
 2695TIP3    H1 8028   3.834   2.510   3.232
 2695TIP3    H2 8029   3.778   2.404   3.325
 2696TIP3   OH2 8030   3.250   2.112   2.504
 2696TIP3    H1 8031   3.207   2.136   2.422
 2696TIP3    H2 8032   3.279   2.195   2.541
 2697TIP3   OH2 8033   4.685   2.626   2.741
 2697TIP3    H1 8034   4.599   2.616   2.783
 2697TIP3    H2 8035   4.681   2.713   2.700
 2698TIP3   OH2 8036   4.983   1.522   3.105
 2698TIP3    H1 8037   4.897   1.557   3.079
 2698TIP3    H2 8038   5.043   1.555   3.039
 2699TIP3   OH2 8039   4.269   1.166   3.092
 2699TIP3    H1 8040   4.263   1.072   3.112
 2699TIP3    H2 8041   4.196   1.205   3.139
 2700TIP3   OH2 8042   4.391   2.669   2.415
 2700TIP3    H1 8043   4.438   2.588   2.398
 2700TIP3    H2 8044   4.448   2.737   2.379
 2701TIP3   OH2 8045   4.533   2.453   2.331
 2701TIP3    H1 8046   4.497   2.374   2.290
 2701TIP3    H2 8047   4.570   2.422   2.414
 2702TIP3   OH2 8048   4.914   2.537   3.088
 2702TIP3    H1 8049   4.903   2.461   3.031
 2702TIP3    H2 8050   4.896   2.612   3.032
 2703TIP3   OH2 8051   4.205   1.933   2.346
 2703TIP3    H1 8052   4.126   1.985   2.328
 2703TIP3    H2 8053   4.250   1.928   2.262
 2704TIP3   OH2 8054   4.169   1.715   2.068
 2704TIP3    H1 8055   4.235   1.771   2.109
 2704TIP3    H2 8056   4.220   1.652   2.016
 2705TIP3   OH2 8057   5.108   2.175   2.933
 2705TIP3    H1 8058   5.027   2.226   2.942
 2705TIP3    H2 8059   5.141   2.198   2.846
 2706TIP3   OH2 8060   4.554   2.015   2.322
 2706TIP3    H1 8061   4.500   2.040   2.396
 2706TIP3    H2 8062   4.638   1.990   2.361
 2707TIP3   OH2 8063   4.786   2.054   3.236
 2707TIP3    H1 8064   4.791   2.133   3.289
 2707TIP3    H2 8065   4.704   2.062   3.189
 2708TIP3   OH2 8066   3.781   1.999   2.737
 2708TIP3    H1 8067   3.722   1.964   2.671
 2708TIP3    H2 8068   3.854   1.937   2.739
 2709TIP3   OH2 8069   3.920   2.423   2.881
 2709TIP3    H1 8070   3.899   2.389   2.794
 2709TIP3    H2 8071   4.007   2.389   2.899
 2710TIP3   OH2 8072   3.954   1.984   3.076
 2710TIP3    H1 8073   3.971   2.014   2.987
 2710TIP3    H2 8074   3.968   2.062   3.130
 2711TIP3   OH2 8075   4.449   2.619   2.869
 2711TIP3    H1 8076   4.434   2.701   2.917
 2711TIP3    H2 8077   4.432   2.551   2.934
 2712TIP3   OH2 8078   4.059   2.537   3.414
 2712TIP3    H1 8079   4.004   2.599   3.462
 2712TIP3    H2 8080   3.996   2.484   3.364
 2713TIP3   OH2 8081   4.394   1.874   2.145
 2713TIP3    H1 8082   4.451   1.932   2.196
 2713TIP3    H2 8083   4.417   1.892   2.054
 2714TIP3   OH2 8084   3.809   2.097   3.510
 2714TIP3    H1 8085   3.822   2.182   3.552
 2714TIP3    H2 8086   3.719   2.072   3.533
 2715TIP3   OH2 8087   4.141   2.548   2.421
 2715TIP3    H1 8088   4.221   2.600   2.432
 2715TIP3    H2 8089   4.079   2.609   2.381
 2716TIP3   OH2 8090   3.854   2.701   3.502
 2716TIP3    H1 8091   3.819   2.706   3.413
 2716TIP3    H2 8092   3.778   2.681   3.556
 2717TIP3   OH2 8093   4.909   1.112   2.195
 2717TIP3    H1 8094   4.830   1.131   2.245
 2717TIP3    H2 8095   4.925   1.192   2.144
 2718TIP3   OH2 8096   3.648   1.857   2.543
 2718TIP3    H1 8097   3.584   1.900   2.487
 2718TIP3    H2 8098   3.613   1.769   2.556
 2719TIP3   OH2 8099   4.712   2.480   1.742
 2719TIP3    H1 8100   4.716   2.575   1.728
 2719TIP3    H2 8101   4.802   2.450   1.730
 2720TIP3   OH2 8102   3.433   2.236   3.447
 2720TIP3    H1 8103   3.363   2.220   3.385
 2720TIP3    H2 8104   3.467   2.149   3.469
 2721TIP3   OH2 8105   3.288   2.435   3.078
 2721TIP3    H1 8106   3.384   2.434   3.076
 2721TIP3    H2 8107   3.266   2.511   3.132
 2722TIP3   OH2 8108   5.152   2.883   3.138
 2722TIP3    H1 8109   5.153   2.789   3.154
 2722TIP3    H2 8110   5.072   2.913   3.181
 2723TIP3   OH2 8111   4.255   2.668   3.272
 2723TIP3    H1 8112   4.257   2.759   3.302
 2723TIP3    H2 8113   4.188   2.626   3.325
 2724TIP3   OH2 8114   4.021   2.797   2.223
 2724TIP3    H1 8115   3.974   2.778   2.141
 2724TIP3    H2 8116   3.988   2.882   2.250
 2725TIP3   OH2 8117   3.458   2.645   2.609
 2725TIP3    H1 8118   3.505   2.639   2.692
 2725TIP3    H2 8119   3.399   2.569   2.610
 2726TIP3   OH2 8120   4.222   2.698   1.863
 2726TIP3    H1 8121   4.278   2.630   1.826
 2726TIP3    H2 8122   4.254   2.709   1.952
 2727TIP3   OH2 8123   4.272   2.747   2.133
 2727TIP3    H1 8124   4.184   2.757   2.171
 2727TIP3    H2 8125   4.325   2.711   2.204
 2728TIP3   OH2 8126   5.043   2.011   3.412
 2728TIP3    H1 8127   4.960   2.025   3.367
 2728TIP3    H2 8128   5.060   1.918   3.405
 2729TIP3   OH2 8129   3.639   2.418   3.433
 2729TIP3    H1 8130   3.685   2.410   3.516
 2729TIP3    H2 8131   3.564   2.359   3.441
 2730TIP3   OH2 8132   4.033   1.250   3.221
 2730TIP3    H1 8133   3.949   1.214   3.194
 2730TIP3    H2 8134   4.011   1.325   3.275
 2731TIP3   OH2 8135   4.573   1.356   3.418
 2731TIP3    H1 8136   4.642   1.332   3.480
 2731TIP3    H2 8137   4.491   1.339   3.465
 2732TIP3   OH2 8138   4.805   1.789   3.332
 2732TIP3    H1 8139   4.760   1.784   3.417
 2732TIP3    H2 8140   4.785   1.877   3.300
 2733TIP3   OH2 8141   4.477   1.916   1.892
 2733TIP3    H1 8142   4.435   1.894   1.809
 2733TIP3    H2 8143   4.556   1.964   1.867
 2734TIP3   OH2 8144   4.183   1.287   2.194
 2734TIP3    H1 8145   4.146   1.288   2.282
 2734TIP3    H2 8146   4.144   1.210   2.153
 2735TIP3   OH2 8147   3.967   1.763   3.237
 2735TIP3    H1 8148   3.920   1.783   3.317
 2735TIP3    H2 8149   3.958   1.842   3.183
 2736TIP3   OH2 8150   4.349   1.737   2.474
 2736TIP3    H1 8151   4.300   1.808   2.433
 2736TIP3    H2 8152   4.407   1.705   2.405
 2737TIP3   OH2 8153   4.519   2.005   3.565
 2737TIP3    H1 8154   4.495   1.935   3.627
 2737TIP3    H2 8155   4.609   2.026   3.587
 2738TIP3   OH2 8156   4.499   1.757   2.713
 2738TIP3    H1 8157   4.449   1.796   2.642
 2738TIP3    H2 8158   4.539   1.679   2.675
 2739TIP3   OH2 8159   3.790   1.787   3.449
 2739TIP3    H1 8160   3.809   1.854   3.514
 2739TIP3    H2 8161   3.777   1.707   3.499
 2740TIP3   OH2 8162   3.839   1.270   2.161
 2740TIP3    H1 8163   3.827   1.264   2.255
 2740TIP3    H2 8164   3.763   1.318   2.129
 2741TIP3   OH2 8165   3.382   1.308   3.028
 2741TIP3    H1 8166   3.453   1.342   3.083
 2741TIP3    H2 8167   3.426   1.281   2.947
 2742TIP3   OH2 8168   3.348   1.294   2.546
 2742TIP3    H1 8169   3.393   1.328   2.469
 2742TIP3    H2 8170   3.286   1.363   2.571
 2743TIP3   OH2 8171   4.502   2.002   3.139
 2743TIP3    H1 8172   4.539   1.934   3.082
 2743TIP3    H2 8173   4.477   1.956   3.218
 2744TIP3   OH2 8174   4.164   1.490   2.859
 2744TIP3    H1 8175   4.083   1.464   2.904
 2744TIP3    H2 8176   4.233   1.441   2.903
 2745TIP3   OH2 8177   3.621   1.517   2.834
 2745TIP3    H1 8178   3.533   1.535   2.802
 2745TIP3    H2 8179   3.645   1.434   2.792
 2746TIP3   OH2 8180   3.884   1.518   2.506
 2746TIP3    H1 8181   3.966   1.558   2.476
 2746TIP3    H2 8182   3.820   1.542   2.439
 2747TIP3   OH2 8183   4.679   1.547   3.017
 2747TIP3    H1 8184   4.650   1.559   3.107
 2747TIP3    H2 8185   4.620   1.480   2.982
 2748TIP3   OH2 8186   3.727   1.557   2.288
 2748TIP3    H1 8187   3.658   1.508   2.244
 2748TIP3    H2 8188   3.782   1.591   2.217
 2749TIP3   OH2 8189   4.848   3.233   3.238
 2749TIP3    H1 8190   4.844   3.259   3.146
 2749TIP3    H2 8191   4.923   3.279   3.274
 2750TIP3   OH2 8192   3.803   2.340   3.658
 2750TIP3    H1 8193   3.882   2.372   3.703
 2750TIP3    H2 8194   3.735   2.341   3.726
 2751TIP3   OH2 8195   4.257   1.761   2.868
 2751TIP3    H1 8196   4.351   1.765   2.852
 2751TIP3    H2 8197   4.248   1.752   2.963
 2752TIP3   OH2 8198   3.791   1.269   2.791
 2752TIP3    H1 8199   3.750   1.199   2.842
 2752TIP3    H2 8200   3.825   1.225   2.714
 2753TIP3   OH2 8201   4.237   1.701   3.195
 2753TIP3    H1 8202   4.150   1.734   3.216
 2753TIP3    H2 8203   4.297   1.756   3.246
 2754TIP3   OH2 8204   3.975   2.083   2.300
 2754TIP3    H1 8205   3.905   2.020   2.285
 2754TIP3    H2 8206   3.958   2.117   2.388
 2755TIP3   OH2 8207   4.876   2.320   2.921
 2755TIP3    H1 8208   4.902   2.370   2.844
 2755TIP3    H2 8209   4.792   2.281   2.898
 2756TIP3   OH2 8210   4.435   1.389   2.173
 2756TIP3    H1 8211   4.342   1.370   2.171
 2756TIP3    H2 8212   4.441   1.485   2.178
 2757TIP3   OH2 8213   4.370   2.400   3.298
 2757TIP3    H1 8214   4.405   2.387   3.386
 2757TIP3    H2 8215   4.335   2.489   3.299
 2758TIP3   OH2 8216   4.505   1.648   2.266
 2758TIP3    H1 8217   4.600   1.653   2.277
 2758TIP3    H2 8218   4.483   1.722   2.210
 2759TIP3   OH2 8219   3.673   2.109   2.978
 2759TIP3    H1 8220   3.709   2.072   2.897
 2759TIP3    H2 8221   3.698   2.046   3.046
 2760TIP3   OH2 8222   4.122   2.235   2.124
 2760TIP3    H1 8223   4.076   2.319   2.124
 2760TIP3    H2 8224   4.069   2.179   2.182
 2761TIP3   OH2 8225   3.553   2.018   3.585
 2761TIP3    H1 8226   3.569   2.010   3.679
 2761TIP3    H2 8227   3.478   1.960   3.568
 2762TIP3   OH2 8228   4.278   2.141   3.604
 2762TIP3    H1 8229   4.216   2.080   3.564
 2762TIP3    H2 8230   4.364   2.109   3.577
 2763TIP3   OH2 8231   4.533   2.656   3.194
 2763TIP3    H1 8232   4.437   2.660   3.204
 2763TIP3    H2 8233   4.566   2.708   3.267
 2764TIP3   OH2 8234   4.944   1.738   2.090
 2764TIP3    H1 8235   4.885   1.690   2.031
 2764TIP3    H2 8236   4.940   1.828   2.059
 2765TIP3   OH2 8237   5.163   2.590   3.177
 2765TIP3    H1 8238   5.067   2.588   3.173
 2765TIP3    H2 8239   5.191   2.563   3.090
 2766TIP3   OH2 8240   4.649   2.553   2.007
 2766TIP3    H1 8241   4.619   2.486   2.069
 2766TIP3    H2 8242   4.659   2.507   1.924
 2767TIP3   OH2 8243   4.642   2.184   2.837
 2767TIP3    H1 8244   4.550   2.164   2.855
 2767TIP3    H2 8245   4.676   2.105   2.795
 2768TIP3   OH2 8246   3.770   2.410   2.592
 2768TIP3    H1 8247   3.771   2.491   2.541
 2768TIP3    H2 8248   3.678   2.397   2.614
 2769TIP3   OH2 8249   3.335   1.716   2.306
 2769TIP3    H1 8250   3.380   1.798   2.323
 2769TIP3    H2 8251   3.258   1.718   2.362
 2770TIP3   OH2 8252   3.904   2.172   2.547
 2770TIP3    H1 8253   3.876   2.264   2.554
 2770TIP3    H2 8254   3.860   2.129   2.621
 2771TIP3   OH2 8255   4.044   2.754   3.065
 2771TIP3    H1 8256   4.082   2.827   3.016
 2771TIP3    H2 8257   4.116   2.719   3.117
 2772TIP3   OH2 8258   3.689   2.650   2.451
 2772TIP3    H1 8259   3.604   2.656   2.496
 2772TIP3    H2 8260   3.723   2.740   2.453
 2773TIP3   OH2 8261   4.425   2.386   3.031
 2773TIP3    H1 8262   4.411   2.389   3.126
 2773TIP3    H2 8263   4.511   2.346   3.021
 2774TIP3   OH2 8264   4.405   2.282   1.910
 2774TIP3    H1 8265   4.457   2.258   1.987
 2774TIP3    H2 8266   4.316   2.255   1.933
 2775TIP3   OH2 8267   4.674   2.917   3.071
 2775TIP3    H1 8268   4.595   2.864   3.067
 2775TIP3    H2 8269   4.662   2.984   3.004
 2776TIP3   OH2 8270   4.740   2.758   1.726
 2776TIP3    H1 8271   4.780   2.829   1.675
 2776TIP3    H2 8272   4.661   2.797   1.763
 2777TIP3   OH2 8273   3.760   1.528   3.593
 2777TIP3    H1 8274   3.665   1.536   3.606
 2777TIP3    H2 8275   3.790   1.476   3.668
 2778TIP3   OH2 8276   4.566   2.213   2.125
 2778TIP3    H1 8277   4.553   2.148   2.195
 2778TIP3    H2 8278   4.661   2.213   2.110
 2779TIP3   OH2 8279   3.482   2.615   3.224
 2779TIP3    H1 8280   3.534   2.545   3.264
 2779TIP3    H2 8281   3.496   2.690   3.281
 2780TIP3   OH2 8282   3.769   2.259   1.909
 2780TIP3    H1 8283   3.780   2.169   1.880
 2780TIP3    H2 8284   3.748   2.252   2.002
 2781TIP3   OH2 8285   3.713   2.269   2.181
 2781TIP3    H1 8286   3.785   2.242   2.239
 2781TIP3    H2 8287   3.712   2.364   2.185
 2782TIP3   OH2 8288   3.448   1.963   2.386
 2782TIP3    H1 8289   3.381   2.003   2.442
 2782TIP3    H2 8290   3.462   2.027   2.316
 2783TIP3   OH2 8291   4.605   1.588   3.273
 2783TIP3    H1 8292   4.677   1.635   3.314
 2783TIP3    H2 8293   4.590   1.512   3.329
 2784TIP3   OH2 8294   4.471   1.357   2.446
 2784TIP3    H1 8295   4.462   1.368   2.351
 2784TIP3    H2 8296   4.522   1.433   2.474
 2785TIP3   OH2 8297   3.977   2.465   2.128
 2785TIP3    H1 8298   3.892   2.487   2.165
 2785TIP3    H2 8299   3.997   2.536   2.067
 2786TIP3   OH2 8300   4.186   1.552   2.578
 2786TIP3    H1 8301   4.244   1.603   2.522
 2786TIP3    H2 8302   4.234   1.472   2.596
 2787TIP3   OH2 8303   4.441   1.843   3.351
 2787TIP3    H1 8304   4.458   1.900   3.426
 2787TIP3    H2 8305   4.493   1.764   3.369
 2788TIP3   OH2 8306   4.309   1.275   2.647
 2788TIP3    H1 8307   4.352   1.303   2.727
 2788TIP3    H2 8308   4.372   1.295   2.577
 2789TIP3   OH2 8309   3.723   2.541   2.198
 2789TIP3    H1 8310   3.695   2.608   2.135
 2789TIP3    H2 8311   3.708   2.581   2.284
 2790TIP3   OH2 8312   3.821   1.254   2.438
 2790TIP3    H1 8313   3.814   1.343   2.473
 2790TIP3    H2 8314   3.914   1.234   2.440
 2791TIP3   OH2 8315   5.071   1.745   3.332
 2791TIP3    H1 8316   4.975   1.744   3.339
 2791TIP3    H2 8317   5.089   1.705   3.247
 2792TIP3   OH2 8318   4.728   1.938   2.721
 2792TIP3    H1 8319   4.654   1.879   2.735
 2792TIP3    H2 8320   4.801   1.896   2.766
 2793TIP3   OH2 8321   3.443   2.164   2.189
 2793TIP3    H1 8322   3.505   2.237   2.199
 2793TIP3    H2 8323   3.484   2.108   2.122
 2794TIP3   OH2 8324   3.384   1.445   2.324
 2794TIP3    H1 8325   3.384   1.540   2.321
 2794TIP3    H2 8326   3.308   1.419   2.271
 2795TIP3   OH2 8327   4.698   2.898   2.664
 2795TIP3    H1 8328   4.653   2.942   2.592
 2795TIP3    H2 8329   4.791   2.914   2.647
 2796TIP3   OH2 8330   3.775   1.161   3.193
 2796TIP3    H1 8331   3.742   1.130   3.108
 2796TIP3    H2 8332   3.763   1.086   3.252
 2797TIP3   OH2 8333   3.305   2.378   2.572
 2797TIP3    H1 8334   3.247   2.410   2.642
 2797TIP3    H2 8335   3.274   2.422   2.493
 2798TIP3   OH2 8336   3.474   2.934   3.645
 2798TIP3    H1 8337   3.555   2.939   3.697
 2798TIP3    H2 8338   3.448   2.842   3.650
 2799TIP3   OH2 8339   3.949   2.886   3.690
 2799TIP3    H1 8340   4.043   2.874   3.700
 2799TIP3    H2 8341   3.924   2.825   3.620
 2800TIP3   OH2 8342   3.931   2.462   1.818
 2800TIP3    H1 8343   3.876   2.394   1.857
 2800TIP3    H2 8344   4.006   2.415   1.782
 2801TIP3   OH2 8345   4.595   2.792   3.423
 2801TIP3    H1 8346   4.584   2.727   3.492
 2801TIP3    H2 8347   4.667   2.847   3.453
 2802TIP3   OH2 8348   4.368   2.503   1.733
 2802TIP3    H1 8349   4.407   2.439   1.792
 2802TIP3    H2 8350   4.424   2.501   1.655
 2803TIP3   OH2 8351   3.599   2.330   3.845
 2803TIP3    H1 8352   3.614   2.236   3.853
 2803TIP3    H2 8353   3.513   2.337   3.803
 2804TIP3   OH2 8354   3.579   1.979   2.041
 2804TIP3    H1 8355   3.632   1.949   2.115
 2804TIP3    H2 8356   3.641   1.985   1.968
 2805TIP3   OH2 8357   4.209   2.418   3.619
 2805TIP3    H1 8358   4.166   2.439   3.536
 2805TIP3    H2 8359   4.238   2.327   3.609
 2806TIP3   OH2 8360   4.095   2.179   1.854
 2806TIP3    H1 8361   4.093   2.195   1.948
 2806TIP3    H2 8362   4.094   2.084   1.845
 2807TIP3   OH2 8363   4.697   2.430   3.224
 2807TIP3    H1 8364   4.774   2.471   3.185
 2807TIP3    H2 8365   4.628   2.496   3.216
 2808TIP3   OH2 8366   3.722   2.064   3.833
 2808TIP3    H1 8367   3.799   2.011   3.811
 2808TIP3    H2 8368   3.744   2.102   3.919
 2809TIP3   OH2 8369   3.787   1.883   2.264
 2809TIP3    H1 8370   3.752   1.840   2.342
 2809TIP3    H2 8371   3.822   1.812   2.210
 2810TIP3   OH2 8372   4.055   1.953   3.488
 2810TIP3    H1 8373   3.978   2.009   3.492
 2810TIP3    H2 8374   4.104   1.984   3.412
 2811TIP3   OH2 8375   3.889   1.680   2.102
 2811TIP3    H1 8376   3.859   1.685   2.011
 2811TIP3    H2 8377   3.984   1.684   2.095
 2812TIP3   OH2 8378   4.568   2.348   3.623
 2812TIP3    H1 8379   4.653   2.329   3.583
 2812TIP3    H2 8380   4.563   2.288   3.698
 2813TIP3   OH2 8381   4.707   2.011   1.766
 2813TIP3    H1 8382   4.686   1.962   1.687
 2813TIP3    H2 8383   4.676   2.100   1.749
 2814TIP3   OH2 8384   4.176   1.740   3.615
 2814TIP3    H1 8385   4.177   1.662   3.560
 2814TIP3    H2 8386   4.134   1.807   3.561
 2815TIP3   OH2 8387   4.179   1.526   3.421
 2815TIP3    H1 8388   4.206   1.567   3.339
 2815TIP3    H2 8389   4.087   1.503   3.407
 2816TIP3   OH2 8390   4.204   2.057   3.289
 2816TIP3    H1 8391   4.291   2.078   3.256
 2816TIP3    H2 8392   4.148   2.125   3.252
 2817TIP3   OH2 8393   4.787   2.026   3.676
 2817TIP3    H1 8394   4.835   1.945   3.694
 2817TIP3    H2 8395   4.854   2.087   3.645
 2818TIP3   OH2 8396   4.829   2.280   3.406
 2818TIP3    H1 8397   4.769   2.333   3.354
 2818TIP3    H2 8398   4.916   2.301   3.371
 2819TIP3   OH2 8399   4.054   1.845   3.847
 2819TIP3    H1 8400   3.986   1.780   3.866
 2819TIP3    H2 8401   4.089   1.820   3.762
 2820TIP3   OH2 8402   4.309   1.288   3.491
 2820TIP3    H1 8403   4.263   1.369   3.471
 2820TIP3    H2 8404   4.242   1.220   3.483
 2821TIP3   OH2 8405   4.436   1.789   3.710
 2821TIP3    H1 8406   4.429   1.778   3.805
 2821TIP3    H2 8407   4.349   1.767   3.677
 2822TIP3   OH2 8408   4.674   1.736   3.563
 2822TIP3    H1 8409   4.601   1.742   3.623
 2822TIP3    H2 8410   4.748   1.709   3.617
 2823TIP3   OH2 8411   4.904   1.682   3.714
 2823TIP3    H1 8412   4.918   1.589   3.729
 2823TIP3    H2 8413   4.899   1.721   3.801
 2824TIP3   OH2 8414   3.895   1.625   3.905
 2824TIP3    H1 8415   3.899   1.536   3.871
 2824TIP3    H2 8416   3.931   1.618   3.994
 2825TIP3   OH2 8417   4.406   1.297   3.749
 2825TIP3    H1 8418   4.472   1.229   3.747
 2825TIP3    H2 8419   4.364   1.293   3.663
 2826TIP3   OH2 8420   4.470   1.513   3.909
 2826TIP3    H1 8421   4.450   1.443   3.847
 2826TIP3    H2 8422   4.394   1.571   3.904
 2827TIP3   OH2 8423   3.695   2.741   2.007
 2827TIP3    H1 8424   3.789   2.733   1.991
 2827TIP3    H2 8425   3.662   2.792   1.933
 2828TIP3   OH2 8426   3.174   2.122   2.222
 2828TIP3    H1 8427   3.266   2.145   2.211
 2828TIP3    H2 8428   3.166   2.036   2.182
 2829TIP3   OH2 8429   3.091   2.732   2.641
 2829TIP3    H1 8430   3.023   2.676   2.603
 2829TIP3    H2 8431   3.134   2.676   2.706
 2830TIP3   OH2 8432   3.228   2.580   2.828
 2830TIP3    H1 8433   3.210   2.511   2.892
 2830TIP3    H2 8434   3.275   2.647   2.877
 2831TIP3   OH2 8435   4.954   2.984   2.628
 2831TIP3    H1 8436   4.974   3.014   2.716
 2831TIP3    H2 8437   5.014   3.033   2.571
 2832TIP3   OH2 8438   4.980   3.003   2.909
 2832TIP3    H1 8439   4.935   2.919   2.905
 2832TIP3    H2 8440   5.053   2.988   2.969
 2833TIP3   OH2 8441   5.026   2.684   3.483
 2833TIP3    H1 8442   4.954   2.691   3.545
 2833TIP3    H2 8443   5.068   2.770   3.484
 2834TIP3   OH2 8444   4.846   2.195   2.100
 2834TIP3    H1 8445   4.909   2.261   2.070
 2834TIP3    H2 8446   4.887   2.157   2.178
 2835TIP3   OH2 8447   4.971   2.061   2.305
 2835TIP3    H1 8448   4.906   2.022   2.363
 2835TIP3    H2 8449   5.036   2.099   2.364
 2836TIP3   OH2 8450   5.027   2.457   2.734
 2836TIP3    H1 8451   5.080   2.392   2.688
 2836TIP3    H2 8452   5.021   2.531   2.674
 2837TIP3   OH2 8453   4.852   2.755   2.931
 2837TIP3    H1 8454   4.785   2.800   2.983
 2837TIP3    H2 8455   4.803   2.710   2.862
 2838TIP3   OH2 8456   4.905   1.973   1.950
 2838TIP3    H1 8457   4.837   1.974   1.883
 2838TIP3    H2 8458   4.883   2.048   2.006
 2839TIP3   OH2 8459   4.789   1.639   1.890
 2839TIP3    H1 8460   4.729   1.683   1.830
 2839TIP3    H2 8461   4.763   1.547   1.888
 2840TIP3   OH2 8462   4.782   1.921   2.451
 2840TIP3    H1 8463   4.792   1.826   2.445
 2840TIP3    H2 8464   4.769   1.937   2.545
 2841TIP3   OH2 8465   3.415   1.989   3.199
 2841TIP3    H1 8466   3.405   1.960   3.108
 2841TIP3    H2 8467   3.510   1.993   3.212
 2842TIP3   OH2 8468   5.075   2.346   3.306
 2842TIP3    H1 8469   5.144   2.280   3.296
 2842TIP3    H2 8470   5.100   2.417   3.247
 2843TIP3   OH2 8471   5.257   2.145   3.316
 2843TIP3    H1 8472   5.182   2.101   3.357
 2843TIP3    H2 8473   5.331   2.086   3.332
 2844TIP3   OH2 8474   4.725   1.375   1.884
 2844TIP3    H1 8475   4.791   1.342   1.945
 2844TIP3    H2 8476   4.646   1.325   1.904
 2845TIP3   OH2 8477   4.783   1.635   2.343
 2845TIP3    H1 8478   4.821   1.549   2.360
 2845TIP3    H2 8479   4.838   1.672   2.274
 2846TIP3   OH2 8480   4.943   1.811   2.840
 2846TIP3    H1 8481   5.025   1.833   2.796
 2846TIP3    H2 8482   4.952   1.846   2.928
 2847TIP3   OH2 8483   5.008   1.957   3.070
 2847TIP3    H1 8484   4.935   1.989   3.122
 2847TIP3    H2 8485   5.043   2.034   3.026
 2848TIP3   OH2 8486   3.628   1.674   3.866
 2848TIP3    H1 8487   3.724   1.674   3.873
 2848TIP3    H2 8488   3.602   1.593   3.909
 2849TIP3   OH2 8489   5.462   1.547   3.625
 2849TIP3    H1 8490   5.521   1.483   3.586
 2849TIP3    H2 8491   5.433   1.601   3.551
 2850TIP3   OH2 8492   4.889   1.385   2.385
 2850TIP3    H1 8493   4.938   1.371   2.465
 2850TIP3    H2 8494   4.829   1.311   2.380
 2851TIP3   OH2 8495   3.591   1.371   3.198
 2851TIP3    H1 8496   3.651   1.297   3.211
 2851TIP3    H2 8497   3.649   1.447   3.196
 2852TIP3   OH2 8498   3.391   1.645   3.277
 2852TIP3    H1 8499   3.439   1.645   3.194
 2852TIP3    H2 8500   3.406   1.732   3.314
 2853TIP3   OH2 8501   5.328   1.683   3.431
 2853TIP3    H1 8502   5.247   1.727   3.458
 2853TIP3    H2 8503   5.300   1.612   3.375
 2854TIP3   OH2 8504   4.969   1.318   2.018
 2854TIP3    H1 8505   5.006   1.248   1.965
 2854TIP3    H2 8506   5.034   1.388   2.014
 2855TIP3   OH2 8507   3.374   1.146   2.772
 2855TIP3    H1 8508   3.284   1.145   2.806
 2855TIP3    H2 8509   3.371   1.206   2.697
 2856TIP3   OH2 8510   4.535   2.854   2.281
 2856TIP3    H1 8511   4.587   2.842   2.202
 2856TIP3    H2 8512   4.582   2.920   2.332
 2857TIP3   OH2 8513   3.593   1.226   3.589
 2857TIP3    H1 8514   3.547   1.224   3.673
 2857TIP3    H2 8515   3.530   1.267   3.529
 2858TIP3   OH2 8516   3.634   2.650   3.666
 2858TIP3    H1 8517   3.541   2.634   3.651
 2858TIP3    H2 8518   3.645   2.646   3.761
 2859TIP3   OH2 8519   3.816   2.692   3.210
 2859TIP3    H1 8520   3.763   2.764   3.178
 2859TIP3    H2 8521   3.902   2.705   3.169
 2860TIP3   OH2 8522   4.258   2.934   3.349
 2860TIP3    H1 8523   4.294   2.932   3.438
 2860TIP3    H2 8524   4.321   2.987   3.299
 2861TIP3   OH2 8525   4.439   3.089   3.213
 2861TIP3    H1 8526   4.509   3.036   3.175
 2861TIP3    H2 8527   4.483   3.146   3.275
 2862TIP3   OH2 8528   5.231   1.444   3.310
 2862TIP3    H1 8529   5.141   1.437   3.279
 2862TIP3    H2 8530   5.267   1.355   3.301
 2863TIP3   OH2 8531   3.488   2.949   3.241
 2863TIP3    H1 8532   3.400   2.978   3.218
 2863TIP3    H2 8533   3.505   2.989   3.326
 2864TIP3   OH2 8534   3.723   2.926   3.097
 2864TIP3    H1 8535   3.640   2.937   3.144
 2864TIP3    H2 8536   3.705   2.958   3.009
 2865TIP3   OH2 8537   4.151   2.955   2.894
 2865TIP3    H1 8538   4.081   2.973   2.831
 2865TIP3    H2 8539   4.165   3.039   2.939
 2866TIP3   OH2 8540   4.419   2.891   2.943
 2866TIP3    H1 8541   4.326   2.908   2.929
 2866TIP3    H2 8542   4.464   2.967   2.906
 2867TIP3   OH2 8543   4.626   3.084   2.858
 2867TIP3    H1 8544   4.612   3.168   2.815
 2867TIP3    H2 8545   4.652   3.025   2.788
 2868TIP3   OH2 8546   3.405   2.740   2.982
 2868TIP3    H1 8547   3.424   2.714   3.072
 2868TIP3    H2 8548   3.473   2.699   2.930
 2869TIP3   OH2 8549   3.598   2.612   2.841
 2869TIP3    H1 8550   3.609   2.531   2.890
 2869TIP3    H2 8551   3.686   2.651   2.839
 2870TIP3   OH2 8552   3.865   2.705   2.849
 2870TIP3    H1 8553   3.892   2.613   2.838
 2870TIP3    H2 8554   3.907   2.733   2.930
 2871TIP3   OH2 8555   4.412   1.340   2.899
 2871TIP3    H1 8556   4.385   1.283   2.970
 2871TIP3    H2 8557   4.501   1.313   2.879
 2872TIP3   OH2 8558   4.955   1.244   2.833
 2872TIP3    H1 8559   4.994   1.294   2.761
 2872TIP3    H2 8560   4.862   1.268   2.830
 2873TIP3   OH2 8561   5.056   1.344   2.599
 2873TIP3    H1 8562   5.126   1.289   2.564
 2873TIP3    H2 8563   5.087   1.434   2.586
 2874TIP3   OH2 8564   3.683   1.066   2.946
 2874TIP3    H1 8565   3.591   1.038   2.949
 2874TIP3    H2 8566   3.733   0.985   2.943
 2875TIP3   OH2 8567   3.475   0.944   2.598
 2875TIP3    H1 8568   3.503   0.997   2.523
 2875TIP3    H2 8569   3.445   1.007   2.663
 2876TIP3   OH2 8570   4.133   1.107   2.830
 2876TIP3    H1 8571   4.186   1.160   2.770
 2876TIP3    H2 8572   4.162   1.134   2.917
 2877TIP3   OH2 8573   4.664   1.249   2.814
 2877TIP3    H1 8574   4.683   1.212   2.728
 2877TIP3    H2 8575   4.658   1.174   2.872
 2878TIP3   OH2 8576   4.705   1.172   2.376
 2878TIP3    H1 8577   4.617   1.210   2.379
 2878TIP3    H2 8578   4.697   1.088   2.421
 2879TIP3   OH2 8579   3.187   2.517   2.371
 2879TIP3    H1 8580   3.103   2.482   2.341
 2879TIP3    H2 8581   3.182   2.610   2.352
 2880TIP3   OH2 8582   3.591   1.097   2.359
 2880TIP3    H1 8583   3.635   1.034   2.301
 2880TIP3    H2 8584   3.662   1.151   2.394
 2881TIP3   OH2 8585   4.096   1.285   2.458
 2881TIP3    H1 8586   4.156   1.239   2.517
 2881TIP3    H2 8587   4.096   1.376   2.489
 2882TIP3   OH2 8588   3.964   2.696   1.955
 2882TIP3    H1 8589   4.049   2.723   1.921
 2882TIP3    H2 8590   3.938   2.623   1.899
 2883TIP3   OH2 8591   4.682   2.820   2.048
 2883TIP3    H1 8592   4.675   2.725   2.040
 2883TIP3    H2 8593   4.636   2.854   1.972
 2884TIP3   OH2 8594   3.894   1.349   3.838
 2884TIP3    H1 8595   3.856   1.281   3.894
 2884TIP3    H2 8596   3.987   1.352   3.864
 2885TIP3   OH2 8597   4.142   1.347   3.957
 2885TIP3    H1 8598   4.228   1.324   3.919
 2885TIP3    H2 8599   4.127   1.280   4.024
 2886TIP3   OH2 8600   3.265   2.534   2.012
 2886TIP3    H1 8601   3.264   2.560   2.104
 2886TIP3    H2 8602   3.351   2.494   2.000
 2887TIP3   OH2 8603   4.970   1.412   3.745
 2887TIP3    H1 8604   4.985   1.382   3.835
 2887TIP3    H2 8605   5.056   1.408   3.704
 2888TIP3   OH2 8606   4.905   2.965   3.231
 2888TIP3    H1 8607   4.827   2.932   3.187
 2888TIP3    H2 8608   4.889   3.058   3.243
 2889TIP3   OH2 8609   6.171   2.338   1.999
 2889TIP3    H1 8610   6.144   2.428   1.981
 2889TIP3    H2 8611   6.097   2.285   1.970
 2890TIP3   OH2 8612   6.171   2.335   2.390
 2890TIP3    H1 8613   6.206   2.313   2.476
 2890TIP3    H2 8614   6.130   2.255   2.359
 2891TIP3   OH2 8615   5.471   2.228   2.751
 2891TIP3    H1 8616   5.498   2.160   2.814
 2891TIP3    H2 8617   5.545   2.288   2.747
 2892TIP3   OH2 8618   6.417   2.640   2.070
 2892TIP3    H1 8619   6.402   2.571   2.134
 2892TIP3    H2 8620   6.446   2.715   2.121
 2893TIP3   OH2 8621   5.445   2.638   2.470
 2893TIP3    H1 8622   5.433   2.543   2.473
 2893TIP3    H2 8623   5.540   2.650   2.468
 2894TIP3   OH2 8624   5.147   1.842   2.253
 2894TIP3    H1 8625   5.107   1.926   2.275
 2894TIP3    H2 8626   5.077   1.790   2.214
 2895TIP3   OH2 8627   5.208   2.129   2.432
 2895TIP3    H1 8628   5.257   2.055   2.469
 2895TIP3    H2 8629   5.271   2.171   2.373
 2896TIP3   OH2 8630   6.068   3.099   2.084
 2896TIP3    H1 8631   6.110   3.029   2.033
 2896TIP3    H2 8632   6.058   3.061   2.171
 2897TIP3   OH2 8633   5.973   2.562   2.432
 2897TIP3    H1 8634   6.009   2.484   2.388
 2897TIP3    H2 8635   6.051   2.611   2.459
 2898TIP3   OH2 8636   6.985   1.884   2.428
 2898TIP3    H1 8637   7.013   1.964   2.472
 2898TIP3    H2 8638   7.011   1.895   2.337
 2899TIP3   OH2 8639   6.382   2.060   2.462
 2899TIP3    H1 8640   6.426   1.979   2.485
 2899TIP3    H2 8641   6.351   2.046   2.372
 2900TIP3   OH2 8642   5.720   1.722   2.426
 2900TIP3    H1 8643   5.704   1.795   2.367
 2900TIP3    H2 8644   5.673   1.649   2.387
 2901TIP3   OH2 8645   6.419   1.815   2.050
 2901TIP3    H1 8646   6.486   1.800   2.116
 2901TIP3    H2 8647   6.467   1.849   1.975
 2902TIP3   OH2 8648   5.357   1.923   2.536
 2902TIP3    H1 8649   5.436   1.907   2.587
 2902TIP3    H2 8650   5.368   1.870   2.457
 2903TIP3   OH2 8651   5.796   2.120   2.331
 2903TIP3    H1 8652   5.888   2.099   2.344
 2903TIP3    H2 8653   5.757   2.039   2.300
 2904TIP3   OH2 8654   7.056   2.091   2.602
 2904TIP3    H1 8655   6.973   2.135   2.581
 2904TIP3    H2 8656   7.077   2.120   2.690
 2905TIP3   OH2 8657   5.715   1.707   2.865
 2905TIP3    H1 8658   5.659   1.743   2.796
 2905TIP3    H2 8659   5.666   1.722   2.946
 2906TIP3   OH2 8660   6.058   2.558   1.871
 2906TIP3    H1 8661   6.022   2.540   1.785
 2906TIP3    H2 8662   6.017   2.639   1.899
 2907TIP3   OH2 8663   5.823   2.484   2.656
 2907TIP3    H1 8664   5.763   2.549   2.693
 2907TIP3    H2 8665   5.867   2.530   2.584
 2908TIP3   OH2 8666   6.622   1.821   2.229
 2908TIP3    H1 8667   6.611   1.774   2.311
 2908TIP3    H2 8668   6.676   1.897   2.252
 2909TIP3   OH2 8669   5.592   1.822   2.647
 2909TIP3    H1 8670   5.649   1.894   2.672
 2909TIP3    H2 8671   5.638   1.780   2.574
 2910TIP3   OH2 8672   5.650   2.680   2.755
 2910TIP3    H1 8673   5.630   2.766   2.719
 2910TIP3    H2 8674   5.576   2.659   2.812
 2911TIP3   OH2 8675   5.045   2.369   1.992
 2911TIP3    H1 8676   5.003   2.394   1.909
 2911TIP3    H2 8677   5.075   2.452   2.029
 2912TIP3   OH2 8678   6.482   2.885   2.232
 2912TIP3    H1 8679   6.396   2.873   2.271
 2912TIP3    H2 8680   6.477   2.969   2.187
 2913TIP3   OH2 8681   6.779   1.781   2.594
 2913TIP3    H1 8682   6.692   1.809   2.565
 2913TIP3    H2 8683   6.838   1.812   2.526
 2914TIP3   OH2 8684   6.068   1.421   2.580
 2914TIP3    H1 8685   6.058   1.327   2.598
 2914TIP3    H2 8686   5.994   1.462   2.625
 2915TIP3   OH2 8687   6.187   2.926   1.902
 2915TIP3    H1 8688   6.233   2.844   1.885
 2915TIP3    H2 8689   6.244   2.994   1.865
 2916TIP3   OH2 8690   6.329   2.710   1.818
 2916TIP3    H1 8691   6.293   2.631   1.777
 2916TIP3    H2 8692   6.366   2.680   1.900
 2917TIP3   OH2 8693   6.710   2.793   2.575
 2917TIP3    H1 8694   6.699   2.716   2.518
 2917TIP3    H2 8695   6.693   2.868   2.517
 2918TIP3   OH2 8696   6.002   2.188   1.833
 2918TIP3    H1 8697   5.923   2.240   1.814
 2918TIP3    H2 8698   6.050   2.186   1.751
 2919TIP3   OH2 8699   5.964   1.974   1.547
 2919TIP3    H1 8700   6.026   2.026   1.598
 2919TIP3    H2 8701   6.018   1.912   1.499
 2920TIP3   OH2 8702   6.905   2.436   2.422
 2920TIP3    H1 8703   6.822   2.484   2.429
 2920TIP3    H2 8704   6.936   2.454   2.334
 2921TIP3   OH2 8705   6.351   2.271   1.806
 2921TIP3    H1 8706   6.296   2.295   1.881
 2921TIP3    H2 8707   6.434   2.245   1.846
 2922TIP3   OH2 8708   6.583   2.310   2.721
 2922TIP3    H1 8709   6.583   2.391   2.773
 2922TIP3    H2 8710   6.499   2.312   2.674
 2923TIP3   OH2 8711   5.583   2.265   2.223
 2923TIP3    H1 8712   5.544   2.210   2.155
 2923TIP3    H2 8713   5.659   2.215   2.253
 2924TIP3   OH2 8714   5.715   2.680   2.368
 2924TIP3    H1 8715   5.693   2.642   2.283
 2924TIP3    H2 8716   5.802   2.646   2.388
 2925TIP3   OH2 8717   5.718   2.241   2.575
 2925TIP3    H1 8718   5.751   2.217   2.488
 2925TIP3    H2 8719   5.760   2.324   2.595
 2926TIP3   OH2 8720   6.244   2.877   2.355
 2926TIP3    H1 8721   6.231   2.956   2.408
 2926TIP3    H2 8722   6.229   2.805   2.416
 2927TIP3   OH2 8723   5.854   2.796   2.902
 2927TIP3    H1 8724   5.798   2.858   2.948
 2927TIP3    H2 8725   5.793   2.743   2.851
 2928TIP3   OH2 8726   6.190   2.132   1.631
 2928TIP3    H1 8727   6.248   2.188   1.683
 2928TIP3    H2 8728   6.214   2.151   1.540
 2929TIP3   OH2 8729   5.610   2.352   3.005
 2929TIP3    H1 8730   5.619   2.438   3.045
 2929TIP3    H2 8731   5.517   2.330   3.016
 2930TIP3   OH2 8732   5.937   2.807   1.906
 2930TIP3    H1 8733   6.018   2.857   1.917
 2930TIP3    H2 8734   5.875   2.870   1.868
 2931TIP3   OH2 8735   5.649   2.963   2.990
 2931TIP3    H1 8736   5.616   2.964   2.900
 2931TIP3    H2 8737   5.573   2.941   3.043
 2932TIP3   OH2 8738   6.703   1.367   1.679
 2932TIP3    H1 8739   6.625   1.388   1.730
 2932TIP3    H2 8740   6.720   1.446   1.628
 2933TIP3   OH2 8741   5.450   2.111   2.020
 2933TIP3    H1 8742   5.383   2.156   1.969
 2933TIP3    H2 8743   5.411   2.027   2.042
 2934TIP3   OH2 8744   6.509   2.737   1.229
 2934TIP3    H1 8745   6.514   2.831   1.215
 2934TIP3    H2 8746   6.598   2.705   1.217
 2935TIP3   OH2 8747   5.229   2.494   2.934
 2935TIP3    H1 8748   5.164   2.473   2.868
 2935TIP3    H2 8749   5.267   2.409   2.958
 2936TIP3   OH2 8750   5.086   2.688   2.568
 2936TIP3    H1 8751   5.181   2.685   2.560
 2936TIP3    H2 8752   5.069   2.766   2.621
 2937TIP3   OH2 8753   6.947   3.139   2.627
 2937TIP3    H1 8754   6.948   3.044   2.638
 2937TIP3    H2 8755   6.866   3.167   2.669
 2938TIP3   OH2 8756   6.052   2.925   2.760
 2938TIP3    H1 8757   6.052   3.016   2.789
 2938TIP3    H2 8758   5.983   2.883   2.811
 2939TIP3   OH2 8759   5.816   3.053   1.710
 2939TIP3    H1 8760   5.771   3.035   1.627
 2939TIP3    H2 8761   5.785   3.140   1.736
 2940TIP3   OH2 8762   5.254   2.900   2.097
 2940TIP3    H1 8763   5.301   2.894   2.180
 2940TIP3    H2 8764   5.198   2.823   2.096
 2941TIP3   OH2 8765   6.018   2.954   1.349
 2941TIP3    H1 8766   6.074   2.886   1.313
 2941TIP3    H2 8767   6.050   2.966   1.438
 2942TIP3   OH2 8768   6.067   3.003   1.620
 2942TIP3    H1 8769   5.981   3.013   1.660
 2942TIP3    H2 8770   6.121   2.966   1.689
 2943TIP3   OH2 8771   6.837   2.268   2.897
 2943TIP3    H1 8772   6.756   2.281   2.849
 2943TIP3    H2 8773   6.855   2.174   2.891
 2944TIP3   OH2 8774   5.435   2.676   2.920
 2944TIP3    H1 8775   5.483   2.664   3.002
 2944TIP3    H2 8776   5.361   2.616   2.927
 2945TIP3   OH2 8777   5.830   1.502   2.710
 2945TIP3    H1 8778   5.745   1.470   2.681
 2945TIP3    H2 8779   5.810   1.582   2.758
 2946TIP3   OH2 8780   6.369   1.614   2.905
 2946TIP3    H1 8781   6.437   1.588   2.966
 2946TIP3    H2 8782   6.287   1.595   2.950
 2947TIP3   OH2 8783   6.604   2.045   2.821
 2947TIP3    H1 8784   6.557   2.042   2.905
 2947TIP3    H2 8785   6.581   2.131   2.785
 2948TIP3   OH2 8786   6.266   2.173   1.374
 2948TIP3    H1 8787   6.231   2.149   1.288
 2948TIP3    H2 8788   6.350   2.216   1.354
 2949TIP3   OH2 8789   5.969   1.552   1.677
 2949TIP3    H1 8790   5.945   1.551   1.769
 2949TIP3    H2 8791   5.942   1.466   1.644
 2950TIP3   OH2 8792   5.764   2.019   2.726
 2950TIP3    H1 8793   5.717   2.037   2.808
 2950TIP3    H2 8794   5.750   2.098   2.673
 2951TIP3   OH2 8795   5.648   1.901   2.238
 2951TIP3    H1 8796   5.558   1.878   2.260
 2951TIP3    H2 8797   5.663   1.862   2.153
 2952TIP3   OH2 8798   6.139   1.988   1.967
 2952TIP3    H1 8799   6.088   2.058   1.926
 2952TIP3    H2 8800   6.196   1.955   1.897
 2953TIP3   OH2 8801   6.316   2.263   3.055
 2953TIP3    H1 8802   6.291   2.192   3.114
 2953TIP3    H2 8803   6.408   2.279   3.075
 2954TIP3   OH2 8804   6.295   2.012   2.203
 2954TIP3    H1 8805   6.234   2.045   2.136
 2954TIP3    H2 8806   6.333   1.934   2.164
 2955TIP3   OH2 8807   5.585   2.044   2.937
 2955TIP3    H1 8808   5.613   2.109   3.001
 2955TIP3    H2 8809   5.574   1.964   2.987
 2956TIP3   OH2 8810   5.627   1.513   1.647
 2956TIP3    H1 8811   5.629   1.514   1.742
 2956TIP3    H2 8812   5.558   1.577   1.624
 2957TIP3   OH2 8813   5.179   1.566   2.515
 2957TIP3    H1 8814   5.251   1.599   2.570
 2957TIP3    H2 8815   5.223   1.535   2.436
 2958TIP3   OH2 8816   5.144   1.546   2.029
 2958TIP3    H1 8817   5.204   1.578   1.961
 2958TIP3    H2 8818   5.089   1.622   2.049
 2959TIP3   OH2 8819   6.306   2.259   2.627
 2959TIP3    H1 8820   6.340   2.192   2.568
 2959TIP3    H2 8821   6.277   2.210   2.704
 2960TIP3   OH2 8822   5.979   1.725   2.302
 2960TIP3    H1 8823   5.900   1.723   2.356
 2960TIP3    H2 8824   6.051   1.718   2.365
 2961TIP3   OH2 8825   5.411   1.781   2.307
 2961TIP3    H1 8826   5.319   1.787   2.281
 2961TIP3    H2 8827   5.436   1.691   2.287
 2962TIP3   OH2 8828   5.679   1.774   1.999
 2962TIP3    H1 8829   5.771   1.790   1.983
 2962TIP3    H2 8830   5.635   1.801   1.918
 2963TIP3   OH2 8831   6.468   1.800   2.506
 2963TIP3    H1 8832   6.438   1.814   2.596
 2963TIP3    H2 8833   6.404   1.741   2.468
 2964TIP3   OH2 8834   5.527   1.816   1.773
 2964TIP3    H1 8835   5.465   1.765   1.721
 2964TIP3    H2 8836   5.584   1.858   1.708
 2965TIP3   OH2 8837   6.643   3.490   2.723
 2965TIP3    H1 8838   6.638   3.513   2.630
 2965TIP3    H2 8839   6.720   3.537   2.755
 2966TIP3   OH2 8840   5.597   2.599   3.146
 2966TIP3    H1 8841   5.676   2.630   3.190
 2966TIP3    H2 8842   5.530   2.599   3.214
 2967TIP3   OH2 8843   6.060   2.053   2.399
 2967TIP3    H1 8844   6.133   2.015   2.350
 2967TIP3    H2 8845   6.065   2.012   2.485
 2968TIP3   OH2 8846   5.576   1.538   2.280
 2968TIP3    H1 8847   5.543   1.463   2.330
 2968TIP3    H2 8848   5.633   1.499   2.214
 2969TIP3   OH2 8849   6.035   1.954   2.688
 2969TIP3    H1 8850   5.947   1.988   2.703
 2969TIP3    H2 8851   6.092   2.012   2.737
 2970TIP3   OH2 8852   5.771   2.339   1.784
 2970TIP3    H1 8853   5.700   2.277   1.769
 2970TIP3    H2 8854   5.755   2.374   1.872
 2971TIP3   OH2 8855   6.671   2.577   2.409
 2971TIP3    H1 8856   6.696   2.627   2.331
 2971TIP3    H2 8857   6.588   2.535   2.385
 2972TIP3   OH2 8858   6.227   1.651   1.653
 2972TIP3    H1 8859   6.132   1.637   1.657
 2972TIP3    H2 8860   6.238   1.744   1.673
 2973TIP3   OH2 8861   6.171   2.659   2.782
 2973TIP3    H1 8862   6.200   2.640   2.871
 2973TIP3    H2 8863   6.133   2.747   2.787
 2974TIP3   OH2 8864   6.300   1.902   1.750
 2974TIP3    H1 8865   6.394   1.905   1.765
 2974TIP3    H2 8866   6.282   1.980   1.698
 2975TIP3   OH2 8867   5.465   2.359   2.457
 2975TIP3    H1 8868   5.504   2.334   2.373
 2975TIP3    H2 8869   5.510   2.304   2.522
 2976TIP3   OH2 8870   5.916   2.490   1.605
 2976TIP3    H1 8871   5.871   2.575   1.608
 2976TIP3    H2 8872   5.865   2.435   1.664
 2977TIP3   OH2 8873   5.348   2.280   3.073
 2977TIP3    H1 8874   5.368   2.271   3.167
 2977TIP3    H2 8875   5.278   2.217   3.057
 2978TIP3   OH2 8876   6.074   2.397   3.091
 2978TIP3    H1 8877   6.012   2.340   3.046
 2978TIP3    H2 8878   6.160   2.365   3.065
 2979TIP3   OH2 8879   6.330   2.920   2.680
 2979TIP3    H1 8880   6.235   2.917   2.689
 2979TIP3    H2 8881   6.360   2.971   2.755
 2980TIP3   OH2 8882   6.737   1.993   1.583
 2980TIP3    H1 8883   6.677   1.946   1.525
 2980TIP3    H2 8884   6.740   2.082   1.547
 2981TIP3   OH2 8885   6.959   2.850   2.662
 2981TIP3    H1 8886   6.864   2.845   2.659
 2981TIP3    H2 8887   6.988   2.821   2.576
 2982TIP3   OH2 8888   6.442   2.810   1.493
 2982TIP3    H1 8889   6.417   2.741   1.555
 2982TIP3    H2 8890   6.456   2.764   1.411
 2983TIP3   OH2 8891   6.437   2.438   2.326
 2983TIP3    H1 8892   6.345   2.416   2.342
 2983TIP3    H2 8893   6.473   2.360   2.283
 2984TIP3   OH2 8894   5.566   2.668   2.082
 2984TIP3    H1 8895   5.567   2.749   2.030
 2984TIP3    H2 8896   5.473   2.652   2.100
 2985TIP3   OH2 8897   5.135   1.967   1.797
 2985TIP3    H1 8898   5.181   2.050   1.812
 2985TIP3    H2 8899   5.057   1.973   1.852
 2986TIP3   OH2 8900   5.698   2.432   2.027
 2986TIP3    H1 8901   5.667   2.521   2.043
 2986TIP3    H2 8902   5.666   2.381   2.101
 2987TIP3   OH2 8903   5.839   3.011   2.552
 2987TIP3    H1 8904   5.878   3.083   2.502
 2987TIP3    H2 8905   5.913   2.973   2.600
 2988TIP3   OH2 8906   5.484   2.908   1.937
 2988TIP3    H1 8907   5.400   2.913   1.982
 2988TIP3    H2 8908   5.517   2.998   1.939
 2989TIP3   OH2 8909   6.223   2.645   2.515
 2989TIP3    H1 8910   6.211   2.645   2.610
 2989TIP3    H2 8911   6.302   2.593   2.500
 2990TIP3   OH2 8912   6.200   2.539   1.400
 2990TIP3    H1 8913   6.256   2.515   1.474
 2990TIP3    H2 8914   6.112   2.511   1.426
 2991TIP3   OH2 8915   6.470   3.177   2.561
 2991TIP3    H1 8916   6.393   3.121   2.557
 2991TIP3    H2 8917   6.457   3.241   2.491
 2992TIP3   OH2 8918   6.536   3.014   1.214
 2992TIP3    H1 8919   6.578   3.084   1.164
 2992TIP3    H2 8920   6.457   3.054   1.249
 2993TIP3   OH2 8921   5.556   1.787   3.080
 2993TIP3    H1 8922   5.461   1.792   3.092
 2993TIP3    H2 8923   5.587   1.732   3.152
 2994TIP3   OH2 8924   6.363   2.470   1.612
 2994TIP3    H1 8925   6.350   2.404   1.681
 2994TIP3    H2 8926   6.457   2.470   1.597
 2995TIP3   OH2 8927   5.277   2.872   2.711
 2995TIP3    H1 8928   5.329   2.801   2.748
 2995TIP3    H2 8929   5.294   2.947   2.768
 2996TIP3   OH2 8930   5.562   2.516   1.396
 2996TIP3    H1 8931   5.578   2.426   1.368
 2996TIP3    H2 8932   5.544   2.510   1.490
 2997TIP3   OH2 8933   5.509   2.525   1.668
 2997TIP3    H1 8934   5.581   2.495   1.725
 2997TIP3    H2 8935   5.510   2.620   1.674
 2998TIP3   OH2 8936   5.240   2.217   1.871
 2998TIP3    H1 8937   5.176   2.259   1.928
 2998TIP3    H2 8938   5.257   2.282   1.803
 2999TIP3   OH2 8939   6.397   1.851   2.764
 2999TIP3    H1 8940   6.476   1.891   2.801
 2999TIP3    H2 8941   6.384   1.772   2.817
 3000TIP3   OH2 8942   6.276   1.604   1.930
 3000TIP3    H1 8943   6.263   1.623   1.837
 3000TIP3    H2 8944   6.316   1.683   1.966
 3001TIP3   OH2 8945   5.773   2.721   1.614
 3001TIP3    H1 8946   5.688   2.744   1.652
 3001TIP3    H2 8947   5.794   2.795   1.558
 3002TIP3   OH2 8948   5.959   1.787   2.033
 3002TIP3    H1 8949   6.023   1.855   2.012
 3002TIP3    H2 8950   5.966   1.775   2.127
 3003TIP3   OH2 8951   6.235   2.100   2.837
 3003TIP3    H1 8952   6.257   2.153   2.914
 3003TIP3    H2 8953   6.287   2.020   2.848
 3004TIP3   OH2 8954   6.107   1.508   2.130
 3004TIP3    H1 8955   6.102   1.580   2.192
 3004TIP3    H2 8956   6.167   1.539   2.062
 3005TIP3   OH2 8957   5.518   2.797   1.685
 3005TIP3    H1 8958   5.490   2.865   1.623
 3005TIP3    H2 8959   5.504   2.837   1.771
 3006TIP3   OH2 8960   5.624   1.512   1.920
 3006TIP3    H1 8961   5.618   1.600   1.958
 3006TIP3    H2 8962   5.716   1.488   1.928
 3007TIP3   OH2 8963   6.870   2.002   2.818
 3007TIP3    H1 8964   6.775   2.002   2.827
 3007TIP3    H2 8965   6.886   1.960   2.734
 3008TIP3   OH2 8966   6.523   2.195   2.207
 3008TIP3    H1 8967   6.448   2.137   2.218
 3008TIP3    H2 8968   6.595   2.151   2.253
 3009TIP3   OH2 8969   5.241   2.422   1.674
 3009TIP3    H1 8970   5.305   2.492   1.687
 3009TIP3    H2 8971   5.280   2.364   1.609
 3010TIP3   OH2 8972   5.149   1.691   1.768
 3010TIP3    H1 8973   5.181   1.781   1.775
 3010TIP3    H2 8974   5.063   1.693   1.810
 3011TIP3   OH2 8975   6.494   3.156   2.152
 3011TIP3    H1 8976   6.449   3.200   2.080
 3011TIP3    H2 8977   6.587   3.172   2.135
 3012TIP3   OH2 8978   5.567   1.418   2.681
 3012TIP3    H1 8979   5.538   1.387   2.595
 3012TIP3    H2 8980   5.558   1.343   2.739
 3013TIP3   OH2 8981   5.102   2.637   2.059
 3013TIP3    H1 8982   5.042   2.668   2.127
 3013TIP3    H2 8983   5.072   2.680   1.979
 3014TIP3   OH2 8984   5.270   3.186   3.130
 3014TIP3    H1 8985   5.351   3.190   3.180
 3014TIP3    H2 8986   5.244   3.093   3.133
 3015TIP3   OH2 8987   5.755   3.143   3.174
 3015TIP3    H1 8988   5.846   3.114   3.182
 3015TIP3    H2 8989   5.718   3.088   3.105
 3016TIP3   OH2 8990   5.725   2.718   1.304
 3016TIP3    H1 8991   5.671   2.651   1.344
 3016TIP3    H2 8992   5.802   2.671   1.273
 3017TIP3   OH2 8993   6.384   3.053   2.915
 3017TIP3    H1 8994   6.377   2.984   2.980
 3017TIP3    H2 8995   6.460   3.104   2.942
 3018TIP3   OH2 8996   6.163   2.758   1.219
 3018TIP3    H1 8997   6.203   2.696   1.279
 3018TIP3    H2 8998   6.219   2.757   1.142
 3019TIP3   OH2 8999   5.395   2.587   3.333
 3019TIP3    H1 9000   5.411   2.493   3.341
 3019TIP3    H2 9001   5.309   2.592   3.291
 3020TIP3   OH2 9002   5.377   2.234   1.530
 3020TIP3    H1 9003   5.431   2.207   1.605
 3020TIP3    H2 9004   5.439   2.240   1.458
 3021TIP3   OH2 9005   6.004   2.674   3.107
 3021TIP3    H1 9006   5.961   2.693   3.023
 3021TIP3    H2 9007   6.034   2.584   3.098
 3022TIP3   OH2 9008   5.884   2.434   1.338
 3022TIP3    H1 9009   5.887   2.450   1.432
 3022TIP3    H2 9010   5.885   2.339   1.330
 3023TIP3   OH2 9011   6.495   2.687   2.714
 3023TIP3    H1 9012   6.571   2.728   2.671
 3023TIP3    H2 9013   6.424   2.751   2.702
 3024TIP3   OH2 9014   5.516   2.322   3.320
 3024TIP3    H1 9015   5.592   2.269   3.294
 3024TIP3    H2 9016   5.540   2.356   3.406
 3025TIP3   OH2 9017   5.575   2.143   1.747
 3025TIP3    H1 9018   5.552   2.108   1.832
 3025TIP3    H2 9019   5.615   2.070   1.700
 3026TIP3   OH2 9020   5.849   2.207   2.977
 3026TIP3    H1 9021   5.773   2.265   2.981
 3026TIP3    H2 9022   5.898   2.239   2.901
 3027TIP3   OH2 9023   5.686   1.937   1.589
 3027TIP3    H1 9024   5.658   1.944   1.498
 3027TIP3    H2 9025   5.781   1.943   1.585
 3028TIP3   OH2 9026   6.368   2.607   3.112
 3028TIP3    H1 9027   6.446   2.580   3.063
 3028TIP3    H2 9028   6.361   2.545   3.184
 3029TIP3   OH2 9029   6.499   2.267   1.254
 3029TIP3    H1 9030   6.480   2.219   1.174
 3029TIP3    H2 9031   6.469   2.356   1.236
 3030TIP3   OH2 9032   5.972   1.996   3.102
 3030TIP3    H1 9033   5.974   1.918   3.047
 3030TIP3    H2 9034   5.930   2.062   3.047
 3031TIP3   OH2 9035   5.975   1.782   2.910
 3031TIP3    H1 9036   6.004   1.823   2.828
 3031TIP3    H2 9037   5.884   1.759   2.894
 3032TIP3   OH2 9038   6.000   2.317   2.783
 3032TIP3    H1 9039   6.085   2.328   2.741
 3032TIP3    H2 9040   5.944   2.382   2.740
 3033TIP3   OH2 9041   6.584   2.283   3.164
 3033TIP3    H1 9042   6.629   2.199   3.177
 3033TIP3    H2 9043   6.651   2.341   3.128
 3034TIP3   OH2 9044   6.625   2.539   2.898
 3034TIP3    H1 9045   6.566   2.591   2.844
 3034TIP3    H2 9046   6.712   2.557   2.863
 3035TIP3   OH2 9047   5.851   2.101   3.335
 3035TIP3    H1 9048   5.784   2.036   3.352
 3035TIP3    H2 9049   5.886   2.078   3.249
 3036TIP3   OH2 9050   6.105   1.545   2.980
 3036TIP3    H1 9051   6.060   1.627   2.958
 3036TIP3    H2 9052   6.039   1.477   2.970
 3037TIP3   OH2 9053   6.231   2.046   3.197
 3037TIP3    H1 9054   6.222   2.034   3.292
 3037TIP3    H2 9055   6.144   2.024   3.162
 3038TIP3   OH2 9056   6.472   1.997   3.052
 3038TIP3    H1 9057   6.397   1.999   3.112
 3038TIP3    H2 9058   6.546   1.968   3.106
 3039TIP3   OH2 9059   6.702   1.939   3.202
 3039TIP3    H1 9060   6.715   1.846   3.217
 3039TIP3    H2 9061   6.697   1.977   3.290
 3040TIP3   OH2 9062   5.690   1.882   3.392
 3040TIP3    H1 9063   5.694   1.793   3.357
 3040TIP3    H2 9064   5.727   1.874   3.481
 3041TIP3   OH2 9065   6.202   1.553   3.237
 3041TIP3    H1 9066   6.268   1.485   3.234
 3041TIP3    H2 9067   6.160   1.550   3.151
 3042TIP3   OH2 9068   6.266   1.769   3.396
 3042TIP3    H1 9069   6.247   1.699   3.334
 3042TIP3    H2 9070   6.190   1.827   3.390
 3043TIP3   OH2 9071   5.492   2.999   1.494
 3043TIP3    H1 9072   5.586   2.989   1.478
 3043TIP3    H2 9073   5.460   3.050   1.420
 3044TIP3   OH2 9074   4.970   2.380   1.709
 3044TIP3    H1 9075   5.063   2.403   1.698
 3044TIP3    H2 9076   4.962   2.293   1.668
 3045TIP3   OH2 9077   4.886   2.989   2.128
 3045TIP3    H1 9078   4.819   2.932   2.090
 3045TIP3    H2 9079   4.930   2.933   2.192
 3046TIP3   OH2 9080   5.022   2.838   2.316
 3046TIP3    H1 9081   5.006   2.768   2.379
 3046TIP3    H2 9082   5.071   2.904   2.365
 3047TIP3   OH2 9083   6.749   3.242   2.115
 3047TIP3    H1 9084   6.772   3.274   2.202
 3047TIP3    H2 9085   6.811   3.285   2.056
 3048TIP3   OH2 9086   6.776   3.260   2.398
 3048TIP3    H1 9087   6.730   3.177   2.391
 3048TIP3    H2 9088   6.851   3.242   2.454
 3049TIP3   OH2 9089   6.822   2.942   2.970
 3049TIP3    H1 9090   6.750   2.949   3.033
 3049TIP3    H2 9091   6.864   3.028   2.972
 3050TIP3   OH2 9092   6.641   2.453   1.588
 3050TIP3    H1 9093   6.705   2.518   1.557
 3050TIP3    H2 9094   6.682   2.415   1.666
 3051TIP3   OH2 9095   6.766   2.321   1.794
 3051TIP3    H1 9096   6.700   2.279   1.850
 3051TIP3    H2 9097   6.831   2.357   1.855
 3052TIP3   OH2 9098   6.823   2.714   2.222
 3052TIP3    H1 9099   6.875   2.648   2.177
 3052TIP3    H2 9100   6.817   2.786   2.159
 3053TIP3   OH2 9101   6.648   3.013   2.417
 3053TIP3    H1 9102   6.580   3.055   2.469
 3053TIP3    H2 9103   6.601   2.967   2.348
 3054TIP3   OH2 9104   6.701   2.231   1.437
 3054TIP3    H1 9105   6.632   2.229   1.371
 3054TIP3    H2 9106   6.678   2.304   1.494
 3055TIP3   OH2 9107   6.572   1.903   1.390
 3055TIP3    H1 9108   6.529   1.936   1.310
 3055TIP3    H2 9109   6.550   1.810   1.392
 3056TIP3   OH2 9110   6.578   2.177   1.937
 3056TIP3    H1 9111   6.588   2.082   1.930
 3056TIP3    H2 9112   6.564   2.192   2.031
 3057TIP3   OH2 9113   5.207   2.248   2.684
 3057TIP3    H1 9114   5.202   2.218   2.593
 3057TIP3    H2 9115   5.301   2.251   2.702
 3058TIP3   OH2 9116   6.871   2.602   2.794
 3058TIP3    H1 9117   6.940   2.537   2.785
 3058TIP3    H2 9118   6.894   2.671   2.731
 3059TIP3   OH2 9119   7.053   2.402   2.806
 3059TIP3    H1 9120   6.978   2.357   2.844
 3059TIP3    H2 9121   7.126   2.342   2.821
 3060TIP3   OH2 9122   6.512   1.642   1.393
 3060TIP3    H1 9123   6.591   1.604   1.432
 3060TIP3    H2 9124   6.447   1.572   1.396
 3061TIP3   OH2 9125   6.578   1.892   1.828
 3061TIP3    H1 9126   6.616   1.806   1.846
 3061TIP3    H2 9127   6.633   1.928   1.758
 3062TIP3   OH2 9128   6.739   2.068   2.328
 3062TIP3    H1 9129   6.821   2.090   2.284
 3062TIP3    H2 9130   6.749   2.102   2.416
 3063TIP3   OH2 9131   6.807   2.214   2.558
 3063TIP3    H1 9132   6.731   2.245   2.607
 3063TIP3    H2 9133   6.840   2.292   2.513
 3064TIP3   OH2 9134   5.424   1.932   3.355
 3064TIP3    H1 9135   5.520   1.932   3.360
 3064TIP3    H2 9136   5.398   1.850   3.397
 3065TIP3   OH2 9137   7.260   1.805   3.111
 3065TIP3    H1 9138   7.317   1.739   3.070
 3065TIP3    H2 9139   7.228   1.858   3.038
 3066TIP3   OH2 9140   6.685   1.643   1.872
 3066TIP3    H1 9141   6.734   1.629   1.952
 3066TIP3    H2 9142   6.625   1.568   1.867
 3067TIP3   OH2 9143   5.387   1.629   2.689
 3067TIP3    H1 9144   5.445   1.555   2.699
 3067TIP3    H2 9145   5.445   1.705   2.682
 3068TIP3   OH2 9146   5.185   1.903   2.759
 3068TIP3    H1 9147   5.235   1.899   2.677
 3068TIP3    H2 9148   5.211   1.986   2.799
 3069TIP3   OH2 9149   7.124   1.940   2.918
 3069TIP3    H1 9150   7.041   1.983   2.938
 3069TIP3    H2 9151   7.100   1.867   2.861
 3070TIP3   OH2 9152   6.765   1.573   1.502
 3070TIP3    H1 9153   6.805   1.505   1.449
 3070TIP3    H2 9154   6.828   1.645   1.499
 3071TIP3   OH2 9155   5.169   1.407   2.259
 3071TIP3    H1 9156   5.079   1.401   2.291
 3071TIP3    H2 9157   5.163   1.464   2.182
 3072TIP3   OH2 9158   6.330   3.112   1.768
 3072TIP3    H1 9159   6.381   3.098   1.688
 3072TIP3    H2 9160   6.380   3.176   1.819
 3073TIP3   OH2 9161   5.389   1.487   3.077
 3073TIP3    H1 9162   5.342   1.481   3.160
 3073TIP3    H2 9163   5.325   1.524   3.016
 3074TIP3   OH2 9164   5.431   2.910   3.155
 3074TIP3    H1 9165   5.339   2.891   3.137
 3074TIP3    H2 9166   5.440   2.898   3.250
 3075TIP3   OH2 9167   5.613   2.951   2.700
 3075TIP3    H1 9168   5.560   3.023   2.666
 3075TIP3    H2 9169   5.698   2.961   2.657
 3076TIP3   OH2 9170   6.055   3.190   2.840
 3076TIP3    H1 9171   6.094   3.189   2.928
 3076TIP3    H2 9172   6.117   3.241   2.787
 3077TIP3   OH2 9173   6.234   3.344   2.702
 3077TIP3    H1 9174   6.301   3.293   2.657
 3077TIP3    H2 9175   6.282   3.401   2.761
 3078TIP3   OH2 9176   7.025   1.701   2.799
 3078TIP3    H1 9177   6.936   1.695   2.765
 3078TIP3    H2 9178   7.061   1.613   2.789
 3079TIP3   OH2 9179   5.283   3.205   2.728
 3079TIP3    H1 9180   5.195   3.234   2.704
 3079TIP3    H2 9181   5.300   3.246   2.812
 3080TIP3   OH2 9182   5.519   3.184   2.584
 3080TIP3    H1 9183   5.436   3.195   2.630
 3080TIP3    H2 9184   5.502   3.216   2.496
 3081TIP3   OH2 9185   5.946   3.212   2.382
 3081TIP3    H1 9186   5.877   3.228   2.317
 3081TIP3    H2 9187   5.959   3.296   2.425
 3082TIP3   OH2 9188   6.215   3.151   2.434
 3082TIP3    H1 9189   6.122   3.166   2.416
 3082TIP3    H2 9190   6.260   3.223   2.391
 3083TIP3   OH2 9191   6.422   3.341   2.345
 3083TIP3    H1 9192   6.408   3.424   2.301
 3083TIP3    H2 9193   6.448   3.281   2.275
 3084TIP3   OH2 9194   5.200   2.995   2.469
 3084TIP3    H1 9195   5.221   2.971   2.559
 3084TIP3    H2 9196   5.269   2.955   2.417
 3085TIP3   OH2 9197   5.395   2.868   2.329
 3085TIP3    H1 9198   5.406   2.786   2.377
 3085TIP3    H2 9199   5.483   2.905   2.326
 3086TIP3   OH2 9200   5.661   2.960   2.335
 3086TIP3    H1 9201   5.688   2.869   2.322
 3086TIP3    H2 9202   5.704   2.987   2.416
 3087TIP3   OH2 9203   6.229   1.616   2.414
 3087TIP3    H1 9204   6.190   1.547   2.468
 3087TIP3    H2 9205   6.305   1.574   2.373
 3088TIP3   OH2 9206   6.751   1.502   2.321
 3088TIP3    H1 9207   6.791   1.551   2.249
 3088TIP3    H2 9208   6.658   1.521   2.316
 3089TIP3   OH2 9209   6.853   1.601   2.086
 3089TIP3    H1 9210   6.923   1.547   2.050
 3089TIP3    H2 9211   6.883   1.691   2.073
 3090TIP3   OH2 9212   5.479   1.324   2.433
 3090TIP3    H1 9213   5.388   1.293   2.436
 3090TIP3    H2 9214   5.531   1.243   2.430
 3091TIP3   OH2 9215   5.268   1.201   2.085
 3091TIP3    H1 9216   5.300   1.255   2.013
 3091TIP3    H2 9217   5.240   1.264   2.152
 3092TIP3   OH2 9218   5.925   1.363   2.316
 3092TIP3    H1 9219   5.981   1.407   2.252
 3092TIP3    H2 9220   5.954   1.396   2.401
 3093TIP3   OH2 9221   6.467   1.506   2.299
 3093TIP3    H1 9222   6.472   1.469   2.211
 3093TIP3    H2 9223   6.456   1.429   2.356
 3094TIP3   OH2 9224   6.501   1.430   1.863
 3094TIP3    H1 9225   6.417   1.475   1.874
 3094TIP3    H2 9226   6.490   1.346   1.908
 3095TIP3   OH2 9227   4.983   2.773   1.857
 3095TIP3    H1 9228   4.899   2.738   1.826
 3095TIP3    H2 9229   4.978   2.867   1.839
 3096TIP3   OH2 9230   5.389   1.359   1.848
 3096TIP3    H1 9231   5.434   1.293   1.796
 3096TIP3    H2 9232   5.459   1.413   1.884
 3097TIP3   OH2 9233   5.900   1.536   1.945
 3097TIP3    H1 9234   5.958   1.485   2.002
 3097TIP3    H2 9235   5.917   1.627   1.968
 3098TIP3   OH2 9236   5.759   2.952   1.441
 3098TIP3    H1 9237   5.845   2.978   1.409
 3098TIP3    H2 9238   5.733   2.879   1.385
 3099TIP3   OH2 9239   6.476   3.075   1.535
 3099TIP3    H1 9240   6.469   2.980   1.526
 3099TIP3    H2 9241   6.431   3.110   1.458
 3100TIP3   OH2 9242   5.690   1.607   3.326
 3100TIP3    H1 9243   5.652   1.538   3.381
 3100TIP3    H2 9244   5.783   1.609   3.351
 3101TIP3   OH2 9245   5.939   1.604   3.444
 3101TIP3    H1 9246   6.023   1.582   3.405
 3101TIP3    H2 9247   5.924   1.537   3.511
 3102TIP3   OH2 9248   5.061   2.792   1.500
 3102TIP3    H1 9249   5.060   2.815   1.592
 3102TIP3    H2 9250   5.147   2.751   1.486
 3103TIP3   OH2 9251   6.766   1.669   3.232
 3103TIP3    H1 9252   6.782   1.640   3.322
 3103TIP3    H2 9253   6.852   1.664   3.190
 3104TIP3   OH2 9254   6.699   3.221   2.723
 3104TIP3    H1 9255   6.623   3.188   2.674
 3104TIP3    H2 9256   6.683   3.315   2.730
 3105TIP3   OH2 9257   7.266   2.484   2.237
 3105TIP3    H1 9258   7.289   2.416   2.301
 3105TIP3    H2 9259   7.342   2.542   2.236
 3106TIP3   OH2 9260   7.239   2.898   1.961
 3106TIP3    H1 9261   7.227   2.803   1.962
 3106TIP3    H2 9262   7.333   2.911   1.953
 3107TIP3   OH2 9263   6.942   2.102   1.742
 3107TIP3    H1 9264   6.895   2.183   1.760
 3107TIP3    H2 9265   6.875   2.045   1.702
 3108TIP3   OH2 9266   7.005   2.386   1.922
 3108TIP3    H1 9267   7.051   2.310   1.957
 3108TIP3    H2 9268   7.060   2.416   1.850
 3109TIP3   OH2 9269   7.872   3.320   1.552
 3109TIP3    H1 9270   7.964   3.295   1.549
 3109TIP3    H2 9271   7.854   3.332   1.645
 3110TIP3   OH2 9272   7.774   2.806   1.921
 3110TIP3    H1 9273   7.782   2.778   1.830
 3110TIP3    H2 9274   7.850   2.862   1.935
 3111TIP3   OH2 9275   7.491   1.980   1.926
 3111TIP3    H1 9276   7.505   2.047   1.859
 3111TIP3    H2 9277   7.457   1.905   1.879
 3112TIP3   OH2 9278   7.153   2.179   2.022
 3112TIP3    H1 9279   7.231   2.161   2.075
 3112TIP3    H2 9280   7.166   2.127   1.943
 3113TIP3   OH2 9281   7.577   2.379   1.815
 3113TIP3    H1 9282   7.668   2.351   1.828
 3113TIP3    H2 9283   7.532   2.300   1.785
 3114TIP3   OH2 9284   7.514   1.971   2.361
 3114TIP3    H1 9285   7.459   2.001   2.288
 3114TIP3    H2 9286   7.461   1.988   2.439
 3115TIP3   OH2 9287   7.623   2.739   2.153
 3115TIP3    H1 9288   7.559   2.801   2.188
 3115TIP3    H2 9289   7.665   2.786   2.081
 3116TIP3   OH2 9290   7.381   2.081   2.146
 3116TIP3    H1 9291   7.443   2.151   2.167
 3116TIP3    H2 9292   7.420   2.037   2.071
 3117TIP3   OH2 9293   7.448   2.935   2.243
 3117TIP3    H1 9294   7.426   3.020   2.205
 3117TIP3    H2 9295   7.373   2.913   2.299
 3118TIP3   OH2 9296   6.840   2.626   1.478
 3118TIP3    H1 9297   6.800   2.649   1.394
 3118TIP3    H2 9298   6.871   2.709   1.514
 3119TIP3   OH2 9299   7.369   2.524   1.706
 3119TIP3    H1 9300   7.330   2.468   1.639
 3119TIP3    H2 9301   7.444   2.474   1.738
 3120TIP3   OH2 9302   7.500   2.939   1.852
 3120TIP3    H1 9303   7.475   2.905   1.767
 3120TIP3    H2 9304   7.584   2.896   1.872
 3121TIP3   OH2 9305   7.515   2.497   2.062
 3121TIP3    H1 9306   7.541   2.473   1.973
 3121TIP3    H2 9307   7.554   2.583   2.076
 3122TIP3   OH2 9308   7.647   3.048   2.397
 3122TIP3    H1 9309   7.591   3.113   2.438
 3122TIP3    H2 9310   7.587   2.995   2.344
 3123TIP3   OH2 9311   7.400   2.619   2.489
 3123TIP3    H1 9312   7.405   2.704   2.534
 3123TIP3    H2 9313   7.310   2.591   2.502
 3124TIP3   OH2 9314   7.746   3.100   1.425
 3124TIP3    H1 9315   7.771   3.187   1.455
 3124TIP3    H2 9316   7.683   3.117   1.354
 3125TIP3   OH2 9317   7.444   3.218   2.475
 3125TIP3    H1 9318   7.412   3.220   2.385
 3125TIP3    H2 9319   7.367   3.198   2.528
 3126TIP3   OH2 9320   7.244   2.366   1.510
 3126TIP3    H1 9321   7.178   2.411   1.456
 3126TIP3    H2 9322   7.205   2.281   1.531
 3127TIP3   OH2 9323   7.026   2.751   2.420
 3127TIP3    H1 9324   6.960   2.731   2.354
 3127TIP3    H2 9325   7.063   2.666   2.444
 3128TIP3   OH2 9326   6.882   2.945   2.054
 3128TIP3    H1 9327   6.977   2.939   2.044
 3128TIP3    H2 9328   6.868   3.023   2.108
 3129TIP3   OH2 9329   7.837   3.167   2.239
 3129TIP3    H1 9330   7.845   3.257   2.269
 3129TIP3    H2 9331   7.769   3.129   2.295
 3130TIP3   OH2 9332   7.613   3.307   1.196
 3130TIP3    H1 9333   7.570   3.289   1.113
 3130TIP3    H2 9334   7.582   3.394   1.220
 3131TIP3   OH2 9335   7.049   3.157   1.583
 3131TIP3    H1 9336   7.096   3.151   1.666
 3131TIP3    H2 9337   6.997   3.077   1.579
 3132TIP3   OH2 9338   7.879   3.271   1.133
 3132TIP3    H1 9339   7.788   3.286   1.158
 3132TIP3    H2 9340   7.895   3.178   1.152
 3133TIP3   OH2 9341   7.232   2.932   2.407
 3133TIP3    H1 9342   7.280   2.919   2.489
 3133TIP3    H2 9343   7.158   2.872   2.414
 3134TIP3   OH2 9344   7.613   1.747   2.218
 3134TIP3    H1 9345   7.529   1.723   2.179
 3134TIP3    H2 9346   7.599   1.835   2.253
 3135TIP3   OH2 9347   7.557   2.280   2.216
 3135TIP3    H1 9348   7.505   2.294   2.295
 3135TIP3    H2 9349   7.539   2.357   2.162
 3136TIP3   OH2 9350   7.445   2.158   1.720
 3136TIP3    H1 9351   7.357   2.129   1.746
 3136TIP3    H2 9352   7.460   2.118   1.635
 3137TIP3   OH2 9353   7.371   2.299   2.425
 3137TIP3    H1 9354   7.422   2.354   2.485
 3137TIP3    H2 9355   7.360   2.216   2.471
 3138TIP3   OH2 9356   7.399   1.727   1.130
 3138TIP3    H1 9357   7.407   1.760   1.219
 3138TIP3    H2 9358   7.357   1.799   1.081
 3139TIP3   OH2 9359   6.976   1.823   2.002
 3139TIP3    H1 9360   7.047   1.856   2.057
 3139TIP3    H2 9361   7.020   1.788   1.925
 3140TIP3   OH2 9362   6.939   1.807   1.521
 3140TIP3    H1 9363   6.985   1.842   1.445
 3140TIP3    H2 9364   6.877   1.875   1.546
 3141TIP3   OH2 9365   7.207   2.040   1.791
 3141TIP3    H1 9366   7.114   2.044   1.766
 3141TIP3    H2 9367   7.231   1.949   1.776
 3142TIP3   OH2 9368   7.485   2.039   1.474
 3142TIP3    H1 9369   7.568   2.050   1.429
 3142TIP3    H2 9370   7.419   2.053   1.405
 3143TIP3   OH2 9371   7.323   2.061   1.259
 3143TIP3    H1 9372   7.247   2.026   1.214
 3143TIP3    H2 9373   7.376   2.100   1.189
 3144TIP3   OH2 9374   7.393   2.859   2.633
 3144TIP3    H1 9375   7.473   2.887   2.679
 3144TIP3    H2 9376   7.326   2.856   2.702
 3145TIP3   OH2 9377   7.368   1.795   1.763
 3145TIP3    H1 9378   7.334   1.726   1.820
 3145TIP3    H2 9379   7.418   1.747   1.696
 3146TIP3   OH2 9380   7.826   2.205   2.220
 3146TIP3    H1 9381   7.735   2.230   2.201
 3146TIP3    H2 9382   7.873   2.289   2.225
 3147TIP3   OH2 9383   7.538   2.623   1.271
 3147TIP3    H1 9384   7.490   2.541   1.264
 3147TIP3    H2 9385   7.545   2.638   1.366
 3148TIP3   OH2 9386   7.933   2.889   2.298
 3148TIP3    H1 9387   7.966   2.879   2.387
 3148TIP3    H2 9388   7.909   2.981   2.292
 3149TIP3   OH2 9389   7.265   2.623   1.946
 3149TIP3    H1 9390   7.296   2.593   1.861
 3149TIP3    H2 9391   7.299   2.559   2.008
 3150TIP3   OH2 9392   7.678   2.744   1.070
 3150TIP3    H1 9393   7.654   2.834   1.092
 3150TIP3    H2 9394   7.646   2.692   1.144
 3151TIP3   OH2 9395   7.142   2.539   2.560
 3151TIP3    H1 9396   7.161   2.525   2.653
 3151TIP3    H2 9397   7.075   2.474   2.539
 3152TIP3   OH2 9398   7.870   2.653   2.576
 3152TIP3    H1 9399   7.814   2.608   2.514
 3152TIP3    H2 9400   7.957   2.614   2.563
 3153TIP3   OH2 9401   7.364   2.925   1.574
 3153TIP3    H1 9402   7.366   3.004   1.519
 3153TIP3    H2 9403   7.271   2.904   1.581
 3154TIP3   OH2 9404   6.923   2.232   1.275
 3154TIP3    H1 9405   6.971   2.313   1.295
 3154TIP3    H2 9406   6.849   2.233   1.335
 3155TIP3   OH2 9407   7.513   2.692   1.538
 3155TIP3    H1 9408   7.472   2.779   1.540
 3155TIP3    H2 9409   7.461   2.640   1.599
 3156TIP3   OH2 9410   7.633   3.264   2.040
 3156TIP3    H1 9411   7.665   3.340   1.991
 3156TIP3    H2 9412   7.709   3.233   2.089
 3157TIP3   OH2 9413   7.282   3.164   1.426
 3157TIP3    H1 9414   7.196   3.171   1.469
 3157TIP3    H2 9415   7.316   3.254   1.426
 3158TIP3   OH2 9416   7.348   2.048   2.570
 3158TIP3    H1 9417   7.252   2.049   2.577
 3158TIP3    H2 9418   7.377   1.987   2.638
 3159TIP3   OH2 9419   7.072   3.129   2.199
 3159TIP3    H1 9420   7.124   3.056   2.233
 3159TIP3    H2 9421   7.095   3.203   2.256
 3160TIP3   OH2 9422   7.355   2.772   0.885
 3160TIP3    H1 9423   7.358   2.681   0.855
 3160TIP3    H2 9424   7.338   2.765   0.979
 3161TIP3   OH2 9425   7.309   2.778   1.157
 3161TIP3    H1 9426   7.389   2.746   1.199
 3161TIP3    H2 9427   7.314   2.873   1.167
 3162TIP3   OH2 9428   7.038   2.474   1.359
 3162TIP3    H1 9429   6.972   2.516   1.415
 3162TIP3    H2 9430   7.055   2.539   1.290
 3163TIP3   OH2 9431   7.572   2.990   1.112
 3163TIP3    H1 9432   7.483   3.011   1.142
 3163TIP3    H2 9433   7.595   3.062   1.055
 3164TIP3   OH2 9434   7.311   3.054   1.171
 3164TIP3    H1 9435   7.282   3.121   1.108
 3164TIP3    H2 9436   7.298   3.095   1.256
 3165TIP3   OH2 9437   7.423   1.775   1.408
 3165TIP3    H1 9438   7.407   1.856   1.456
 3165TIP3    H2 9439   7.508   1.789   1.366
 3166TIP3   OH2 9440   7.039   2.677   1.160
 3166TIP3    H1 9441   7.104   2.746   1.174
 3166TIP3    H2 9442   7.077   2.621   1.093
 3167TIP3   OH2 9443   6.977   1.964   1.305
 3167TIP3    H1 9444   6.973   2.059   1.296
 3167TIP3    H2 9445   6.908   1.932   1.248
 3168TIP3   OH2 9446   7.349   1.678   2.169
 3168TIP3    H1 9447   7.331   1.644   2.081
 3168TIP3    H2 9448   7.346   1.600   2.225
 3169TIP3   OH2 9449   6.901   2.897   1.546
 3169TIP3    H1 9450   6.838   2.926   1.612
 3169TIP3    H2 9451   6.871   2.938   1.465
 3170TIP3   OH2 9452   7.065   3.441   2.622
 3170TIP3    H1 9453   7.148   3.444   2.669
 3170TIP3    H2 9454   7.042   3.348   2.619
 3171TIP3   OH2 9455   7.540   3.399   2.664
 3171TIP3    H1 9456   7.633   3.382   2.675
 3171TIP3    H2 9457   7.513   3.341   2.592
 3172TIP3   OH2 9458   7.516   2.973   0.795
 3172TIP3    H1 9459   7.454   2.907   0.826
 3172TIP3    H2 9460   7.602   2.932   0.806
 3173TIP3   OH2 9461   7.190   2.844   2.820
 3173TIP3    H1 9462   7.208   2.750   2.827
 3173TIP3    H2 9463   7.104   2.849   2.777
 3174TIP3   OH2 9464   7.177   2.492   1.012
 3174TIP3    H1 9465   7.227   2.464   1.089
 3174TIP3    H2 9466   7.242   2.497   0.942
 3175TIP3   OH2 9467   7.814   2.932   2.589
 3175TIP3    H1 9468   7.760   2.950   2.512
 3175TIP3    H2 9469   7.829   2.837   2.586
 3176TIP3   OH2 9470   7.665   2.677   0.813
 3176TIP3    H1 9471   7.686   2.712   0.900
 3176TIP3    H2 9472   7.592   2.617   0.829
 3177TIP3   OH2 9473   7.314   2.582   2.806
 3177TIP3    H1 9474   7.386   2.525   2.780
 3177TIP3    H2 9475   7.338   2.614   2.893
 3178TIP3   OH2 9476   7.375   2.395   1.234
 3178TIP3    H1 9477   7.348   2.355   1.317
 3178TIP3    H2 9478   7.416   2.323   1.186
 3179TIP3   OH2 9479   7.609   2.448   2.482
 3179TIP3    H1 9480   7.541   2.515   2.488
 3179TIP3    H2 9481   7.669   2.482   2.416
 3180TIP3   OH2 9482   7.483   2.187   1.070
 3180TIP3    H1 9483   7.447   2.200   0.982
 3180TIP3    H2 9484   7.574   2.161   1.054
 3181TIP3   OH2 9485   7.779   2.257   2.585
 3181TIP3    H1 9486   7.778   2.172   2.543
 3181TIP3    H2 9487   7.715   2.309   2.537
 3182TIP3   OH2 9488   7.779   2.029   2.418
 3182TIP3    H1 9489   7.791   2.079   2.337
 3182TIP3    H2 9490   7.693   1.988   2.408
 3183TIP3   OH2 9491   7.772   2.571   2.309
 3183TIP3    H1 9492   7.841   2.553   2.245
 3183TIP3    H2 9493   7.716   2.635   2.266
 3184TIP3   OH2 9494   7.651   2.360   2.820
 3184TIP3    H1 9495   7.584   2.294   2.836
 3184TIP3    H2 9496   7.685   2.341   2.733
 3185TIP3   OH2 9497   7.488   2.142   2.877
 3185TIP3    H1 9498   7.491   2.054   2.839
 3185TIP3    H2 9499   7.522   2.131   2.966
 3186TIP3   OH2 9500   7.278   3.258   0.982
 3186TIP3    H1 9501   7.373   3.251   0.973
 3186TIP3    H2 9502   7.250   3.307   0.905
 3187TIP3   OH2 9503   6.767   2.636   1.197
 3187TIP3    H1 9504   6.859   2.659   1.185
 3187TIP3    H2 9505   6.759   2.549   1.157
 3188TIP3   OH2 9506   6.680   3.246   1.616
 3188TIP3    H1 9507   6.614   3.188   1.576
 3188TIP3    H2 9508   6.725   3.190   1.679
 3189TIP3   OH2 9509   6.816   3.095   1.803
 3189TIP3    H1 9510   6.802   3.024   1.866
 3189TIP3    H2 9511   6.867   3.160   1.851
 3190TIP3   OH2 9512   7.002   2.507   2.170
 3190TIP3    H1 9513   6.996   2.473   2.081
 3190TIP3    H2 9514   7.096   2.508   2.189
 3191TIP3   OH2 9515   7.220   2.191   2.848
 3191TIP3    H1 9516   7.316   2.188   2.847
 3191TIP3    H2 9517   7.194   2.108   2.886
 3192TIP3   OH2 9518   7.177   1.890   2.182
 3192TIP3    H1 9519   7.232   1.812   2.185
 3192TIP3    H2 9520   7.239   1.963   2.176
 3193TIP3   OH2 9521   6.982   2.161   2.246
 3193TIP3    H1 9522   7.030   2.150   2.164
 3193TIP3    H2 9523   7.015   2.243   2.283
 3194TIP3   OH2 9524   6.964   1.660   1.748
 3194TIP3    H1 9525   6.874   1.657   1.778
 3194TIP3    H2 9526   6.963   1.719   1.672
 3195TIP3   OH2 9527   7.184   1.749   2.568
 3195TIP3    H1 9528   7.134   1.742   2.650
 3195TIP3    H2 9529   7.121   1.783   2.504
 3196TIP3   OH2 9530   7.225   3.169   2.641
 3196TIP3    H1 9531   7.134   3.147   2.623
 3196TIP3    H2 9532   7.237   3.153   2.734
 3197TIP3   OH2 9533   7.408   3.206   2.187
 3197TIP3    H1 9534   7.355   3.277   2.152
 3197TIP3    H2 9535   7.493   3.215   2.144
 3198TIP3   OH2 9536   7.839   3.432   2.328
 3198TIP3    H1 9537   7.883   3.439   2.412
 3198TIP3    H2 9538   7.887   3.491   2.271
 3199TIP3   OH2 9539   7.980   3.598   2.150
 3199TIP3    H1 9540   8.028   3.589   2.067
 3199TIP3    H2 9541   8.023   3.671   2.195
 3200TIP3   OH2 9542   7.080   3.461   2.216
 3200TIP3    H1 9543   6.992   3.490   2.190
 3200TIP3    H2 9544   7.096   3.505   2.300
 3201TIP3   OH2 9545   7.314   3.437   2.070
 3201TIP3    H1 9546   7.230   3.449   2.116
 3201TIP3    H2 9547   7.298   3.470   1.982
 3202TIP3   OH2 9548   7.715   3.475   1.872
 3202TIP3    H1 9549   7.644   3.486   1.809
 3202TIP3    H2 9550   7.730   3.564   1.906
 3203TIP3   OH2 9551   7.966   3.375   1.853
 3203TIP3    H1 9552   7.876   3.407   1.862
 3203TIP3    H2 9553   8.021   3.450   1.875
 3204TIP3   OH2 9554   6.995   3.252   1.958
 3204TIP3    H1 9555   7.017   3.227   2.047
 3204TIP3    H2 9556   7.063   3.212   1.904
 3205TIP3   OH2 9557   7.188   3.126   1.817
 3205TIP3    H1 9558   7.200   3.044   1.864
 3205TIP3    H2 9559   7.276   3.163   1.812
 3206TIP3   OH2 9560   7.455   3.219   1.821
 3206TIP3    H1 9561   7.480   3.128   1.807
 3206TIP3    H2 9562   7.499   3.244   1.902
 3207TIP3   OH2 9563   7.272   1.589   1.914
 3207TIP3    H1 9564   7.182   1.555   1.921
 3207TIP3    H2 9565   7.327   1.511   1.913
 3208TIP3   OH2 9566   7.063   1.457   1.576
 3208TIP3    H1 9567   7.086   1.511   1.501
 3208TIP3    H2 9568   7.034   1.519   1.643
 3209TIP3   OH2 9569   6.778   3.030   1.346
 3209TIP3    H1 9570   6.695   2.994   1.315
 3209TIP3    H2 9571   6.773   3.124   1.325
 3210TIP3   OH2 9572   7.182   1.612   1.340
 3210TIP3    H1 9573   7.232   1.543   1.297
 3210TIP3    H2 9574   7.247   1.674   1.371
 3211TIP3   OH2 9575   7.545   3.209   0.936
 3211TIP3    H1 9576   7.635   3.225   0.909
 3211TIP3    H2 9577   7.514   3.140   0.878
 3212TIP3   OH2 9578   7.478   1.865   2.808
 3212TIP3    H1 9579   7.442   1.796   2.862
 3212TIP3    H2 9580   7.571   1.869   2.833
 3213TIP3   OH2 9581   7.719   1.860   2.939
 3213TIP3    H1 9582   7.796   1.826   2.893
 3213TIP3    H2 9583   7.700   1.794   3.006
 3214TIP3   OH2 9584   6.858   3.048   0.986
 3214TIP3    H1 9585   6.862   3.071   1.079
 3214TIP3    H2 9586   6.942   3.006   0.968
 3215TIP3   OH2 9587   0.416   3.384   3.178
 3215TIP3    H1 9588   0.387   3.473   3.157
 3215TIP3    H2 9589   0.349   3.327   3.141
 3216TIP3   OH2 9590   0.418   3.382   3.567
 3216TIP3    H1 9591   0.453   3.356   3.652
 3216TIP3    H2 9592   0.377   3.303   3.532
 3217TIP3   OH2 9593   8.251   3.258   3.888
 3217TIP3    H1 9594   8.224   3.202   3.961
 3217TIP3    H2 9595   8.289   3.335   3.930
 3218TIP3   OH2 9596   0.671   3.676   3.257
 3218TIP3    H1 9597   0.653   3.591   3.299
 3218TIP3    H2 9598   0.691   3.734   3.330
 3219TIP3   OH2 9599   8.201   3.665   3.586
 3219TIP3    H1 9600   8.179   3.573   3.604
 3219TIP3    H2 9601   8.280   3.681   3.638
 3220TIP3   OH2 9602   7.976   3.171   3.563
 3220TIP3    H1 9603   8.006   3.127   3.642
 3220TIP3    H2 9604   8.032   3.248   3.556
 3221TIP3   OH2 9605   0.318   4.110   3.249
 3221TIP3    H1 9606   0.388   4.045   3.257
 3221TIP3    H2 9607   0.294   4.129   3.340
 3222TIP3   OH2 9608   0.224   3.606   3.608
 3222TIP3    H1 9609   0.256   3.525   3.569
 3222TIP3    H2 9610   0.303   3.654   3.634
 3223TIP3   OH2 9611   1.234   2.927   3.606
 3223TIP3    H1 9612   1.261   3.008   3.650
 3223TIP3    H2 9613   1.257   2.941   3.514
 3224TIP3   OH2 9614   0.630   3.105   3.639
 3224TIP3    H1 9615   0.674   3.023   3.661
 3224TIP3    H2 9616   0.599   3.091   3.549
 3225TIP3   OH2 9617   8.472   2.764   3.602
 3225TIP3    H1 9618   8.455   2.839   3.545
 3225TIP3    H2 9619   8.427   2.691   3.559
 3226TIP3   OH2 9620   0.668   2.859   3.229
 3226TIP3    H1 9621   0.737   2.845   3.293
 3226TIP3    H2 9622   0.714   2.893   3.152
 3227TIP3   OH2 9623   8.109   2.968   3.718
 3227TIP3    H1 9624   8.188   2.960   3.771
 3227TIP3    H2 9625   8.130   2.925   3.635
 3228TIP3   OH2 9626   0.050   3.167   3.492
 3228TIP3    H1 9627   0.140   3.143   3.514
 3228TIP3    H2 9628   0.008   3.083   3.470
 3229TIP3   OH2 9629   1.305   3.134   3.782
 3229TIP3    H1 9630   1.224   3.180   3.759
 3229TIP3    H2 9631   1.332   3.172   3.865
 3230TIP3   OH2 9632   8.463   2.749   4.045
 3230TIP3    H1 9633   8.413   2.793   3.976
 3230TIP3    H2 9634   8.414   2.766   4.125
 3231TIP3   OH2 9635   0.319   3.614   3.049
 3231TIP3    H1 9636   0.279   3.583   2.968
 3231TIP3    H2 9637   0.279   3.699   3.064
 3232TIP3   OH2 9638   0.071   3.534   3.837
 3232TIP3    H1 9639   0.011   3.596   3.878
 3232TIP3    H2 9640   0.111   3.584   3.766
 3233TIP3   OH2 9641   0.873   2.864   3.406
 3233TIP3    H1 9642   0.859   2.820   3.490
 3233TIP3    H2 9643   0.926   2.941   3.428
 3234TIP3   OH2 9644   8.349   2.866   3.823
 3234TIP3    H1 9645   8.403   2.941   3.850
 3234TIP3    H2 9646   8.397   2.827   3.749
 3235TIP3   OH2 9647   8.382   3.711   3.955
 3235TIP3    H1 9648   8.327   3.766   3.898
 3235TIP3    H2 9649   8.320   3.667   4.013
 3236TIP3   OH2 9650   0.698   3.927   3.351
 3236TIP3    H1 9651   0.631   3.920   3.420
 3236TIP3    H2 9652   0.728   4.017   3.357
 3237TIP3   OH2 9653   1.027   2.823   3.771
 3237TIP3    H1 9654   0.941   2.853   3.741
 3237TIP3    H2 9655   1.088   2.855   3.704
 3238TIP3   OH2 9656   0.317   2.466   3.756
 3238TIP3    H1 9657   0.304   2.372   3.772
 3238TIP3    H2 9658   0.244   2.508   3.801
 3239TIP3   OH2 9659   0.610   3.794   3.026
 3239TIP3    H1 9660   0.573   3.762   2.944
 3239TIP3    H2 9661   0.607   3.718   3.085
 3240TIP3   OH2 9662   0.946   3.854   3.734
 3240TIP3    H1 9663   0.947   3.769   3.691
 3240TIP3    H2 9664   1.005   3.908   3.681
 3241TIP3   OH2 9665   0.253   3.235   3.004
 3241TIP3    H1 9666   0.173   3.284   2.983
 3241TIP3    H2 9667   0.286   3.206   2.919
 3242TIP3   OH2 9668   1.154   3.479   3.601
 3242TIP3    H1 9669   1.075   3.532   3.606
 3242TIP3    H2 9670   1.193   3.502   3.517
 3243TIP3   OH2 9671   0.607   3.340   2.988
 3243TIP3    H1 9672   0.549   3.351   3.063
 3243TIP3    H2 9673   0.687   3.301   3.025
 3244TIP3   OH2 9674   0.831   3.354   3.899
 3244TIP3    H1 9675   0.832   3.436   3.949
 3244TIP3    H2 9676   0.747   3.356   3.852
 3245TIP3   OH2 9677   8.336   3.306   3.395
 3245TIP3    H1 9678   8.294   3.249   3.331
 3245TIP3    H2 9679   8.414   3.258   3.423
 3246TIP3   OH2 9680   8.485   3.744   3.535
 3246TIP3    H1 9681   8.443   3.686   3.471
 3246TIP3    H2 9682   8.567   3.700   3.556
 3247TIP3   OH2 9683   0.021   3.275   3.749
 3247TIP3    H1 9684   0.024   3.266   3.654
 3247TIP3    H2 9685   0.028   3.369   3.765
 3248TIP3   OH2 9686   0.500   3.920   3.529
 3248TIP3    H1 9687   0.487   4.000   3.580
 3248TIP3    H2 9688   0.483   3.849   3.591
 3249TIP3   OH2 9689   0.097   3.845   4.074
 3249TIP3    H1 9690   0.046   3.903   4.130
 3249TIP3    H2 9691   0.032   3.789   4.033
 3250TIP3   OH2 9692   0.474   3.154   2.825
 3250TIP3    H1 9693   0.509   3.238   2.853
 3250TIP3    H2 9694   0.407   3.176   2.759
 3251TIP3   OH2 9695   8.346   3.399   4.182
 3251TIP3    H1 9696   8.356   3.479   4.234
 3251TIP3    H2 9697   8.252   3.393   4.166
 3252TIP3   OH2 9698   0.208   3.879   3.068
 3252TIP3    H1 9699   0.209   3.944   3.139
 3252TIP3    H2 9700   0.131   3.902   3.015
 3253TIP3   OH2 9701   8.381   4.015   4.162
 3253TIP3    H1 9702   8.364   4.017   4.068
 3253TIP3    H2 9703   8.307   3.967   4.199
 3254TIP3   OH2 9704   0.954   2.415   2.859
 3254TIP3    H1 9705   0.874   2.435   2.908
 3254TIP3    H2 9706   0.970   2.494   2.807
 3255TIP3   OH2 9707   8.208   3.147   3.200
 3255TIP3    H1 9708   8.144   3.190   3.144
 3255TIP3    H2 9709   8.167   3.063   3.224
 3256TIP3   OH2 9710   0.751   3.786   2.416
 3256TIP3    H1 9711   0.763   3.878   2.393
 3256TIP3    H2 9712   0.835   3.745   2.397
 3257TIP3   OH2 9713   1.204   4.202   3.807
 3257TIP3    H1 9714   1.192   4.131   3.744
 3257TIP3    H2 9715   1.120   4.209   3.852
 3258TIP3   OH2 9716   0.298   3.972   3.933
 3258TIP3    H1 9717   0.301   4.062   3.965
 3258TIP3    H2 9718   0.230   3.930   3.985
 3259TIP3   OH2 9719   0.062   4.100   2.885
 3259TIP3    H1 9720   0.018   4.085   2.802
 3259TIP3    H2 9721   0.035   4.188   2.911
 3260TIP3   OH2 9722   0.273   3.990   2.524
 3260TIP3    H1 9723   0.331   3.921   2.492
 3260TIP3    H2 9724   0.305   4.010   2.612
 3261TIP3   OH2 9725   0.312   4.046   2.800
 3261TIP3    H1 9726   0.225   4.065   2.836
 3261TIP3    H2 9727   0.349   3.981   2.859
 3262TIP3   OH2 9728   1.083   3.310   4.077
 3262TIP3    H1 9729   1.004   3.324   4.024
 3262TIP3    H2 9730   1.101   3.217   4.069
 3263TIP3   OH2 9731   0.080   2.545   3.888
 3263TIP3    H1 9732  -0.005   2.512   3.858
 3263TIP3    H2 9733   0.059   2.626   3.935
 3264TIP3   OH2 9734   0.618   2.658   4.081
 3264TIP3    H1 9735   0.686   2.633   4.143
 3264TIP3    H2 9736   0.536   2.641   4.126
 3265TIP3   OH2 9737   0.851   3.089   3.996
 3265TIP3    H1 9738   0.805   3.086   4.080
 3265TIP3    H2 9739   0.831   3.176   3.961
 3266TIP3   OH2 9740   0.230   2.641   2.866
 3266TIP3    H1 9741   0.201   2.613   2.953
 3266TIP3    H2 9742   0.193   2.577   2.806
 3267TIP3   OH2 9743   8.516   3.061   3.909
 3267TIP3    H1 9744   8.460   3.082   3.984
 3267TIP3    H2 9745   8.511   3.139   3.853
 3268TIP3   OH2 9746   8.395   2.947   3.420
 3268TIP3    H1 9747   8.303   2.927   3.436
 3268TIP3    H2 9748   8.413   2.909   3.334
 3269TIP3   OH2 9749   0.388   3.034   3.145
 3269TIP3    H1 9750   0.340   3.104   3.100
 3269TIP3    H2 9751   0.445   2.997   3.077
 3270TIP3   OH2 9752   0.565   3.309   4.232
 3270TIP3    H1 9753   0.540   3.237   4.291
 3270TIP3    H2 9754   0.657   3.324   4.251
 3271TIP3   OH2 9755   0.544   3.058   3.379
 3271TIP3    H1 9756   0.482   3.088   3.312
 3271TIP3    H2 9757   0.583   2.978   3.341
 3272TIP3   OH2 9758   8.342   3.080   4.122
 3272TIP3    H1 9759   8.346   3.154   4.182
 3272TIP3    H2 9760   8.331   3.004   4.179
 3273TIP3   OH2 9761   7.936   2.617   3.718
 3273TIP3    H1 9762   8.018   2.644   3.759
 3273TIP3    H2 9763   7.961   2.593   3.629
 3274TIP3   OH2 9764   0.555   3.304   3.803
 3274TIP3    H1 9765   0.588   3.236   3.744
 3274TIP3    H2 9766   0.525   3.256   3.880
 3275TIP3   OH2 9767   0.231   2.769   3.479
 3275TIP3    H1 9768   0.150   2.766   3.531
 3275TIP3    H2 9769   0.301   2.765   3.544
 3276TIP3   OH2 9770   8.160   2.817   3.484
 3276TIP3    H1 9771   8.071   2.801   3.452
 3276TIP3    H2 9772   8.207   2.735   3.466
 3277TIP3   OH2 9773   8.434   2.825   3.182
 3277TIP3    H1 9774   8.527   2.835   3.166
 3277TIP3    H2 9775   8.392   2.854   3.102
 3278TIP3   OH2 9776   0.717   2.845   3.682
 3278TIP3    H1 9777   0.686   2.859   3.772
 3278TIP3    H2 9778   0.652   2.786   3.644
 3279TIP3   OH2 9779   8.282   2.881   2.965
 3279TIP3    H1 9780   8.203   2.828   2.951
 3279TIP3    H2 9781   8.317   2.895   2.877
 3280TIP3   OH2 9782   0.892   4.537   3.900
 3280TIP3    H1 9783   0.888   4.554   3.805
 3280TIP3    H2 9784   0.971   4.581   3.929
 3281TIP3   OH2 9785   8.344   3.635   4.343
 3281TIP3    H1 9786   8.421   3.664   4.391
 3281TIP3    H2 9787   8.271   3.682   4.382
 3282TIP3   OH2 9788   0.310   3.099   3.575
 3282TIP3    H1 9789   0.382   3.060   3.525
 3282TIP3    H2 9790   0.315   3.057   3.660
 3283TIP3   OH2 9791   8.322   2.589   3.447
 3283TIP3    H1 9792   8.306   2.506   3.492
 3283TIP3    H2 9793   8.356   2.563   3.361
 3284TIP3   OH2 9794   0.283   2.996   3.868
 3284TIP3    H1 9795   0.195   3.031   3.880
 3284TIP3    H2 9796   0.340   3.057   3.915
 3285TIP3   OH2 9797   8.516   3.388   2.959
 3285TIP3    H1 9798   8.450   3.321   2.946
 3285TIP3    H2 9799   8.503   3.419   3.049
 3286TIP3   OH2 9800   0.922   3.625   3.581
 3286TIP3    H1 9801   0.949   3.669   3.500
 3286TIP3    H2 9802   0.841   3.580   3.558
 3287TIP3   OH2 9803   0.491   2.697   2.824
 3287TIP3    H1 9804   0.395   2.691   2.831
 3287TIP3    H2 9805   0.510   2.788   2.849
 3288TIP3   OH2 9806   0.423   3.707   3.955
 3288TIP3    H1 9807   0.448   3.679   4.043
 3288TIP3    H2 9808   0.382   3.792   3.968
 3289TIP3   OH2 9809   0.559   2.934   2.942
 3289TIP3    H1 9810   0.653   2.945   2.951
 3289TIP3    H2 9811   0.531   3.010   2.891
 3290TIP3   OH2 9812   8.221   3.398   3.640
 3290TIP3    H1 9813   8.267   3.354   3.568
 3290TIP3    H2 9814   8.230   3.339   3.714
 3291TIP3   OH2 9815   0.156   3.543   2.778
 3291TIP3    H1 9816   0.112   3.626   2.793
 3291TIP3    H2 9817   0.111   3.481   2.836
 3292TIP3   OH2 9818   0.322   3.442   4.270
 3292TIP3    H1 9819   0.257   3.387   4.226
 3292TIP3    H2 9820   0.407   3.408   4.241
 3293TIP3   OH2 9821   0.578   3.972   3.851
 3293TIP3    H1 9822   0.483   3.964   3.863
 3293TIP3    H2 9823   0.608   4.021   3.928
 3294TIP3   OH2 9824   0.985   3.038   2.759
 3294TIP3    H1 9825   0.926   2.990   2.700
 3294TIP3    H2 9826   0.986   3.127   2.723
 3295TIP3   OH2 9827   1.212   3.859   3.840
 3295TIP3    H1 9828   1.120   3.884   3.846
 3295TIP3    H2 9829   1.236   3.879   3.750
 3296TIP3   OH2 9830   0.678   3.840   2.675
 3296TIP3    H1 9831   0.673   3.755   2.719
 3296TIP3    H2 9832   0.707   3.819   2.586
 3297TIP3   OH2 9833   0.684   3.484   3.498
 3297TIP3    H1 9834   0.594   3.459   3.518
 3297TIP3    H2 9835   0.723   3.405   3.461
 3298TIP3   OH2 9836   8.315   3.713   3.253
 3298TIP3    H1 9837   8.302   3.793   3.202
 3298TIP3    H2 9838   8.235   3.705   3.305
 3299TIP3   OH2 9839   7.534   1.405   1.348
 3299TIP3    H1 9840   7.594   1.475   1.370
 3299TIP3    H2 9841   7.456   1.421   1.402
 3300TIP3   OH2 9842   8.451   3.477   3.206
 3300TIP3    H1 9843   8.414   3.564   3.221
 3300TIP3    H2 9844   8.419   3.424   3.278
 3301TIP3   OH2 9845   0.096   4.060   3.730
 3301TIP3    H1 9846   0.139   4.127   3.677
 3301TIP3    H2 9847   0.167   4.018   3.778
 3302TIP3   OH2 9848   8.232   3.956   3.119
 3302TIP3    H1 9849   8.150   3.974   3.165
 3302TIP3    H2 9850   8.276   4.041   3.114
 3303TIP3   OH2 9851   0.474   3.691   3.689
 3303TIP3    H1 9852   0.461   3.692   3.784
 3303TIP3    H2 9853   0.549   3.634   3.675
 3304TIP3   OH2 9854   0.696   4.244   3.762
 3304TIP3    H1 9855   0.635   4.172   3.745
 3304TIP3    H2 9856   0.705   4.288   3.677
 3305TIP3   OH2 9857   0.783   4.060   2.390
 3305TIP3    H1 9858   0.827   4.128   2.339
 3305TIP3    H2 9859   0.706   4.103   2.427
 3306TIP3   OH2 9860   8.314   2.820   4.273
 3306TIP3    H1 9861   8.221   2.815   4.295
 3306TIP3    H2 9862   8.358   2.767   4.340
 3307TIP3   OH2 9863   0.614   3.526   2.786
 3307TIP3    H1 9864   0.598   3.465   2.858
 3307TIP3    H2 9865   0.707   3.514   2.764
 3308TIP3   OH2 9866   8.326   3.556   2.574
 3308TIP3    H1 9867   8.323   3.464   2.549
 3308TIP3    H2 9868   8.297   3.556   2.666
 3309TIP3   OH2 9869   8.264   3.572   2.843
 3309TIP3    H1 9870   8.335   3.538   2.897
 3309TIP3    H2 9871   8.267   3.667   2.855
 3310TIP3   OH2 9872   8.007   3.260   3.057
 3310TIP3    H1 9873   7.969   3.315   3.126
 3310TIP3    H2 9874   8.022   3.321   2.984
 3311TIP3   OH2 9875   0.645   2.896   3.941
 3311TIP3    H1 9876   0.724   2.937   3.976
 3311TIP3    H2 9877   0.633   2.818   3.994
 3312TIP3   OH2 9878   0.524   2.649   3.106
 3312TIP3    H1 9879   0.509   2.668   3.013
 3312TIP3    H2 9880   0.564   2.729   3.141
 3313TIP3   OH2 9881   8.523   3.779   2.800
 3313TIP3    H1 9882   8.435   3.797   2.832
 3313TIP3    H2 9883   8.540   3.847   2.736
 3314TIP3   OH2 9884   0.211   2.830   3.209
 3314TIP3    H1 9885   0.274   2.899   3.188
 3314TIP3    H2 9886   0.218   2.821   3.304
 3315TIP3   OH2 9887   0.483   3.146   4.013
 3315TIP3    H1 9888   0.504   3.198   4.090
 3315TIP3    H2 9889   0.535   3.066   4.022
 3316TIP3   OH2 9890   0.360   2.553   3.309
 3316TIP3    H1 9891   0.350   2.628   3.368
 3316TIP3    H2 9892   0.419   2.584   3.240
 3317TIP3   OH2 9893   8.266   3.845   2.864
 3317TIP3    H1 9894   8.241   3.910   2.799
 3317TIP3    H2 9895   8.250   3.887   2.949
 3318TIP3   OH2 9896   8.381   2.552   3.151
 3318TIP3    H1 9897   8.373   2.647   3.147
 3318TIP3    H2 9898   8.471   2.533   3.125
 3319TIP3   OH2 9899   1.118   3.045   3.998
 3319TIP3    H1 9900   1.023   3.043   4.003
 3319TIP3    H2 9901   1.138   3.014   3.910
 3320TIP3   OH2 9902   0.771   3.241   3.386
 3320TIP3    H1 9903   0.697   3.181   3.394
 3320TIP3    H2 9904   0.843   3.196   3.430
 3321TIP3   OH2 9905   7.997   3.475   2.886
 3321TIP3    H1 9906   8.070   3.536   2.877
 3321TIP3    H2 9907   8.007   3.414   2.813
 3322TIP3   OH2 9908   0.749   4.176   3.277
 3322TIP3    H1 9909   0.704   4.244   3.226
 3322TIP3    H2 9910   0.839   4.209   3.285
 3323TIP3   OH2 9911   8.318   2.459   3.854
 3323TIP3    H1 9912   8.284   2.426   3.770
 3323TIP3    H2 9913   8.309   2.385   3.914
 3324TIP3   OH2 9914  -0.015   4.189   4.357
 3324TIP3    H1 9915   0.080   4.183   4.367
 3324TIP3    H2 9916  -0.036   4.126   4.288
 3325TIP3   OH2 9917   8.474   3.766   2.483
 3325TIP3    H1 9918   8.420   3.695   2.519
 3325TIP3    H2 9919   8.551   3.721   2.447
 3326TIP3   OH2 9920   0.631   4.096   4.092
 3326TIP3    H1 9921   0.625   4.027   4.157
 3326TIP3    H2 9922   0.708   4.147   4.117
 3327TIP3   OH2 9923   0.435   3.791   2.394
 3327TIP3    H1 9924   0.519   3.782   2.439
 3327TIP3    H2 9925   0.457   3.800   2.302
 3328TIP3   OH2 9926   8.127   3.292   2.727
 3328TIP3    H1 9927   8.186   3.257   2.794
 3328TIP3    H2 9928   8.180   3.295   2.647
 3329TIP3   OH2 9929   0.248   3.717   4.284
 3329TIP3    H1 9930   0.209   3.732   4.198
 3329TIP3    H2 9931   0.282   3.627   4.280
 3330TIP3   OH2 9932   0.179   3.477   2.519
 3330TIP3    H1 9933   0.169   3.520   2.604
 3330TIP3    H2 9934   0.120   3.402   2.523
 3331TIP3   OH2 9935   0.747   3.734   3.890
 3331TIP3    H1 9936   0.820   3.776   3.843
 3331TIP3    H2 9937   0.673   3.794   3.877
 3332TIP3   OH2 9938   8.265   3.353   4.513
 3332TIP3    H1 9939   8.331   3.319   4.453
 3332TIP3    H2 9940   8.314   3.399   4.580
 3333TIP3   OH2 9941   8.329   3.183   2.923
 3333TIP3    H1 9942   8.308   3.142   3.007
 3333TIP3    H2 9943   8.363   3.111   2.869
 3334TIP3   OH2 9944   0.102   3.262   4.161
 3334TIP3    H1 9945   0.019   3.310   4.159
 3334TIP3    H2 9946   0.148   3.289   4.082
 3335TIP3   OH2 9947   8.435   2.981   2.739
 3335TIP3    H1 9948   8.440   2.933   2.657
 3335TIP3    H2 9949   8.524   3.014   2.752
 3336TIP3   OH2 9950   0.618   3.652   4.289
 3336TIP3    H1 9951   0.693   3.623   4.237
 3336TIP3    H2 9952   0.610   3.589   4.360
 3337TIP3   OH2 9953   0.751   3.325   2.430
 3337TIP3    H1 9954   0.716   3.269   2.360
 3337TIP3    H2 9955   0.773   3.407   2.387
 3338TIP3   OH2 9956   0.224   3.044   4.278
 3338TIP3    H1 9957   0.222   2.964   4.225
 3338TIP3    H2 9958   0.180   3.110   4.224
 3339TIP3   OH2 9959   0.224   2.825   4.087
 3339TIP3    H1 9960   0.252   2.870   4.007
 3339TIP3    H2 9961   0.132   2.804   4.072
 3340TIP3   OH2 9962   0.251   3.368   3.964
 3340TIP3    H1 9963   0.332   3.369   3.913
 3340TIP3    H2 9964   0.191   3.425   3.916
 3341TIP3   OH2 9965   0.833   3.328   4.340
 3341TIP3    H1 9966   0.877   3.245   4.356
 3341TIP3    H2 9967   0.900   3.384   4.301
 3342TIP3   OH2 9968   0.873   3.586   4.076
 3342TIP3    H1 9969   0.816   3.638   4.020
 3342TIP3    H2 9970   0.961   3.600   4.041
 3343TIP3   OH2 9971   0.102   3.159   4.511
 3343TIP3    H1 9972   0.043   3.085   4.524
 3343TIP3    H2 9973   0.137   3.146   4.422
 3344TIP3   OH2 9974   0.354   2.590   4.158
 3344TIP3    H1 9975   0.310   2.671   4.134
 3344TIP3    H2 9976   0.287   2.522   4.146
 3345TIP3   OH2 9977   0.480   3.091   4.374
 3345TIP3    H1 9978   0.470   3.079   4.469
 3345TIP3    H2 9979   0.395   3.069   4.337
 3346TIP3   OH2 9980   0.721   3.043   4.229
 3346TIP3    H1 9981   0.647   3.045   4.289
 3346TIP3    H2 9982   0.794   3.013   4.283
 3347TIP3   OH2 9983   0.950   2.983   4.378
 3347TIP3    H1 9984   0.963   2.890   4.394
 3347TIP3    H2 9985   0.945   3.023   4.465
 3348TIP3   OH2 9986   8.464   2.931   4.565
 3348TIP3    H1 9987   8.454   2.843   4.528
 3348TIP3    H2 9988   8.490   2.915   4.656
 3349TIP3   OH2 9989   0.448   2.596   4.415
 3349TIP3    H1 9990   0.516   2.528   4.410
 3349TIP3    H2 9991   0.408   2.595   4.328
 3350TIP3   OH2 9992   0.514   2.812   4.574
 3350TIP3    H1 9993   0.494   2.743   4.511
 3350TIP3    H2 9994   0.440   2.872   4.568
 3351TIP3   OH2 9995   8.241   4.033   2.666
 3351TIP3    H1 9996   8.335   4.037   2.649
 3351TIP3    H2 9997   8.202   4.090   2.599
 3352TIP3   OH2 9998   0.981   4.307   3.291
 3352TIP3    H1 9999   1.015   4.317   3.379
 3352TIP3    H210000   1.054   4.332   3.234
 3353TIP3   OH210001   1.025   4.302   3.568
 3353TIP3    H110002   0.970   4.224   3.563
 3353TIP3    H210003   1.111   4.270   3.594
 3354TIP3   OH210004   1.070   3.986   4.148
 3354TIP3    H110005   0.999   3.993   4.212
 3354TIP3    H210006   1.112   4.072   4.150
 3355TIP3   OH210007   0.891   3.501   2.764
 3355TIP3    H110008   0.958   3.562   2.733
 3355TIP3    H210009   0.930   3.460   2.841
 3356TIP3   OH210010   1.013   3.368   2.969
 3356TIP3    H110011   0.951   3.324   3.027
 3356TIP3    H210012   1.082   3.400   3.026
 3357TIP3   OH210013   1.048   3.759   3.379
 3357TIP3    H110014   1.118   3.698   3.357
 3357TIP3    H210015   1.093   3.835   3.417
 3358TIP3   OH210016   0.838   4.085   3.573
 3358TIP3    H110017   0.815   4.078   3.666
 3358TIP3    H210018   0.857   3.995   3.547
 3359TIP3   OH210019   0.947   3.276   2.616
 3359TIP3    H110020   0.876   3.274   2.551
 3359TIP3    H210021   0.925   3.350   2.673
 3360TIP3   OH210022   0.822   2.944   2.564
 3360TIP3    H110023   0.774   2.979   2.488
 3360TIP3    H210024   0.806   2.850   2.561
 3361TIP3   OH210025   0.826   3.221   3.115
 3361TIP3    H110026   0.836   3.127   3.103
 3361TIP3    H210027   0.814   3.232   3.209
 3362TIP3   OH210028   1.117   3.642   3.970
 3362TIP3    H110029   1.186   3.575   3.966
 3362TIP3    H210030   1.149   3.713   3.914
 3363TIP3   OH210031   1.300   3.447   3.991
 3363TIP3    H110032   1.226   3.398   4.026
 3363TIP3    H210033   1.375   3.388   4.001
 3364TIP3   OH210034   0.775   2.679   2.547
 3364TIP3    H110035   0.839   2.645   2.610
 3364TIP3    H210036   0.696   2.629   2.564
 3365TIP3   OH210037   0.834   2.940   3.008
 3365TIP3    H110038   0.871   2.853   3.025
 3365TIP3    H210039   0.886   2.974   2.935
 3366TIP3   OH210040   0.988   3.113   3.504
 3366TIP3    H110041   1.070   3.134   3.460
 3366TIP3    H210042   0.998   3.147   3.592
 3367TIP3   OH210043   1.056   3.257   3.735
 3367TIP3    H110044   0.980   3.290   3.783
 3367TIP3    H210045   1.091   3.335   3.690
 3368TIP3   OH210046   8.189   2.895   4.639
 3368TIP3    H110047   8.255   2.932   4.581
 3368TIP3    H210048   8.107   2.935   4.611
 3369TIP3   OH210049   1.506   2.848   4.289
 3369TIP3    H110050   1.566   2.784   4.249
 3369TIP3    H210051   1.476   2.902   4.215
 3370TIP3   OH210052   0.934   2.688   3.049
 3370TIP3    H110053   0.982   2.672   3.130
 3370TIP3    H210054   0.873   2.614   3.043
 3371TIP3   OH210055   8.153   2.678   3.872
 3371TIP3    H110056   8.212   2.602   3.877
 3371TIP3    H210057   8.212   2.752   3.856
 3372TIP3   OH210058   1.372   2.984   4.096
 3372TIP3    H110059   1.289   3.028   4.113
 3372TIP3    H210060   1.349   2.911   4.038
 3373TIP3   OH210061   1.016   2.621   2.685
 3373TIP3    H110062   1.051   2.553   2.628
 3373TIP3    H210063   1.078   2.693   2.679
 3374TIP3   OH210064   8.133   2.537   4.267
 3374TIP3    H110065   8.095   2.539   4.354
 3374TIP3    H210066   8.075   2.590   4.213
 3375TIP3   OH210067   8.359   4.028   3.878
 3375TIP3    H110068   8.336   4.102   3.822
 3375TIP3    H210069   8.447   4.004   3.851
 3376TIP3   OH210070   0.305   4.236   4.016
 3376TIP3    H110071   0.343   4.233   4.104
 3376TIP3    H210072   0.368   4.285   3.964
 3377TIP3   OH210073   0.485   4.388   3.877
 3377TIP3    H110074   0.555   4.336   3.836
 3377TIP3    H210075   0.531   4.447   3.936
 3378TIP3   OH210076   1.275   2.747   3.975
 3378TIP3    H110077   1.186   2.743   3.939
 3378TIP3    H210078   1.309   2.658   3.965
 3379TIP3   OH210079   8.270   4.254   3.734
 3379TIP3    H110080   8.244   4.340   3.768
 3379TIP3    H210081   8.217   4.242   3.655
 3380TIP3   OH210082   0.199   4.259   3.554
 3380TIP3    H110083   0.135   4.280   3.486
 3380TIP3    H210084   0.215   4.342   3.599
 3381TIP3   OH210085   0.465   4.192   3.600
 3381TIP3    H110086   0.374   4.216   3.586
 3381TIP3    H210087   0.516   4.267   3.569
 3382TIP3   OH210088   0.666   4.385   3.517
 3382TIP3    H110089   0.652   4.472   3.479
 3382TIP3    H210090   0.706   4.334   3.446
 3383TIP3   OH210091   8.147   3.916   3.496
 3383TIP3    H110092   8.150   3.828   3.532
 3383TIP3    H210093   8.237   3.947   3.499
 3384TIP3   OH210094   8.424   4.011   3.512
 3384TIP3    H110095   8.443   3.919   3.494
 3384TIP3    H210096   8.470   4.030   3.593
 3385TIP3   OH210097   0.481   2.663   3.595
 3385TIP3    H110098   0.440   2.593   3.645
 3385TIP3    H210099   0.555   2.621   3.550
 3386TIP3   OH210100   1.000   2.546   3.499
 3386TIP3    H110101   1.039   2.595   3.427
 3386TIP3    H210102   0.907   2.566   3.495
 3387TIP3   OH210103   1.101   2.642   3.263
 3387TIP3    H110104   1.171   2.589   3.225
 3387TIP3    H210105   1.130   2.733   3.251
 3388TIP3   OH210106   8.216   2.363   3.602
 3388TIP3    H110107   8.135   2.315   3.616
 3388TIP3    H210108   8.284   2.296   3.601
 3389TIP3   OH210109   0.176   2.411   3.491
 3389TIP3    H110110   0.230   2.456   3.427
 3389TIP3    H210111   0.205   2.445   3.575
 3390TIP3   OH210112   0.716   2.551   3.476
 3390TIP3    H110113   0.719   2.517   3.387
 3390TIP3    H210114   0.704   2.473   3.531
 3391TIP3   OH210115   0.749   2.476   3.040
 3391TIP3    H110116   0.665   2.521   3.048
 3391TIP3    H210117   0.735   2.391   3.083
 3392TIP3   OH210118   0.156   2.576   3.124
 3392TIP3    H110119   0.212   2.530   3.186
 3392TIP3    H210120   0.169   2.669   3.145
 3393TIP3   OH210121   0.013   3.999   2.619
 3393TIP3    H110122   0.098   4.024   2.583
 3393TIP3    H210123  -0.016   3.927   2.562
 3394TIP3   OH210124   0.732   4.114   2.711
 3394TIP3    H110125   0.711   4.021   2.707
 3394TIP3    H210126   0.681   4.153   2.640
 3395TIP3   OH210127   8.438   2.656   4.495
 3395TIP3    H110128   8.399   2.586   4.547
 3395TIP3    H210129   8.530   2.659   4.524
 3396TIP3   OH210130   0.185   2.650   4.624
 3396TIP3    H110131   0.269   2.633   4.581
 3396TIP3    H210132   0.174   2.577   4.685
 3397TIP3   OH210133   1.015   2.712   4.409
 3397TIP3    H110134   1.031   2.683   4.499
 3397TIP3    H210135   1.101   2.709   4.367
 3398TIP3   OH210136   0.940   4.265   3.906
 3398TIP3    H110137   0.862   4.235   3.858
 3398TIP3    H210138   0.932   4.360   3.908
 3399TIP3   OH210139   2.222   3.649   2.669
 3399TIP3    H110140   2.192   3.736   2.646
 3399TIP3    H210141   2.158   3.590   2.629
 3400TIP3   OH210142   2.220   3.641   3.050
 3400TIP3    H110143   2.248   3.605   3.134
 3400TIP3    H210144   2.179   3.568   3.005
 3401TIP3   OH210145   1.513   3.527   3.412
 3401TIP3    H110146   1.543   3.461   3.475
 3401TIP3    H210147   1.583   3.592   3.409
 3402TIP3   OH210148   2.466   3.943   2.729
 3402TIP3    H110149   2.438   3.872   2.787
 3402TIP3    H210150   2.490   4.014   2.788
 3403TIP3   OH210151   1.494   3.940   3.119
 3403TIP3    H110152   1.478   3.847   3.132
 3403TIP3    H210153   1.590   3.948   3.124
 3404TIP3   OH210154   1.189   3.140   2.921
 3404TIP3    H110155   1.149   3.226   2.937
 3404TIP3    H210156   1.121   3.090   2.877
 3405TIP3   OH210157   1.252   3.429   3.095
 3405TIP3    H110158   1.300   3.355   3.132
 3405TIP3    H210159   1.314   3.469   3.034
 3406TIP3   OH210160   2.113   4.401   2.747
 3406TIP3    H110161   2.155   4.331   2.697
 3406TIP3    H210162   2.099   4.363   2.833
 3407TIP3   OH210163   2.018   3.863   3.095
 3407TIP3    H110164   2.051   3.786   3.049
 3407TIP3    H210165   2.097   3.911   3.120
 3408TIP3   OH210166   3.032   3.186   3.094
 3408TIP3    H110167   3.060   3.266   3.138
 3408TIP3    H210168   3.049   3.202   3.001
 3409TIP3   OH210169   2.428   3.362   3.125
 3409TIP3    H110170   2.468   3.278   3.146
 3409TIP3    H210171   2.394   3.350   3.036
 3410TIP3   OH210172   1.761   3.027   3.089
 3410TIP3    H110173   1.748   3.100   3.028
 3410TIP3    H210174   1.716   2.953   3.048
 3411TIP3   OH210175   2.465   3.112   2.717
 3411TIP3    H110176   2.534   3.098   2.781
 3411TIP3    H210177   2.509   3.153   2.643
 3412TIP3   OH210178   1.400   3.222   3.200
 3412TIP3    H110179   1.481   3.209   3.249
 3412TIP3    H210180   1.413   3.173   3.119
 3413TIP3   OH210181   1.841   3.423   2.998
 3413TIP3    H110182   1.934   3.403   3.008
 3413TIP3    H210183   1.803   3.343   2.961
 3414TIP3   OH210184   3.102   3.395   3.262
 3414TIP3    H110185   3.018   3.438   3.242
 3414TIP3    H210186   3.111   3.404   3.357
 3415TIP3   OH210187   1.759   3.009   3.529
 3415TIP3    H110188   1.705   3.045   3.458
 3415TIP3    H210189   1.709   3.027   3.609
 3416TIP3   OH210190   2.119   3.869   2.532
 3416TIP3    H110191   2.068   3.818   2.469
 3416TIP3    H210192   2.064   3.944   2.554
 3417TIP3   OH210193   1.872   3.784   3.317
 3417TIP3    H110194   1.811   3.849   3.352
 3417TIP3    H210195   1.914   3.828   3.243
 3418TIP3   OH210196   2.671   3.119   2.893
 3418TIP3    H110197   2.647   3.077   2.976
 3418TIP3    H210198   2.720   3.197   2.919
 3419TIP3   OH210199   1.636   3.124   3.311
 3419TIP3    H110200   1.694   3.196   3.336
 3419TIP3    H210201   1.679   3.083   3.236
 3420TIP3   OH210202   1.703   3.981   3.412
 3420TIP3    H110203   1.675   4.066   3.377
 3420TIP3    H210204   1.631   3.954   3.469
 3421TIP3   OH210205   1.087   3.671   2.656
 3421TIP3    H110206   1.051   3.697   2.570
 3421TIP3    H210207   1.120   3.753   2.693
 3422TIP3   OH210208   2.531   4.187   2.899
 3422TIP3    H110209   2.444   4.175   2.937
 3422TIP3    H210210   2.524   4.270   2.851
 3423TIP3   OH210211   2.822   3.087   3.258
 3423TIP3    H110212   2.734   3.110   3.228
 3423TIP3    H210213   2.880   3.117   3.189
 3424TIP3   OH210214   2.114   2.725   3.244
 3424TIP3    H110215   2.103   2.631   3.259
 3424TIP3    H210216   2.039   2.765   3.288
 3425TIP3   OH210217   2.233   4.227   2.567
 3425TIP3    H110218   2.278   4.145   2.550
 3425TIP3    H210219   2.289   4.294   2.528
 3426TIP3   OH210220   2.376   4.011   2.478
 3426TIP3    H110221   2.317   3.940   2.454
 3426TIP3    H210222   2.417   3.982   2.559
 3427TIP3   OH210223   2.756   4.094   3.238
 3427TIP3    H110224   2.743   4.017   3.183
 3427TIP3    H210225   2.735   4.168   3.180
 3428TIP3   OH210226   2.054   3.536   2.484
 3428TIP3    H110227   1.967   3.496   2.485
 3428TIP3    H210228   2.103   3.485   2.420
 3429TIP3   OH210229   1.997   3.277   2.198
 3429TIP3    H110230   2.042   3.308   2.276
 3429TIP3    H210231   2.058   3.216   2.157
 3430TIP3   OH210232   2.950   3.739   3.086
 3430TIP3    H110233   2.866   3.785   3.091
 3430TIP3    H210234   2.981   3.757   2.997
 3431TIP3   OH210235   2.397   3.579   2.472
 3431TIP3    H110236   2.339   3.600   2.545
 3431TIP3    H210237   2.478   3.550   2.514
 3432TIP3   OH210238   2.628   3.612   3.383
 3432TIP3    H110239   2.623   3.694   3.433
 3432TIP3    H210240   2.544   3.608   3.337
 3433TIP3   OH210241   1.629   3.569   2.888
 3433TIP3    H110242   1.582   3.513   2.826
 3433TIP3    H210243   1.704   3.517   2.916
 3434TIP3   OH210244   1.766   3.985   3.027
 3434TIP3    H110245   1.742   3.944   2.944
 3434TIP3    H210246   1.852   3.949   3.047
 3435TIP3   OH210247   1.764   3.540   3.240
 3435TIP3    H110248   1.794   3.514   3.152
 3435TIP3    H210249   1.806   3.624   3.256
 3436TIP3   OH210250   2.292   4.179   3.019
 3436TIP3    H110251   2.275   4.257   3.072
 3436TIP3    H210252   2.275   4.106   3.079
 3437TIP3   OH210253   1.898   4.096   3.566
 3437TIP3    H110254   1.840   4.158   3.610
 3437TIP3    H210255   1.840   4.044   3.511
 3438TIP3   OH210256   2.244   3.425   2.301
 3438TIP3    H110257   2.294   3.488   2.352
 3438TIP3    H210258   2.261   3.448   2.210
 3439TIP3   OH210259   1.655   3.651   3.670
 3439TIP3    H110260   1.663   3.738   3.709
 3439TIP3    H210261   1.561   3.630   3.677
 3440TIP3   OH210262   1.980   4.109   2.570
 3440TIP3    H110263   2.061   4.159   2.581
 3440TIP3    H210264   1.919   4.171   2.530
 3441TIP3   OH210265   1.694   4.265   3.651
 3441TIP3    H110266   1.664   4.264   3.560
 3441TIP3    H210267   1.617   4.239   3.702
 3442TIP3   OH210268   2.749   2.670   2.345
 3442TIP3    H110269   2.670   2.689   2.396
 3442TIP3    H210270   2.765   2.751   2.296
 3443TIP3   OH210271   1.483   3.413   2.706
 3443TIP3    H110272   1.427   3.456   2.641
 3443TIP3    H210273   1.465   3.319   2.694
 3444TIP3   OH210274   2.552   4.037   1.891
 3444TIP3    H110275   2.557   4.132   1.879
 3444TIP3    H210276   2.642   4.007   1.879
 3445TIP3   OH210277   2.994   4.440   3.302
 3445TIP3    H110278   2.990   4.344   3.297
 3445TIP3    H210279   2.907   4.466   3.332
 3446TIP3   OH210280   2.099   4.224   3.427
 3446TIP3    H110281   2.097   4.316   3.453
 3446TIP3    H210282   2.027   4.184   3.475
 3447TIP3   OH210283   1.861   4.356   2.372
 3447TIP3    H110284   1.813   4.337   2.292
 3447TIP3    H210285   1.828   4.441   2.400
 3448TIP3   OH210286   1.297   4.198   2.760
 3448TIP3    H110287   1.346   4.195   2.842
 3448TIP3    H210288   1.248   4.117   2.758
 3449TIP3   OH210289   2.063   4.256   2.013
 3449TIP3    H110290   2.118   4.187   1.977
 3449TIP3    H210291   2.094   4.267   2.102
 3450TIP3   OH210292   2.112   4.305   2.283
 3450TIP3    H110293   2.025   4.315   2.322
 3450TIP3    H210294   2.164   4.263   2.351
 3451TIP3   OH210295   2.881   3.571   3.559
 3451TIP3    H110296   2.798   3.581   3.512
 3451TIP3    H210297   2.900   3.477   3.554
 3452TIP3   OH210298   1.497   3.962   3.581
 3452TIP3    H110299   1.517   3.942   3.672
 3452TIP3    H210300   1.402   3.969   3.577
 3453TIP3   OH210301   1.875   2.802   3.374
 3453TIP3    H110302   1.790   2.770   3.344
 3453TIP3    H210303   1.855   2.884   3.419
 3454TIP3   OH210304   2.414   2.916   3.567
 3454TIP3    H110305   2.483   2.888   3.627
 3454TIP3    H210306   2.333   2.895   3.613
 3455TIP3   OH210307   2.650   3.349   3.487
 3455TIP3    H110308   2.601   3.343   3.569
 3455TIP3    H210309   2.623   3.433   3.449
 3456TIP3   OH210310   2.310   3.472   2.036
 3456TIP3    H110311   2.277   3.448   1.950
 3456TIP3    H210312   2.391   3.520   2.019
 3457TIP3   OH210313   2.022   2.846   2.342
 3457TIP3    H110314   1.987   2.862   2.429
 3457TIP3    H210315   1.983   2.764   2.314
 3458TIP3   OH210316   1.809   3.320   3.391
 3458TIP3    H110317   1.760   3.337   3.471
 3458TIP3    H210318   1.795   3.398   3.337
 3459TIP3   OH210319   1.706   3.206   2.893
 3459TIP3    H110320   1.614   3.178   2.894
 3459TIP3    H210321   1.732   3.199   2.801
 3460TIP3   OH210322   2.201   3.312   2.635
 3460TIP3    H110323   2.106   3.304   2.631
 3460TIP3    H210324   2.232   3.256   2.563
 3461TIP3   OH210325   2.361   3.565   3.719
 3461TIP3    H110326   2.335   3.494   3.777
 3461TIP3    H210327   2.454   3.579   3.739
 3462TIP3   OH210328   2.343   3.317   2.865
 3462TIP3    H110329   2.286   3.349   2.795
 3462TIP3    H210330   2.377   3.234   2.832
 3463TIP3   OH210331   1.632   3.347   3.599
 3463TIP3    H110332   1.648   3.416   3.663
 3463TIP3    H210333   1.621   3.267   3.652
 3464TIP3   OH210334   1.674   2.823   2.306
 3464TIP3    H110335   1.671   2.819   2.402
 3464TIP3    H210336   1.602   2.882   2.283
 3465TIP3   OH210337   1.224   2.865   3.183
 3465TIP3    H110338   1.296   2.900   3.235
 3465TIP3    H210339   1.263   2.841   3.100
 3466TIP3   OH210340   1.190   2.851   2.698
 3466TIP3    H110341   1.233   2.882   2.619
 3466TIP3    H210342   1.129   2.921   2.722
 3467TIP3   OH210343   2.360   3.559   3.295
 3467TIP3    H110344   2.389   3.493   3.233
 3467TIP3    H210345   2.326   3.509   3.369
 3468TIP3   OH210346   2.025   2.981   2.983
 3468TIP3    H110347   1.940   3.004   3.020
 3468TIP3    H210348   2.089   3.021   3.042
 3469TIP3   OH210349   1.456   3.083   2.968
 3469TIP3    H110350   1.364   3.090   2.942
 3469TIP3    H210351   1.480   2.993   2.947
 3470TIP3   OH210352   2.511   3.100   3.169
 3470TIP3    H110353   2.483   3.116   3.259
 3470TIP3    H210354   2.445   3.040   3.134
 3471TIP3   OH210355   1.543   3.095   2.439
 3471TIP3    H110356   1.492   3.064   2.365
 3471TIP3    H210357   1.617   3.142   2.400
 3472TIP3   OH210358   2.691   4.785   3.386
 3472TIP3    H110359   2.679   4.813   3.296
 3472TIP3    H210360   2.764   4.837   3.419
 3473TIP3   OH210361   1.647   3.891   3.823
 3473TIP3    H110362   1.724   3.926   3.867
 3473TIP3    H210363   1.578   3.894   3.890
 3474TIP3   OH210364   2.106   3.355   3.063
 3474TIP3    H110365   2.173   3.317   3.006
 3474TIP3    H210366   2.117   3.309   3.147
 3475TIP3   OH210367   1.624   2.839   2.943
 3475TIP3    H110368   1.590   2.764   2.991
 3475TIP3    H210369   1.674   2.801   2.871
 3476TIP3   OH210370   2.080   3.252   3.355
 3476TIP3    H110371   1.991   3.287   3.366
 3476TIP3    H210372   2.136   3.313   3.402
 3477TIP3   OH210373   1.776   3.668   2.434
 3477TIP3    H110374   1.727   3.586   2.430
 3477TIP3    H210375   1.784   3.686   2.528
 3478TIP3   OH210376   2.714   3.879   3.074
 3478TIP3    H110377   2.738   3.928   2.995
 3478TIP3    H210378   2.632   3.835   3.051
 3479TIP3   OH210379   2.272   2.954   2.300
 3479TIP3    H110380   2.179   2.935   2.317
 3479TIP3    H210381   2.285   3.043   2.333
 3480TIP3   OH210382   2.224   3.965   3.444
 3480TIP3    H110383   2.236   3.938   3.535
 3480TIP3    H210384   2.179   4.049   3.450
 3481TIP3   OH210385   2.348   3.194   2.409
 3481TIP3    H110386   2.439   3.210   2.431
 3481TIP3    H210387   2.318   3.276   2.369
 3482TIP3   OH210388   1.509   3.659   3.121
 3482TIP3    H110389   1.548   3.635   3.038
 3482TIP3    H210390   1.551   3.603   3.186
 3483TIP3   OH210391   1.956   3.790   2.264
 3483TIP3    H110392   1.915   3.876   2.272
 3483TIP3    H210393   1.906   3.734   2.323
 3484TIP3   OH210394   1.400   3.580   3.739
 3484TIP3    H110395   1.401   3.567   3.833
 3484TIP3    H210396   1.318   3.540   3.710
 3485TIP3   OH210397   2.119   3.699   3.754
 3485TIP3    H110398   2.055   3.644   3.709
 3485TIP3    H210399   2.204   3.665   3.728
 3486TIP3   OH210400   2.377   4.224   3.340
 3486TIP3    H110401   2.282   4.215   3.349
 3486TIP3    H210402   2.403   4.275   3.417
 3487TIP3   OH210403   2.785   3.294   2.244
 3487TIP3    H110404   2.726   3.246   2.185
 3487TIP3    H210405   2.784   3.384   2.210
 3488TIP3   OH210406   3.001   4.157   3.322
 3488TIP3    H110407   2.907   4.143   3.312
 3488TIP3    H210408   3.039   4.126   3.240
 3489TIP3   OH210409   2.491   4.110   2.160
 3489TIP3    H110410   2.460   4.045   2.223
 3489TIP3    H210411   2.499   4.062   2.078
 3490TIP3   OH210412   2.484   3.737   2.994
 3490TIP3    H110413   2.391   3.716   3.008
 3490TIP3    H210414   2.518   3.661   2.948
 3491TIP3   OH210415   1.613   3.970   2.748
 3491TIP3    H110416   1.613   4.048   2.692
 3491TIP3    H210417   1.520   3.951   2.763
 3492TIP3   OH210418   1.173   3.272   2.454
 3492TIP3    H110419   1.223   3.351   2.474
 3492TIP3    H210420   1.099   3.274   2.514
 3493TIP3   OH210421   1.751   3.734   2.697
 3493TIP3    H110422   1.716   3.822   2.711
 3493TIP3    H210423   1.715   3.682   2.768
 3494TIP3   OH210424   1.884   4.314   3.213
 3494TIP3    H110425   1.922   4.385   3.162
 3494TIP3    H210426   1.958   4.275   3.259
 3495TIP3   OH210427   1.528   4.210   2.600
 3495TIP3    H110428   1.444   4.217   2.645
 3495TIP3    H210429   1.564   4.299   2.602
 3496TIP3   OH210430   2.269   3.947   3.177
 3496TIP3    H110431   2.259   3.946   3.272
 3496TIP3    H210432   2.340   3.885   3.159
 3497TIP3   OH210433   2.243   3.841   2.061
 3497TIP3    H110434   2.300   3.817   2.134
 3497TIP3    H210435   2.155   3.813   2.089
 3498TIP3   OH210436   2.519   4.477   3.225
 3498TIP3    H110437   2.441   4.422   3.223
 3498TIP3    H210438   2.504   4.542   3.156
 3499TIP3   OH210439   2.581   4.315   1.877
 3499TIP3    H110440   2.621   4.386   1.826
 3499TIP3    H210441   2.502   4.354   1.914
 3500TIP3   OH210442   1.600   3.089   3.745
 3500TIP3    H110443   1.505   3.092   3.754
 3500TIP3    H210444   1.628   3.031   3.815
 3501TIP3   OH210445   2.408   3.767   2.267
 3501TIP3    H110446   2.390   3.710   2.342
 3501TIP3    H210447   2.504   3.768   2.260
 3502TIP3   OH210448   1.606   3.817   2.061
 3502TIP3    H110449   1.622   3.726   2.033
 3502TIP3    H210450   1.588   3.810   2.155
 3503TIP3   OH210451   1.553   3.823   2.333
 3503TIP3    H110452   1.630   3.785   2.375
 3503TIP3    H210453   1.563   3.917   2.345
 3504TIP3   OH210454   1.285   3.516   2.533
 3504TIP3    H110455   1.222   3.559   2.591
 3504TIP3    H210456   1.306   3.582   2.467
 3505TIP3   OH210457   2.442   3.154   3.429
 3505TIP3    H110458   2.522   3.191   3.466
 3505TIP3    H210459   2.427   3.074   3.479
 3506TIP3   OH210460   2.328   2.903   2.590
 3506TIP3    H110461   2.306   2.929   2.501
 3506TIP3    H210462   2.364   2.983   2.630
 3507TIP3   OH210463   1.818   4.025   2.277
 3507TIP3    H110464   1.733   4.044   2.316
 3507TIP3    H210465   1.837   4.100   2.220
 3508TIP3   OH210466   2.279   3.401   3.500
 3508TIP3    H110467   2.302   3.452   3.578
 3508TIP3    H210468   2.331   3.321   3.508
 3509TIP3   OH210469   2.143   2.816   2.790
 3509TIP3    H110470   2.119   2.887   2.849
 3509TIP3    H210471   2.210   2.853   2.733
 3510TIP3   OH210472   1.564   4.099   2.349
 3510TIP3    H110473   1.535   4.166   2.286
 3510TIP3    H210474   1.549   4.139   2.434
 3511TIP3   OH210475   1.664   2.815   2.580
 3511TIP3    H110476   1.646   2.909   2.590
 3511TIP3    H210477   1.758   2.808   2.594
 3512TIP3   OH210478   2.913   3.305   3.475
 3512TIP3    H110479   2.819   3.308   3.490
 3512TIP3    H210480   2.923   3.249   3.398
 3513TIP3   OH210481   2.568   3.496   2.870
 3513TIP3    H110482   2.490   3.441   2.877
 3513TIP3    H210483   2.636   3.448   2.917
 3514TIP3   OH210484   1.286   3.725   2.336
 3514TIP3    H110485   1.356   3.790   2.349
 3514TIP3    H210486   1.323   3.663   2.273
 3515TIP3   OH210487   1.213   2.996   2.472
 3515TIP3    H110488   1.232   3.090   2.469
 3515TIP3    H210489   1.130   2.987   2.425
 3516TIP3   OH210490   2.540   4.458   2.815
 3516TIP3    H110491   2.494   4.501   2.743
 3516TIP3    H210492   2.633   4.473   2.797
 3517TIP3   OH210493   1.611   2.720   3.344
 3517TIP3    H110494   1.583   2.690   3.258
 3517TIP3    H210495   1.602   2.644   3.401
 3518TIP3   OH210496   1.147   3.949   2.726
 3518TIP3    H110497   1.067   3.979   2.770
 3518TIP3    H210498   1.139   3.981   2.637
 3519TIP3   OH210499   1.309   4.481   3.802
 3519TIP3    H110500   1.395   4.479   3.843
 3519TIP3    H210501   1.281   4.389   3.799
 3520TIP3   OH210502   1.788   4.439   3.845
 3520TIP3    H110503   1.883   4.427   3.846
 3520TIP3    H210504   1.759   4.383   3.772
 3521TIP3   OH210505   1.770   4.017   1.969
 3521TIP3    H110506   1.712   3.953   2.010
 3521TIP3    H210507   1.848   3.967   1.943
 3522TIP3   OH210508   2.430   4.354   3.575
 3522TIP3    H110509   2.421   4.285   3.641
 3522TIP3    H210510   2.497   4.413   3.612
 3523TIP3   OH210511   2.208   4.059   1.884
 3523TIP3    H110512   2.243   3.994   1.944
 3523TIP3    H210513   2.267   4.056   1.809
 3524TIP3   OH210514   1.434   3.885   4.001
 3524TIP3    H110515   1.457   3.792   4.004
 3524TIP3    H210516   1.352   3.887   3.950
 3525TIP3   OH210517   1.421   3.533   2.196
 3525TIP3    H110518   1.471   3.500   2.271
 3525TIP3    H210519   1.485   3.541   2.125
 3526TIP3   OH210520   2.045   3.975   3.771
 3526TIP3    H110521   2.001   3.995   3.688
 3526TIP3    H210522   2.075   3.885   3.761
 3527TIP3   OH210523   1.928   3.736   1.998
 3527TIP3    H110524   1.931   3.752   2.092
 3527TIP3    H210525   1.929   3.641   1.990
 3528TIP3   OH210526   2.543   3.989   3.384
 3528TIP3    H110527   2.612   4.031   3.332
 3528TIP3    H210528   2.465   4.043   3.369
 3529TIP3   OH210529   1.557   3.625   3.990
 3529TIP3    H110530   1.633   3.584   3.949
 3529TIP3    H210531   1.590   3.656   4.075
 3530TIP3   OH210532   1.625   3.434   2.417
 3530TIP3    H110533   1.634   3.393   2.503
 3530TIP3    H210534   1.655   3.367   2.355
 3531TIP3   OH210535   1.897   3.513   3.645
 3531TIP3    H110536   1.816   3.565   3.647
 3531TIP3    H210537   1.944   3.543   3.568
 3532TIP3   OH210538   1.711   3.237   2.252
 3532TIP3    H110539   1.698   3.244   2.157
 3532TIP3    H210540   1.806   3.232   2.263
 3533TIP3   OH210541   2.414   3.908   3.777
 3533TIP3    H110542   2.483   3.872   3.721
 3533TIP3    H210543   2.405   3.846   3.849
 3534TIP3   OH210544   2.546   3.569   1.916
 3534TIP3    H110545   2.526   3.521   1.836
 3534TIP3    H210546   2.515   3.658   1.899
 3535TIP3   OH210547   2.016   3.297   3.766
 3535TIP3    H110548   2.018   3.219   3.711
 3535TIP3    H210549   1.975   3.364   3.712
 3536TIP3   OH210550   2.019   3.084   3.575
 3536TIP3    H110551   2.049   3.125   3.494
 3536TIP3    H210552   1.928   3.061   3.558
 3537TIP3   OH210553   2.047   3.622   3.451
 3537TIP3    H110554   2.129   3.626   3.404
 3537TIP3    H210555   1.989   3.683   3.405
 3538TIP3   OH210556   2.629   3.582   3.827
 3538TIP3    H110557   2.668   3.498   3.848
 3538TIP3    H210558   2.701   3.634   3.793
 3539TIP3   OH210559   2.671   3.845   3.570
 3539TIP3    H110560   2.612   3.893   3.512
 3539TIP3    H210561   2.757   3.856   3.530
 3540TIP3   OH210562   1.897   3.402   4.002
 3540TIP3    H110563   1.829   3.337   4.016
 3540TIP3    H210564   1.930   3.384   3.914
 3541TIP3   OH210565   2.150   2.847   3.645
 3541TIP3    H110566   2.105   2.928   3.621
 3541TIP3    H210567   2.085   2.778   3.632
 3542TIP3   OH210568   2.275   3.349   3.860
 3542TIP3    H110569   2.266   3.335   3.954
 3542TIP3    H210570   2.189   3.325   3.825
 3543TIP3   OH210571   2.517   3.300   3.716
 3543TIP3    H110572   2.442   3.300   3.776
 3543TIP3    H210573   2.591   3.269   3.769
 3544TIP3   OH210574   2.746   3.239   3.863
 3544TIP3    H110575   2.760   3.146   3.878
 3544TIP3    H210576   2.742   3.278   3.951
 3545TIP3   OH210577   1.734   3.183   4.056
 3545TIP3    H110578   1.739   3.096   4.018
 3545TIP3    H210579   1.772   3.173   4.144
 3546TIP3   OH210580   2.243   2.853   3.903
 3546TIP3    H110581   2.311   2.787   3.900
 3546TIP3    H210582   2.204   2.852   3.815
 3547TIP3   OH210583   2.310   3.069   4.060
 3547TIP3    H110584   2.291   2.998   3.998
 3547TIP3    H210585   2.235   3.128   4.053
 3548TIP3   OH210586   1.536   4.300   2.157
 3548TIP3    H110587   1.630   4.291   2.141
 3548TIP3    H210588   1.504   4.352   2.083
 3549TIP3   OH210589   1.015   3.679   2.372
 3549TIP3    H110590   1.106   3.706   2.361
 3549TIP3    H210591   1.010   3.592   2.334
 3550TIP3   OH210592   0.927   4.289   2.793
 3550TIP3    H110593   0.861   4.231   2.753
 3550TIP3    H210594   0.968   4.235   2.860
 3551TIP3   OH210595   1.056   4.141   2.983
 3551TIP3    H110596   1.097   4.059   3.012
 3551TIP3    H210597   1.098   4.208   3.037
 3552TIP3   OH210598   2.796   4.541   2.778
 3552TIP3    H110599   2.815   4.577   2.864
 3552TIP3    H210600   2.854   4.589   2.718
 3553TIP3   OH210601   2.818   4.563   3.060
 3553TIP3    H110602   2.773   4.479   3.054
 3553TIP3    H210603   2.899   4.545   3.107
 3554TIP3   OH210604   2.894   4.260   3.663
 3554TIP3    H110605   2.812   4.247   3.712
 3554TIP3    H210606   2.872   4.326   3.597
 3555TIP3   OH210607   2.689   3.753   2.251
 3555TIP3    H110608   2.753   3.818   2.223
 3555TIP3    H210609   2.727   3.714   2.330
 3556TIP3   OH210610   2.812   3.620   2.457
 3556TIP3    H110611   2.745   3.579   2.511
 3556TIP3    H210612   2.874   3.658   2.520
 3557TIP3   OH210613   2.871   4.017   2.888
 3557TIP3    H110614   2.920   3.949   2.842
 3557TIP3    H210615   2.860   4.087   2.824
 3558TIP3   OH210616   2.694   4.314   3.083
 3558TIP3    H110617   2.624   4.358   3.131
 3558TIP3    H210618   2.649   4.268   3.012
 3559TIP3   OH210619   2.746   3.532   2.100
 3559TIP3    H110620   2.677   3.530   2.033
 3559TIP3    H210621   2.723   3.605   2.157
 3560TIP3   OH210622   2.624   3.198   2.049
 3560TIP3    H110623   2.572   3.240   1.980
 3560TIP3    H210624   2.601   3.105   2.042
 3561TIP3   OH210625   2.626   3.478   2.602
 3561TIP3    H110626   2.627   3.383   2.592
 3561TIP3    H210627   2.609   3.492   2.695
 3562TIP3   OH210628   1.247   3.553   3.351
 3562TIP3    H110629   1.243   3.523   3.260
 3562TIP3    H210630   1.341   3.557   3.370
 3563TIP3   OH210631   2.919   3.905   3.461
 3563TIP3    H110632   2.983   3.835   3.452
 3563TIP3    H210633   2.933   3.960   3.384
 3564TIP3   OH210634   3.098   3.706   3.474
 3564TIP3    H110635   3.022   3.657   3.506
 3564TIP3    H210636   3.173   3.648   3.488
 3565TIP3   OH210637   2.565   2.932   2.034
 3565TIP3    H110638   2.633   2.904   2.096
 3565TIP3    H210639   2.488   2.880   2.060
 3566TIP3   OH210640   2.625   3.197   2.497
 3566TIP3    H110641   2.661   3.110   2.513
 3566TIP3    H210642   2.678   3.231   2.425
 3567TIP3   OH210643   2.783   3.365   2.992
 3567TIP3    H110644   2.865   3.389   2.948
 3567TIP3    H210645   2.793   3.401   3.080
 3568TIP3   OH210646   2.852   3.515   3.220
 3568TIP3    H110647   2.775   3.544   3.269
 3568TIP3    H210648   2.884   3.594   3.176
 3569TIP3   OH210649   1.468   3.233   4.021
 3569TIP3    H110650   1.563   3.232   4.022
 3569TIP3    H210651   1.442   3.150   4.061
 3570TIP3   OH210652   3.287   3.101   3.769
 3570TIP3    H110653   3.357   3.043   3.741
 3570TIP3    H210654   3.273   3.159   3.695
 3571TIP3   OH210655   2.732   2.944   2.532
 3571TIP3    H110656   2.777   2.930   2.615
 3571TIP3    H210657   2.668   2.872   2.528
 3572TIP3   OH210658   1.431   2.932   3.358
 3572TIP3    H110659   1.491   2.857   3.363
 3572TIP3    H210660   1.489   3.007   3.347
 3573TIP3   OH210661   1.232   3.205   3.425
 3573TIP3    H110662   1.280   3.198   3.342
 3573TIP3    H210663   1.254   3.292   3.458
 3574TIP3   OH210664   3.171   3.248   3.568
 3574TIP3    H110665   3.088   3.285   3.596
 3574TIP3    H210666   3.148   3.168   3.521
 3575TIP3   OH210667   2.809   2.877   2.167
 3575TIP3    H110668   2.847   2.808   2.113
 3575TIP3    H210669   2.873   2.949   2.163
 3576TIP3   OH210670   1.215   2.706   2.926
 3576TIP3    H110671   1.123   2.701   2.954
 3576TIP3    H210672   1.214   2.764   2.849
 3577TIP3   OH210673   2.376   4.412   2.431
 3577TIP3    H110674   2.428   4.400   2.352
 3577TIP3    H210675   2.424   4.478   2.481
 3578TIP3   OH210676   1.433   2.787   3.741
 3578TIP3    H110677   1.385   2.785   3.824
 3578TIP3    H210678   1.372   2.825   3.678
 3579TIP3   OH210679   1.479   4.211   3.820
 3579TIP3    H110680   1.387   4.195   3.799
 3579TIP3    H210681   1.485   4.195   3.914
 3580TIP3   OH210682   1.661   4.256   3.366
 3580TIP3    H110683   1.607   4.328   3.331
 3580TIP3    H210684   1.745   4.265   3.320
 3581TIP3   OH210685   2.097   4.491   3.505
 3581TIP3    H110686   2.137   4.493   3.592
 3581TIP3    H210687   2.158   4.541   3.450
 3582TIP3   OH210688   2.276   4.644   3.366
 3582TIP3    H110689   2.343   4.597   3.317
 3582TIP3    H210690   2.325   4.703   3.424
 3583TIP3   OH210691   3.072   3.002   3.460
 3583TIP3    H110692   2.981   2.993   3.432
 3583TIP3    H210693   3.108   2.913   3.453
 3584TIP3   OH210694   1.323   4.504   3.375
 3584TIP3    H110695   1.238   4.546   3.362
 3584TIP3    H210696   1.341   4.515   3.468
 3585TIP3   OH210697   1.565   4.486   3.245
 3585TIP3    H110698   1.480   4.497   3.288
 3585TIP3    H210699   1.551   4.518   3.156
 3586TIP3   OH210700   1.992   4.511   3.044
 3586TIP3    H110701   1.923   4.529   2.980
 3586TIP3    H210702   2.006   4.595   3.088
 3587TIP3   OH210703   2.261   4.453   3.099
 3587TIP3    H110704   2.168   4.466   3.081
 3587TIP3    H210705   2.304   4.527   3.055
 3588TIP3   OH210706   2.470   4.642   3.010
 3588TIP3    H110707   2.454   4.725   2.967
 3588TIP3    H210708   2.493   4.582   2.939
 3589TIP3   OH210709   1.235   4.294   3.132
 3589TIP3    H110710   1.269   4.293   3.222
 3589TIP3    H210711   1.304   4.253   3.080
 3590TIP3   OH210712   1.437   4.173   2.994
 3590TIP3    H110713   1.450   4.088   3.036
 3590TIP3    H210714   1.525   4.210   2.987
 3591TIP3   OH210715   1.705   4.260   2.999
 3591TIP3    H110716   1.731   4.169   2.985
 3591TIP3    H210717   1.749   4.287   3.079
 3592TIP3   OH210718   2.297   2.924   3.100
 3592TIP3    H110719   2.238   2.859   3.136
 3592TIP3    H210720   2.356   2.875   3.042
 3593TIP3   OH210721   2.799   2.801   2.981
 3593TIP3    H110722   2.834   2.853   2.909
 3593TIP3    H210723   2.705   2.818   2.980
 3594TIP3   OH210724   2.898   2.901   2.747
 3594TIP3    H110725   2.969   2.849   2.710
 3594TIP3    H210726   2.926   2.992   2.735
 3595TIP3   OH210727   1.525   2.626   3.097
 3595TIP3    H110728   1.433   2.598   3.098
 3595TIP3    H210729   1.575   2.545   3.093
 3596TIP3   OH210730   1.318   2.502   2.746
 3596TIP3    H110731   1.345   2.556   2.672
 3596TIP3    H210732   1.287   2.565   2.812
 3597TIP3   OH210733   1.973   2.661   2.980
 3597TIP3    H110734   2.018   2.713   2.914
 3597TIP3    H210735   1.994   2.704   3.063
 3598TIP3   OH210736   2.520   2.804   2.961
 3598TIP3    H110737   2.510   2.769   2.873
 3598TIP3    H210738   2.505   2.729   3.019
 3599TIP3   OH210739   2.545   2.733   2.526
 3599TIP3    H110740   2.464   2.782   2.541
 3599TIP3    H210741   2.530   2.649   2.569
 3600TIP3   OH210742   1.025   4.075   2.521
 3600TIP3    H110743   0.940   4.041   2.491
 3600TIP3    H210744   1.021   4.168   2.503
 3601TIP3   OH210745   1.433   2.655   2.512
 3601TIP3    H110746   1.477   2.596   2.450
 3601TIP3    H210747   1.503   2.711   2.545
 3602TIP3   OH210748   1.933   2.865   2.608
 3602TIP3    H110749   2.001   2.839   2.671
 3602TIP3    H210750   1.932   2.961   2.611
 3603TIP3   OH210751   1.804   4.254   2.104
 3603TIP3    H110752   1.890   4.279   2.071
 3603TIP3    H210753   1.778   4.180   2.048
 3604TIP3   OH210754   2.523   4.377   2.198
 3604TIP3    H110755   2.517   4.282   2.191
 3604TIP3    H210756   2.476   4.411   2.122
 3605TIP3   OH210757   1.734   2.907   3.991
 3605TIP3    H110758   1.699   2.837   4.046
 3605TIP3    H210759   1.827   2.911   4.014
 3606TIP3   OH210760   1.984   2.906   4.108
 3606TIP3    H110761   2.067   2.887   4.064
 3606TIP3    H210762   1.973   2.836   4.172
 3607TIP3   OH210763   1.106   4.091   2.163
 3607TIP3    H110764   1.110   4.118   2.255
 3607TIP3    H210765   1.191   4.051   2.146
 3608TIP3   OH210766   2.810   2.970   3.896
 3608TIP3    H110767   2.827   2.940   3.986
 3608TIP3    H210768   2.896   2.966   3.853
 3609TIP3   OH210769   2.740   4.515   3.397
 3609TIP3    H110770   2.667   4.485   3.342
 3609TIP3    H210771   2.732   4.610   3.398
 3610TIP3   OH210772   4.013   3.897   2.149
 3610TIP3    H110773   3.985   3.987   2.130
 3610TIP3    H210774   3.939   3.843   2.121
 3611TIP3   OH210775   4.014   3.893   2.540
 3611TIP3    H110776   4.048   3.870   2.626
 3611TIP3    H210777   3.971   3.813   2.509
 3612TIP3   OH210778   3.312   3.787   2.903
 3612TIP3    H110779   3.339   3.718   2.964
 3612TIP3    H210780   3.391   3.841   2.892
 3613TIP3   OH210781   4.258   4.197   2.220
 3613TIP3    H110782   4.241   4.128   2.283
 3613TIP3    H210783   4.287   4.272   2.273
 3614TIP3   OH210784   3.287   4.198   2.624
 3614TIP3    H110785   3.274   4.104   2.624
 3614TIP3    H210786   3.382   4.210   2.618
 3615TIP3   OH210787   2.988   3.404   2.405
 3615TIP3    H110788   2.941   3.485   2.425
 3615TIP3    H210789   2.922   3.347   2.366
 3616TIP3   OH210790   3.051   3.689   2.587
 3616TIP3    H110791   3.097   3.612   2.620
 3616TIP3    H210792   3.105   3.720   2.514
 3617TIP3   OH210793   3.911   4.658   2.234
 3617TIP3    H110794   3.952   4.589   2.183
 3617TIP3    H210795   3.896   4.619   2.320
 3618TIP3   OH210796   3.814   4.120   2.582
 3618TIP3    H110797   3.848   4.042   2.539
 3618TIP3    H210798   3.892   4.169   2.609
 3619TIP3   OH210799   4.828   3.442   2.581
 3619TIP3    H110800   4.855   3.522   2.627
 3619TIP3    H210801   4.846   3.460   2.489
 3620TIP3   OH210802   4.225   3.619   2.612
 3620TIP3    H110803   4.266   3.536   2.635
 3620TIP3    H210804   4.192   3.604   2.523
 3621TIP3   OH210805   3.563   3.281   2.575
 3621TIP3    H110806   3.544   3.354   2.517
 3621TIP3    H210807   3.516   3.207   2.537
 3622TIP3   OH210808   4.261   3.371   2.201
 3622TIP3    H110809   4.328   3.357   2.268
 3622TIP3    H210810   4.309   3.407   2.126
 3623TIP3   OH210811   3.198   3.480   2.687
 3623TIP3    H110812   3.277   3.462   2.737
 3623TIP3    H210813   3.207   3.427   2.608
 3624TIP3   OH210814   3.636   3.678   2.482
 3624TIP3    H110815   3.728   3.656   2.495
 3624TIP3    H210816   3.596   3.597   2.450
 3625TIP3   OH210817   4.897   3.651   2.750
 3625TIP3    H110818   4.814   3.694   2.731
 3625TIP3    H210819   4.915   3.671   2.842
 3626TIP3   OH210820   3.556   3.264   3.015
 3626TIP3    H110821   3.499   3.299   2.946
 3626TIP3    H210822   3.507   3.279   3.096
 3627TIP3   OH210823   3.903   4.117   2.019
 3627TIP3    H110824   3.862   4.096   1.936
 3627TIP3    H210825   3.859   4.198   2.048
 3628TIP3   OH210826   3.664   4.042   2.805
 3628TIP3    H110827   3.604   4.107   2.843
 3628TIP3    H210828   3.707   4.089   2.734
 3629TIP3   OH210829   4.465   3.377   2.380
 3629TIP3    H110830   4.442   3.335   2.464
 3629TIP3    H210831   4.516   3.454   2.405
 3630TIP3   OH210832   3.434   3.380   2.796
 3630TIP3    H110833   3.492   3.451   2.822
 3630TIP3    H210834   3.480   3.337   2.723
 3631TIP3   OH210835   3.491   4.238   2.907
 3631TIP3    H110836   3.470   4.323   2.868
 3631TIP3    H210837   3.416   4.217   2.963
 3632TIP3   OH210838   2.888   3.928   2.142
 3632TIP3    H110839   2.843   3.951   2.061
 3632TIP3    H210840   2.917   4.011   2.178
 3633TIP3   OH210841   4.324   4.443   2.383
 3633TIP3    H110842   4.238   4.431   2.423
 3633TIP3    H210843   4.317   4.527   2.338
 3634TIP3   OH210844   4.619   3.338   2.744
 3634TIP3    H110845   4.532   3.368   2.717
 3634TIP3    H210846   4.678   3.370   2.676
 3635TIP3   OH210847   3.910   2.981   2.732
 3635TIP3    H110848   3.898   2.887   2.748
 3635TIP3    H210849   3.836   3.022   2.776
 3636TIP3   OH210850   4.028   4.485   2.052
 3636TIP3    H110851   4.074   4.403   2.037
 3636TIP3    H210852   4.086   4.552   2.015
 3637TIP3   OH210853   4.170   4.269   1.968
 3637TIP3    H110854   4.127   4.191   1.932
 3637TIP3    H210855   4.209   4.238   2.050
 3638TIP3   OH210856   4.550   4.353   2.724
 3638TIP3    H110857   4.539   4.275   2.669
 3638TIP3    H210858   4.534   4.426   2.664
 3639TIP3   OH210859   3.843   3.746   1.984
 3639TIP3    H110860   3.764   3.796   1.966
 3639TIP3    H210861   3.889   3.744   1.901
 3640TIP3   OH210862   3.804   3.533   1.698
 3640TIP3    H110863   3.868   3.584   1.748
 3640TIP3    H210864   3.856   3.470   1.649
 3641TIP3   OH210865   4.746   3.993   2.571
 3641TIP3    H110866   4.663   4.041   2.579
 3641TIP3    H210867   4.777   4.013   2.483
 3642TIP3   OH210868   4.193   3.829   1.957
 3642TIP3    H110869   4.137   3.854   2.030
 3642TIP3    H210870   4.276   3.804   1.998
 3643TIP3   OH210871   4.424   3.868   2.871
 3643TIP3    H110872   4.424   3.948   2.924
 3643TIP3    H210873   4.340   3.870   2.825
 3644TIP3   OH210874   3.425   3.823   2.372
 3644TIP3    H110875   3.383   3.768   2.306
 3644TIP3    H210876   3.499   3.772   2.403
 3645TIP3   OH210877   3.555   4.239   2.518
 3645TIP3    H110878   3.532   4.201   2.433
 3645TIP3    H210879   3.642   4.204   2.538
 3646TIP3   OH210880   3.560   3.798   2.727
 3646TIP3    H110881   3.592   3.774   2.640
 3646TIP3    H210882   3.602   3.882   2.746
 3647TIP3   OH210883   4.086   4.435   2.507
 3647TIP3    H110884   4.072   4.513   2.560
 3647TIP3    H210885   4.070   4.362   2.566
 3648TIP3   OH210886   3.696   4.353   3.050
 3648TIP3    H110887   3.640   4.415   3.097
 3648TIP3    H210888   3.635   4.299   3.000
 3649TIP3   OH210889   4.033   3.688   1.782
 3649TIP3    H110890   4.089   3.745   1.834
 3649TIP3    H210891   4.056   3.708   1.691
 3650TIP3   OH210892   3.450   3.912   3.157
 3650TIP3    H110893   3.456   3.997   3.201
 3650TIP3    H210894   3.358   3.888   3.164
 3651TIP3   OH210895   3.778   4.364   2.057
 3651TIP3    H110896   3.858   4.416   2.068
 3651TIP3    H210897   3.716   4.425   2.016
 3652TIP3   OH210898   3.492   4.521   3.135
 3652TIP3    H110899   3.461   4.522   3.044
 3652TIP3    H210900   3.413   4.504   3.187
 3653TIP3   OH210901   4.546   2.927   1.832
 3653TIP3    H110902   4.466   2.945   1.882
 3653TIP3    H210903   4.562   3.007   1.782
 3654TIP3   OH210904   3.289   3.669   2.174
 3654TIP3    H110905   3.223   3.714   2.121
 3654TIP3    H210906   3.252   3.583   2.192
 3655TIP3   OH210907   4.349   4.294   1.379
 3655TIP3    H110908   4.353   4.389   1.365
 3655TIP3    H210909   4.439   4.264   1.367
 3656TIP3   OH210910   3.070   4.052   3.085
 3656TIP3    H110911   3.004   4.035   3.018
 3656TIP3    H210912   3.106   3.966   3.106
 3657TIP3   OH210913   2.925   4.248   2.716
 3657TIP3    H110914   3.021   4.241   2.708
 3657TIP3    H210915   2.911   4.326   2.769
 3658TIP3   OH210916   4.785   4.697   2.773
 3658TIP3    H110917   4.789   4.603   2.786
 3658TIP3    H210918   4.705   4.724   2.818
 3659TIP3   OH210919   3.893   4.484   2.910
 3659TIP3    H110920   3.893   4.575   2.940
 3659TIP3    H210921   3.825   4.441   2.961
 3660TIP3   OH210922   3.658   4.612   1.859
 3660TIP3    H110923   3.611   4.592   1.779
 3660TIP3    H210924   3.625   4.698   1.886
 3661TIP3   OH210925   3.095   4.458   2.247
 3661TIP3    H110926   3.140   4.451   2.331
 3661TIP3    H210927   3.042   4.378   2.242
 3662TIP3   OH210928   3.860   4.513   1.500
 3662TIP3    H110929   3.915   4.444   1.463
 3662TIP3    H210930   3.891   4.523   1.589
 3663TIP3   OH210931   3.909   4.561   1.770
 3663TIP3    H110932   3.821   4.571   1.808
 3663TIP3    H210933   3.961   4.521   1.840
 3664TIP3   OH210934   4.680   3.827   3.047
 3664TIP3    H110935   4.595   3.838   3.003
 3664TIP3    H210936   4.697   3.733   3.044
 3665TIP3   OH210937   3.276   4.233   3.075
 3665TIP3    H110938   3.325   4.217   3.155
 3665TIP3    H210939   3.203   4.171   3.077
 3666TIP3   OH210940   3.672   3.061   2.860
 3666TIP3    H110941   3.587   3.027   2.831
 3666TIP3    H210942   3.651   3.140   2.908
 3667TIP3   OH210943   4.210   3.171   3.055
 3667TIP3    H110944   4.278   3.148   3.117
 3667TIP3    H210945   4.128   3.154   3.101
 3668TIP3   OH210946   4.445   3.604   2.973
 3668TIP3    H110947   4.399   3.599   3.056
 3668TIP3    H210948   4.421   3.690   2.938
 3669TIP3   OH210949   4.110   3.729   1.524
 3669TIP3    H110950   4.073   3.706   1.439
 3669TIP3    H210951   4.191   3.776   1.503
 3670TIP3   OH210952   3.820   3.103   1.831
 3670TIP3    H110953   3.788   3.105   1.921
 3670TIP3    H210954   3.781   3.024   1.794
 3671TIP3   OH210955   3.606   3.576   2.878
 3671TIP3    H110956   3.558   3.593   2.959
 3671TIP3    H210957   3.592   3.655   2.825
 3672TIP3   OH210958   3.488   3.460   2.388
 3672TIP3    H110959   3.398   3.436   2.410
 3672TIP3    H210960   3.503   3.421   2.302
 3673TIP3   OH210961   3.981   3.547   2.118
 3673TIP3    H110962   3.929   3.617   2.078
 3673TIP3    H210963   4.035   3.514   2.047
 3674TIP3   OH210964   4.157   3.821   3.205
 3674TIP3    H110965   4.132   3.751   3.264
 3674TIP3    H210966   4.250   3.837   3.225
 3675TIP3   OH210967   4.137   3.571   2.353
 3675TIP3    H110968   4.074   3.603   2.287
 3675TIP3    H210969   4.173   3.492   2.314
 3676TIP3   OH210970   3.426   3.601   3.087
 3676TIP3    H110971   3.459   3.662   3.153
 3676TIP3    H210972   3.413   3.519   3.134
 3677TIP3   OH210973   3.476   3.083   1.796
 3677TIP3    H110974   3.468   3.079   1.892
 3677TIP3    H210975   3.400   3.134   1.768
 3678TIP3   OH210976   3.021   3.124   2.665
 3678TIP3    H110977   3.093   3.156   2.719
 3678TIP3    H210978   3.063   3.092   2.585
 3679TIP3   OH210979   2.986   3.108   2.183
 3679TIP3    H110980   3.032   3.142   2.106
 3679TIP3    H210981   2.925   3.177   2.207
 3680TIP3   OH210982   4.148   3.817   2.778
 3680TIP3    H110983   4.182   3.750   2.719
 3680TIP3    H210984   4.119   3.768   2.855
 3681TIP3   OH210985   3.821   3.280   2.453
 3681TIP3    H110986   3.739   3.280   2.503
 3681TIP3    H210987   3.890   3.277   2.519
 3682TIP3   OH210988   3.251   3.339   2.457
 3682TIP3    H110989   3.159   3.348   2.431
 3682TIP3    H210990   3.274   3.249   2.436
 3683TIP3   OH210991   3.519   3.334   2.148
 3683TIP3    H110992   3.611   3.350   2.127
 3683TIP3    H210993   3.472   3.356   2.068
 3684TIP3   OH210994   4.308   3.357   2.653
 3684TIP3    H110995   4.282   3.371   2.744
 3684TIP3    H210996   4.241   3.298   2.618
 3685TIP3   OH210997   3.366   3.369   1.923
 3685TIP3    H110998   3.294   3.324   1.879
 3685TIP3    H210999   3.418   3.405   1.852
 3686TIP3   OH211000   4.476   5.047   2.867
 3686TIP3    H111001   4.478   5.052   2.771
 3686TIP3    H211002   4.559   5.086   2.894
 3687TIP3   OH211003   3.430   4.163   3.304
 3687TIP3    H111004   3.514   4.187   3.342
 3687TIP3    H211005   3.371   4.158   3.379
 3688TIP3   OH211006   3.901   3.612   2.551
 3688TIP3    H111007   3.973   3.571   2.503
 3688TIP3    H211008   3.904   3.571   2.637
 3689TIP3   OH211009   3.421   3.095   2.432
 3689TIP3    H111010   3.384   3.021   2.481
 3689TIP3    H211011   3.466   3.055   2.358
 3690TIP3   OH211012   3.877   3.514   2.835
 3690TIP3    H111013   3.788   3.546   2.853
 3690TIP3    H211014   3.933   3.571   2.887
 3691TIP3   OH211015   3.612   3.896   1.935
 3691TIP3    H111016   3.542   3.833   1.920
 3691TIP3    H211017   3.595   3.931   2.023
 3692TIP3   OH211018   4.512   4.135   2.559
 3692TIP3    H111019   4.537   4.184   2.481
 3692TIP3    H211020   4.429   4.093   2.536
 3693TIP3   OH211021   4.070   3.210   1.799
 3693TIP3    H111022   3.976   3.190   1.808
 3693TIP3    H211023   4.078   3.302   1.824
 3694TIP3   OH211024   4.015   4.219   2.931
 3694TIP3    H111025   4.041   4.195   3.020
 3694TIP3    H211026   3.974   4.305   2.941
 3695TIP3   OH211027   4.140   3.459   1.902
 3695TIP3    H111028   4.235   3.465   1.917
 3695TIP3    H211029   4.120   3.537   1.850
 3696TIP3   OH211030   3.310   3.923   2.608
 3696TIP3    H111031   3.345   3.895   2.523
 3696TIP3    H211032   3.348   3.862   2.671
 3697TIP3   OH211033   3.757   4.049   1.758
 3697TIP3    H111034   3.712   4.133   1.761
 3697TIP3    H211035   3.705   3.992   1.815
 3698TIP3   OH211036   3.185   3.840   3.225
 3698TIP3    H111037   3.205   3.823   3.317
 3698TIP3    H211038   3.119   3.775   3.202
 3699TIP3   OH211039   3.916   3.957   3.239
 3699TIP3    H111040   3.854   3.897   3.198
 3699TIP3    H211041   4.002   3.923   3.215
 3700TIP3   OH211042   4.171   4.484   2.826
 3700TIP3    H111043   4.076   4.475   2.838
 3700TIP3    H211044   4.201   4.531   2.904
 3701TIP3   OH211045   4.580   3.551   1.731
 3701TIP3    H111046   4.521   3.503   1.673
 3701TIP3    H211047   4.580   3.641   1.697
 3702TIP3   OH211048   4.800   4.409   2.812
 3702TIP3    H111049   4.704   4.402   2.808
 3702TIP3    H211050   4.829   4.379   2.726
 3703TIP3   OH211051   4.286   4.367   1.645
 3703TIP3    H111052   4.257   4.299   1.707
 3703TIP3    H211053   4.297   4.321   1.562
 3704TIP3   OH211054   4.278   3.996   2.475
 3704TIP3    H111055   4.186   3.973   2.492
 3704TIP3    H211056   4.314   3.918   2.433
 3705TIP3   OH211057   3.407   4.227   2.234
 3705TIP3    H111058   3.406   4.307   2.181
 3705TIP3    H211059   3.314   4.207   2.248
 3706TIP3   OH211060   2.971   3.530   1.943
 3706TIP3    H111061   3.017   3.612   1.961
 3706TIP3    H211062   2.895   3.532   2.000
 3707TIP3   OH211063   3.541   3.990   2.179
 3707TIP3    H111064   3.509   4.079   2.195
 3707TIP3    H211065   3.507   3.938   2.251
 3708TIP3   OH211066   3.680   4.568   2.704
 3708TIP3    H111067   3.719   4.639   2.653
 3708TIP3    H211068   3.753   4.530   2.752
 3709TIP3   OH211069   3.325   4.465   2.088
 3709TIP3    H111070   3.240   4.470   2.133
 3709TIP3    H211071   3.358   4.555   2.089
 3710TIP3   OH211072   4.065   4.203   2.664
 3710TIP3    H111073   4.052   4.204   2.759
 3710TIP3    H211074   4.142   4.148   2.650
 3711TIP3   OH211075   4.041   4.097   1.548
 3711TIP3    H111076   4.095   4.073   1.623
 3711TIP3    H211077   3.952   4.069   1.572
 3712TIP3   OH211078   4.311   4.735   2.714
 3712TIP3    H111079   4.236   4.675   2.713
 3712TIP3    H211080   4.294   4.796   2.642
 3713TIP3   OH211081   4.377   4.572   1.364
 3713TIP3    H111082   4.415   4.640   1.308
 3713TIP3    H211083   4.298   4.611   1.400
 3714TIP3   OH211084   3.396   3.346   3.230
 3714TIP3    H111085   3.301   3.351   3.241
 3714TIP3    H211086   3.426   3.291   3.302
 3715TIP3   OH211087   4.204   4.027   1.760
 3715TIP3    H111088   4.190   3.963   1.831
 3715TIP3    H211089   4.299   4.027   1.747
 3716TIP3   OH211090   3.116   4.431   2.863
 3716TIP3    H111091   3.168   4.357   2.895
 3716TIP3    H211092   3.145   4.505   2.916
 3717TIP3   OH211093   3.405   4.073   1.546
 3717TIP3    H111094   3.417   3.983   1.517
 3717TIP3    H211095   3.385   4.066   1.640
 3718TIP3   OH211096   3.350   4.083   1.817
 3718TIP3    H111097   3.420   4.052   1.876
 3718TIP3    H211098   3.352   4.178   1.824
 3719TIP3   OH211099   3.083   3.776   2.022
 3719TIP3    H111100   3.017   3.816   2.079
 3719TIP3    H211101   3.098   3.841   1.953
 3720TIP3   OH211102   4.242   3.405   2.911
 3720TIP3    H111103   4.315   3.449   2.954
 3720TIP3    H211104   4.225   3.328   2.965
 3721TIP3   OH211105   4.120   3.160   2.079
 3721TIP3    H111106   4.104   3.181   1.987
 3721TIP3    H211107   4.158   3.240   2.116
 3722TIP3   OH211108   3.615   4.280   1.765
 3722TIP3    H111109   3.530   4.302   1.803
 3722TIP3    H211110   3.633   4.352   1.705
 3723TIP3   OH211111   3.804   3.343   2.182
 3723TIP3    H111112   3.866   3.414   2.164
 3723TIP3    H211113   3.808   3.333   2.277
 3724TIP3   OH211114   4.077   3.659   2.989
 3724TIP3    H111115   4.096   3.713   3.065
 3724TIP3    H211116   4.128   3.579   3.002
 3725TIP3   OH211117   3.948   3.066   2.281
 3725TIP3    H111118   3.937   3.141   2.340
 3725TIP3    H211119   4.009   3.098   2.214
 3726TIP3   OH211120   3.361   4.356   1.835
 3726TIP3    H111121   3.332   4.423   1.773
 3726TIP3    H211122   3.345   4.395   1.921
 3727TIP3   OH211123   3.463   3.069   2.072
 3727TIP3    H111124   3.455   3.157   2.109
 3727TIP3    H211125   3.557   3.048   2.078
 3728TIP3   OH211126   4.709   3.559   2.964
 3728TIP3    H111127   4.615   3.561   2.978
 3728TIP3    H211128   4.721   3.512   2.882
 3729TIP3   OH211129   4.365   3.752   2.357
 3729TIP3    H111130   4.288   3.696   2.368
 3729TIP3    H211131   4.435   3.707   2.404
 3730TIP3   OH211132   3.082   3.980   1.824
 3730TIP3    H111133   3.147   4.049   1.835
 3730TIP3    H211134   3.120   3.921   1.759
 3731TIP3   OH211135   3.020   3.260   1.958
 3731TIP3    H111136   3.022   3.355   1.957
 3731TIP3    H211137   2.935   3.237   1.919
 3732TIP3   OH211138   4.335   4.716   2.303
 3732TIP3    H111139   4.289   4.760   2.231
 3732TIP3    H211140   4.427   4.731   2.285
 3733TIP3   OH211141   3.410   2.977   2.830
 3733TIP3    H111142   3.379   2.945   2.745
 3733TIP3    H211143   3.400   2.902   2.889
 3734TIP3   OH211144   2.945   4.200   2.210
 3734TIP3    H111145   2.882   4.226   2.277
 3734TIP3    H211146   2.913   4.241   2.130
 3735TIP3   OH211147   3.112   4.742   3.285
 3735TIP3    H111148   3.195   4.749   3.331
 3735TIP3    H211149   3.096   4.648   3.277
 3736TIP3   OH211150   3.586   4.700   3.327
 3736TIP3    H111151   3.679   4.684   3.339
 3736TIP3    H211152   3.560   4.642   3.256
 3737TIP3   OH211153   3.567   4.275   1.455
 3737TIP3    H111154   3.512   4.208   1.495
 3737TIP3    H211155   3.643   4.227   1.423
 3738TIP3   OH211156   4.228   4.610   3.063
 3738TIP3    H111157   4.218   4.541   3.128
 3738TIP3    H211158   4.303   4.661   3.093
 3739TIP3   OH211159   4.004   4.317   1.370
 3739TIP3    H111160   4.043   4.253   1.429
 3739TIP3    H211161   4.060   4.315   1.292
 3740TIP3   OH211162   3.213   4.142   3.502
 3740TIP3    H111163   3.249   4.054   3.498
 3740TIP3    H211164   3.144   4.143   3.436
 3741TIP3   OH211165   3.218   3.794   1.679
 3741TIP3    H111166   3.269   3.762   1.754
 3741TIP3    H211167   3.281   3.799   1.608
 3742TIP3   OH211168   3.843   4.232   3.258
 3742TIP3    H111169   3.802   4.250   3.173
 3742TIP3    H211170   3.875   4.142   3.250
 3743TIP3   OH211171   3.730   3.993   1.489
 3743TIP3    H111172   3.729   4.009   1.583
 3743TIP3    H211173   3.728   3.898   1.480
 3744TIP3   OH211174   4.336   4.245   2.864
 3744TIP3    H111175   4.411   4.287   2.822
 3744TIP3    H211176   4.264   4.306   2.851
 3745TIP3   OH211177   3.358   3.890   3.468
 3745TIP3    H111178   3.427   3.830   3.439
 3745TIP3    H211179   3.384   3.915   3.557
 3746TIP3   OH211180   3.420   3.700   1.899
 3746TIP3    H111181   3.392   3.663   1.983
 3746TIP3    H211182   3.456   3.625   1.851
 3747TIP3   OH211183   3.689   3.766   3.127
 3747TIP3    H111184   3.613   3.824   3.130
 3747TIP3    H211185   3.740   3.797   3.052
 3748TIP3   OH211186   3.525   3.496   1.738
 3748TIP3    H111187   3.496   3.501   1.647
 3748TIP3    H211188   3.620   3.500   1.733
 3749TIP3   OH211189   4.209   4.165   3.262
 3749TIP3    H111190   4.287   4.136   3.214
 3749TIP3    H211191   4.201   4.104   3.335
 3750TIP3   OH211192   4.342   3.825   1.403
 3750TIP3    H111193   4.322   3.777   1.323
 3750TIP3    H211194   4.312   3.914   1.386
 3751TIP3   OH211195   3.812   3.554   3.253
 3751TIP3    H111196   3.814   3.475   3.200
 3751TIP3    H211197   3.770   3.620   3.198
 3752TIP3   OH211198   3.816   3.340   3.059
 3752TIP3    H111199   3.845   3.380   2.977
 3752TIP3    H211200   3.724   3.317   3.044
 3753TIP3   OH211201   3.841   3.875   2.933
 3753TIP3    H111202   3.926   3.885   2.891
 3753TIP3    H211203   3.785   3.939   2.889
 3754TIP3   OH211204   4.422   3.839   3.312
 3754TIP3    H111205   4.463   3.762   3.350
 3754TIP3    H211206   4.495   3.892   3.280
 3755TIP3   OH211207   4.467   4.097   3.048
 3755TIP3    H111208   4.408   4.149   2.994
 3755TIP3    H211209   4.554   4.114   3.012
 3756TIP3   OH211210   3.686   3.662   3.483
 3756TIP3    H111211   3.623   3.592   3.502
 3756TIP3    H211212   3.726   3.636   3.400
 3757TIP3   OH211213   3.946   3.102   3.128
 3757TIP3    H111214   3.900   3.183   3.108
 3757TIP3    H211215   3.878   3.034   3.120
 3758TIP3   OH211216   4.072   3.606   3.347
 3758TIP3    H111217   4.069   3.593   3.442
 3758TIP3    H211218   3.985   3.582   3.316
 3759TIP3   OH211219   4.311   3.551   3.200
 3759TIP3    H111220   4.238   3.555   3.262
 3759TIP3    H211221   4.386   3.523   3.254
 3760TIP3   OH211222   4.541   3.492   3.346
 3760TIP3    H111223   4.555   3.400   3.369
 3760TIP3    H211224   4.534   3.537   3.431
 3761TIP3   OH211225   3.534   3.439   3.542
 3761TIP3    H111226   3.536   3.350   3.507
 3761TIP3    H211227   3.572   3.431   3.629
 3762TIP3   OH211228   4.043   3.111   3.385
 3762TIP3    H111229   4.109   3.042   3.383
 3762TIP3    H211230   4.002   3.107   3.299
 3763TIP3   OH211231   4.108   3.328   3.544
 3763TIP3    H111232   4.086   3.257   3.484
 3763TIP3    H211233   4.031   3.385   3.541
 3764TIP3   OH211234   3.334   4.558   1.646
 3764TIP3    H111235   3.427   4.548   1.629
 3764TIP3    H211236   3.300   4.607   1.571
 3765TIP3   OH211237   2.811   3.938   1.858
 3765TIP3    H111238   2.904   3.959   1.848
 3765TIP3    H211239   2.802   3.851   1.819
 3766TIP3   OH211240   2.726   4.547   2.278
 3766TIP3    H111241   2.659   4.491   2.239
 3766TIP3    H211242   2.771   4.491   2.342
 3767TIP3   OH211243   2.862   4.397   2.466
 3767TIP3    H111244   2.845   4.326   2.528
 3767TIP3    H211245   2.912   4.461   2.517
 3768TIP3   OH211246   4.589   4.804   2.265
 3768TIP3    H111247   4.618   4.830   2.352
 3768TIP3    H211248   4.656   4.839   2.206
 3769TIP3   OH211249   4.621   4.817   2.549
 3769TIP3    H111250   4.571   4.736   2.541
 3769TIP3    H211251   4.694   4.794   2.607
 3770TIP3   OH211252   4.662   4.502   3.119
 3770TIP3    H111253   4.591   4.507   3.183
 3770TIP3    H211254   4.705   4.587   3.125
 3771TIP3   OH211255   4.483   4.010   1.738
 3771TIP3    H111256   4.547   4.075   1.709
 3771TIP3    H211257   4.523   3.971   1.816
 3772TIP3   OH211258   4.608   3.877   1.944
 3772TIP3    H111259   4.542   3.837   2.000
 3772TIP3    H211260   4.672   3.914   2.004
 3773TIP3   OH211261   4.664   4.272   2.372
 3773TIP3    H111262   4.717   4.205   2.327
 3773TIP3    H211263   4.656   4.343   2.308
 3774TIP3   OH211264   4.489   4.574   2.565
 3774TIP3    H111265   4.420   4.611   2.620
 3774TIP3    H211266   4.443   4.526   2.497
 3775TIP3   OH211267   4.542   3.788   1.587
 3775TIP3    H111268   4.473   3.787   1.521
 3775TIP3    H211269   4.520   3.862   1.644
 3776TIP3   OH211270   4.416   3.455   1.538
 3776TIP3    H111271   4.369   3.496   1.465
 3776TIP3    H211272   4.395   3.362   1.531
 3777TIP3   OH211273   4.420   3.735   2.089
 3777TIP3    H111274   4.427   3.640   2.081
 3777TIP3    H211275   4.405   3.750   2.182
 3778TIP3   OH211276   3.048   3.807   2.835
 3778TIP3    H111277   3.041   3.775   2.745
 3778TIP3    H211278   3.142   3.809   2.853
 3779TIP3   OH211279   4.713   4.161   2.944
 3779TIP3    H111280   4.781   4.094   2.935
 3779TIP3    H211281   4.738   4.229   2.882
 3780TIP3   OH211282   4.895   3.961   2.955
 3780TIP3    H111283   4.820   3.916   2.992
 3780TIP3    H211284   4.969   3.901   2.969
 3781TIP3   OH211285   4.360   3.189   1.523
 3781TIP3    H111286   4.430   3.160   1.581
 3781TIP3    H211287   4.284   3.136   1.547
 3782TIP3   OH211288   4.419   3.450   1.979
 3782TIP3    H111289   4.457   3.364   1.996
 3782TIP3    H211290   4.474   3.487   1.910
 3783TIP3   OH211291   4.580   3.623   2.478
 3783TIP3    H111292   4.662   3.646   2.435
 3783TIP3    H211293   4.588   3.659   2.566
 3784TIP3   OH211294   4.646   3.771   2.706
 3784TIP3    H111295   4.572   3.801   2.758
 3784TIP3    H211296   4.680   3.850   2.664
 3785TIP3   OH211297   3.272   3.501   3.516
 3785TIP3    H111298   3.367   3.493   3.515
 3785TIP3    H211299   3.240   3.416   3.546
 3786TIP3   OH211300   5.097   3.362   3.260
 3786TIP3    H111301   5.157   3.298   3.222
 3786TIP3    H211302   5.070   3.417   3.187
 3787TIP3   OH211303   4.527   3.200   2.020
 3787TIP3    H111304   4.574   3.187   2.102
 3787TIP3    H211305   4.465   3.127   2.016
 3788TIP3   OH211306   3.229   3.187   2.837
 3788TIP3    H111307   3.288   3.112   2.848
 3788TIP3    H211308   3.288   3.262   2.832
 3789TIP3   OH211309   3.028   3.461   2.911
 3789TIP3    H111310   3.074   3.454   2.827
 3789TIP3    H211311   3.056   3.545   2.947
 3790TIP3   OH211312   4.967   3.501   3.066
 3790TIP3    H111313   4.887   3.543   3.098
 3790TIP3    H211314   4.936   3.429   3.011
 3791TIP3   OH211315   4.606   3.134   1.654
 3791TIP3    H111316   4.643   3.065   1.600
 3791TIP3    H211317   4.670   3.205   1.650
 3792TIP3   OH211318   3.010   2.962   2.411
 3792TIP3    H111319   2.920   2.958   2.442
 3792TIP3    H211320   3.007   3.020   2.335
 3793TIP3   OH211321   4.174   4.670   1.920
 3793TIP3    H111322   4.221   4.654   1.838
 3793TIP3    H211323   4.226   4.736   1.966
 3794TIP3   OH211324   3.230   3.043   3.227
 3794TIP3    H111325   3.183   3.036   3.310
 3794TIP3    H211326   3.166   3.082   3.167
 3795TIP3   OH211327   3.273   4.479   3.298
 3795TIP3    H111328   3.183   4.447   3.292
 3795TIP3    H211329   3.306   4.442   3.380
 3796TIP3   OH211330   3.452   4.510   2.850
 3796TIP3    H111331   3.401   4.582   2.815
 3796TIP3    H211332   3.538   4.518   2.808
 3797TIP3   OH211333   3.895   4.750   2.990
 3797TIP3    H111334   3.933   4.746   3.078
 3797TIP3    H211335   3.958   4.801   2.939
 3798TIP3   OH211336   4.074   4.904   2.851
 3798TIP3    H111337   4.141   4.849   2.810
 3798TIP3    H211338   4.123   4.959   2.912
 3799TIP3   OH211339   4.869   3.260   2.947
 3799TIP3    H111340   4.778   3.255   2.917
 3799TIP3    H211341   4.902   3.171   2.938
 3800TIP3   OH211342   3.125   4.764   2.879
 3800TIP3    H111343   3.036   4.791   2.853
 3800TIP3    H211344   3.141   4.809   2.962
 3801TIP3   OH211345   3.360   4.742   2.734
 3801TIP3    H111346   3.276   4.753   2.780
 3801TIP3    H211347   3.343   4.773   2.645
 3802TIP3   OH211348   3.787   4.768   2.532
 3802TIP3    H111349   3.718   4.784   2.467
 3802TIP3    H211350   3.799   4.853   2.575
 3803TIP3   OH211351   4.056   4.710   2.584
 3803TIP3    H111352   3.962   4.722   2.566
 3803TIP3    H211353   4.098   4.783   2.538
 3804TIP3   OH211354   4.269   4.901   2.496
 3804TIP3    H111355   4.248   4.982   2.448
 3804TIP3    H211356   4.291   4.838   2.427
 3805TIP3   OH211357   3.042   4.554   2.620
 3805TIP3    H111358   3.061   4.528   2.710
 3805TIP3    H211359   3.110   4.513   2.568
 3806TIP3   OH211360   3.236   4.426   2.480
 3806TIP3    H111361   3.247   4.344   2.528
 3806TIP3    H211362   3.324   4.463   2.476
 3807TIP3   OH211363   3.503   4.518   2.485
 3807TIP3    H111364   3.528   4.427   2.472
 3807TIP3    H211365   3.546   4.544   2.567
 3808TIP3   OH211366   4.074   3.175   2.569
 3808TIP3    H111367   4.031   3.108   2.622
 3808TIP3    H211368   4.146   3.130   2.526
 3809TIP3   OH211369   4.593   3.056   2.469
 3809TIP3    H111370   4.631   3.108   2.398
 3809TIP3    H211371   4.500   3.077   2.468
 3810TIP3   OH211372   4.694   3.158   2.234
 3810TIP3    H111373   4.765   3.105   2.198
 3810TIP3    H211374   4.723   3.248   2.223
 3811TIP3   OH211375   3.321   2.882   2.583
 3811TIP3    H111376   3.230   2.853   2.586
 3811TIP3    H211377   3.372   2.801   2.579
 3812TIP3   OH211378   3.112   2.759   2.234
 3812TIP3    H111379   3.139   2.814   2.161
 3812TIP3    H211380   3.081   2.820   2.301
 3813TIP3   OH211381   3.770   2.917   2.465
 3813TIP3    H111382   3.825   2.966   2.404
 3813TIP3    H211383   3.789   2.955   2.551
 3814TIP3   OH211384   4.311   3.064   2.449
 3814TIP3    H111385   4.309   3.028   2.360
 3814TIP3    H211386   4.299   2.987   2.506
 3815TIP3   OH211387   4.341   2.989   2.013
 3815TIP3    H111388   4.259   3.035   2.027
 3815TIP3    H211389   4.329   2.904   2.055
 3816TIP3   OH211390   2.824   4.331   2.007
 3816TIP3    H111391   2.740   4.294   1.977
 3816TIP3    H211392   2.817   4.424   1.987
 3817TIP3   OH211393   3.230   2.915   1.994
 3817TIP3    H111394   3.275   2.852   1.937
 3817TIP3    H211395   3.300   2.969   2.031
 3818TIP3   OH211396   3.740   3.094   2.096
 3818TIP3    H111397   3.797   3.044   2.155
 3818TIP3    H211398   3.757   3.185   2.118
 3819TIP3   OH211399   3.600   4.511   1.591
 3819TIP3    H111400   3.686   4.537   1.558
 3819TIP3    H211401   3.574   4.437   1.535
 3820TIP3   OH211402   4.317   4.633   1.686
 3820TIP3    H111403   4.312   4.538   1.677
 3820TIP3    H211404   4.272   4.668   1.609
 3821TIP3   OH211405   3.531   3.164   3.477
 3821TIP3    H111406   3.493   3.095   3.531
 3821TIP3    H211407   3.623   3.167   3.502
 3822TIP3   OH211408   3.779   3.160   3.595
 3822TIP3    H111409   3.865   3.138   3.560
 3822TIP3    H211410   3.762   3.094   3.663
 3823TIP3   OH211411   2.903   4.350   1.650
 3823TIP3    H111412   2.902   4.371   1.743
 3823TIP3    H211413   2.988   4.309   1.636
 3824TIP3   OH211414   4.606   3.223   3.384
 3824TIP3    H111415   4.620   3.196   3.475
 3824TIP3    H211416   4.694   3.221   3.345
 3825TIP3   OH211417   4.539   4.779   2.873
 3825TIP3    H111418   4.464   4.743   2.826
 3825TIP3    H211419   4.516   4.872   2.885
 3826TIP3   OH211420   5.809   4.152   1.636
 3826TIP3    H111421   5.783   4.242   1.618
 3826TIP3    H211422   5.734   4.099   1.608
 3827TIP3   OH211423   5.808   4.149   2.026
 3827TIP3    H111424   5.844   4.128   2.113
 3827TIP3    H211425   5.767   4.067   1.997
 3828TIP3   OH211426   5.108   4.043   2.388
 3828TIP3    H111427   5.135   3.974   2.450
 3828TIP3    H211428   5.183   4.101   2.383
 3829TIP3   OH211429   6.054   4.455   1.708
 3829TIP3    H111430   6.039   4.386   1.772
 3829TIP3    H211431   6.084   4.530   1.759
 3830TIP3   OH211432   5.082   4.454   2.110
 3830TIP3    H111433   5.070   4.359   2.111
 3830TIP3    H211434   5.177   4.466   2.105
 3831TIP3   OH211435   4.784   3.659   1.892
 3831TIP3    H111436   4.739   3.741   1.912
 3831TIP3    H211437   4.717   3.604   1.852
 3832TIP3   OH211438   4.846   3.944   2.071
 3832TIP3    H111439   4.893   3.869   2.107
 3832TIP3    H211440   4.905   3.980   2.005
 3833TIP3   OH211441   5.707   4.916   1.721
 3833TIP3    H111442   5.747   4.847   1.669
 3833TIP3    H211443   5.697   4.878   1.808
 3834TIP3   OH211444   5.610   4.377   2.069
 3834TIP3    H111445   5.645   4.299   2.025
 3834TIP3    H211446   5.687   4.425   2.097
 3835TIP3   OH211447   6.624   3.698   2.067
 3835TIP3    H111448   6.651   3.778   2.112
 3835TIP3    H211449   6.645   3.713   1.975
 3836TIP3   OH211450   6.020   3.875   2.098
 3836TIP3    H111451   6.063   3.792   2.122
 3836TIP3    H211452   5.988   3.860   2.010
 3837TIP3   OH211453   5.359   3.537   2.062
 3837TIP3    H111454   5.340   3.611   2.004
 3837TIP3    H211455   5.312   3.463   2.024
 3838TIP3   OH211456   6.057   3.628   1.687
 3838TIP3    H111457   6.124   3.614   1.754
 3838TIP3    H211458   6.105   3.664   1.612
 3839TIP3   OH211459   4.994   3.737   2.174
 3839TIP3    H111460   5.074   3.720   2.224
 3839TIP3    H211461   5.004   3.684   2.095
 3840TIP3   OH211462   5.432   3.935   1.968
 3840TIP3    H111463   5.524   3.913   1.981
 3840TIP3    H211464   5.392   3.854   1.936
 3841TIP3   OH211465   6.693   3.906   2.239
 3841TIP3    H111466   6.611   3.950   2.219
 3841TIP3    H211467   6.716   3.937   2.327
 3842TIP3   OH211468   5.352   3.521   2.502
 3842TIP3    H111469   5.296   3.558   2.433
 3842TIP3    H211470   5.303   3.536   2.583
 3843TIP3   OH211471   5.696   4.372   1.508
 3843TIP3    H111472   5.657   4.354   1.422
 3843TIP3    H211473   5.654   4.454   1.536
 3844TIP3   OH211474   5.460   4.298   2.293
 3844TIP3    H111475   5.401   4.363   2.331
 3844TIP3    H211476   5.505   4.345   2.223
 3845TIP3   OH211477   6.260   3.634   1.866
 3845TIP3    H111478   6.244   3.590   1.949
 3845TIP3    H211479   6.312   3.711   1.890
 3846TIP3   OH211480   5.230   3.636   2.284
 3846TIP3    H111481   5.287   3.709   2.309
 3846TIP3    H211482   5.276   3.594   2.210
 3847TIP3   OH211483   5.286   4.494   2.394
 3847TIP3    H111484   5.266   4.579   2.356
 3847TIP3    H211485   5.212   4.473   2.450
 3848TIP3   OH211486   4.682   4.184   1.629
 3848TIP3    H111487   4.640   4.207   1.547
 3848TIP3    H211488   4.713   4.267   1.665
 3849TIP3   OH211489   6.118   4.699   1.869
 3849TIP3    H111490   6.032   4.687   1.909
 3849TIP3    H211491   6.113   4.783   1.825
 3850TIP3   OH211492   6.415   3.594   2.231
 3850TIP3    H111493   6.329   3.623   2.203
 3850TIP3    H211494   6.475   3.627   2.163
 3851TIP3   OH211495   5.706   3.236   2.219
 3851TIP3    H111496   5.694   3.142   2.235
 3851TIP3    H211497   5.632   3.277   2.263
 3852TIP3   OH211498   5.823   4.743   1.538
 3852TIP3    H111499   5.869   4.661   1.523
 3852TIP3    H211500   5.881   4.810   1.501
 3853TIP3   OH211501   5.965   4.526   1.456
 3853TIP3    H111502   5.930   4.447   1.415
 3853TIP3    H211503   6.003   4.495   1.538
 3854TIP3   OH211504   6.346   4.608   2.211
 3854TIP3    H111505   6.335   4.533   2.153
 3854TIP3    H211506   6.332   4.684   2.154
 3855TIP3   OH211507   5.638   4.002   1.471
 3855TIP3    H111508   5.560   4.053   1.453
 3855TIP3    H211509   5.686   4.002   1.388
 3856TIP3   OH211510   5.601   3.790   1.183
 3856TIP3    H111511   5.663   3.841   1.235
 3856TIP3    H211512   5.654   3.727   1.136
 3857TIP3   OH211513   6.542   4.247   2.057
 3857TIP3    H111514   6.460   4.296   2.066
 3857TIP3    H211515   6.574   4.269   1.970
 3858TIP3   OH211516   5.988   4.084   1.444
 3858TIP3    H111517   5.933   4.109   1.518
 3858TIP3    H211518   6.072   4.060   1.484
 3859TIP3   OH211519   6.220   4.124   2.358
 3859TIP3    H111520   6.222   4.205   2.410
 3859TIP3    H211521   6.137   4.128   2.311
 3860TIP3   OH211522   5.221   4.079   1.859
 3860TIP3    H111523   5.180   4.024   1.793
 3860TIP3    H211524   5.296   4.029   1.890
 3861TIP3   OH211525   5.352   4.496   2.005
 3861TIP3    H111526   5.330   4.457   1.920
 3861TIP3    H211527   5.438   4.461   2.026
 3862TIP3   OH211528   5.356   4.055   2.213
 3862TIP3    H111529   5.389   4.031   2.126
 3862TIP3    H211530   5.398   4.138   2.233
 3863TIP3   OH211531   5.880   4.690   1.992
 3863TIP3    H111532   5.867   4.770   2.044
 3863TIP3    H211533   5.866   4.619   2.054
 3864TIP3   OH211534   5.492   4.611   2.537
 3864TIP3    H111535   5.437   4.672   2.587
 3864TIP3    H211536   5.430   4.556   2.489
 3865TIP3   OH211537   5.829   3.945   1.267
 3865TIP3    H111538   5.886   4.002   1.319
 3865TIP3    H211539   5.852   3.965   1.176
 3866TIP3   OH211540   5.247   4.167   2.641
 3866TIP3    H111541   5.256   4.252   2.684
 3866TIP3    H211542   5.155   4.143   2.654
 3867TIP3   OH211543   5.573   4.621   1.544
 3867TIP3    H111544   5.654   4.671   1.554
 3867TIP3    H211545   5.512   4.682   1.503
 3868TIP3   OH211546   5.285   4.776   2.625
 3868TIP3    H111547   5.254   4.775   2.535
 3868TIP3    H211548   5.208   4.756   2.678
 3869TIP3   OH211549   6.342   3.184   1.318
 3869TIP3    H111550   6.263   3.203   1.369
 3869TIP3    H211551   6.358   3.264   1.268
 3870TIP3   OH211552   5.086   3.925   1.659
 3870TIP3    H111553   5.019   3.970   1.607
 3870TIP3    H211554   5.049   3.839   1.679
 3871TIP3   OH211555   6.145   4.549   0.868
 3871TIP3    H111556   6.149   4.643   0.853
 3871TIP3    H211557   6.235   4.518   0.858
 3872TIP3   OH211558   4.867   4.308   2.571
 3872TIP3    H111559   4.801   4.287   2.505
 3872TIP3    H211560   4.905   4.223   2.595
 3873TIP3   OH211561   4.723   4.504   2.202
 3873TIP3    H111562   4.818   4.493   2.192
 3873TIP3    H211563   4.713   4.579   2.260
 3874TIP3   OH211564   6.581   4.960   2.257
 3874TIP3    H111565   6.584   4.866   2.241
 3874TIP3    H211566   6.549   4.968   2.347
 3875TIP3   OH211567   5.688   4.743   2.395
 3875TIP3    H111568   5.688   4.833   2.427
 3875TIP3    H211569   5.622   4.699   2.448
 3876TIP3   OH211570   5.453   4.868   1.347
 3876TIP3    H111571   5.409   4.847   1.265
 3876TIP3    H211572   5.420   4.954   1.372
 3877TIP3   OH211573   4.891   4.714   1.734
 3877TIP3    H111574   4.937   4.707   1.817
 3877TIP3    H211575   4.838   4.635   1.729
 3878TIP3   OH211576   5.656   4.769   0.989
 3878TIP3    H111577   5.710   4.700   0.951
 3878TIP3    H211578   5.689   4.780   1.078
 3879TIP3   OH211579   5.705   4.819   1.259
 3879TIP3    H111580   5.618   4.828   1.297
 3879TIP3    H211581   5.757   4.777   1.328
 3880TIP3   OH211582   6.475   4.082   2.536
 3880TIP3    H111583   6.394   4.098   2.488
 3880TIP3    H211584   6.490   3.988   2.526
 3881TIP3   OH211585   5.071   4.492   2.560
 3881TIP3    H111586   5.122   4.476   2.640
 3881TIP3    H211587   4.999   4.430   2.565
 3882TIP3   OH211588   5.468   3.317   2.347
 3882TIP3    H111589   5.383   3.284   2.318
 3882TIP3    H211590   5.447   3.397   2.395
 3883TIP3   OH211591   6.005   3.428   2.542
 3883TIP3    H111592   6.073   3.403   2.604
 3883TIP3    H211593   5.923   3.410   2.587
 3884TIP3   OH211594   6.241   3.860   2.457
 3884TIP3    H111595   6.194   3.857   2.540
 3884TIP3    H211596   6.220   3.947   2.421
 3885TIP3   OH211597   5.900   3.984   1.007
 3885TIP3    H111598   5.869   3.960   0.920
 3885TIP3    H211599   5.983   4.030   0.991
 3886TIP3   OH211600   5.613   3.362   1.317
 3886TIP3    H111601   5.584   3.363   1.408
 3886TIP3    H211602   5.578   3.281   1.282
 3887TIP3   OH211603   5.402   3.833   2.364
 3887TIP3    H111604   5.354   3.850   2.445
 3887TIP3    H211605   5.387   3.912   2.311
 3888TIP3   OH211606   5.284   3.716   1.875
 3888TIP3    H111607   5.194   3.692   1.897
 3888TIP3    H211608   5.299   3.677   1.789
 3889TIP3   OH211609   5.777   3.803   1.604
 3889TIP3    H111610   5.725   3.873   1.564
 3889TIP3    H211611   5.832   3.770   1.534
 3890TIP3   OH211612   5.952   4.078   2.691
 3890TIP3    H111613   5.928   4.007   2.750
 3890TIP3    H211614   6.045   4.094   2.709
 3891TIP3   OH211615   5.933   3.827   1.840
 3891TIP3    H111616   5.871   3.860   1.774
 3891TIP3    H211617   5.969   3.748   1.801
 3892TIP3   OH211618   5.222   3.858   2.573
 3892TIP3    H111619   5.249   3.922   2.639
 3892TIP3    H211620   5.209   3.777   2.622
 3893TIP3   OH211621   5.269   3.338   1.283
 3893TIP3    H111622   5.264   3.334   1.379
 3893TIP3    H211623   5.194   3.391   1.257
 3894TIP3   OH211624   4.817   3.380   2.152
 3894TIP3    H111625   4.888   3.413   2.207
 3894TIP3    H211626   4.860   3.349   2.072
 3895TIP3   OH211627   4.782   3.364   1.669
 3895TIP3    H111628   4.829   3.399   1.593
 3895TIP3    H211629   4.721   3.434   1.693
 3896TIP3   OH211630   5.942   4.073   2.263
 3896TIP3    H111631   5.977   4.006   2.205
 3896TIP3    H211632   5.913   4.025   2.341
 3897TIP3   OH211633   5.617   3.537   1.939
 3897TIP3    H111634   5.536   3.537   1.991
 3897TIP3    H211635   5.687   3.534   2.004
 3898TIP3   OH211636   5.048   3.596   1.944
 3898TIP3    H111637   4.956   3.604   1.918
 3898TIP3    H211638   5.071   3.505   1.923
 3899TIP3   OH211639   5.315   3.590   1.635
 3899TIP3    H111640   5.407   3.606   1.616
 3899TIP3    H211641   5.269   3.613   1.555
 3900TIP3   OH211642   6.105   3.613   2.142
 3900TIP3    H111643   6.076   3.628   2.232
 3900TIP3    H211644   6.039   3.555   2.105
 3901TIP3   OH211645   5.162   3.625   1.410
 3901TIP3    H111646   5.090   3.581   1.366
 3901TIP3    H211647   5.214   3.662   1.339
 3902TIP3   OH211648   6.262   5.340   2.365
 3902TIP3    H111649   6.273   5.314   2.274
 3902TIP3    H211650   6.351   5.339   2.402
 3903TIP3   OH211651   5.234   4.417   2.782
 3903TIP3    H111652   5.314   4.444   2.826
 3903TIP3    H211653   5.168   4.411   2.852
 3904TIP3   OH211654   5.697   3.868   2.037
 3904TIP3    H111655   5.770   3.829   1.988
 3904TIP3    H211656   5.702   3.827   2.123
 3905TIP3   OH211657   5.216   3.352   1.919
 3905TIP3    H111658   5.180   3.277   1.967
 3905TIP3    H211659   5.265   3.313   1.847
 3906TIP3   OH211660   5.672   3.769   2.325
 3906TIP3    H111661   5.584   3.803   2.340
 3906TIP3    H211662   5.729   3.827   2.375
 3907TIP3   OH211663   5.408   4.153   1.421
 3907TIP3    H111664   5.338   4.089   1.407
 3907TIP3    H211665   5.392   4.188   1.509
 3908TIP3   OH211666   6.309   4.390   2.045
 3908TIP3    H111667   6.334   4.440   1.967
 3908TIP3    H211668   6.225   4.350   2.022
 3909TIP3   OH211669   5.865   3.468   1.282
 3909TIP3    H111670   5.772   3.450   1.294
 3909TIP3    H211671   5.875   3.559   1.310
 3910TIP3   OH211672   5.804   4.472   2.421
 3910TIP3    H111673   5.841   4.456   2.508
 3910TIP3    H211674   5.771   4.562   2.425
 3911TIP3   OH211675   5.937   3.715   1.387
 3911TIP3    H111676   6.031   3.720   1.404
 3911TIP3    H211677   5.918   3.794   1.336
 3912TIP3   OH211678   5.104   4.177   2.094
 3912TIP3    H111679   5.141   4.150   2.010
 3912TIP3    H211680   5.145   4.119   2.159
 3913TIP3   OH211681   5.553   4.305   1.243
 3913TIP3    H111682   5.508   4.390   1.246
 3913TIP3    H211683   5.502   4.249   1.301
 3914TIP3   OH211684   4.984   4.095   2.711
 3914TIP3    H111685   5.003   4.084   2.804
 3914TIP3    H211686   4.915   4.032   2.692
 3915TIP3   OH211687   5.710   4.210   2.731
 3915TIP3    H111688   5.649   4.153   2.686
 3915TIP3    H211689   5.796   4.180   2.703
 3916TIP3   OH211690   5.966   4.733   2.320
 3916TIP3    H111691   5.871   4.734   2.332
 3916TIP3    H211692   6.000   4.785   2.392
 3917TIP3   OH211693   6.375   3.809   1.219
 3917TIP3    H111694   6.316   3.761   1.162
 3917TIP3    H211695   6.376   3.898   1.183
 3918TIP3   OH211696   6.604   4.641   2.300
 3918TIP3    H111697   6.511   4.664   2.307
 3918TIP3    H211698   6.616   4.620   2.207
 3919TIP3   OH211699   6.081   4.624   1.132
 3919TIP3    H111700   6.056   4.553   1.190
 3919TIP3    H211701   6.095   4.581   1.047
 3920TIP3   OH211702   6.073   4.253   1.962
 3920TIP3    H111703   5.981   4.231   1.978
 3920TIP3    H211704   6.109   4.175   1.920
 3921TIP3   OH211705   5.203   4.483   1.720
 3921TIP3    H111706   5.203   4.563   1.667
 3921TIP3    H211707   5.110   4.464   1.734
 3922TIP3   OH211708   4.767   3.787   1.429
 3922TIP3    H111709   4.813   3.868   1.447
 3922TIP3    H211710   4.690   3.789   1.486
 3923TIP3   OH211711   5.336   4.247   1.665
 3923TIP3    H111712   5.305   4.336   1.682
 3923TIP3    H211713   5.303   4.195   1.738
 3924TIP3   OH211714   5.477   4.825   2.190
 3924TIP3    H111715   5.517   4.896   2.140
 3924TIP3    H211716   5.549   4.786   2.239
 3925TIP3   OH211717   5.121   4.722   1.574
 3925TIP3    H111718   5.036   4.728   1.619
 3925TIP3    H211719   5.155   4.812   1.575
 3926TIP3   OH211720   5.860   4.459   2.153
 3926TIP3    H111721   5.847   4.459   2.248
 3926TIP3    H211722   5.941   4.410   2.140
 3927TIP3   OH211723   5.837   4.350   1.037
 3927TIP3    H111724   5.892   4.328   1.112
 3927TIP3    H211725   5.748   4.326   1.064
 3928TIP3   OH211726   6.095   4.995   2.196
 3928TIP3    H111727   6.020   4.937   2.186
 3928TIP3    H211728   6.087   5.058   2.124
 3929TIP3   OH211729   6.171   4.823   0.852
 3929TIP3    H111730   6.198   4.873   0.775
 3929TIP3    H211731   6.098   4.873   0.888
 3930TIP3   OH211732   5.192   3.602   2.716
 3930TIP3    H111733   5.097   3.608   2.728
 3930TIP3    H211734   5.222   3.547   2.789
 3931TIP3   OH211735   6.000   4.284   1.250
 3931TIP3    H111736   5.987   4.219   1.320
 3931TIP3    H211737   6.094   4.284   1.235
 3932TIP3   OH211738   4.913   4.686   2.351
 3932TIP3    H111739   4.962   4.610   2.379
 3932TIP3    H211740   4.940   4.756   2.410
 3933TIP3   OH211741   5.202   4.330   1.033
 3933TIP3    H111742   5.214   4.240   1.005
 3933TIP3    H211743   5.181   4.323   1.127
 3934TIP3   OH211744   5.147   4.340   1.305
 3934TIP3    H111745   5.218   4.310   1.362
 3934TIP3    H211746   5.148   4.435   1.311
 3935TIP3   OH211747   4.878   4.032   1.509
 3935TIP3    H111748   4.813   4.073   1.566
 3935TIP3    H211749   4.894   4.097   1.440
 3936TIP3   OH211750   6.035   3.664   2.400
 3936TIP3    H111751   6.112   3.706   2.439
 3936TIP3    H211752   6.021   3.586   2.453
 3937TIP3   OH211753   5.915   3.418   1.566
 3937TIP3    H111754   5.901   3.440   1.474
 3937TIP3    H211755   5.955   3.496   1.604
 3938TIP3   OH211756   5.411   4.536   1.252
 3938TIP3    H111757   5.326   4.558   1.289
 3938TIP3    H211758   5.430   4.608   1.191
 3939TIP3   OH211759   5.599   3.600   1.669
 3939TIP3    H111760   5.661   3.671   1.650
 3939TIP3    H211761   5.603   3.589   1.764
 3940TIP3   OH211762   5.872   3.915   2.474
 3940TIP3    H111763   5.893   3.969   2.550
 3940TIP3    H211764   5.924   3.836   2.486
 3941TIP3   OH211765   5.744   3.323   1.767
 3941TIP3    H111766   5.735   3.396   1.828
 3941TIP3    H211767   5.805   3.355   1.700
 3942TIP3   OH211768   5.157   4.612   1.322
 3942TIP3    H111769   5.129   4.679   1.259
 3942TIP3    H211770   5.141   4.652   1.408
 3943TIP3   OH211771   5.260   3.325   1.558
 3943TIP3    H111772   5.251   3.413   1.596
 3943TIP3    H211773   5.354   3.305   1.565
 3944TIP3   OH211774   6.506   3.815   2.456
 3944TIP3    H111775   6.411   3.816   2.465
 3944TIP3    H211776   6.522   3.776   2.370
 3945TIP3   OH211777   6.161   4.008   1.844
 3945TIP3    H111778   6.085   3.952   1.856
 3945TIP3    H211779   6.232   3.964   1.891
 3946TIP3   OH211780   4.878   4.236   1.311
 3946TIP3    H111781   4.942   4.307   1.322
 3946TIP3    H211782   4.917   4.179   1.246
 3947TIP3   OH211783   4.816   3.516   1.444
 3947TIP3    H111784   4.818   3.611   1.443
 3947TIP3    H211785   4.731   3.493   1.405
 3948TIP3   OH211786   6.131   4.972   1.788
 3948TIP3    H111787   6.087   5.017   1.716
 3948TIP3    H211788   6.224   4.988   1.773
 3949TIP3   OH211789   5.206   3.233   2.317
 3949TIP3    H111790   5.176   3.202   2.232
 3949TIP3    H211791   5.196   3.158   2.376
 3950TIP3   OH211792   4.741   4.456   1.697
 3950TIP3    H111793   4.678   4.483   1.764
 3950TIP3    H211794   4.710   4.497   1.616
 3951TIP3   OH211795   4.912   4.996   2.773
 3951TIP3    H111796   4.995   4.999   2.821
 3951TIP3    H211797   4.890   4.903   2.769
 3952TIP3   OH211798   5.381   4.960   2.810
 3952TIP3    H111799   5.473   4.942   2.827
 3952TIP3    H211800   5.356   4.899   2.741
 3953TIP3   OH211801   5.364   4.532   0.942
 3953TIP3    H111802   5.309   4.465   0.982
 3953TIP3    H211803   5.440   4.485   0.910
 3954TIP3   OH211804   6.034   4.860   2.560
 3954TIP3    H111805   6.010   4.791   2.622
 3954TIP3    H211806   6.128   4.871   2.572
 3955TIP3   OH211807   5.798   4.573   0.861
 3955TIP3    H111808   5.842   4.510   0.918
 3955TIP3    H211809   5.850   4.573   0.780
 3956TIP3   OH211810   5.031   4.402   2.970
 3956TIP3    H111811   5.050   4.309   2.978
 3956TIP3    H211812   4.945   4.406   2.927
 3957TIP3   OH211813   5.014   4.050   1.167
 3957TIP3    H111814   5.066   4.020   1.242
 3957TIP3    H211815   5.077   4.056   1.095
 3958TIP3   OH211816   5.638   4.486   2.745
 3958TIP3    H111817   5.601   4.507   2.659
 3958TIP3    H211818   5.671   4.397   2.736
 3959TIP3   OH211819   5.523   4.248   0.974
 3959TIP3    H111820   5.525   4.265   1.068
 3959TIP3    H211821   5.521   4.153   0.967
 3960TIP3   OH211822   6.131   4.502   2.349
 3960TIP3    H111823   6.209   4.542   2.310
 3960TIP3    H211824   6.063   4.569   2.339
 3961TIP3   OH211825   5.154   4.141   2.955
 3961TIP3    H111826   5.225   4.081   2.932
 3961TIP3    H211827   5.178   4.173   3.043
 3962TIP3   OH211828   5.214   3.956   1.386
 3962TIP3    H111829   5.188   3.921   1.471
 3962TIP3    H211830   5.252   3.882   1.339
 3963TIP3   OH211831   5.486   4.022   2.614
 3963TIP3    H111832   5.410   4.079   2.618
 3963TIP3    H211833   5.536   4.054   2.538
 3964TIP3   OH211834   5.321   3.752   1.225
 3964TIP3    H111835   5.293   3.760   1.134
 3964TIP3    H211836   5.417   3.757   1.221
 3965TIP3   OH211837   6.003   4.419   2.747
 3965TIP3    H111838   6.086   4.401   2.702
 3965TIP3    H211839   6.001   4.356   2.820
 3966TIP3   OH211840   6.134   4.080   0.892
 3966TIP3    H111841   6.119   4.034   0.810
 3966TIP3    H211842   6.106   4.170   0.875
 3967TIP3   OH211843   5.611   3.810   2.736
 3967TIP3    H111844   5.611   3.731   2.681
 3967TIP3    H211845   5.569   3.877   2.682
 3968TIP3   OH211846   5.612   3.596   2.546
 3968TIP3    H111847   5.641   3.638   2.465
 3968TIP3    H211848   5.521   3.573   2.531
 3969TIP3   OH211849   5.637   4.131   2.419
 3969TIP3    H111850   5.723   4.144   2.379
 3969TIP3    H211851   5.581   4.196   2.377
 3970TIP3   OH211852   6.221   4.097   2.797
 3970TIP3    H111853   6.271   4.015   2.804
 3970TIP3    H211854   6.285   4.162   2.768
 3971TIP3   OH211855   6.260   4.350   2.530
 3971TIP3    H111856   6.202   4.405   2.477
 3971TIP3    H211857   6.348   4.370   2.498
 3972TIP3   OH211858   5.486   3.916   2.966
 3972TIP3    H111859   5.420   3.850   2.986
 3972TIP3    H211860   5.520   3.891   2.880
 3973TIP3   OH211861   5.742   3.359   2.618
 3973TIP3    H111862   5.697   3.440   2.595
 3973TIP3    H211863   5.676   3.291   2.608
 3974TIP3   OH211864   5.868   3.860   2.831
 3974TIP3    H111865   5.854   3.852   2.926
 3974TIP3    H211866   5.783   3.838   2.793
 3975TIP3   OH211867   6.109   3.812   2.688
 3975TIP3    H111868   6.035   3.815   2.747
 3975TIP3    H211869   6.182   3.782   2.742
 3976TIP3   OH211870   6.339   3.749   2.834
 3976TIP3    H111871   6.353   3.656   2.850
 3976TIP3    H211872   6.336   3.789   2.921
 3977TIP3   OH211873   5.327   3.696   3.024
 3977TIP3    H111874   5.330   3.607   2.990
 3977TIP3    H211875   5.360   3.688   3.114
 3978TIP3   OH211876   5.842   3.368   2.873
 3978TIP3    H111877   5.906   3.298   2.869
 3978TIP3    H211878   5.799   3.366   2.787
 3979TIP3   OH211879   5.901   3.584   3.032
 3979TIP3    H111880   5.884   3.513   2.970
 3979TIP3    H211881   5.825   3.641   3.024
 3980TIP3   OH211882   5.129   4.814   1.132
 3980TIP3    H111883   5.223   4.805   1.115
 3980TIP3    H211884   5.096   4.863   1.057
 3981TIP3   OH211885   4.608   4.194   1.346
 3981TIP3    H111886   4.700   4.217   1.335
 3981TIP3    H211887   4.599   4.107   1.306
 3982TIP3   OH211888   4.522   4.803   1.766
 3982TIP3    H111889   4.455   4.746   1.727
 3982TIP3    H211890   4.566   4.747   1.830
 3983TIP3   OH211891   4.658   4.653   1.953
 3983TIP3    H111892   4.643   4.581   2.015
 3983TIP3    H211893   4.708   4.717   2.003
 3984TIP3   OH211894   6.384   5.067   1.753
 3984TIP3    H111895   6.414   5.083   1.842
 3984TIP3    H211896   6.458   5.095   1.698
 3985TIP3   OH211897   6.421   5.070   2.037
 3985TIP3    H111898   6.368   4.990   2.030
 3985TIP3    H211899   6.485   5.050   2.105
 3986TIP3   OH211900   6.278   4.267   1.225
 3986TIP3    H111901   6.342   4.332   1.194
 3986TIP3    H211902   6.320   4.229   1.302
 3987TIP3   OH211903   6.404   4.135   1.430
 3987TIP3    H111904   6.339   4.093   1.487
 3987TIP3    H211905   6.469   4.171   1.490
 3988TIP3   OH211906   6.459   4.527   1.857
 3988TIP3    H111907   6.512   4.461   1.813
 3988TIP3    H211908   6.451   4.598   1.793
 3989TIP3   OH211909   6.284   4.832   2.057
 3989TIP3    H111910   6.220   4.870   2.117
 3989TIP3    H211911   6.231   4.785   1.993
 3990TIP3   OH211912   6.337   4.045   1.073
 3990TIP3    H111913   6.269   4.045   1.007
 3990TIP3    H211914   6.315   4.119   1.130
 3991TIP3   OH211915   6.209   3.713   1.029
 3991TIP3    H111916   6.169   3.754   0.952
 3991TIP3    H211917   6.188   3.620   1.019
 3992TIP3   OH211918   6.215   3.992   1.575
 3992TIP3    H111919   6.225   3.897   1.568
 3992TIP3    H211920   6.201   4.007   1.669
 3993TIP3   OH211921   4.844   4.065   2.320
 3993TIP3    H111922   4.838   4.032   2.231
 3993TIP3    H211923   4.938   4.066   2.339
 3994TIP3   OH211924   6.507   4.418   2.436
 3994TIP3    H111925   6.577   4.353   2.429
 3994TIP3    H211926   6.533   4.489   2.377
 3995TIP3   OH211927   6.689   4.216   2.442
 3995TIP3    H111928   6.614   4.172   2.482
 3995TIP3    H211929   6.763   4.157   2.457
 3996TIP3   OH211930   6.158   3.446   1.010
 3996TIP3    H111931   6.231   3.419   1.065
 3996TIP3    H211932   6.085   3.390   1.037
 3997TIP3   OH211933   6.215   3.706   1.465
 3997TIP3    H111934   6.254   3.620   1.482
 3997TIP3    H211935   6.270   3.744   1.396
 3998TIP3   OH211936   6.376   3.881   1.965
 3998TIP3    H111937   6.458   3.903   1.921
 3998TIP3    H211938   6.385   3.916   2.053
 3999TIP3   OH211939   6.443   4.028   2.195
 3999TIP3    H111940   6.368   4.059   2.245
 3999TIP3    H211941   6.477   4.106   2.151
 4000TIP3   OH211942   5.063   3.751   2.995
 4000TIP3    H111943   5.159   3.748   2.999
 4000TIP3    H211944   5.035   3.668   3.034
 4001TIP3   OH211945   6.895   3.618   2.749
 4001TIP3    H111946   6.955   3.554   2.709
 4001TIP3    H211947   6.865   3.672   2.675
 4002TIP3   OH211948   6.322   3.457   1.508
 4002TIP3    H111949   6.370   3.443   1.589
 4002TIP3    H211950   6.261   3.383   1.504
 4003TIP3   OH211951   5.025   3.444   2.324
 4003TIP3    H111952   5.084   3.369   2.335
 4003TIP3    H211953   5.084   3.519   2.319
 4004TIP3   OH211954   4.823   3.717   2.397
 4004TIP3    H111955   4.872   3.712   2.315
 4004TIP3    H211956   4.851   3.799   2.437
 4005TIP3   OH211957   6.761   3.753   2.555
 4005TIP3    H111958   6.679   3.798   2.575
 4005TIP3    H211959   6.736   3.681   2.498
 4006TIP3   OH211960   6.401   3.391   1.139
 4006TIP3    H111961   6.440   3.321   1.088
 4006TIP3    H211962   6.466   3.461   1.137
 4007TIP3   OH211963   4.807   3.218   1.897
 4007TIP3    H111964   4.717   3.215   1.929
 4007TIP3    H211965   4.803   3.277   1.822
 4008TIP3   OH211966   5.969   4.929   1.407
 4008TIP3    H111967   6.014   4.911   1.324
 4008TIP3    H211968   6.029   4.986   1.455
 4009TIP3   OH211969   5.025   3.298   2.712
 4009TIP3    H111970   4.980   3.294   2.797
 4009TIP3    H211971   4.962   3.339   2.653
 4010TIP3   OH211972   5.064   4.734   2.791
 4010TIP3    H111973   4.975   4.705   2.776
 4010TIP3    H211974   5.084   4.708   2.881
 4011TIP3   OH211975   5.248   4.766   2.337
 4011TIP3    H111976   5.199   4.839   2.301
 4011TIP3    H211977   5.335   4.773   2.296
 4012TIP3   OH211978   5.692   5.010   2.476
 4012TIP3    H111979   5.730   5.003   2.564
 4012TIP3    H211980   5.758   5.056   2.425
 4013TIP3   OH211981   5.877   5.157   2.335
 4013TIP3    H111982   5.947   5.103   2.298
 4013TIP3    H211983   5.922   5.214   2.398
 4014TIP3   OH211984   6.664   3.515   2.434
 4014TIP3    H111985   6.574   3.510   2.401
 4014TIP3    H211986   6.698   3.426   2.425
 4015TIP3   OH211987   4.920   5.024   2.361
 4015TIP3    H111988   4.832   5.056   2.339
 4015TIP3    H211989   4.933   5.050   2.452
 4016TIP3   OH211990   5.158   5.000   2.221
 4016TIP3    H111991   5.073   5.011   2.265
 4016TIP3    H211992   5.141   5.029   2.131
 4017TIP3   OH211993   5.582   5.028   2.019
 4017TIP3    H111994   5.512   5.044   1.955
 4017TIP3    H211995   5.595   5.112   2.062
 4018TIP3   OH211996   5.849   4.962   2.064
 4018TIP3    H111997   5.756   4.978   2.048
 4018TIP3    H211998   5.893   5.038   2.027
 4019TIP3   OH211999   6.061   5.160   1.978
 4019TIP3    H112000   6.047   5.242   1.931
 4019TIP3    H212001   6.085   5.096   1.911
 4020TIP3   OH212002   4.836   4.809   2.110
 4020TIP3    H112003   4.860   4.784   2.199
 4020TIP3    H212004   4.904   4.770   2.055
 4021TIP3   OH212005   5.031   4.684   1.968
 4021TIP3    H112006   5.042   4.601   2.014
 4021TIP3    H212007   5.119   4.720   1.963
 4022TIP3   OH212008   5.299   4.775   1.973
 4022TIP3    H112009   5.324   4.684   1.958
 4022TIP3    H212010   5.344   4.800   2.054
 4023TIP3   OH212011   5.869   3.432   2.055
 4023TIP3    H112012   5.827   3.363   2.107
 4023TIP3    H212013   5.943   3.388   2.012
 4024TIP3   OH212014   6.389   3.315   1.958
 4024TIP3    H112015   6.427   3.365   1.885
 4024TIP3    H212016   6.296   3.336   1.954
 4025TIP3   OH212017   6.489   3.414   1.722
 4025TIP3    H112018   6.559   3.360   1.686
 4025TIP3    H212019   6.519   3.504   1.710
 4026TIP3   OH212020   5.117   3.138   2.070
 4026TIP3    H112021   5.026   3.109   2.073
 4026TIP3    H212022   5.168   3.057   2.067
 4027TIP3   OH212023   4.907   3.015   1.721
 4027TIP3    H112024   4.935   3.070   1.648
 4027TIP3    H212025   4.877   3.077   1.788
 4028TIP3   OH212026   5.564   3.175   1.952
 4028TIP3    H112027   5.620   3.222   1.890
 4028TIP3    H212028   5.587   3.211   2.038
 4029TIP3   OH212029   6.106   3.320   1.936
 4029TIP3    H112030   6.108   3.283   1.848
 4029TIP3    H212031   6.095   3.243   1.993
 4030TIP3   OH212032   6.137   3.245   1.499
 4030TIP3    H112033   6.054   3.291   1.514
 4030TIP3    H212034   6.126   3.160   1.542
 4031TIP3   OH212035   4.619   4.589   1.495
 4031TIP3    H112036   4.536   4.552   1.464
 4031TIP3    H212037   4.614   4.681   1.472
 4032TIP3   OH212038   5.026   3.172   1.481
 4032TIP3    H112039   5.072   3.109   1.425
 4032TIP3    H212040   5.096   3.226   1.518
 4033TIP3   OH212041   5.537   3.350   1.582
 4033TIP3    H112042   5.594   3.301   1.642
 4033TIP3    H212043   5.552   3.442   1.604
 4034TIP3   OH212044   5.397   4.767   1.079
 4034TIP3    H112045   5.483   4.793   1.047
 4034TIP3    H212046   5.370   4.695   1.022
 4035TIP3   OH212047   6.112   4.890   1.175
 4035TIP3    H112048   6.108   4.795   1.164
 4035TIP3    H212049   6.070   4.924   1.096
 4036TIP3   OH212050   5.328   3.421   2.963
 4036TIP3    H112051   5.289   3.353   3.018
 4036TIP3    H212052   5.420   3.424   2.989
 4037TIP3   OH212053   5.577   3.416   3.083
 4037TIP3    H112054   5.660   3.390   3.043
 4037TIP3    H212055   5.560   3.350   3.149
 4038TIP3   OH212056   4.698   4.605   1.136
 4038TIP3    H112057   4.699   4.631   1.228
 4038TIP3    H212058   4.784   4.564   1.122
 4039TIP3   OH212059   6.404   3.481   2.870
 4039TIP3    H112060   6.420   3.452   2.959
 4039TIP3    H212061   6.490   3.478   2.827
 4040TIP3   OH212062   7.603   4.411   1.125
 4040TIP3    H112063   7.574   4.500   1.104
 4040TIP3    H212064   7.529   4.356   1.100
 4041TIP3   OH212065   7.601   4.406   1.512
 4041TIP3    H112066   7.631   4.390   1.601
 4041TIP3    H212067   7.562   4.324   1.484
 4042TIP3   OH212068   6.904   4.299   1.874
 4042TIP3    H112069   6.931   4.232   1.937
 4042TIP3    H212070   6.981   4.356   1.866
 4043TIP3   OH212071   7.852   4.705   1.192
 4043TIP3    H112072   7.829   4.641   1.259
 4043TIP3    H212073   7.879   4.783   1.241
 4044TIP3   OH212074   6.878   4.711   1.595
 4044TIP3    H112075   6.866   4.616   1.597
 4044TIP3    H212076   6.973   4.723   1.592
 4045TIP3   OH212077   6.579   3.915   1.379
 4045TIP3    H112078   6.535   3.998   1.398
 4045TIP3    H212079   6.512   3.861   1.338
 4046TIP3   OH212080   6.642   4.200   1.558
 4046TIP3    H112081   6.689   4.125   1.593
 4046TIP3    H212082   6.700   4.236   1.491
 4047TIP3   OH212083   7.502   5.173   1.212
 4047TIP3    H112084   7.541   5.104   1.158
 4047TIP3    H212085   7.492   5.132   1.298
 4048TIP3   OH212086   7.406   4.634   1.556
 4048TIP3    H112087   7.440   4.555   1.513
 4048TIP3    H212088   7.485   4.682   1.582
 4049TIP3   OH212089   7.808   4.152   1.583
 4049TIP3    H112090   7.822   4.063   1.615
 4049TIP3    H212091   7.764   4.141   1.499
 4050TIP3   OH212092   7.150   3.793   1.553
 4050TIP3    H112093   7.139   3.866   1.492
 4050TIP3    H212094   7.106   3.719   1.512
 4051TIP3   OH212095   7.847   3.887   1.188
 4051TIP3    H112096   7.907   3.826   1.232
 4051TIP3    H212097   7.900   3.926   1.119
 4052TIP3   OH212098   6.790   3.993   1.661
 4052TIP3    H112099   6.871   3.977   1.710
 4052TIP3    H212100   6.799   3.941   1.582
 4053TIP3   OH212101   7.229   4.191   1.456
 4053TIP3    H112102   7.321   4.169   1.469
 4053TIP3    H212103   7.190   4.109   1.424
 4054TIP3   OH212104   7.147   3.778   1.989
 4054TIP3    H112105   7.092   3.813   1.919
 4054TIP3    H212106   7.098   3.795   2.070
 4055TIP3   OH212107   7.487   4.625   0.997
 4055TIP3    H112108   7.458   4.611   0.907
 4055TIP3    H212109   7.446   4.707   1.024
 4056TIP3   OH212110   7.257   4.555   1.779
 4056TIP3    H112111   7.197   4.619   1.817
 4056TIP3    H212112   7.300   4.601   1.708
 4057TIP3   OH212113   7.025   3.893   1.772
 4057TIP3    H112114   7.083   3.965   1.796
 4057TIP3    H212115   7.069   3.851   1.697
 4058TIP3   OH212116   7.084   4.750   1.881
 4058TIP3    H112117   7.063   4.836   1.844
 4058TIP3    H212118   7.009   4.729   1.937
 4059TIP3   OH212119   6.476   4.439   1.116
 4059TIP3    H112120   6.438   4.458   1.031
 4059TIP3    H212121   6.508   4.523   1.148
 4060TIP3   OH212122   7.916   4.954   1.356
 4060TIP3    H112123   7.831   4.939   1.398
 4060TIP3    H212124   7.907   5.039   1.314
 4061TIP3   OH212125   7.493   3.486   1.707
 4061TIP3    H112126   7.478   3.393   1.722
 4061TIP3    H212127   7.419   3.530   1.748
 4062TIP3   OH212128   7.618   5.002   1.028
 4062TIP3    H112129   7.658   4.917   1.011
 4062TIP3    H212130   7.678   5.066   0.989
 4063TIP3   OH212131   7.747   4.782   0.945
 4063TIP3    H112132   7.721   4.703   0.898
 4063TIP3    H212133   7.795   4.750   1.021
 4064TIP3   OH212134   8.140   4.857   1.701
 4064TIP3    H112135   8.142   4.783   1.641
 4064TIP3    H212136   8.137   4.934   1.644
 4065TIP3   OH212137   7.433   4.258   0.956
 4065TIP3    H112138   7.353   4.309   0.943
 4065TIP3    H212139   7.479   4.263   0.871
 4066TIP3   OH212140   7.391   4.054   0.678
 4066TIP3    H112141   7.460   4.097   0.729
 4066TIP3    H212142   7.434   3.979   0.637
 4067TIP3   OH212143   7.778   4.338   0.934
 4067TIP3    H112144   7.722   4.369   1.005
 4067TIP3    H212145   7.851   4.294   0.978
 4068TIP3   OH212146   8.003   4.359   1.841
 4068TIP3    H112147   8.035   4.441   1.879
 4068TIP3    H212148   7.916   4.381   1.807
 4069TIP3   OH212149   7.018   4.336   1.346
 4069TIP3    H112150   6.976   4.280   1.281
 4069TIP3    H212151   7.092   4.285   1.377
 4070TIP3   OH212152   7.148   4.754   1.491
 4070TIP3    H112153   7.125   4.714   1.407
 4070TIP3    H212154   7.235   4.719   1.511
 4071TIP3   OH212155   7.151   4.312   1.699
 4071TIP3    H112156   7.185   4.286   1.613
 4071TIP3    H212157   7.194   4.395   1.719
 4072TIP3   OH212158   7.679   4.947   1.480
 4072TIP3    H112159   7.665   5.026   1.532
 4072TIP3    H212160   7.663   4.875   1.541
 4073TIP3   OH212161   7.287   4.869   2.026
 4073TIP3    H112162   7.230   4.929   2.073
 4073TIP3    H212163   7.227   4.813   1.976
 4074TIP3   OH212164   7.628   4.203   0.750
 4074TIP3    H112165   7.679   4.259   0.809
 4074TIP3    H212166   7.670   4.212   0.665
 4075TIP3   OH212167   7.043   4.423   2.129
 4075TIP3    H112168   7.052   4.509   2.170
 4075TIP3    H212169   6.951   4.400   2.139
 4076TIP3   OH212170   7.370   4.877   1.036
 4076TIP3    H112171   7.452   4.926   1.042
 4076TIP3    H212172   7.311   4.935   0.987
 4077TIP3   OH212173   7.080   5.033   2.115
 4077TIP3    H112174   7.048   5.032   2.025
 4077TIP3    H212175   7.003   5.011   2.168
 4078TIP3   OH212176   6.882   4.183   1.148
 4078TIP3    H112177   6.815   4.227   1.095
 4078TIP3    H212178   6.847   4.095   1.163
 4079TIP3   OH212179   6.665   4.564   2.049
 4079TIP3    H112180   6.596   4.540   1.986
 4079TIP3    H212181   6.702   4.480   2.077
 4080TIP3   OH212182   6.520   4.762   1.687
 4080TIP3    H112183   6.614   4.749   1.679
 4080TIP3    H212184   6.510   4.833   1.750
 4081TIP3   OH212185   7.485   4.998   1.884
 4081TIP3    H112186   7.485   5.089   1.914
 4081TIP3    H212187   7.416   4.955   1.935
 4082TIP3   OH212188   7.249   5.132   0.834
 4082TIP3    H112189   7.188   5.106   0.764
 4082TIP3    H212190   7.220   5.219   0.859
 4083TIP3   OH212191   6.688   4.972   1.220
 4083TIP3    H112192   6.732   4.963   1.304
 4083TIP3    H212193   6.636   4.893   1.211
 4084TIP3   OH212194   7.483   5.016   0.745
 4084TIP3    H112195   7.404   5.058   0.779
 4084TIP3    H212196   7.549   5.028   0.814
 4085TIP3   OH212197   6.867   4.749   2.046
 4085TIP3    H112198   6.916   4.735   2.127
 4085TIP3    H212199   6.795   4.687   2.050
 4086TIP3   OH212200   7.262   3.572   1.835
 4086TIP3    H112201   7.177   3.540   1.805
 4086TIP3    H212202   7.242   3.654   1.880
 4087TIP3   OH212203   7.769   3.705   2.014
 4087TIP3    H112204   7.834   3.666   2.072
 4087TIP3    H212205   7.685   3.684   2.054
 4088TIP3   OH212206   8.072   4.113   1.954
 4088TIP3    H112207   8.014   4.116   2.030
 4088TIP3    H212208   8.053   4.193   1.905
 4089TIP3   OH212209   7.418   3.615   0.805
 4089TIP3    H112210   7.385   3.617   0.895
 4089TIP3    H212211   7.379   3.537   0.767
 4090TIP3   OH212212   7.197   4.091   1.850
 4090TIP3    H112213   7.148   4.108   1.931
 4090TIP3    H212214   7.183   4.169   1.797
 4091TIP3   OH212215   7.080   3.973   1.363
 4091TIP3    H112216   6.991   3.948   1.385
 4091TIP3    H212217   7.097   3.934   1.278
 4092TIP3   OH212218   7.575   4.061   1.089
 4092TIP3    H112219   7.521   4.128   1.048
 4092TIP3    H212220   7.634   4.031   1.020
 4093TIP3   OH212221   7.747   4.335   2.181
 4093TIP3    H112222   7.723   4.265   2.240
 4093TIP3    H212223   7.841   4.347   2.194
 4094TIP3   OH212224   7.718   4.092   1.327
 4094TIP3    H112225   7.657   4.110   1.255
 4094TIP3    H212226   7.759   4.009   1.303
 4095TIP3   OH212227   7.019   4.116   2.060
 4095TIP3    H112228   7.043   4.181   2.126
 4095TIP3    H212229   7.006   4.035   2.110
 4096TIP3   OH212230   7.065   3.594   0.771
 4096TIP3    H112231   7.060   3.590   0.867
 4096TIP3    H212232   6.988   3.646   0.746
 4097TIP3   OH212233   6.613   3.636   1.640
 4097TIP3    H112234   6.685   3.669   1.694
 4097TIP3    H212235   6.655   3.607   1.559
 4098TIP3   OH212236   6.577   3.620   1.157
 4098TIP3    H112237   6.624   3.653   1.080
 4098TIP3    H212238   6.517   3.691   1.180
 4099TIP3   OH212239   7.720   4.340   1.756
 4099TIP3    H112240   7.761   4.279   1.695
 4099TIP3    H212241   7.697   4.287   1.833
 4100TIP3   OH212242   7.405   3.818   1.427
 4100TIP3    H112243   7.333   3.802   1.487
 4100TIP3    H212244   7.480   3.777   1.468
 4101TIP3   OH212245   6.843   3.852   1.432
 4101TIP3    H112246   6.752   3.859   1.404
 4101TIP3    H212247   6.868   3.762   1.409
 4102TIP3   OH212248   7.109   3.846   1.124
 4102TIP3    H112249   7.202   3.861   1.107
 4102TIP3    H212250   7.066   3.869   1.041
 4103TIP3   OH212251   7.826   3.888   1.624
 4103TIP3    H112252   7.814   3.895   1.719
 4103TIP3    H212253   7.903   3.832   1.614
 4104TIP3   OH212254   6.956   3.882   0.897
 4104TIP3    H112255   6.885   3.837   0.851
 4104TIP3    H212256   7.010   3.918   0.827
 4105TIP3   OH212257   8.065   5.569   1.845
 4105TIP3    H112258   8.061   5.575   1.750
 4105TIP3    H212259   8.140   5.624   1.869
 4106TIP3   OH212260   7.031   4.672   2.268
 4106TIP3    H112261   7.109   4.701   2.315
 4106TIP3    H212262   6.962   4.669   2.335
 4107TIP3   OH212263   7.496   4.127   1.527
 4107TIP3    H112264   7.556   4.081   1.469
 4107TIP3    H212265   7.498   4.078   1.609
 4108TIP3   OH212266   7.011   3.609   1.404
 4108TIP3    H112267   6.978   3.533   1.451
 4108TIP3    H212268   7.062   3.572   1.332
 4109TIP3   OH212269   7.468   4.021   1.819
 4109TIP3    H112270   7.379   4.058   1.828
 4109TIP3    H212271   7.524   4.084   1.864
 4110TIP3   OH212272   7.201   4.407   0.912
 4110TIP3    H112273   7.131   4.344   0.898
 4110TIP3    H212274   7.185   4.442   1.000
 4111TIP3   OH212275   8.105   4.645   1.521
 4111TIP3    H112276   8.120   4.660   1.428
 4111TIP3    H212277   8.018   4.605   1.525
 4112TIP3   OH212278   7.673   3.712   0.781
 4112TIP3    H112279   7.581   3.684   0.783
 4112TIP3    H212280   7.669   3.807   0.766
 4113TIP3   OH212281   7.601   4.731   1.904
 4113TIP3    H112282   7.633   4.710   1.992
 4113TIP3    H212283   7.565   4.819   1.912
 4114TIP3   OH212284   7.759   3.987   0.861
 4114TIP3    H112285   7.848   4.021   0.858
 4114TIP3    H212286   7.707   4.049   0.810
 4115TIP3   OH212287   6.900   4.434   1.580
 4115TIP3    H112288   6.938   4.407   1.496
 4115TIP3    H212289   6.942   4.376   1.645
 4116TIP3   OH212290   7.350   4.572   0.754
 4116TIP3    H112291   7.301   4.654   0.752
 4116TIP3    H212292   7.297   4.514   0.809
 4117TIP3   OH212293   6.781   4.351   2.195
 4117TIP3    H112294   6.799   4.343   2.288
 4117TIP3    H212295   6.709   4.289   2.179
 4118TIP3   OH212296   7.506   4.468   2.215
 4118TIP3    H112297   7.443   4.413   2.169
 4118TIP3    H212298   7.591   4.435   2.188
 4119TIP3   OH212299   7.762   4.995   1.801
 4119TIP3    H112300   7.667   4.989   1.812
 4119TIP3    H212301   7.792   5.044   1.878
 4120TIP3   OH212302   7.864   4.509   1.459
 4120TIP3    H112303   7.770   4.491   1.468
 4120TIP3    H212304   7.900   4.427   1.426
 4121TIP3   OH212305   6.999   4.740   1.208
 4121TIP3    H112306   6.999   4.820   1.155
 4121TIP3    H212307   6.906   4.718   1.219
 4122TIP3   OH212308   6.565   4.044   0.917
 4122TIP3    H112309   6.611   4.126   0.933
 4122TIP3    H212310   6.488   4.047   0.973
 4123TIP3   OH212311   7.131   4.503   1.153
 4123TIP3    H112312   7.101   4.592   1.171
 4123TIP3    H212313   7.099   4.451   1.226
 4124TIP3   OH212314   7.273   5.082   1.676
 4124TIP3    H112315   7.313   5.153   1.626
 4124TIP3    H212316   7.346   5.043   1.724
 4125TIP3   OH212317   6.915   4.980   1.059
 4125TIP3    H112318   6.831   4.982   1.105
 4125TIP3    H212319   6.947   5.070   1.064
 4126TIP3   OH212320   7.657   4.716   1.638
 4126TIP3    H112321   7.643   4.716   1.733
 4126TIP3    H212322   7.737   4.664   1.626
 4127TIP3   OH212323   7.906   5.247   1.684
 4127TIP3    H112324   7.831   5.188   1.684
 4127TIP3    H212325   7.887   5.310   1.614
 4128TIP3   OH212326   6.988   3.859   2.204
 4128TIP3    H112327   6.893   3.864   2.214
 4128TIP3    H212328   7.017   3.802   2.275
 4129TIP3   OH212329   7.766   4.549   0.752
 4129TIP3    H112330   7.770   4.475   0.813
 4129TIP3    H212331   7.857   4.572   0.736
 4130TIP3   OH212332   6.708   4.943   1.837
 4130TIP3    H112333   6.761   4.868   1.865
 4130TIP3    H212334   6.726   5.010   1.902
 4131TIP3   OH212335   7.017   4.574   0.539
 4131TIP3    H112336   7.010   4.484   0.507
 4131TIP3    H212337   6.996   4.568   0.633
 4132TIP3   OH212338   6.942   4.597   0.805
 4132TIP3    H112339   7.010   4.564   0.865
 4132TIP3    H212340   6.948   4.692   0.811
 4133TIP3   OH212341   6.675   4.289   0.996
 4133TIP3    H112342   6.609   4.329   1.053
 4133TIP3    H212343   6.689   4.353   0.926
 4134TIP3   OH212344   7.826   3.947   1.897
 4134TIP3    H112345   7.915   3.966   1.925
 4134TIP3    H212346   7.805   3.864   1.939
 4135TIP3   OH212347   7.685   3.689   1.063
 4135TIP3    H112348   7.686   3.697   0.968
 4135TIP3    H212349   7.733   3.766   1.094
 4136TIP3   OH212350   7.207   4.798   0.728
 4136TIP3    H112351   7.121   4.826   0.759
 4136TIP3    H212352   7.218   4.844   0.644
 4137TIP3   OH212353   7.391   3.860   1.156
 4137TIP3    H112354   7.458   3.925   1.137
 4137TIP3    H212355   7.396   3.846   1.250
 4138TIP3   OH212356   7.665   4.170   1.960
 4138TIP3    H112357   7.694   4.217   2.038
 4138TIP3    H212358   7.723   4.094   1.955
 4139TIP3   OH212359   7.535   3.570   1.254
 4139TIP3    H112360   7.561   3.617   1.333
 4139TIP3    H212361   7.587   3.610   1.184
 4140TIP3   OH212362   6.954   4.870   0.808
 4140TIP3    H112363   6.933   4.940   0.746
 4140TIP3    H212364   6.937   4.908   0.894
 4141TIP3   OH212365   7.055   3.582   1.047
 4141TIP3    H112366   7.048   3.670   1.084
 4141TIP3    H212367   7.149   3.561   1.052
 4142TIP3   OH212368   7.950   4.251   1.364
 4142TIP3    H112369   7.867   4.214   1.334
 4142TIP3    H212370   7.967   4.208   1.448
 4143TIP3   OH212371   6.672   4.495   0.803
 4143TIP3    H112372   6.738   4.562   0.817
 4143TIP3    H212373   6.710   4.436   0.738
 4144TIP3   OH212374   6.613   3.773   0.935
 4144TIP3    H112375   6.618   3.868   0.933
 4144TIP3    H212376   6.535   3.752   0.883
 4145TIP3   OH212377   7.934   5.229   1.277
 4145TIP3    H112378   7.890   5.275   1.206
 4145TIP3    H212379   8.027   5.235   1.256
 4146TIP3   OH212380   7.001   3.490   1.804
 4146TIP3    H112381   6.971   3.459   1.719
 4146TIP3    H212382   6.990   3.414   1.862
 4147TIP3   OH212383   6.541   4.718   1.183
 4147TIP3    H112384   6.476   4.740   1.250
 4147TIP3    H212385   6.507   4.757   1.102
 4148TIP3   OH212386   6.698   5.255   2.254
 4148TIP3    H112387   6.782   5.253   2.302
 4148TIP3    H212388   6.668   5.164   2.256
 4149TIP3   OH212389   7.183   5.212   2.300
 4149TIP3    H112390   7.276   5.190   2.306
 4149TIP3    H212391   7.149   5.155   2.232
 4150TIP3   OH212392   7.813   5.125   2.039
 4150TIP3    H112393   7.808   5.054   2.104
 4150TIP3    H212394   7.890   5.175   2.064
 4151TIP3   OH212395   6.831   4.660   2.452
 4151TIP3    H112396   6.841   4.566   2.461
 4151TIP3    H212397   6.742   4.672   2.418
 4152TIP3   OH212398   6.820   4.314   0.665
 4152TIP3    H112399   6.878   4.282   0.734
 4152TIP3    H212400   6.876   4.318   0.587
 4153TIP3   OH212401   7.438   4.745   2.229
 4153TIP3    H112402   7.395   4.764   2.146
 4153TIP3    H212403   7.467   4.654   2.221
 4154TIP3   OH212404   7.327   4.508   0.491
 4154TIP3    H112405   7.328   4.527   0.585
 4154TIP3    H212406   7.272   4.429   0.483
 4155TIP3   OH212407   7.930   4.755   1.841
 4155TIP3    H112408   8.008   4.792   1.799
 4155TIP3    H212409   7.862   4.820   1.826
 4156TIP3   OH212410   6.951   4.392   2.444
 4156TIP3    H112411   7.028   4.342   2.418
 4156TIP3    H212412   6.973   4.428   2.529
 4157TIP3   OH212413   7.010   4.212   0.872
 4157TIP3    H112414   6.983   4.176   0.957
 4157TIP3    H212415   7.048   4.138   0.825
 4158TIP3   OH212416   7.284   4.281   2.103
 4158TIP3    H112417   7.206   4.336   2.105
 4158TIP3    H212418   7.333   4.311   2.026
 4159TIP3   OH212419   7.117   4.009   0.717
 4159TIP3    H112420   7.089   4.016   0.626
 4159TIP3    H212421   7.212   4.012   0.713
 4160TIP3   OH212422   7.803   4.680   2.235
 4160TIP3    H112423   7.877   4.652   2.181
 4160TIP3    H212424   7.796   4.612   2.302
 4161TIP3   OH212425   7.406   4.067   2.225
 4161TIP3    H112426   7.407   3.989   2.170
 4161TIP3    H212427   7.365   4.134   2.171
 4162TIP3   OH212428   7.407   3.853   2.035
 4162TIP3    H112429   7.437   3.896   1.955
 4162TIP3    H212430   7.316   3.831   2.018
 4163TIP3   OH212431   7.435   4.390   1.909
 4163TIP3    H112432   7.520   4.396   1.864
 4163TIP3    H212433   7.380   4.454   1.864
 4164TIP3   OH212434   8.022   4.359   2.293
 4164TIP3    H112435   8.060   4.272   2.279
 4164TIP3    H212436   8.082   4.419   2.249
 4165TIP3   OH212437   8.065   4.608   2.027
 4165TIP3    H112438   8.012   4.662   1.968
 4165TIP3    H212439   8.147   4.592   1.979
 4166TIP3   OH212440   7.286   4.172   2.460
 4166TIP3    H112441   7.218   4.107   2.476
 4166TIP3    H212442   7.319   4.151   2.373
 4167TIP3   OH212443   7.528   3.616   2.108
 4167TIP3    H112444   7.481   3.696   2.086
 4167TIP3    H212445   7.463   3.546   2.096
 4168TIP3   OH212446   7.664   4.116   2.320
 4168TIP3    H112447   7.651   4.104   2.414
 4168TIP3    H212448   7.579   4.095   2.281
 4169TIP3   OH212449   7.911   4.079   2.178
 4169TIP3    H112450   7.829   4.077   2.228
 4169TIP3    H212451   7.974   4.033   2.233
 4170TIP3   OH212452   8.106   3.975   2.338
 4170TIP3    H112453   8.162   3.900   2.359
 4170TIP3    H212454   8.118   4.035   2.412
 4171TIP3   OH212455   7.124   3.953   2.516
 4171TIP3    H112456   7.127   3.864   2.480
 4171TIP3    H212457   7.160   3.944   2.605
 4172TIP3   OH212458   7.633   3.624   2.361
 4172TIP3    H112459   7.691   3.548   2.360
 4172TIP3    H212460   7.592   3.624   2.275
 4173TIP3   OH212461   7.701   3.842   2.519
 4173TIP3    H112462   7.680   3.772   2.457
 4173TIP3    H212463   7.626   3.901   2.514
 4174TIP3   OH212464   6.942   5.065   0.618
 4174TIP3    H112465   7.023   5.058   0.567
 4174TIP3    H212466   6.879   5.103   0.556
 4175TIP3   OH212467   6.403   4.447   0.842
 4175TIP3    H112468   6.492   4.475   0.823
 4175TIP3    H212469   6.393   4.364   0.796
 4176TIP3   OH212470   6.314   5.064   1.255
 4176TIP3    H112471   6.252   5.005   1.213
 4176TIP3    H212472   6.362   5.008   1.317
 4177TIP3   OH212473   6.452   4.913   1.442
 4177TIP3    H112474   6.440   4.838   1.501
 4177TIP3    H212475   6.503   4.976   1.493
 4178TIP3   OH212476   8.246   5.309   1.516
 4178TIP3    H112477   8.197   5.228   1.504
 4178TIP3    H212478   8.234   5.332   1.608
 4179TIP3   OH212479   8.223   5.033   2.095
 4179TIP3    H112480   8.158   5.030   2.164
 4179TIP3    H212481   8.265   5.119   2.105
 4180TIP3   OH212482   8.087   5.084   1.537
 4180TIP3    H112483   8.023   5.122   1.597
 4180TIP3    H212484   8.034   5.033   1.475
 4181TIP3   OH212485   7.991   4.216   1.062
 4181TIP3    H112486   8.075   4.170   1.068
 4181TIP3    H212487   7.985   4.265   1.145
 4182TIP3   OH212488   6.640   4.321   1.807
 4182TIP3    H112489   6.635   4.288   1.718
 4182TIP3    H212490   6.734   4.323   1.826
 4183TIP3   OH212491   6.858   4.004   2.482
 4183TIP3    H112492   6.953   4.002   2.485
 4183TIP3    H212493   6.831   3.922   2.523
 4184TIP3   OH212494   6.821   3.700   1.814
 4184TIP3    H112495   6.879   3.626   1.823
 4184TIP3    H212496   6.879   3.776   1.806
 4185TIP3   OH212497   6.620   3.974   1.884
 4185TIP3    H112498   6.669   3.968   1.802
 4185TIP3    H212499   6.646   4.058   1.922
 4186TIP3   OH212500   6.603   3.476   1.385
 4186TIP3    H112501   6.512   3.473   1.415
 4186TIP3    H212502   6.601   3.534   1.309
 4187TIP3   OH212503   7.758   5.184   0.879
 4187TIP3    H112504   7.782   5.176   0.787
 4187TIP3    H212505   7.825   5.242   0.916
 4188TIP3   OH212506   6.823   3.557   2.201
 4188TIP3    H112507   6.775   3.551   2.284
 4188TIP3    H212508   6.760   3.595   2.140
 4189TIP3   OH212509   6.858   4.986   2.280
 4189TIP3    H112510   6.768   4.963   2.258
 4189TIP3    H212511   6.865   4.969   2.374
 4190TIP3   OH212512   7.045   5.022   1.825
 4190TIP3    H112513   6.994   5.095   1.789
 4190TIP3    H212514   7.131   5.031   1.783
 4191TIP3   OH212515   7.488   5.264   1.965
 4191TIP3    H112516   7.527   5.261   2.052
 4191TIP3    H212517   7.551   5.312   1.911
 4192TIP3   OH212518   7.666   5.417   1.824
 4192TIP3    H112519   7.734   5.364   1.781
 4192TIP3    H212520   7.714   5.473   1.884
 4193TIP3   OH212521   6.716   5.281   1.847
 4193TIP3    H112522   6.629   5.314   1.827
 4193TIP3    H212523   6.730   5.305   1.938
 4194TIP3   OH212524   6.954   5.257   1.709
 4194TIP3    H112525   6.870   5.268   1.754
 4194TIP3    H212526   6.936   5.284   1.618
 4195TIP3   OH212527   7.379   5.284   1.506
 4195TIP3    H112528   7.310   5.301   1.442
 4195TIP3    H212529   7.393   5.368   1.550
 4196TIP3   OH212530   7.647   5.218   1.558
 4196TIP3    H112531   7.555   5.237   1.538
 4196TIP3    H212532   7.696   5.291   1.519
 4197TIP3   OH212533   7.836   5.404   1.467
 4197TIP3    H112534   7.833   5.491   1.427
 4197TIP3    H212535   7.870   5.347   1.398
 4198TIP3   OH212536   6.633   5.067   1.598
 4198TIP3    H112537   6.658   5.041   1.687
 4198TIP3    H212538   6.700   5.027   1.542
 4199TIP3   OH212539   6.826   4.941   1.455
 4199TIP3    H112540   6.837   4.858   1.501
 4199TIP3    H212541   6.915   4.977   1.450
 4200TIP3   OH212542   7.096   5.033   1.459
 4200TIP3    H112543   7.121   4.942   1.443
 4200TIP3    H212544   7.140   5.057   1.540
 4201TIP3   OH212545   7.620   3.658   1.503
 4201TIP3    H112546   7.604   3.605   1.581
 4201TIP3    H212547   7.714   3.653   1.489
 4202TIP3   OH212548   6.913   3.395   1.558
 4202TIP3    H112549   6.822   3.366   1.560
 4202TIP3    H212550   6.964   3.314   1.554
 4203TIP3   OH212551   6.700   3.272   1.207
 4203TIP3    H112552   6.732   3.325   1.134
 4203TIP3    H212553   6.674   3.335   1.274
 4204TIP3   OH212554   7.360   3.432   1.440
 4204TIP3    H112555   7.412   3.475   1.371
 4204TIP3    H212556   7.391   3.471   1.521
 4205TIP3   OH212557   7.870   3.560   1.420
 4205TIP3    H112558   7.897   3.542   1.330
 4205TIP3    H212559   7.868   3.475   1.463
 4206TIP3   OH212560   6.413   4.848   0.985
 4206TIP3    H112561   6.332   4.809   0.952
 4206TIP3    H212562   6.412   4.937   0.951
 4207TIP3   OH212563   6.823   3.428   0.968
 4207TIP3    H112564   6.868   3.365   0.911
 4207TIP3    H212565   6.894   3.481   1.004
 4208TIP3   OH212566   7.331   3.608   1.069
 4208TIP3    H112567   7.389   3.560   1.127
 4208TIP3    H212568   7.348   3.700   1.090
 4209TIP3   OH212569   7.123   3.677   2.451
 4209TIP3    H112570   7.086   3.609   2.506
 4209TIP3    H212571   7.215   3.681   2.476
 4210TIP3   OH212572   7.372   3.675   2.569
 4210TIP3    H112573   7.456   3.653   2.529
 4210TIP3    H212574   7.357   3.608   2.635
 4211TIP3   OH212575   6.471   4.835   0.645
 4211TIP3    H112576   6.477   4.899   0.717
 4211TIP3    H212577   6.562   4.811   0.627
 4212TIP3   OH212578   8.126   5.302   1.850
 4212TIP3    H112579   8.054   5.262   1.801
 4212TIP3    H212580   8.105   5.395   1.854
 4213TIP3   OH212581   0.054   5.199   2.817
 4213TIP3    H112582   0.021   5.289   2.822
 4213TIP3    H212583  -0.012   5.152   2.766
 4214TIP3   OH212584   0.073   5.182   3.189
 4214TIP3    H112585   0.098   5.156   3.278
 4214TIP3    H212586   0.026   5.106   3.154
 4215TIP3   OH212587   0.299   5.501   2.883
 4215TIP3    H112588   0.294   5.429   2.945
 4215TIP3    H212589   0.331   5.575   2.934
 4216TIP3   OH212590   8.502   5.982   2.885
 4216TIP3    H112591   8.548   5.903   2.857
 4216TIP3    H212592   8.435   5.952   2.946
 4217TIP3   OH212593   8.386   5.388   3.262
 4217TIP3    H112594   8.415   5.316   3.206
 4217TIP3    H212595   8.464   5.442   3.275
 4218TIP3   OH212596   0.869   4.741   3.242
 4218TIP3    H112597   0.898   4.821   3.286
 4218TIP3    H212598   0.899   4.750   3.152
 4219TIP3   OH212599   0.263   4.918   3.279
 4219TIP3    H112600   0.310   4.837   3.300
 4219TIP3    H212601   0.237   4.908   3.188
 4220TIP3   OH212602   0.306   4.677   2.863
 4220TIP3    H112603   0.374   4.664   2.929
 4220TIP3    H212604   0.353   4.710   2.786
 4221TIP3   OH212605   0.941   4.947   3.419
 4221TIP3    H112606   0.860   4.993   3.398
 4221TIP3    H212607   0.969   4.985   3.502
 4222TIP3   OH212608   8.422   5.432   2.695
 4222TIP3    H112609   8.412   5.379   2.615
 4222TIP3    H212610   8.502   5.483   2.679
 4223TIP3   OH212611   0.505   4.681   3.044
 4223TIP3    H112612   0.510   4.626   3.123
 4223TIP3    H212613   0.563   4.755   3.062
 4224TIP3   OH212614   0.366   5.743   3.046
 4224TIP3    H112615   0.278   5.733   3.083
 4224TIP3    H212616   0.364   5.829   3.004
 4225TIP3   OH212617   0.663   4.641   3.409
 4225TIP3    H112618   0.577   4.668   3.377
 4225TIP3    H212619   0.725   4.670   3.342
 4226TIP3   OH212620   8.465   4.269   3.386
 4226TIP3    H112621   8.454   4.176   3.405
 4226TIP3    H212622   8.413   4.314   3.453
 4227TIP3   OH212623   0.070   5.769   2.707
 4227TIP3    H112624   0.112   5.685   2.688
 4227TIP3    H212625   0.132   5.835   2.674
 4228TIP3   OH212626   0.182   5.532   2.635
 4228TIP3    H112627   0.218   5.473   2.568
 4228TIP3    H212628   0.236   5.516   2.712
 4229TIP3   OH212629   0.596   5.652   3.390
 4229TIP3    H112630   0.586   5.576   3.332
 4229TIP3    H212631   0.579   5.727   3.333
 4230TIP3   OH212632   8.388   5.068   2.649
 4230TIP3    H112633   8.310   5.016   2.666
 4230TIP3    H212634   8.415   5.041   2.561
 4231TIP3   OH212635   8.369   4.833   2.369
 4231TIP3    H112636   8.438   4.887   2.407
 4231TIP3    H212637   8.415   4.766   2.318
 4232TIP3   OH212638   0.790   5.294   3.235
 4232TIP3    H112639   0.708   5.343   3.240
 4232TIP3    H212640   0.823   5.311   3.147
 4233TIP3   OH212641   0.235   5.132   2.621
 4233TIP3    H112642   0.184   5.153   2.699
 4233TIP3    H212643   0.319   5.101   2.655
 4234TIP3   OH212644   0.470   5.169   3.536
 4234TIP3    H112645   0.470   5.251   3.586
 4234TIP3    H212646   0.387   5.172   3.487
 4235TIP3   OH212647   0.124   5.738   3.162
 4235TIP3    H112648   0.109   5.819   3.212
 4235TIP3    H212649   0.114   5.668   3.227
 4236TIP3   OH212650   0.077   4.990   2.448
 4236TIP3    H112651   0.132   5.045   2.503
 4236TIP3    H212652   0.103   5.013   2.358
 4237TIP3   OH212653   0.590   4.228   2.498
 4237TIP3    H112654   0.512   4.250   2.548
 4237TIP3    H212655   0.608   4.307   2.446
 4238TIP3   OH212656   0.395   5.596   2.041
 4238TIP3    H112657   0.402   5.690   2.027
 4238TIP3    H212658   0.485   5.564   2.030
 4239TIP3   OH212659   0.831   5.999   3.439
 4239TIP3    H112660   0.833   5.904   3.448
 4239TIP3    H212661   0.750   6.025   3.482
 4240TIP3   OH212662   8.443   5.836   2.164
 4240TIP3    H112663   8.488   5.758   2.130
 4240TIP3    H212664   8.442   5.823   2.259
 4241TIP3   OH212665   8.449   5.866   2.451
 4241TIP3    H112666   8.383   5.868   2.520
 4241TIP3    H212667   8.531   5.844   2.496
 4242TIP3   OH212668   0.719   5.126   3.714
 4242TIP3    H112669   0.643   5.139   3.657
 4242TIP3    H212670   0.740   5.032   3.705
 4243TIP3   OH212671   0.264   4.473   3.716
 4243TIP3    H112672   0.333   4.447   3.777
 4243TIP3    H212673   0.182   4.455   3.762
 4244TIP3   OH212674   0.486   4.902   3.631
 4244TIP3    H112675   0.443   4.899   3.716
 4244TIP3    H212676   0.469   4.990   3.598
 4245TIP3   OH212677   0.153   5.044   2.196
 4245TIP3    H112678   0.118   5.012   2.113
 4245TIP3    H212679   0.240   5.077   2.173
 4246TIP3   OH212680   8.352   4.413   2.470
 4246TIP3    H112681   8.343   4.416   2.566
 4246TIP3    H212682   8.325   4.325   2.446
 4247TIP3   OH212683   0.030   4.855   2.782
 4247TIP3    H112684  -0.021   4.926   2.743
 4247TIP3    H212685   0.083   4.821   2.709
 4248TIP3   OH212686   0.226   5.115   3.862
 4248TIP3    H112687   0.197   5.044   3.919
 4248TIP3    H212688   0.319   5.126   3.883
 4249TIP3   OH212689   0.179   4.872   3.017
 4249TIP3    H112690   0.121   4.904   2.948
 4249TIP3    H212691   0.221   4.794   2.979
 4250TIP3   OH212692   0.188   5.117   3.445
 4250TIP3    H112693   0.224   5.054   3.383
 4250TIP3    H212694   0.162   5.064   3.521
 4251TIP3   OH212695   8.369   4.575   3.107
 4251TIP3    H112696   8.281   4.605   3.128
 4251TIP3    H212697   8.421   4.597   3.185
 4252TIP3   OH212698   0.351   4.659   3.327
 4252TIP3    H112699   0.316   4.674   3.415
 4252TIP3    H212700   0.289   4.597   3.287
 4253TIP3   OH212701   0.531   6.345   3.536
 4253TIP3    H112702   0.525   6.368   3.444
 4253TIP3    H212703   0.603   6.399   3.569
 4254TIP3   OH212704   8.459   4.897   3.209
 4254TIP3    H112705   8.531   4.872   3.152
 4254TIP3    H212706   8.483   4.861   3.295
 4255TIP3   OH212707   8.447   4.796   3.505
 4255TIP3    H112708   8.381   4.865   3.495
 4255TIP3    H212709   8.520   4.838   3.550
 4256TIP3   OH212710   0.556   5.438   3.223
 4256TIP3    H112711   0.584   5.486   3.145
 4256TIP3    H212712   0.475   5.394   3.197
 4257TIP3   OH212713   0.112   4.509   2.467
 4257TIP3    H112714   0.017   4.498   2.467
 4257TIP3    H212715   0.126   4.602   2.489
 4258TIP3   OH212716   0.047   5.521   3.592
 4258TIP3    H112717   0.082   5.516   3.681
 4258TIP3    H212718  -0.004   5.602   3.590
 4259TIP3   OH212719   0.189   4.760   2.565
 4259TIP3    H112720   0.284   4.760   2.579
 4259TIP3    H212721   0.173   4.837   2.509
 4260TIP3   OH212722   8.296   5.345   2.432
 4260TIP3    H112723   8.240   5.422   2.419
 4260TIP3    H212724   8.242   5.282   2.479
 4261TIP3   OH212725   0.010   5.243   3.961
 4261TIP3    H112726  -0.052   5.181   3.922
 4261TIP3    H212727   0.095   5.220   3.923
 4262TIP3   OH212728   0.220   5.773   3.487
 4262TIP3    H112729   0.125   5.778   3.496
 4262TIP3    H212730   0.254   5.824   3.561
 4263TIP3   OH212731   0.606   4.829   2.412
 4263TIP3    H112732   0.545   4.802   2.343
 4263TIP3    H212733   0.652   4.904   2.376
 4264TIP3   OH212734   0.846   5.712   3.475
 4264TIP3    H112735   0.751   5.705   3.471
 4264TIP3    H212736   0.875   5.681   3.389
 4265TIP3   OH212737   0.329   5.664   2.306
 4265TIP3    H112738   0.311   5.586   2.360
 4265TIP3    H212739   0.344   5.629   2.218
 4266TIP3   OH212740   0.327   5.296   3.140
 4266TIP3    H112741   0.235   5.273   3.153
 4266TIP3    H212742   0.365   5.220   3.096
 4267TIP3   OH212743   0.124   5.503   3.328
 4267TIP3    H112744   0.111   5.509   3.422
 4267TIP3    H212745   0.207   5.457   3.317
 4268TIP3   OH212746   0.094   5.403   2.212
 4268TIP3    H112747   0.142   5.380   2.291
 4268TIP3    H212748   0.008   5.361   2.223
 4269TIP3   OH212749   0.359   6.033   3.372
 4269TIP3    H112750   0.281   5.977   3.369
 4269TIP3    H212751   0.343   6.100   3.305
 4270TIP3   OH212752   0.419   5.872   2.027
 4270TIP3    H112753   0.461   5.940   1.975
 4270TIP3    H212754   0.343   5.914   2.067
 4271TIP3   OH212755   0.252   5.340   2.440
 4271TIP3    H112756   0.237   5.266   2.498
 4271TIP3    H212757   0.344   5.333   2.415
 4272TIP3   OH212758   0.275   4.717   3.587
 4272TIP3    H112759   0.361   4.753   3.608
 4272TIP3    H212760   0.271   4.634   3.634
 4273TIP3   OH212761   0.170   4.459   2.745
 4273TIP3    H112762   0.146   4.478   2.655
 4273TIP3    H212763   0.206   4.541   2.778
 4274TIP3   OH212764   8.348   4.654   2.843
 4274TIP3    H112765   8.414   4.721   2.827
 4274TIP3    H212766   8.350   4.639   2.937
 4275TIP3   OH212767   0.129   4.953   3.652
 4275TIP3    H112768   0.158   5.006   3.726
 4275TIP3    H212769   0.184   4.875   3.656
 4276TIP3   OH212770   0.006   4.369   2.961
 4276TIP3    H112771  -0.025   4.449   3.004
 4276TIP3    H212772   0.054   4.401   2.885
 4277TIP3   OH212773   0.755   4.862   3.636
 4277TIP3    H112774   0.659   4.857   3.638
 4277TIP3    H212775   0.779   4.827   3.550
 4278TIP3   OH212776   0.410   5.055   3.024
 4278TIP3    H112777   0.336   4.995   3.029
 4278TIP3    H212778   0.481   5.009   3.067
 4279TIP3   OH212779   0.383   6.012   2.968
 4279TIP3    H112780   0.337   6.057   2.897
 4279TIP3    H212781   0.475   6.029   2.952
 4280TIP3   OH212782   0.286   5.904   3.715
 4280TIP3    H112783   0.264   5.850   3.791
 4280TIP3    H212784   0.346   5.970   3.749
 4281TIP3   OH212785   0.078   5.619   2.036
 4281TIP3    H112786   0.097   5.552   2.101
 4281TIP3    H212787   0.147   5.609   1.970
 4282TIP3   OH212788   8.296   5.281   2.162
 4282TIP3    H112789   8.292   5.291   2.258
 4282TIP3    H212790   8.292   5.187   2.148
 4283TIP3   OH212791   0.380   5.547   3.528
 4283TIP3    H112792   0.458   5.583   3.486
 4283TIP3    H212793   0.312   5.613   3.514
 4284TIP3   OH212794   8.105   4.813   2.458
 4284TIP3    H112795   8.074   4.801   2.368
 4284TIP3    H212796   8.200   4.813   2.450
 4285TIP3   OH212797   0.248   5.469   3.934
 4285TIP3    H112798   0.317   5.441   3.874
 4285TIP3    H212799   0.248   5.403   4.004
 4286TIP3   OH212800   0.381   5.126   2.067
 4286TIP3    H112801   0.367   5.076   1.987
 4286TIP3    H212802   0.350   5.214   2.047
 4287TIP3   OH212803   8.324   4.593   3.647
 4287TIP3    H112804   8.376   4.653   3.594
 4287TIP3    H212805   8.284   4.647   3.715
 4288TIP3   OH212806   8.442   5.236   3.547
 4288TIP3    H112807   8.532   5.213   3.524
 4288TIP3    H212808   8.426   5.319   3.502
 4289TIP3   OH212809   0.481   5.137   3.977
 4289TIP3    H112810   0.525   5.054   3.990
 4289TIP3    H212811   0.546   5.193   3.935
 4290TIP3   OH212812   0.510   5.401   3.715
 4290TIP3    H112813   0.453   5.453   3.658
 4290TIP3    H212814   0.598   5.416   3.680
 4291TIP3   OH212815   8.500   4.405   3.781
 4291TIP3    H112816   8.444   4.477   3.751
 4291TIP3    H212817   8.446   4.326   3.771
 4292TIP3   OH212818   0.125   4.912   4.019
 4292TIP3    H112819   0.159   4.909   4.108
 4292TIP3    H212820   0.042   4.865   4.023
 4293TIP3   OH212821   0.363   4.854   3.868
 4293TIP3    H112822   0.289   4.850   3.928
 4293TIP3    H212823   0.438   4.825   3.920
 4294TIP3   OH212824   0.588   4.799   4.019
 4294TIP3    H112825   0.602   4.705   4.031
 4294TIP3    H212826   0.584   4.835   4.108
 4295TIP3   OH212827   0.096   4.417   4.041
 4295TIP3    H112828   0.159   4.345   4.042
 4295TIP3    H212829   0.055   4.411   3.954
 4296TIP3   OH212830   0.167   4.625   4.198
 4296TIP3    H112831   0.150   4.549   4.142
 4296TIP3    H212832   0.082   4.670   4.203
 4297TIP3   OH212833   0.635   6.104   2.929
 4297TIP3    H112834   0.662   6.136   3.016
 4297TIP3    H212835   0.699   6.141   2.869
 4298TIP3   OH212836   0.664   6.121   3.213
 4298TIP3    H112837   0.615   6.039   3.204
 4298TIP3    H212838   0.739   6.098   3.267
 4299TIP3   OH212839   0.712   5.802   3.783
 4299TIP3    H112840   0.639   5.808   3.845
 4299TIP3    H212841   0.753   5.888   3.784
 4300TIP3   OH212842   0.521   5.320   2.399
 4300TIP3    H112843   0.590   5.376   2.364
 4300TIP3    H212844   0.559   5.282   2.479
 4301TIP3   OH212845   0.638   5.208   2.614
 4301TIP3    H112846   0.586   5.144   2.663
 4301TIP3    H212847   0.715   5.223   2.669
 4302TIP3   OH212848   0.708   5.571   3.034
 4302TIP3    H112849   0.761   5.504   2.991
 4302TIP3    H212850   0.703   5.643   2.971
 4303TIP3   OH212851   0.536   5.871   3.231
 4303TIP3    H112852   0.467   5.915   3.282
 4303TIP3    H212853   0.489   5.825   3.161
 4304TIP3   OH212854   0.582   5.087   2.252
 4304TIP3    H112855   0.513   5.089   2.186
 4304TIP3    H212856   0.562   5.159   2.310
 4305TIP3   OH212857   0.438   4.758   2.211
 4305TIP3    H112858   0.432   4.799   2.124
 4305TIP3    H212859   0.423   4.665   2.194
 4306TIP3   OH212860   0.459   5.036   2.748
 4306TIP3    H112861   0.485   4.945   2.735
 4306TIP3    H212862   0.453   5.046   2.843
 4307TIP3   OH212863   0.756   5.461   3.609
 4307TIP3    H112864   0.825   5.394   3.600
 4307TIP3    H212865   0.778   5.526   3.542
 4308TIP3   OH212866   0.937   5.262   3.629
 4308TIP3    H112867   0.861   5.214   3.664
 4308TIP3    H212868   1.010   5.201   3.640
 4309TIP3   OH212869   0.402   4.488   2.181
 4309TIP3    H112870   0.475   4.463   2.238
 4309TIP3    H212871   0.329   4.434   2.211
 4310TIP3   OH212872   0.466   4.753   2.639
 4310TIP3    H112873   0.507   4.668   2.656
 4310TIP3    H212874   0.519   4.792   2.569
 4311TIP3   OH212875   0.625   4.928   3.142
 4311TIP3    H112876   0.706   4.950   3.096
 4311TIP3    H212877   0.638   4.960   3.231
 4312TIP3   OH212878   0.694   5.074   3.374
 4312TIP3    H112879   0.616   5.106   3.419
 4312TIP3    H212880   0.728   5.150   3.326
 4313TIP3   OH212881   1.146   4.662   3.926
 4313TIP3    H112882   1.204   4.597   3.886
 4313TIP3    H212883   1.116   4.716   3.853
 4314TIP3   OH212884   0.572   4.502   2.687
 4314TIP3    H112885   0.621   4.488   2.767
 4314TIP3    H212886   0.512   4.428   2.682
 4315TIP3   OH212887   1.007   4.797   3.733
 4315TIP3    H112888   0.922   4.838   3.742
 4315TIP3    H212889   0.992   4.723   3.674
 4316TIP3   OH212890   0.638   4.428   2.310
 4316TIP3    H112891   0.681   4.358   2.261
 4316TIP3    H212892   0.701   4.500   2.310
 4317TIP3   OH212893   0.221   5.956   2.586
 4317TIP3    H112894   0.272   5.951   2.506
 4317TIP3    H212895   0.260   6.028   2.635
 4318TIP3   OH212896   0.113   6.194   3.524
 4318TIP3    H112897   0.174   6.134   3.480
 4318TIP3    H212898   0.169   6.251   3.575
 4319TIP3   OH212899   0.916   4.556   3.613
 4319TIP3    H112900   0.827   4.549   3.577
 4319TIP3    H212901   0.952   4.468   3.604
 4320TIP3   OH212902   0.097   6.014   3.254
 4320TIP3    H112903   0.010   6.039   3.283
 4320TIP3    H212904   0.129   6.089   3.205
 4321TIP3   OH212905   0.319   6.205   3.159
 4321TIP3    H112906   0.297   6.285   3.112
 4321TIP3    H212907   0.337   6.140   3.091
 4322TIP3   OH212908   0.132   4.481   3.249
 4322TIP3    H112909   0.078   4.408   3.278
 4322TIP3    H212910   0.193   4.442   3.186
 4323TIP3   OH212911   0.630   4.374   3.142
 4323TIP3    H112912   0.672   4.403   3.061
 4323TIP3    H212913   0.536   4.383   3.125
 4324TIP3   OH212914   0.737   4.455   2.902
 4324TIP3    H112915   0.804   4.396   2.866
 4324TIP3    H212916   0.773   4.543   2.888
 4325TIP3   OH212917   8.332   4.213   3.132
 4325TIP3    H112918   8.375   4.263   3.063
 4325TIP3    H212919   8.367   4.248   3.214
 4326TIP3   OH212920   0.346   4.355   3.112
 4326TIP3    H112921   0.336   4.338   3.018
 4326TIP3    H212922   0.340   4.268   3.152
 4327TIP3   OH212923   0.384   4.289   2.677
 4327TIP3    H112924   0.305   4.340   2.693
 4327TIP3    H212925   0.368   4.205   2.720
 4328TIP3   OH212926   8.330   4.400   2.737
 4328TIP3    H112927   8.322   4.348   2.817
 4328TIP3    H212928   8.319   4.491   2.766
 4329TIP3   OH212929   0.362   5.930   2.353
 4329TIP3    H112930   0.356   5.835   2.342
 4329TIP3    H212931   0.317   5.966   2.276
 4330TIP3   OH212932   0.652   4.530   4.046
 4330TIP3    H112933   0.669   4.498   4.134
 4330TIP3    H212934   0.737   4.524   4.001
 4331TIP3   OH212935   0.583   6.077   3.540
 4331TIP3    H112936   0.509   6.044   3.490
 4331TIP3    H212937   0.568   6.172   3.545
 4332TIP3   OH212938   1.855   5.456   2.299
 4332TIP3    H112939   1.826   5.545   2.280
 4332TIP3    H212940   1.781   5.401   2.272
 4333TIP3   OH212941   1.856   5.450   2.696
 4333TIP3    H112942   1.889   5.427   2.783
 4333TIP3    H212943   1.814   5.371   2.664
 4334TIP3   OH212944   1.152   5.346   3.057
 4334TIP3    H112945   1.180   5.279   3.119
 4334TIP3    H212946   1.234   5.387   3.028
 4335TIP3   OH212947   2.099   5.756   2.370
 4335TIP3    H112948   2.082   5.685   2.431
 4335TIP3    H212949   2.129   5.829   2.425
 4336TIP3   OH212950   1.128   5.756   2.776
 4336TIP3    H112951   1.115   5.662   2.774
 4336TIP3    H212952   1.223   5.768   2.768
 4337TIP3   OH212953   0.784   4.958   2.611
 4337TIP3    H112954   0.767   5.046   2.579
 4337TIP3    H212955   0.807   4.908   2.533
 4338TIP3   OH212956   0.890   5.245   2.734
 4338TIP3    H112957   0.932   5.166   2.768
 4338TIP3    H212958   0.940   5.266   2.655
 4339TIP3   OH212959   1.752   6.214   2.386
 4339TIP3    H112960   1.792   6.146   2.333
 4339TIP3    H212961   1.741   6.174   2.472
 4340TIP3   OH212962   1.655   5.681   2.731
 4340TIP3    H112963   1.686   5.600   2.691
 4340TIP3    H212964   1.735   5.728   2.756
 4341TIP3   OH212965   2.671   5.000   2.731
 4341TIP3    H112966   2.697   5.081   2.776
 4341TIP3    H212967   2.687   5.018   2.638
 4342TIP3   OH212968   2.061   5.176   2.769
 4342TIP3    H112969   2.105   5.094   2.790
 4342TIP3    H212970   2.031   5.165   2.679
 4343TIP3   OH212971   1.403   4.841   2.726
 4343TIP3    H112972   1.381   4.913   2.667
 4343TIP3    H212973   1.360   4.764   2.687
 4344TIP3   OH212974   2.102   4.929   2.351
 4344TIP3    H112975   2.169   4.913   2.418
 4344TIP3    H212976   2.151   4.965   2.277
 4345TIP3   OH212977   1.034   5.034   2.840
 4345TIP3    H112978   1.118   5.017   2.881
 4345TIP3    H212979   1.034   4.979   2.761
 4346TIP3   OH212980   1.473   5.235   2.637
 4346TIP3    H112981   1.565   5.213   2.647
 4346TIP3    H212982   1.433   5.155   2.602
 4347TIP3   OH212983   2.739   5.210   2.900
 4347TIP3    H112984   2.655   5.252   2.879
 4347TIP3    H212985   2.752   5.227   2.993
 4348TIP3   OH212986   1.397   4.824   3.165
 4348TIP3    H112987   1.340   4.857   3.095
 4348TIP3    H212988   1.349   4.841   3.246
 4349TIP3   OH212989   1.745   5.676   2.169
 4349TIP3    H112990   1.701   5.651   2.088
 4349TIP3    H212991   1.700   5.756   2.198
 4350TIP3   OH212992   1.502   5.604   2.951
 4350TIP3    H112993   1.442   5.669   2.988
 4350TIP3    H212994   1.545   5.650   2.879
 4351TIP3   OH212995   2.305   4.934   2.532
 4351TIP3    H112996   2.277   4.896   2.615
 4351TIP3    H212997   2.356   5.011   2.556
 4352TIP3   OH212998   1.273   4.937   2.946
 4352TIP3    H112999   1.332   5.008   2.971
 4352TIP3    H213000   1.316   4.895   2.871
 4353TIP3   OH213001   1.331   5.800   3.060
 4353TIP3    H113002   1.308   5.884   3.021
 4353TIP3    H213003   1.256   5.776   3.114
 4354TIP3   OH213004   0.722   5.484   2.292
 4354TIP3    H113005   0.688   5.506   2.205
 4354TIP3    H213006   0.758   5.566   2.325
 4355TIP3   OH213007   2.164   6.001   2.533
 4355TIP3    H113008   2.077   5.989   2.572
 4355TIP3    H213009   2.158   6.086   2.488
 4356TIP3   OH213010   2.464   4.896   2.897
 4356TIP3    H113011   2.375   4.924   2.874
 4356TIP3    H213012   2.519   4.927   2.826
 4357TIP3   OH213013   1.751   4.537   2.882
 4357TIP3    H113014   1.740   4.443   2.897
 4357TIP3    H213015   1.677   4.578   2.926
 4358TIP3   OH213016   1.868   6.044   2.202
 4358TIP3    H113017   1.914   5.961   2.187
 4358TIP3    H213018   1.925   6.110   2.164
 4359TIP3   OH213019   2.011   5.827   2.118
 4359TIP3    H113020   1.967   5.750   2.083
 4359TIP3    H213021   2.050   5.797   2.200
 4360TIP3   OH213022   2.391   5.910   2.874
 4360TIP3    H113023   2.380   5.832   2.819
 4360TIP3    H213024   2.376   5.983   2.814
 4361TIP3   OH213025   1.684   5.306   2.134
 4361TIP3    H113026   1.604   5.354   2.116
 4361TIP3    H213027   1.729   5.301   2.050
 4362TIP3   OH213028   1.646   5.093   1.845
 4362TIP3    H113029   1.710   5.142   1.897
 4362TIP3    H213030   1.698   5.028   1.799
 4363TIP3   OH213031   2.588   5.552   2.722
 4363TIP3    H113032   2.504   5.598   2.730
 4363TIP3    H213033   2.617   5.572   2.633
 4364TIP3   OH213034   2.034   5.388   2.107
 4364TIP3    H113035   1.978   5.412   2.180
 4364TIP3    H213036   2.117   5.361   2.148
 4365TIP3   OH213037   2.266   5.437   3.009
 4365TIP3    H113038   2.259   5.511   3.071
 4365TIP3    H213039   2.179   5.431   2.970
 4366TIP3   OH213040   1.262   5.379   2.518
 4366TIP3    H113041   1.219   5.320   2.456
 4366TIP3    H213042   1.337   5.328   2.551
 4367TIP3   OH213043   1.396   5.798   2.668
 4367TIP3    H113044   1.372   5.758   2.584
 4367TIP3    H213045   1.483   5.763   2.687
 4368TIP3   OH213046   1.392   5.358   2.879
 4368TIP3    H113047   1.426   5.329   2.794
 4368TIP3    H213048   1.440   5.439   2.898
 4369TIP3   OH213049   1.925   5.994   2.656
 4369TIP3    H113050   1.914   6.071   2.712
 4369TIP3    H213051   1.912   5.919   2.714
 4370TIP3   OH213052   1.536   5.913   3.204
 4370TIP3    H113053   1.477   5.975   3.248
 4370TIP3    H213054   1.478   5.857   3.152
 4371TIP3   OH213055   1.874   5.246   1.932
 4371TIP3    H113056   1.930   5.303   1.984
 4371TIP3    H213057   1.897   5.266   1.841
 4372TIP3   OH213058   1.292   5.475   3.306
 4372TIP3    H113059   1.293   5.561   3.349
 4372TIP3    H213060   1.200   5.448   3.308
 4373TIP3   OH213061   1.618   5.923   2.208
 4373TIP3    H113062   1.699   5.974   2.218
 4373TIP3    H213063   1.557   5.984   2.167
 4374TIP3   OH213064   1.330   6.081   3.289
 4374TIP3    H113065   1.300   6.081   3.198
 4374TIP3    H213066   1.252   6.058   3.339
 4375TIP3   OH213067   2.387   4.485   1.982
 4375TIP3    H113068   2.307   4.502   2.033
 4375TIP3    H213069   2.401   4.565   1.932
 4376TIP3   OH213070   1.129   5.213   2.328
 4376TIP3    H113071   1.063   5.261   2.279
 4376TIP3    H213072   1.091   5.126   2.341
 4377TIP3   OH213073   2.190   5.852   1.529
 4377TIP3    H113074   2.196   5.947   1.516
 4377TIP3    H213075   2.280   5.821   1.517
 4378TIP3   OH213076   0.911   5.611   3.233
 4378TIP3    H113077   0.847   5.589   3.166
 4378TIP3    H213078   0.949   5.527   3.259
 4379TIP3   OH213079   0.768   5.803   2.868
 4379TIP3    H113080   0.862   5.791   2.854
 4379TIP3    H213081   0.761   5.880   2.924
 4380TIP3   OH213082   2.626   6.254   2.926
 4380TIP3    H113083   2.631   6.160   2.939
 4380TIP3    H213084   2.546   6.280   2.970
 4381TIP3   OH213085   1.733   6.043   3.062
 4381TIP3    H113086   1.733   6.134   3.091
 4381TIP3    H213087   1.664   6.001   3.112
 4382TIP3   OH213088   1.498   6.170   2.009
 4382TIP3    H113089   1.450   6.149   1.929
 4382TIP3    H213090   1.465   6.256   2.035
 4383TIP3   OH213091   0.936   6.016   2.397
 4383TIP3    H113092   0.981   6.008   2.481
 4383TIP3    H213093   0.887   5.935   2.389
 4384TIP3   OH213094   1.701   6.070   1.650
 4384TIP3    H113095   1.756   6.001   1.614
 4384TIP3    H213096   1.732   6.081   1.739
 4385TIP3   OH213097   1.750   6.119   1.920
 4385TIP3    H113098   1.662   6.128   1.959
 4385TIP3    H213099   1.802   6.078   1.989
 4386TIP3   OH213100   2.517   5.385   3.195
 4386TIP3    H113101   2.434   5.393   3.148
 4386TIP3    H213102   2.535   5.291   3.196
 4387TIP3   OH213103   1.114   5.796   3.225
 4387TIP3    H113104   1.165   5.777   3.303
 4387TIP3    H213105   1.041   5.733   3.227
 4388TIP3   OH213106   1.512   4.618   3.009
 4388TIP3    H113107   1.426   4.587   2.980
 4388TIP3    H213108   1.493   4.699   3.057
 4389TIP3   OH213109   2.047   4.725   3.204
 4389TIP3    H113110   2.115   4.708   3.268
 4389TIP3    H213111   1.965   4.710   3.251
 4390TIP3   OH213112   2.304   5.182   3.126
 4390TIP3    H113113   2.252   5.145   3.198
 4390TIP3    H213114   2.251   5.252   3.091
 4391TIP3   OH213115   1.950   5.289   1.675
 4391TIP3    H113116   1.913   5.264   1.590
 4391TIP3    H213117   2.033   5.333   1.653
 4392TIP3   OH213118   1.660   4.662   1.981
 4392TIP3    H113119   1.628   4.665   2.072
 4392TIP3    H213120   1.622   4.582   1.945
 4393TIP3   OH213121   1.446   5.134   3.026
 4393TIP3    H113122   1.399   5.152   3.108
 4393TIP3    H213123   1.433   5.213   2.974
 4394TIP3   OH213124   1.324   5.019   2.539
 4394TIP3    H113125   1.230   5.008   2.551
 4394TIP3    H213126   1.343   4.979   2.454
 4395TIP3   OH213127   1.824   5.108   2.270
 4395TIP3    H113128   1.771   5.177   2.229
 4395TIP3    H213129   1.877   5.073   2.198
 4396TIP3   OH213130   1.980   5.130   2.504
 4396TIP3    H113131   1.917   5.160   2.438
 4396TIP3    H213132   2.016   5.050   2.467
 4397TIP3   OH213133   1.271   5.163   3.241
 4397TIP3    H113134   1.323   5.217   3.301
 4397TIP3    H213135   1.259   5.080   3.287
 4398TIP3   OH213136   1.311   4.640   1.947
 4398TIP3    H113137   1.309   4.636   2.043
 4398TIP3    H213138   1.241   4.702   1.924
 4399TIP3   OH213139   0.874   4.671   2.823
 4399TIP3    H113140   0.933   4.713   2.885
 4399TIP3    H213141   0.905   4.699   2.737
 4400TIP3   OH213142   1.988   5.379   2.939
 4400TIP3    H113143   2.014   5.298   2.894
 4400TIP3    H213144   1.977   5.354   3.031
 4401TIP3   OH213145   1.661   4.839   2.602
 4401TIP3    H113146   1.579   4.839   2.652
 4401TIP3    H213147   1.730   4.835   2.669
 4402TIP3   OH213148   1.087   4.880   2.620
 4402TIP3    H113149   1.033   4.907   2.545
 4402TIP3    H213150   1.134   4.803   2.589
 4403TIP3   OH213151   1.368   4.891   2.305
 4403TIP3    H113152   1.458   4.907   2.279
 4403TIP3    H213153   1.317   4.907   2.226
 4404TIP3   OH213154   2.154   4.913   2.794
 4404TIP3    H113155   2.135   4.926   2.887
 4404TIP3    H213156   2.084   4.856   2.763
 4405TIP3   OH213157   1.234   4.906   2.074
 4405TIP3    H113158   1.138   4.902   2.065
 4405TIP3    H213159   1.263   4.950   1.994
 4406TIP3   OH213160   2.323   6.608   3.024
 4406TIP3    H113161   2.319   6.628   2.930
 4406TIP3    H213162   2.403   6.651   3.054
 4407TIP3   OH213163   1.275   5.720   3.447
 4407TIP3    H113164   1.356   5.746   3.490
 4407TIP3    H213165   1.211   5.715   3.518
 4408TIP3   OH213166   1.740   5.170   2.701
 4408TIP3    H113167   1.813   5.130   2.653
 4408TIP3    H213168   1.745   5.132   2.789
 4409TIP3   OH213169   1.267   4.654   2.581
 4409TIP3    H113170   1.231   4.578   2.626
 4409TIP3    H213171   1.306   4.618   2.501
 4410TIP3   OH213172   1.717   5.072   2.990
 4410TIP3    H113173   1.628   5.103   3.002
 4410TIP3    H213174   1.770   5.128   3.047
 4411TIP3   OH213175   1.451   5.455   2.085
 4411TIP3    H113176   1.384   5.388   2.072
 4411TIP3    H213177   1.436   5.489   2.173
 4412TIP3   OH213178   2.352   5.693   2.709
 4412TIP3    H113179   2.377   5.741   2.630
 4412TIP3    H213180   2.270   5.650   2.686
 4413TIP3   OH213181   1.910   4.770   1.945
 4413TIP3    H113182   1.817   4.749   1.958
 4413TIP3    H213183   1.918   4.861   1.974
 4414TIP3   OH213184   1.857   5.777   3.077
 4414TIP3    H113185   1.879   5.743   3.164
 4414TIP3    H213186   1.815   5.862   3.094
 4415TIP3   OH213187   1.981   5.016   2.051
 4415TIP3    H113188   2.075   5.022   2.068
 4415TIP3    H213189   1.961   5.095   2.001
 4416TIP3   OH213190   1.152   5.483   2.754
 4416TIP3    H113191   1.182   5.454   2.668
 4416TIP3    H213192   1.192   5.422   2.816
 4417TIP3   OH213193   1.597   5.606   1.908
 4417TIP3    H113194   1.552   5.690   1.911
 4417TIP3    H213195   1.545   5.549   1.965
 4418TIP3   OH213196   1.025   5.403   3.377
 4418TIP3    H113197   1.049   5.385   3.468
 4418TIP3    H213198   0.962   5.334   3.355
 4419TIP3   OH213199   1.754   5.499   3.387
 4419TIP3    H113200   1.679   5.446   3.361
 4419TIP3    H213201   1.829   5.454   3.348
 4420TIP3   OH213202   2.012   6.046   2.976
 4420TIP3    H113203   1.917   6.032   2.987
 4420TIP3    H213204   2.038   6.093   3.055
 4421TIP3   OH213205   2.421   5.109   1.882
 4421TIP3    H113206   2.361   5.061   1.824
 4421TIP3    H213207   2.421   5.198   1.847
 4422TIP3   OH213208   2.640   5.966   2.962
 4422TIP3    H113209   2.544   5.959   2.958
 4422TIP3    H213210   2.669   5.936   2.876
 4423TIP3   OH213211   2.125   5.925   1.795
 4423TIP3    H113212   2.098   5.857   1.858
 4423TIP3    H213213   2.137   5.878   1.713
 4424TIP3   OH213214   2.118   5.554   2.625
 4424TIP3    H113215   2.027   5.529   2.644
 4424TIP3    H213216   2.155   5.476   2.585
 4425TIP3   OH213217   1.247   5.786   2.388
 4425TIP3    H113218   1.246   5.864   2.332
 4425TIP3    H213219   1.156   5.759   2.395
 4426TIP3   OH213220   0.784   5.112   2.066
 4426TIP3    H113221   0.861   5.152   2.107
 4426TIP3    H213222   0.730   5.083   2.139
 4427TIP3   OH213223   1.383   5.549   2.330
 4427TIP3    H113224   1.350   5.637   2.349
 4427TIP3    H213225   1.347   5.494   2.399
 4428TIP3   OH213226   1.521   6.127   2.854
 4428TIP3    H113227   1.560   6.197   2.802
 4428TIP3    H213228   1.595   6.086   2.899
 4429TIP3   OH213229   1.165   6.025   2.237
 4429TIP3    H113230   1.080   6.029   2.282
 4429TIP3    H213231   1.197   6.115   2.239
 4430TIP3   OH213232   1.908   5.762   2.812
 4430TIP3    H113233   1.895   5.760   2.907
 4430TIP3    H213234   1.980   5.701   2.796
 4431TIP3   OH213235   1.881   5.656   1.698
 4431TIP3    H113236   1.937   5.632   1.773
 4431TIP3    H213237   1.794   5.626   1.723
 4432TIP3   OH213238   2.151   6.295   2.865
 4432TIP3    H113239   2.077   6.234   2.862
 4432TIP3    H213240   2.136   6.355   2.792
 4433TIP3   OH213241   2.219   6.130   1.514
 4433TIP3    H113242   2.261   6.201   1.465
 4433TIP3    H213243   2.139   6.169   1.549
 4434TIP3   OH213244   1.237   4.905   3.381
 4434TIP3    H113245   1.142   4.901   3.388
 4434TIP3    H213246   1.269   4.844   3.448
 4435TIP3   OH213247   2.045   5.585   1.909
 4435TIP3    H113248   2.030   5.521   1.980
 4435TIP3    H213249   2.140   5.585   1.897
 4436TIP3   OH213250   0.956   5.988   3.013
 4436TIP3    H113251   1.007   5.911   3.041
 4436TIP3    H213252   0.986   6.059   3.070
 4437TIP3   OH213253   1.245   5.632   1.697
 4437TIP3    H113254   1.257   5.542   1.667
 4437TIP3    H213255   1.224   5.623   1.790
 4438TIP3   OH213256   1.188   5.641   1.968
 4438TIP3    H113257   1.258   5.607   2.024
 4438TIP3    H213258   1.194   5.736   1.978
 4439TIP3   OH213259   0.937   5.343   2.178
 4439TIP3    H113260   0.864   5.372   2.232
 4439TIP3    H213261   0.942   5.408   2.108
 4440TIP3   OH213262   2.091   4.952   3.054
 4440TIP3    H113263   2.106   5.020   3.120
 4440TIP3    H213264   2.067   4.875   3.105
 4441TIP3   OH213265   1.961   4.718   2.229
 4441TIP3    H113266   1.945   4.740   2.138
 4441TIP3    H213267   2.000   4.797   2.267
 4442TIP3   OH213268   1.457   5.839   1.916
 4442TIP3    H113269   1.372   5.860   1.954
 4442TIP3    H213270   1.473   5.910   1.853
 4443TIP3   OH213271   1.653   4.899   2.332
 4443TIP3    H113272   1.713   4.972   2.316
 4443TIP3    H213273   1.652   4.890   2.427
 4444TIP3   OH213274   1.788   4.624   2.431
 4444TIP3    H113275   1.777   4.699   2.490
 4444TIP3    H213276   1.849   4.656   2.364
 4445TIP3   OH213277   1.204   5.915   1.986
 4445TIP3    H113278   1.174   5.982   1.924
 4445TIP3    H213279   1.186   5.953   2.072
 4446TIP3   OH213280   1.302   4.624   2.224
 4446TIP3    H113281   1.287   4.713   2.256
 4446TIP3    H213282   1.397   4.612   2.231
 4447TIP3   OH213283   2.559   5.112   3.114
 4447TIP3    H113284   2.466   5.126   3.130
 4447TIP3    H213285   2.562   5.066   3.031
 4448TIP3   OH213286   2.206   5.310   2.507
 4448TIP3    H113287   2.129   5.254   2.519
 4448TIP3    H213288   2.275   5.265   2.555
 4449TIP3   OH213289   0.923   5.542   1.971
 4449TIP3    H113290   0.994   5.605   1.984
 4449TIP3    H213291   0.958   5.479   1.908
 4450TIP3   OH213292   2.175   6.273   2.452
 4450TIP3    H113293   2.131   6.317   2.380
 4450TIP3    H213294   2.269   6.288   2.436
 4451TIP3   OH213295   1.247   4.536   2.980
 4451TIP3    H113296   1.219   4.507   2.894
 4451TIP3    H213297   1.236   4.460   3.037
 4452TIP3   OH213298   0.792   5.766   2.362
 4452TIP3    H113299   0.725   5.787   2.426
 4452TIP3    H213300   0.759   5.801   2.280
 4453TIP3   OH213301   0.949   6.297   3.436
 4453TIP3    H113302   1.034   6.299   3.480
 4453TIP3    H213303   0.926   6.205   3.432
 4454TIP3   OH213304   1.426   6.254   3.483
 4454TIP3    H113305   1.521   6.246   3.484
 4454TIP3    H213306   1.397   6.198   3.411
 4455TIP3   OH213307   1.409   5.832   1.607
 4455TIP3    H113308   1.351   5.767   1.647
 4455TIP3    H213309   1.485   5.782   1.579
 4456TIP3   OH213310   2.060   6.170   3.221
 4456TIP3    H113311   2.058   6.098   3.283
 4456TIP3    H213312   2.143   6.215   3.239
 4457TIP3   OH213313   1.845   5.874   1.521
 4457TIP3    H113314   1.881   5.810   1.582
 4457TIP3    H213315   1.904   5.871   1.445
 4458TIP3   OH213316   1.074   5.701   3.636
 4458TIP3    H113317   1.093   5.608   3.639
 4458TIP3    H213318   0.990   5.707   3.590
 4459TIP3   OH213319   1.057   5.353   1.829
 4459TIP3    H113320   1.103   5.317   1.905
 4459TIP3    H213321   1.123   5.358   1.760
 4460TIP3   OH213322   1.684   5.785   3.408
 4460TIP3    H113323   1.643   5.803   3.323
 4460TIP3    H213324   1.718   5.695   3.399
 4461TIP3   OH213325   1.570   5.552   1.638
 4461TIP3    H113326   1.570   5.567   1.733
 4461TIP3    H213327   1.569   5.457   1.628
 4462TIP3   OH213328   2.178   5.804   3.020
 4462TIP3    H113329   2.253   5.843   2.975
 4462TIP3    H213330   2.105   5.862   3.000
 4463TIP3   OH213331   1.198   5.442   3.618
 4463TIP3    H113332   1.272   5.393   3.583
 4463TIP3    H213333   1.226   5.470   3.705
 4464TIP3   OH213334   1.263   5.257   2.054
 4464TIP3    H113335   1.230   5.219   2.136
 4464TIP3    H213336   1.298   5.182   2.005
 4465TIP3   OH213337   1.530   5.335   3.281
 4465TIP3    H113338   1.453   5.391   3.277
 4465TIP3    H213339   1.577   5.353   3.200
 4466TIP3   OH213340   1.364   5.060   1.881
 4466TIP3    H113341   1.338   5.066   1.790
 4466TIP3    H213342   1.460   5.064   1.879
 4467TIP3   OH213343   2.058   5.723   3.414
 4467TIP3    H113344   2.123   5.686   3.355
 4467TIP3    H213345   2.045   5.656   3.481
 4468TIP3   OH213346   2.182   5.383   1.553
 4468TIP3    H113347   2.163   5.335   1.473
 4468TIP3    H213348   2.151   5.472   1.536
 4469TIP3   OH213349   1.613   5.101   3.414
 4469TIP3    H113350   1.655   5.031   3.364
 4469TIP3    H213351   1.609   5.175   3.353
 4470TIP3   OH213352   1.661   4.889   3.204
 4470TIP3    H113353   1.688   4.935   3.124
 4470TIP3    H213354   1.568   4.873   3.191
 4471TIP3   OH213355   1.665   5.411   3.064
 4471TIP3    H113356   1.760   5.426   3.064
 4471TIP3    H213357   1.629   5.489   3.022
 4472TIP3   OH213358   2.297   5.405   3.497
 4472TIP3    H113359   2.312   5.314   3.471
 4472TIP3    H213360   2.342   5.457   3.431
 4473TIP3   OH213361   2.307   5.661   3.208
 4473TIP3    H113362   2.249   5.709   3.149
 4473TIP3    H213363   2.394   5.671   3.169
 4474TIP3   OH213364   1.526   5.223   3.641
 4474TIP3    H113365   1.463   5.155   3.662
 4474TIP3    H213366   1.561   5.199   3.555
 4475TIP3   OH213367   1.786   4.658   3.285
 4475TIP3    H113368   1.743   4.739   3.258
 4475TIP3    H213369   1.720   4.590   3.272
 4476TIP3   OH213370   2.160   5.084   3.329
 4476TIP3    H113371   2.089   5.147   3.338
 4476TIP3    H213372   2.200   5.080   3.416
 4477TIP3   OH213373   2.411   5.060   3.515
 4477TIP3    H113374   2.405   4.965   3.524
 4477TIP3    H213375   2.395   5.093   3.604
 4478TIP3   OH213376   1.369   5.002   3.699
 4478TIP3    H113377   1.378   4.919   3.652
 4478TIP3    H213378   1.410   4.985   3.784
 4479TIP3   OH213379   1.880   4.666   3.541
 4479TIP3    H113380   1.947   4.597   3.536
 4479TIP3    H213381   1.840   4.666   3.454
 4480TIP3   OH213382   1.949   4.883   3.698
 4480TIP3    H113383   1.929   4.815   3.634
 4480TIP3    H213384   1.875   4.944   3.692
 4481TIP3   OH213385   1.176   6.120   1.799
 4481TIP3    H113386   1.269   6.108   1.778
 4481TIP3    H213387   1.140   6.164   1.722
 4482TIP3   OH213388   0.654   5.499   2.014
 4482TIP3    H113389   0.746   5.522   2.000
 4482TIP3    H213390   0.644   5.413   1.972
 4483TIP3   OH213391   0.563   6.108   2.429
 4483TIP3    H113392   0.499   6.048   2.390
 4483TIP3    H213393   0.610   6.055   2.493
 4484TIP3   OH213394   0.699   5.959   2.617
 4484TIP3    H113395   0.687   5.884   2.676
 4484TIP3    H213396   0.752   6.021   2.668
 4485TIP3   OH213397   2.430   6.361   2.415
 4485TIP3    H113398   2.455   6.390   2.503
 4485TIP3    H213399   2.495   6.401   2.358
 4486TIP3   OH213400   2.459   6.375   2.699
 4486TIP3    H113401   2.412   6.292   2.692
 4486TIP3    H213402   2.534   6.356   2.756
 4487TIP3   OH213403   2.504   6.062   3.269
 4487TIP3    H113404   2.435   6.068   3.336
 4487TIP3    H213405   2.550   6.145   3.275
 4488TIP3   OH213406   2.324   5.569   1.889
 4488TIP3    H113407   2.389   5.633   1.859
 4488TIP3    H213408   2.364   5.529   1.967
 4489TIP3   OH213409   2.448   5.436   2.094
 4489TIP3    H113410   2.383   5.393   2.150
 4489TIP3    H213411   2.512   5.472   2.156
 4490TIP3   OH213412   2.505   5.830   2.521
 4490TIP3    H113413   2.558   5.763   2.478
 4490TIP3    H213414   2.498   5.901   2.457
 4491TIP3   OH213415   2.330   6.130   2.716
 4491TIP3    H113416   2.261   6.168   2.770
 4491TIP3    H213417   2.284   6.081   2.648
 4492TIP3   OH213418   2.383   5.347   1.737
 4492TIP3    H113419   2.314   5.346   1.671
 4492TIP3    H213420   2.359   5.420   1.795
 4493TIP3   OH213421   2.256   5.014   1.689
 4493TIP3    H113422   2.211   5.053   1.613
 4493TIP3    H213423   2.235   4.921   1.684
 4494TIP3   OH213424   2.261   5.292   2.239
 4494TIP3    H113425   2.268   5.197   2.230
 4494TIP3    H213426   2.246   5.307   2.332
 4495TIP3   OH213427   0.888   5.365   2.984
 4495TIP3    H113428   0.883   5.332   2.895
 4495TIP3    H213429   0.982   5.368   3.003
 4496TIP3   OH213430   2.553   5.719   3.096
 4496TIP3    H113431   2.620   5.651   3.086
 4496TIP3    H213432   2.578   5.786   3.033
 4497TIP3   OH213433   2.734   5.517   3.105
 4497TIP3    H113434   2.658   5.472   3.142
 4497TIP3    H213435   2.807   5.457   3.121
 4498TIP3   OH213436   2.200   4.749   1.675
 4498TIP3    H113437   2.272   4.718   1.731
 4498TIP3    H213438   2.126   4.694   1.698
 4499TIP3   OH213439   2.260   5.008   2.129
 4499TIP3    H113440   2.298   4.922   2.147
 4499TIP3    H213441   2.315   5.044   2.059
 4500TIP3   OH213442   2.421   5.181   2.628
 4500TIP3    H113443   2.503   5.204   2.586
 4500TIP3    H213444   2.428   5.216   2.717
 4501TIP3   OH213445   2.488   5.328   2.857
 4501TIP3    H113446   2.413   5.356   2.909
 4501TIP3    H213447   2.520   5.409   2.815
 4502TIP3   OH213448   1.103   5.048   3.661
 4502TIP3    H113449   1.199   5.046   3.660
 4502TIP3    H213450   1.078   4.964   3.700
 4503TIP3   OH213451   2.940   4.917   3.413
 4503TIP3    H113452   3.000   4.855   3.370
 4503TIP3    H213453   2.909   4.973   3.341
 4504TIP3   OH213454   2.367   4.758   2.171
 4504TIP3    H113455   2.414   4.744   2.253
 4504TIP3    H213456   2.306   4.685   2.167
 4505TIP3   OH213457   1.068   4.750   3.007
 4505TIP3    H113458   1.125   4.673   3.006
 4505TIP3    H213459   1.126   4.823   2.987
 4506TIP3   OH213460   0.868   5.021   3.061
 4506TIP3    H113461   0.912   5.008   2.977
 4506TIP3    H213462   0.902   5.103   3.094
 4507TIP3   OH213463   2.809   5.055   3.220
 4507TIP3    H113464   2.728   5.101   3.244
 4507TIP3    H213465   2.780   4.985   3.162
 4508TIP3   OH213466   2.446   4.692   1.803
 4508TIP3    H113467   2.484   4.622   1.751
 4508TIP3    H213468   2.511   4.762   1.800
 4509TIP3   OH213469   0.836   4.527   2.522
 4509TIP3    H113470   0.759   4.523   2.579
 4509TIP3    H213471   0.845   4.620   2.500
 4510TIP3   OH213472   2.011   6.229   2.068
 4510TIP3    H113473   2.062   6.215   1.988
 4510TIP3    H213474   2.064   6.291   2.119
 4511TIP3   OH213475   1.074   4.613   3.384
 4511TIP3    H113476   1.022   4.598   3.463
 4511TIP3    H213477   1.009   4.642   3.319
 4512TIP3   OH213478   1.110   6.034   3.453
 4512TIP3    H113479   1.021   6.006   3.432
 4512TIP3    H213480   1.122   6.009   3.545
 4513TIP3   OH213481   1.293   6.071   3.003
 4513TIP3    H113482   1.243   6.144   2.966
 4513TIP3    H213483   1.379   6.077   2.960
 4514TIP3   OH213484   1.737   6.309   3.146
 4514TIP3    H113485   1.778   6.310   3.232
 4514TIP3    H213486   1.798   6.357   3.089
 4515TIP3   OH213487   1.914   6.461   3.002
 4515TIP3    H113488   1.979   6.408   2.955
 4515TIP3    H213489   1.966   6.517   3.060
 4516TIP3   OH213490   2.708   4.819   3.097
 4516TIP3    H113491   2.618   4.818   3.064
 4516TIP3    H213492   2.739   4.729   3.087
 4517TIP3   OH213493   0.965   6.323   3.027
 4517TIP3    H113494   0.877   6.352   3.002
 4517TIP3    H213495   0.979   6.361   3.114
 4518TIP3   OH213496   1.202   6.302   2.885
 4518TIP3    H113497   1.117   6.312   2.929
 4518TIP3    H213498   1.185   6.331   2.795
 4519TIP3   OH213499   1.627   6.327   2.683
 4519TIP3    H113500   1.559   6.343   2.618
 4519TIP3    H213501   1.641   6.412   2.725
 4520TIP3   OH213502   1.897   6.269   2.737
 4520TIP3    H113503   1.805   6.281   2.715
 4520TIP3    H213504   1.942   6.339   2.690
 4521TIP3   OH213505   2.104   6.456   2.646
 4521TIP3    H113506   2.091   6.540   2.601
 4521TIP3    H213507   2.131   6.396   2.577
 4522TIP3   OH213508   0.881   6.111   2.773
 4522TIP3    H113509   0.903   6.085   2.862
 4522TIP3    H213510   0.949   6.071   2.719
 4523TIP3   OH213511   1.075   5.985   2.632
 4523TIP3    H113512   1.087   5.902   2.678
 4523TIP3    H213513   1.164   6.021   2.625
 4524TIP3   OH213514   1.344   6.077   2.635
 4524TIP3    H113515   1.369   5.986   2.619
 4524TIP3    H213516   1.388   6.100   2.716
 4525TIP3   OH213517   1.915   4.733   2.719
 4525TIP3    H113518   1.872   4.665   2.772
 4525TIP3    H213519   1.987   4.688   2.676
 4526TIP3   OH213520   2.435   4.615   2.620
 4526TIP3    H113521   2.471   4.667   2.548
 4526TIP3    H213522   2.341   4.635   2.619
 4527TIP3   OH213523   2.535   4.716   2.385
 4527TIP3    H113524   2.606   4.663   2.348
 4527TIP3    H213525   2.564   4.807   2.373
 4528TIP3   OH213526   1.163   4.438   2.734
 4528TIP3    H113527   1.071   4.411   2.739
 4528TIP3    H213528   1.212   4.356   2.730
 4529TIP3   OH213529   0.950   4.315   2.382
 4529TIP3    H113530   0.984   4.365   2.309
 4529TIP3    H213531   0.914   4.380   2.442
 4530TIP3   OH213532   1.611   4.475   2.616
 4530TIP3    H113533   1.665   4.523   2.554
 4530TIP3    H213534   1.633   4.512   2.701
 4531TIP3   OH213535   2.152   4.621   2.598
 4531TIP3    H113536   2.151   4.583   2.510
 4531TIP3    H213537   2.141   4.545   2.656
 4532TIP3   OH213538   2.182   4.547   2.163
 4532TIP3    H113539   2.100   4.593   2.178
 4532TIP3    H213540   2.170   4.462   2.206
 4533TIP3   OH213541   0.663   5.883   2.159
 4533TIP3    H113542   0.579   5.848   2.129
 4533TIP3    H213543   0.661   5.975   2.133
 4534TIP3   OH213544   1.068   4.470   2.149
 4534TIP3    H113545   1.117   4.411   2.091
 4534TIP3    H213546   1.135   4.528   2.185
 4535TIP3   OH213547   1.580   4.652   2.245
 4535TIP3    H113548   1.636   4.602   2.305
 4535TIP3    H213549   1.597   4.743   2.267
 4536TIP3   OH213550   1.440   6.069   1.739
 4536TIP3    H113551   1.528   6.093   1.708
 4536TIP3    H213552   1.416   5.994   1.684
 4537TIP3   OH213553   2.158   6.191   1.836
 4537TIP3    H113554   2.152   6.096   1.828
 4537TIP3    H213555   2.114   6.225   1.758
 4538TIP3   OH213556   1.369   4.727   3.631
 4538TIP3    H113557   1.334   4.652   3.679
 4538TIP3    H213558   1.462   4.729   3.652
 4539TIP3   OH213559   1.619   4.723   3.745
 4539TIP3    H113560   1.702   4.707   3.701
 4539TIP3    H213561   1.610   4.650   3.807
 4540TIP3   OH213562   0.735   5.896   1.813
 4540TIP3    H113563   0.735   5.925   1.904
 4540TIP3    H213564   0.822   5.856   1.801
 4541TIP3   OH213565   2.448   4.781   3.532
 4541TIP3    H113566   2.464   4.756   3.623
 4541TIP3    H213567   2.534   4.780   3.491
 4542TIP3   OH213568   2.379   6.338   3.025
 4542TIP3    H113569   2.304   6.305   2.975
 4542TIP3    H213570   2.364   6.433   3.030
 4543TIP3   OH213571   3.649   5.710   1.788
 4543TIP3    H113572   3.622   5.800   1.768
 4543TIP3    H213573   3.577   5.655   1.756
 4544TIP3   OH213574   3.652   5.708   2.175
 4544TIP3    H113575   3.684   5.683   2.261
 4544TIP3    H213576   3.608   5.630   2.142
 4545TIP3   OH213577   2.949   5.600   2.537
 4545TIP3    H113578   2.975   5.532   2.599
 4545TIP3    H213579   3.024   5.660   2.535
 4546TIP3   OH213580   3.897   6.010   1.857
 4546TIP3    H113581   3.877   5.942   1.922
 4546TIP3    H213582   3.924   6.085   1.910
 4547TIP3   OH213583   2.923   6.012   2.259
 4547TIP3    H113584   2.911   5.917   2.260
 4547TIP3    H213585   3.018   6.024   2.256
 4548TIP3   OH213586   2.626   5.218   2.043
 4548TIP3    H113587   2.579   5.299   2.061
 4548TIP3    H213588   2.559   5.161   2.003
 4549TIP3   OH213589   2.687   5.502   2.222
 4549TIP3    H113590   2.734   5.426   2.257
 4549TIP3    H213591   2.744   5.535   2.152
 4550TIP3   OH213592   3.548   6.473   1.874
 4550TIP3    H113593   3.589   6.406   1.820
 4550TIP3    H213594   3.532   6.430   1.958
 4551TIP3   OH213595   3.450   5.935   2.220
 4551TIP3    H113596   3.483   5.858   2.173
 4551TIP3    H213597   3.529   5.983   2.246
 4552TIP3   OH213598   4.462   5.251   2.217
 4552TIP3    H113599   4.488   5.331   2.262
 4552TIP3    H213600   4.485   5.266   2.125
 4553TIP3   OH213601   3.864   5.432   2.249
 4553TIP3    H113602   3.904   5.348   2.270
 4553TIP3    H213603   3.829   5.421   2.161
 4554TIP3   OH213604   3.201   5.095   2.212
 4554TIP3    H113605   3.181   5.168   2.154
 4554TIP3    H213606   3.154   5.020   2.175
 4555TIP3   OH213607   3.897   5.188   1.837
 4555TIP3    H113608   3.965   5.173   1.903
 4555TIP3    H213609   3.944   5.222   1.761
 4556TIP3   OH213610   2.835   5.295   2.324
 4556TIP3    H113611   2.914   5.277   2.374
 4556TIP3    H213612   2.844   5.242   2.245
 4557TIP3   OH213613   3.273   5.493   2.118
 4557TIP3    H113614   3.365   5.471   2.132
 4557TIP3    H213615   3.233   5.412   2.087
 4558TIP3   OH213616   4.536   5.453   2.401
 4558TIP3    H113617   4.455   5.501   2.384
 4558TIP3    H213618   4.582   5.507   2.466
 4559TIP3   OH213619   3.193   5.079   2.653
 4559TIP3    H113620   3.137   5.115   2.583
 4559TIP3    H213621   3.143   5.094   2.733
 4560TIP3   OH213622   3.532   5.927   1.662
 4560TIP3    H113623   3.501   5.911   1.573
 4560TIP3    H213624   3.492   6.010   1.687
 4561TIP3   OH213625   3.302   5.857   2.444
 4561TIP3    H113626   3.241   5.920   2.481
 4561TIP3    H213627   3.344   5.903   2.372
 4562TIP3   OH213628   4.102   5.192   2.014
 4562TIP3    H113629   4.088   5.142   2.095
 4562TIP3    H213630   4.155   5.267   2.041
 4563TIP3   OH213631   3.071   5.194   2.434
 4563TIP3    H113632   3.129   5.266   2.459
 4563TIP3    H213633   3.116   5.152   2.360
 4564TIP3   OH213634   3.128   6.051   2.543
 4564TIP3    H113635   3.106   6.137   2.507
 4564TIP3    H213636   3.054   6.029   2.600
 4565TIP3   OH213637   2.523   5.742   1.780
 4565TIP3    H113638   2.482   5.765   1.696
 4565TIP3    H213639   2.554   5.825   1.815
 4566TIP3   OH213640   3.960   6.255   2.019
 4566TIP3    H113641   3.874   6.244   2.060
 4566TIP3    H213642   3.954   6.339   1.974
 4567TIP3   OH213643   4.249   5.155   2.384
 4567TIP3    H113644   4.163   5.174   2.347
 4567TIP3    H213645   4.310   5.185   2.317
 4568TIP3   OH213646   3.548   4.794   2.370
 4568TIP3    H113647   3.536   4.700   2.385
 4568TIP3    H213648   3.473   4.835   2.413
 4569TIP3   OH213649   3.664   6.303   1.689
 4569TIP3    H113650   3.708   6.220   1.674
 4569TIP3    H213651   3.724   6.369   1.654
 4570TIP3   OH213652   3.802   6.084   1.608
 4570TIP3    H113653   3.784   6.007   1.555
 4570TIP3    H213654   3.840   6.050   1.689
 4571TIP3   OH213655   4.189   6.162   2.365
 4571TIP3    H113656   4.177   6.085   2.309
 4571TIP3    H213657   4.169   6.237   2.308
 4572TIP3   OH213658   3.481   5.561   1.621
 4572TIP3    H113659   3.402   5.612   1.603
 4572TIP3    H213660   3.527   5.558   1.538
 4573TIP3   OH213661   3.442   5.347   1.335
 4573TIP3    H113662   3.506   5.399   1.384
 4573TIP3    H213663   3.495   5.283   1.287
 4574TIP3   OH213664   4.385   5.807   2.213
 4574TIP3    H113665   4.301   5.853   2.218
 4574TIP3    H213666   4.416   5.825   2.124
 4575TIP3   OH213667   3.828   5.643   1.594
 4575TIP3    H113668   3.773   5.668   1.668
 4575TIP3    H213669   3.912   5.618   1.633
 4576TIP3   OH213670   4.056   5.677   2.497
 4576TIP3    H113671   4.060   5.754   2.553
 4576TIP3    H213672   3.970   5.682   2.456
 4577TIP3   OH213673   3.061   5.637   2.010
 4577TIP3    H113674   3.019   5.582   1.944
 4577TIP3    H213675   3.136   5.587   2.040
 4578TIP3   OH213676   3.193   6.055   2.154
 4578TIP3    H113677   3.170   6.015   2.070
 4578TIP3    H213678   3.279   6.020   2.174
 4579TIP3   OH213679   3.200   5.611   2.364
 4579TIP3    H113680   3.230   5.588   2.276
 4579TIP3    H213681   3.240   5.696   2.382
 4580TIP3   OH213682   3.723   6.249   2.145
 4580TIP3    H113683   3.711   6.326   2.200
 4580TIP3    H213684   3.707   6.174   2.203
 4581TIP3   OH213685   3.333   6.167   2.687
 4581TIP3    H113686   3.279   6.228   2.736
 4581TIP3    H213687   3.270   6.113   2.639
 4582TIP3   OH213688   3.669   5.503   1.418
 4582TIP3    H113689   3.726   5.560   1.469
 4582TIP3    H213690   3.692   5.522   1.327
 4583TIP3   OH213691   3.088   5.725   2.792
 4583TIP3    H113692   3.097   5.811   2.834
 4583TIP3    H213693   2.996   5.702   2.805
 4584TIP3   OH213694   3.415   6.180   1.695
 4584TIP3    H113695   3.495   6.231   1.704
 4584TIP3    H213696   3.354   6.240   1.651
 4585TIP3   OH213697   3.127   6.333   2.776
 4585TIP3    H113698   3.093   6.332   2.686
 4585TIP3    H213699   3.051   6.313   2.831
 4586TIP3   OH213700   4.184   4.742   1.469
 4586TIP3    H113701   4.104   4.760   1.519
 4586TIP3    H213702   4.199   4.821   1.418
 4587TIP3   OH213703   2.926   5.483   1.813
 4587TIP3    H113704   2.860   5.527   1.759
 4587TIP3    H213705   2.890   5.396   1.828
 4588TIP3   OH213706   3.983   6.111   1.014
 4588TIP3    H113707   3.985   6.205   0.996
 4588TIP3    H213708   4.066   6.078   0.979
 4589TIP3   OH213709   2.708   5.865   2.722
 4589TIP3    H113710   2.642   5.845   2.656
 4589TIP3    H213711   2.745   5.780   2.746
 4590TIP3   OH213712   2.564   6.063   2.351
 4590TIP3    H113713   2.659   6.052   2.344
 4590TIP3    H213714   2.553   6.137   2.410
 4591TIP3   OH213715   3.529   6.298   2.546
 4591TIP3    H113716   3.530   6.389   2.577
 4591TIP3    H213717   3.461   6.256   2.598
 4592TIP3   OH213718   3.294   6.425   1.497
 4592TIP3    H113719   3.250   6.404   1.415
 4592TIP3    H213720   3.260   6.511   1.521
 4593TIP3   OH213721   2.732   6.272   1.884
 4593TIP3    H113722   2.778   6.266   1.968
 4593TIP3    H213723   2.680   6.192   1.879
 4594TIP3   OH213724   3.496   6.328   1.139
 4594TIP3    H113725   3.549   6.258   1.100
 4594TIP3    H213726   3.531   6.338   1.227
 4595TIP3   OH213727   3.547   6.377   1.410
 4595TIP3    H113728   3.459   6.387   1.447
 4595TIP3    H213729   3.596   6.329   1.476
 4596TIP3   OH213730   2.914   6.048   2.710
 4596TIP3    H113731   2.963   6.035   2.791
 4596TIP3    H213732   2.840   5.987   2.716
 4597TIP3   OH213733   3.309   4.875   2.497
 4597TIP3    H113734   3.224   4.841   2.467
 4597TIP3    H213735   3.287   4.954   2.545
 4598TIP3   OH213736   3.843   4.985   2.692
 4598TIP3    H113737   3.911   4.959   2.753
 4598TIP3    H213738   3.761   4.965   2.737
 4599TIP3   OH213739   4.142   5.454   2.651
 4599TIP3    H113740   4.068   5.432   2.707
 4599TIP3    H213741   4.109   5.522   2.592
 4600TIP3   OH213742   3.745   5.544   1.161
 4600TIP3    H113743   3.708   5.521   1.076
 4600TIP3    H213744   3.827   5.588   1.140
 4601TIP3   OH213745   3.455   4.918   1.468
 4601TIP3    H113746   3.424   4.920   1.558
 4601TIP3    H213747   3.418   4.838   1.430
 4602TIP3   OH213748   3.244   5.391   2.515
 4602TIP3    H113749   3.195   5.407   2.595
 4602TIP3    H213750   3.230   5.469   2.461
 4603TIP3   OH213751   3.125   5.274   2.025
 4603TIP3    H113752   3.035   5.250   2.047
 4603TIP3    H213753   3.140   5.236   1.939
 4604TIP3   OH213754   3.618   5.362   1.756
 4604TIP3    H113755   3.566   5.431   1.715
 4604TIP3    H213756   3.673   5.328   1.685
 4605TIP3   OH213757   3.795   5.634   2.839
 4605TIP3    H113758   3.769   5.566   2.901
 4605TIP3    H213759   3.887   5.652   2.860
 4606TIP3   OH213760   3.775   5.387   1.990
 4606TIP3    H113761   3.712   5.419   1.925
 4606TIP3    H213762   3.812   5.307   1.951
 4607TIP3   OH213763   3.064   5.416   2.723
 4607TIP3    H113764   3.086   5.481   2.790
 4607TIP3    H213765   3.050   5.335   2.772
 4608TIP3   OH213766   3.112   4.897   1.433
 4608TIP3    H113767   3.105   4.893   1.529
 4608TIP3    H213768   3.036   4.948   1.406
 4609TIP3   OH213769   2.657   4.940   2.302
 4609TIP3    H113770   2.730   4.971   2.355
 4609TIP3    H213771   2.698   4.905   2.223
 4610TIP3   OH213772   2.623   4.922   1.820
 4610TIP3    H113773   2.669   4.956   1.743
 4610TIP3    H213774   2.562   4.991   1.844
 4611TIP3   OH213775   3.782   5.630   2.413
 4611TIP3    H113776   3.818   5.563   2.355
 4611TIP3    H213777   3.753   5.581   2.490
 4612TIP3   OH213778   3.460   5.095   2.091
 4612TIP3    H113779   3.377   5.094   2.139
 4612TIP3    H213780   3.527   5.092   2.158
 4613TIP3   OH213781   2.889   5.154   2.094
 4613TIP3    H113782   2.797   5.162   2.068
 4613TIP3    H213783   2.912   5.063   2.074
 4614TIP3   OH213784   3.156   5.148   1.785
 4614TIP3    H113785   3.248   5.164   1.764
 4614TIP3    H213786   3.109   5.171   1.704
 4615TIP3   OH213787   3.949   5.170   2.294
 4615TIP3    H113788   3.921   5.185   2.385
 4615TIP3    H213789   3.883   5.112   2.257
 4616TIP3   OH213790   3.003   5.184   1.560
 4616TIP3    H113791   2.932   5.138   1.516
 4616TIP3    H213792   3.056   5.220   1.489
 4617TIP3   OH213793   4.123   6.863   2.518
 4617TIP3    H113794   4.118   6.890   2.426
 4617TIP3    H213795   4.186   6.923   2.557
 4618TIP3   OH213796   3.076   5.974   2.934
 4618TIP3    H113797   3.156   6.004   2.978
 4618TIP3    H213798   3.010   5.970   3.003
 4619TIP3   OH213799   3.538   5.426   2.188
 4619TIP3    H113800   3.608   5.385   2.139
 4619TIP3    H213801   3.542   5.385   2.275
 4620TIP3   OH213802   3.058   4.909   2.069
 4620TIP3    H113803   3.022   4.835   2.118
 4620TIP3    H213804   3.103   4.870   1.995
 4621TIP3   OH213805   3.514   5.327   2.474
 4621TIP3    H113806   3.424   5.359   2.488
 4621TIP3    H213807   3.568   5.388   2.524
 4622TIP3   OH213808   3.248   5.712   1.572
 4622TIP3    H113809   3.179   5.647   1.558
 4622TIP3    H213810   3.233   5.746   1.660
 4623TIP3   OH213811   4.150   5.946   2.197
 4623TIP3    H113812   4.174   5.997   2.119
 4623TIP3    H213813   4.066   5.906   2.174
 4624TIP3   OH213814   3.708   5.023   1.439
 4624TIP3    H113815   3.614   5.005   1.445
 4624TIP3    H213816   3.716   5.116   1.460
 4625TIP3   OH213817   3.656   6.037   2.569
 4625TIP3    H113818   3.676   6.011   2.659
 4625TIP3    H213819   3.609   6.120   2.578
 4626TIP3   OH213820   3.777   5.275   1.538
 4626TIP3    H113821   3.872   5.280   1.552
 4626TIP3    H213822   3.757   5.352   1.485
 4627TIP3   OH213823   2.946   5.737   2.245
 4627TIP3    H113824   2.983   5.708   2.162
 4627TIP3    H213825   2.983   5.676   2.310
 4628TIP3   OH213826   3.395   5.863   1.395
 4628TIP3    H113827   3.350   5.947   1.399
 4628TIP3    H213828   3.344   5.806   1.453
 4629TIP3   OH213829   2.826   5.653   2.861
 4629TIP3    H113830   2.844   5.641   2.955
 4629TIP3    H213831   2.756   5.590   2.842
 4630TIP3   OH213832   3.552   5.770   2.878
 4630TIP3    H113833   3.488   5.711   2.838
 4630TIP3    H213834   3.637   5.737   2.849
 4631TIP3   OH213835   3.808   6.305   2.460
 4631TIP3    H113836   3.714   6.293   2.474
 4631TIP3    H213837   3.838   6.347   2.541
 4632TIP3   OH213838   4.218   5.367   1.369
 4632TIP3    H113839   4.158   5.319   1.311
 4632TIP3    H213840   4.218   5.456   1.333
 4633TIP3   OH213841   4.439   6.210   2.452
 4633TIP3    H113842   4.344   6.216   2.446
 4633TIP3    H213843   4.468   6.189   2.363
 4634TIP3   OH213844   3.924   6.180   1.278
 4634TIP3    H113845   3.900   6.103   1.330
 4634TIP3    H213846   3.943   6.144   1.191
 4635TIP3   OH213847   3.915   5.809   2.115
 4635TIP3    H113848   3.823   5.788   2.131
 4635TIP3    H213849   3.950   5.732   2.071
 4636TIP3   OH213850   3.044   6.041   1.872
 4636TIP3    H113851   3.044   6.121   1.818
 4636TIP3    H213852   2.952   6.020   1.884
 4637TIP3   OH213853   2.608   5.345   1.579
 4637TIP3    H113854   2.655   5.426   1.598
 4637TIP3    H213855   2.533   5.346   1.637
 4638TIP3   OH213856   3.177   5.805   1.816
 4638TIP3    H113857   3.147   5.894   1.833
 4638TIP3    H213858   3.144   5.753   1.889
 4639TIP3   OH213859   3.317   6.382   2.341
 4639TIP3    H113860   3.356   6.453   2.291
 4639TIP3    H213861   3.389   6.345   2.391
 4640TIP3   OH213862   2.961   6.281   1.724
 4640TIP3    H113863   2.877   6.285   1.770
 4640TIP3    H213864   2.994   6.371   1.727
 4641TIP3   OH213865   3.702   6.017   2.302
 4641TIP3    H113866   3.690   6.018   2.397
 4641TIP3    H213867   3.778   5.961   2.287
 4642TIP3   OH213868   3.677   5.907   1.190
 4642TIP3    H113869   3.732   5.886   1.266
 4642TIP3    H213870   3.588   5.883   1.217
 4643TIP3   OH213871   3.956   6.549   2.346
 4643TIP3    H113872   3.886   6.485   2.356
 4643TIP3    H213873   3.925   6.609   2.278
 4644TIP3   OH213874   4.009   6.385   1.006
 4644TIP3    H113875   4.049   6.444   0.942
 4644TIP3    H213876   3.933   6.434   1.039
 4645TIP3   OH213877   3.032   5.160   2.866
 4645TIP3    H113878   2.937   5.167   2.877
 4645TIP3    H213879   3.061   5.105   2.939
 4646TIP3   OH213880   3.840   5.849   1.407
 4646TIP3    H113881   3.827   5.780   1.472
 4646TIP3    H213882   3.933   5.845   1.386
 4647TIP3   OH213883   2.754   6.244   2.501
 4647TIP3    H113884   2.804   6.169   2.533
 4647TIP3    H213885   2.777   6.316   2.559
 4648TIP3   OH213886   3.040   5.889   1.184
 4648TIP3    H113887   3.055   5.799   1.154
 4648TIP3    H213888   3.020   5.880   1.277
 4649TIP3   OH213889   2.986   5.897   1.456
 4649TIP3    H113890   3.059   5.866   1.510
 4649TIP3    H213891   2.989   5.992   1.463
 4650TIP3   OH213892   2.720   5.590   1.659
 4650TIP3    H113893   2.654   5.630   1.716
 4650TIP3    H213894   2.736   5.655   1.591
 4651TIP3   OH213895   3.885   5.219   2.560
 4651TIP3    H113896   3.936   5.254   2.632
 4651TIP3    H213897   3.850   5.136   2.593
 4652TIP3   OH213898   3.755   4.975   1.717
 4652TIP3    H113899   3.740   4.994   1.625
 4652TIP3    H213900   3.794   5.055   1.752
 4653TIP3   OH213901   3.253   6.094   1.404
 4653TIP3    H113902   3.167   6.117   1.440
 4653TIP3    H213903   3.270   6.162   1.339
 4654TIP3   OH213904   3.442   5.157   1.820
 4654TIP3    H113905   3.503   5.228   1.800
 4654TIP3    H213906   3.446   5.149   1.915
 4655TIP3   OH213907   3.712   5.473   2.624
 4655TIP3    H113908   3.730   5.530   2.699
 4655TIP3    H213909   3.764   5.394   2.640
 4656TIP3   OH213910   3.585   4.882   1.919
 4656TIP3    H113911   3.572   4.958   1.975
 4656TIP3    H213912   3.646   4.913   1.852
 4657TIP3   OH213913   2.998   6.171   1.472
 4657TIP3    H113914   2.970   6.238   1.410
 4657TIP3    H213915   2.982   6.210   1.558
 4658TIP3   OH213916   3.100   4.883   1.710
 4658TIP3    H113917   3.092   4.972   1.746
 4658TIP3    H213918   3.193   4.863   1.715
 4659TIP3   OH213919   4.002   5.566   1.995
 4659TIP3    H113920   3.925   5.510   2.004
 4659TIP3    H213921   4.071   5.520   2.042
 4660TIP3   OH213922   2.719   5.795   1.461
 4660TIP3    H113923   2.786   5.862   1.473
 4660TIP3    H213924   2.757   5.735   1.396
 4661TIP3   OH213925   2.658   5.074   1.596
 4661TIP3    H113926   2.659   5.169   1.594
 4661TIP3    H213927   2.576   5.050   1.552
 4662TIP3   OH213928   3.974   6.527   1.940
 4662TIP3    H113929   3.929   6.577   1.872
 4662TIP3    H213930   4.067   6.543   1.924
 4663TIP3   OH213931   3.048   4.790   2.467
 4663TIP3    H113932   3.016   4.760   2.382
 4663TIP3    H213933   3.037   4.715   2.525
 4664TIP3   OH213934   2.583   6.015   1.847
 4664TIP3    H113935   2.520   6.042   1.913
 4664TIP3    H213936   2.552   6.055   1.766
 4665TIP3   OH213937   2.748   6.557   2.924
 4665TIP3    H113938   2.831   6.561   2.971
 4665TIP3    H213939   2.727   6.464   2.920
 4666TIP3   OH213940   3.223   6.521   2.956
 4666TIP3    H113941   3.313   6.498   2.978
 4666TIP3    H213942   3.197   6.458   2.889
 4667TIP3   OH213943   3.205   6.090   1.093
 4667TIP3    H113944   3.150   6.021   1.131
 4667TIP3    H213945   3.281   6.044   1.059
 4668TIP3   OH213946   3.871   6.421   2.699
 4668TIP3    H113947   3.857   6.355   2.766
 4668TIP3    H213948   3.946   6.472   2.730
 4669TIP3   OH213949   3.637   6.133   1.014
 4669TIP3    H113950   3.690   6.072   1.067
 4669TIP3    H213951   3.682   6.135   0.929
 4670TIP3   OH213952   2.872   5.957   3.118
 4670TIP3    H113953   2.890   5.863   3.126
 4670TIP3    H213954   2.786   5.961   3.076
 4671TIP3   OH213955   2.854   5.607   1.317
 4671TIP3    H113956   2.906   5.576   1.391
 4671TIP3    H213957   2.916   5.613   1.245
 4672TIP3   OH213958   3.486   6.047   2.892
 4672TIP3    H113959   3.439   6.065   2.810
 4672TIP3    H213960   3.512   5.955   2.885
 4673TIP3   OH213961   3.361   5.806   1.126
 4673TIP3    H113962   3.365   5.822   1.220
 4673TIP3    H213963   3.363   5.711   1.118
 4674TIP3   OH213964   3.972   6.056   2.503
 4674TIP3    H113965   4.046   6.100   2.460
 4674TIP3    H213966   3.898   6.116   2.492
 4675TIP3   OH213967   2.996   5.697   3.107
 4675TIP3    H113968   3.069   5.640   3.084
 4675TIP3    H213969   3.019   5.731   3.194
 4676TIP3   OH213970   3.056   5.514   1.536
 4676TIP3    H113971   3.030   5.476   1.620
 4676TIP3    H213972   3.094   5.441   1.486
 4677TIP3   OH213973   3.329   5.583   2.766
 4677TIP3    H113974   3.251   5.637   2.769
 4677TIP3    H213975   3.377   5.614   2.689
 4678TIP3   OH213976   3.162   5.310   1.375
 4678TIP3    H113977   3.134   5.316   1.284
 4678TIP3    H213978   3.258   5.315   1.370
 4679TIP3   OH213979   3.843   5.980   2.899
 4679TIP3    H113980   3.926   5.955   2.857
 4679TIP3    H213981   3.834   5.920   2.973
 4680TIP3   OH213982   3.978   5.635   1.041
 4680TIP3    H113983   3.961   5.589   0.959
 4680TIP3    H213984   3.951   5.725   1.024
 4681TIP3   OH213985   3.454   5.369   2.887
 4681TIP3    H113986   3.451   5.290   2.833
 4681TIP3    H213987   3.409   5.436   2.835
 4682TIP3   OH213988   3.453   5.154   2.696
 4682TIP3    H113989   3.479   5.196   2.614
 4682TIP3    H213990   3.361   5.131   2.682
 4683TIP3   OH213991   3.479   5.690   2.570
 4683TIP3    H113992   3.563   5.701   2.525
 4683TIP3    H213993   3.421   5.754   2.528
 4684TIP3   OH213994   4.059   5.654   2.956
 4684TIP3    H113995   4.100   5.588   3.012
 4684TIP3    H213996   4.124   5.723   2.947
 4685TIP3   OH213997   4.105   5.907   2.682
 4685TIP3    H113998   4.042   5.957   2.630
 4685TIP3    H213999   4.190   5.927   2.642
 4686TIP3   OH214000   3.330   5.473   3.121
 4686TIP3    H114001   3.262   5.409   3.139
 4686TIP3    H214002   3.364   5.449   3.035
 4687TIP3   OH214003   3.582   4.917   2.767
 4687TIP3    H114004   3.536   4.998   2.745
 4687TIP3    H214005   3.516   4.848   2.757
 4688TIP3   OH214006   3.712   5.416   2.981
 4688TIP3    H114007   3.702   5.406   3.075
 4688TIP3    H214008   3.626   5.396   2.945
 4689TIP3   OH214009   3.947   5.355   2.821
 4689TIP3    H114010   3.871   5.367   2.879
 4689TIP3    H214011   4.019   5.333   2.881
 4690TIP3   OH214012   4.192   5.312   2.956
 4690TIP3    H114013   4.201   5.222   2.986
 4690TIP3    H214014   4.185   5.363   3.037
 4691TIP3   OH214015   3.170   5.254   3.178
 4691TIP3    H114016   3.172   5.165   3.144
 4691TIP3    H214017   3.205   5.246   3.267
 4692TIP3   OH214018   3.680   4.926   3.024
 4692TIP3    H114019   3.746   4.857   3.021
 4692TIP3    H214020   3.638   4.923   2.938
 4693TIP3   OH214021   3.746   5.144   3.181
 4693TIP3    H114022   3.725   5.073   3.121
 4693TIP3    H214023   3.670   5.202   3.178
 4694TIP3   OH214024   2.970   6.374   1.283
 4694TIP3    H114025   3.064   6.363   1.267
 4694TIP3    H214026   2.938   6.422   1.207
 4695TIP3   OH214027   2.449   5.752   1.496
 4695TIP3    H114028   2.541   5.774   1.484
 4695TIP3    H214029   2.440   5.665   1.457
 4696TIP3   OH214030   2.362   6.361   1.917
 4696TIP3    H114031   2.296   6.303   1.878
 4696TIP3    H214032   2.407   6.306   1.981
 4697TIP3   OH214033   2.498   6.212   2.105
 4697TIP3    H114034   2.485   6.139   2.166
 4697TIP3    H214035   2.549   6.276   2.154
 4698TIP3   OH214036   4.228   6.624   1.902
 4698TIP3    H114037   4.266   6.688   1.962
 4698TIP3    H214038   4.275   6.637   1.820
 4699TIP3   OH214039   4.321   6.345   2.775
 4699TIP3    H114040   4.241   6.334   2.827
 4699TIP3    H214041   4.375   6.405   2.827
 4700TIP3   OH214042   4.116   5.823   1.377
 4700TIP3    H114043   4.178   5.888   1.343
 4700TIP3    H214044   4.161   5.785   1.453
 4701TIP3   OH214045   4.247   5.691   1.581
 4701TIP3    H114046   4.179   5.650   1.635
 4701TIP3    H214047   4.307   5.731   1.644
 4702TIP3   OH214048   4.304   6.087   2.012
 4702TIP3    H114049   4.352   6.019   1.964
 4702TIP3    H214050   4.293   6.158   1.948
 4703TIP3   OH214051   4.128   6.374   2.211
 4703TIP3    H114052   4.063   6.433   2.251
 4703TIP3    H214053   4.082   6.334   2.137
 4704TIP3   OH214054   4.178   5.602   1.224
 4704TIP3    H114055   4.111   5.600   1.156
 4704TIP3    H214056   4.155   5.677   1.279
 4705TIP3   OH214057   4.052   5.270   1.179
 4705TIP3    H114058   4.011   5.314   1.104
 4705TIP3    H214059   4.029   5.178   1.168
 4706TIP3   OH214060   4.057   5.550   1.725
 4706TIP3    H114061   4.064   5.455   1.715
 4706TIP3    H214062   4.042   5.563   1.819
 4707TIP3   OH214063   2.685   5.624   2.470
 4707TIP3    H114064   2.679   5.590   2.381
 4707TIP3    H214065   2.779   5.625   2.489
 4708TIP3   OH214066   4.346   5.977   2.579
 4708TIP3    H114067   4.423   5.921   2.587
 4708TIP3    H214068   4.373   6.045   2.517
 4709TIP3   OH214069   4.515   5.770   2.636
 4709TIP3    H114070   4.452   5.718   2.584
 4709TIP3    H214071   4.595   5.717   2.635
 4710TIP3   OH214072   3.997   5.005   1.162
 4710TIP3    H114073   4.067   4.974   1.220
 4710TIP3    H214074   3.922   4.949   1.184
 4711TIP3   OH214075   4.057   5.266   1.617
 4711TIP3    H114076   4.095   5.179   1.633
 4711TIP3    H214077   4.111   5.302   1.546
 4712TIP3   OH214078   4.219   5.441   2.119
 4712TIP3    H114079   4.301   5.465   2.076
 4712TIP3    H214080   4.229   5.471   2.209
 4713TIP3   OH214081   4.300   5.598   2.374
 4713TIP3    H114082   4.214   5.623   2.407
 4713TIP3    H214083   4.324   5.668   2.314
 4714TIP3   OH214084   2.904   5.307   3.148
 4714TIP3    H114085   3.000   5.305   3.151
 4714TIP3    H214086   2.876   5.224   3.187
 4715TIP3   OH214087   4.720   5.171   2.857
 4715TIP3    H114088   4.774   5.093   2.851
 4715TIP3    H214089   4.780   5.244   2.841
 4716TIP3   OH214090   4.163   5.015   1.659
 4716TIP3    H114091   4.210   5.000   1.740
 4716TIP3    H214092   4.101   4.942   1.653
 4717TIP3   OH214093   2.866   5.001   2.473
 4717TIP3    H114094   2.925   4.926   2.485
 4717TIP3    H214095   2.925   5.076   2.469
 4718TIP3   OH214096   2.665   5.274   2.548
 4718TIP3    H114097   2.713   5.270   2.465
 4718TIP3    H214098   2.692   5.358   2.587
 4719TIP3   OH214099   4.496   5.325   2.712
 4719TIP3    H114100   4.542   5.298   2.792
 4719TIP3    H214101   4.533   5.269   2.644
 4720TIP3   OH214102   4.244   4.948   1.292
 4720TIP3    H114103   4.280   4.879   1.237
 4720TIP3    H214104   4.306   5.020   1.285
 4721TIP3   OH214105   2.648   4.778   2.050
 4721TIP3    H114106   2.558   4.773   2.080
 4721TIP3    H214107   2.645   4.835   1.973
 4722TIP3   OH214108   3.817   6.487   1.559
 4722TIP3    H114109   3.849   6.460   1.473
 4722TIP3    H214110   3.880   6.553   1.589
 4723TIP3   OH214111   2.866   4.855   2.864
 4723TIP3    H114112   2.819   4.852   2.948
 4723TIP3    H214113   2.804   4.896   2.803
 4724TIP3   OH214114   2.907   6.290   2.942
 4724TIP3    H114115   2.817   6.261   2.931
 4724TIP3    H214116   2.929   6.269   3.033
 4725TIP3   OH214117   3.088   6.322   2.487
 4725TIP3    H114118   3.038   6.396   2.452
 4725TIP3    H214119   3.174   6.331   2.445
 4726TIP3   OH214120   3.533   6.565   2.625
 4726TIP3    H114121   3.570   6.561   2.713
 4726TIP3    H214122   3.596   6.617   2.575
 4727TIP3   OH214123   3.713   6.720   2.485
 4727TIP3    H114124   3.779   6.660   2.451
 4727TIP3    H214125   3.760   6.775   2.547
 4728TIP3   OH214126   4.500   5.064   2.584
 4728TIP3    H114127   4.413   5.048   2.547
 4728TIP3    H214128   4.545   4.980   2.577
 4729TIP3   OH214129   2.762   6.580   2.513
 4729TIP3    H114130   2.674   6.609   2.491
 4729TIP3    H214131   2.779   6.617   2.599
 4730TIP3   OH214132   2.999   6.558   2.372
 4730TIP3    H114133   2.915   6.568   2.418
 4730TIP3    H214134   2.980   6.587   2.282
 4731TIP3   OH214135   3.423   6.581   2.170
 4731TIP3    H114136   3.353   6.595   2.106
 4731TIP3    H214137   3.434   6.666   2.213
 4732TIP3   OH214138   3.692   6.526   2.220
 4732TIP3    H114139   3.597   6.531   2.205
 4732TIP3    H214140   3.727   6.601   2.172
 4733TIP3   OH214141   3.914   6.717   2.120
 4733TIP3    H114142   3.881   6.779   2.055
 4733TIP3    H214143   3.941   6.640   2.070
 4734TIP3   OH214144   2.678   6.367   2.259
 4734TIP3    H114145   2.699   6.342   2.349
 4734TIP3    H214146   2.746   6.327   2.205
 4735TIP3   OH214147   2.872   6.242   2.118
 4735TIP3    H114148   2.883   6.159   2.164
 4735TIP3    H214149   2.961   6.278   2.113
 4736TIP3   OH214150   3.141   6.333   2.122
 4736TIP3    H114151   3.165   6.242   2.107
 4736TIP3    H214152   3.183   6.357   2.204
 4737TIP3   OH214153   3.714   4.991   2.212
 4737TIP3    H114154   3.668   4.922   2.260
 4737TIP3    H214155   3.783   4.945   2.163
 4738TIP3   OH214156   4.230   4.878   2.111
 4738TIP3    H114157   4.267   4.925   2.036
 4738TIP3    H214158   4.136   4.891   2.103
 4739TIP3   OH214159   4.330   4.971   1.874
 4739TIP3    H114160   4.400   4.917   1.836
 4739TIP3    H214161   4.360   5.061   1.861
 4740TIP3   OH214162   2.958   4.696   2.220
 4740TIP3    H114163   2.867   4.667   2.223
 4740TIP3    H214164   3.009   4.615   2.217
 4741TIP3   OH214165   2.747   4.573   1.871
 4741TIP3    H114166   2.776   4.628   1.798
 4741TIP3    H214167   2.719   4.636   1.938
 4742TIP3   OH214168   3.406   4.732   2.102
 4742TIP3    H114169   3.463   4.779   2.040
 4742TIP3    H214170   3.427   4.769   2.187
 4743TIP3   OH214171   3.950   4.878   2.085
 4743TIP3    H114172   3.946   4.841   1.997
 4743TIP3    H214173   3.938   4.802   2.143
 4744TIP3   OH214174   3.978   4.803   1.650
 4744TIP3    H114175   3.895   4.849   1.663
 4744TIP3    H214176   3.966   4.718   1.693
 4745TIP3   OH214177   2.460   6.145   1.645
 4745TIP3    H114178   2.377   6.108   1.614
 4745TIP3    H214179   2.454   6.239   1.625
 4746TIP3   OH214180   2.867   4.730   1.631
 4746TIP3    H114181   2.912   4.666   1.575
 4746TIP3    H214182   2.938   4.783   1.668
 4747TIP3   OH214183   3.376   4.908   1.733
 4747TIP3    H114184   3.433   4.857   1.791
 4747TIP3    H214185   3.395   4.999   1.755
 4748TIP3   OH214186   3.238   6.325   1.229
 4748TIP3    H114187   3.324   6.351   1.196
 4748TIP3    H214188   3.212   6.253   1.172
 4749TIP3   OH214189   3.949   6.445   1.323
 4749TIP3    H114190   3.947   6.350   1.311
 4749TIP3    H214191   3.910   6.480   1.243
 4750TIP3   OH214192   3.169   4.979   3.113
 4750TIP3    H114193   3.130   4.912   3.169
 4750TIP3    H214194   3.261   4.982   3.139
 4751TIP3   OH214195   3.417   4.974   3.232
 4751TIP3    H114196   3.502   4.952   3.192
 4751TIP3    H214197   3.403   4.907   3.298
 4752TIP3   OH214198   2.541   6.164   1.287
 4752TIP3    H114199   2.542   6.183   1.381
 4752TIP3    H214200   2.625   6.122   1.269
 4753TIP3   OH214201   4.242   5.046   3.020
 4753TIP3    H114202   4.256   5.016   3.110
 4753TIP3    H214203   4.328   5.038   2.979
 4754TIP3   OH214204   4.238   6.614   2.478
 4754TIP3    H114205   4.166   6.558   2.447
 4754TIP3    H214206   4.195   6.697   2.501
 4755TIP3   OH214207   5.443   5.973   1.272
 4755TIP3    H114208   5.413   6.061   1.250
 4755TIP3    H214209   5.372   5.916   1.243
 4756TIP3   OH214210   5.454   5.960   1.659
 4756TIP3    H114211   5.481   5.938   1.748
 4756TIP3    H214212   5.405   5.884   1.629
 4757TIP3   OH214213   4.746   5.859   2.027
 4757TIP3    H114214   4.775   5.791   2.088
 4757TIP3    H214215   4.826   5.910   2.008
 4758TIP3   OH214216   5.697   6.268   1.344
 4758TIP3    H114217   5.669   6.203   1.407
 4758TIP3    H214218   5.719   6.345   1.396
 4759TIP3   OH214219   4.720   6.270   1.752
 4759TIP3    H114220   4.708   6.175   1.751
 4759TIP3    H214221   4.814   6.282   1.740
 4760TIP3   OH214222   4.420   5.473   1.531
 4760TIP3    H114223   4.375   5.555   1.548
 4760TIP3    H214224   4.355   5.418   1.487
 4761TIP3   OH214225   4.485   5.761   1.712
 4761TIP3    H114226   4.532   5.684   1.743
 4761TIP3    H214227   4.532   5.788   1.633
 4762TIP3   OH214228   5.355   6.725   1.364
 4762TIP3    H114229   5.392   6.645   1.325
 4762TIP3    H214230   5.328   6.698   1.452
 4763TIP3   OH214231   5.245   6.191   1.706
 4763TIP3    H114232   5.279   6.116   1.658
 4763TIP3    H214233   5.323   6.241   1.732
 4764TIP3   OH214234   6.252   5.521   1.692
 4764TIP3    H114235   6.292   5.588   1.747
 4764TIP3    H214236   6.308   5.517   1.615
 4765TIP3   OH214237   5.672   5.694   1.728
 4765TIP3    H114238   5.698   5.606   1.755
 4765TIP3    H214239   5.629   5.682   1.643
 4766TIP3   OH214240   4.997   5.351   1.699
 4766TIP3    H114241   4.977   5.424   1.640
 4766TIP3    H214242   4.951   5.276   1.662
 4767TIP3   OH214243   5.696   5.448   1.323
 4767TIP3    H114244   5.766   5.430   1.386
 4767TIP3    H214245   5.741   5.480   1.245
 4768TIP3   OH214246   4.630   5.549   1.812
 4768TIP3    H114247   4.711   5.532   1.860
 4768TIP3    H214248   4.638   5.498   1.732
 4769TIP3   OH214249   5.068   5.749   1.609
 4769TIP3    H114250   5.160   5.727   1.619
 4769TIP3    H214251   5.028   5.669   1.574
 4770TIP3   OH214252   6.326   5.721   1.867
 4770TIP3    H114253   6.240   5.763   1.857
 4770TIP3    H214254   6.344   5.726   1.961
 4771TIP3   OH214255   4.991   5.337   2.138
 4771TIP3    H114256   4.934   5.369   2.068
 4771TIP3    H214257   4.940   5.352   2.218
 4772TIP3   OH214258   5.339   6.191   1.139
 4772TIP3    H114259   5.296   6.167   1.057
 4772TIP3    H214260   5.292   6.269   1.169
 4773TIP3   OH214261   5.097   6.114   1.932
 4773TIP3    H114262   5.034   6.178   1.968
 4773TIP3    H214263   5.139   6.161   1.860
 4774TIP3   OH214264   5.900   5.450   1.503
 4774TIP3    H114265   5.880   5.385   1.570
 4774TIP3    H214266   5.953   5.515   1.549
 4775TIP3   OH214267   4.867   5.450   1.919
 4775TIP3    H114268   4.925   5.522   1.944
 4775TIP3    H214269   4.911   5.407   1.846
 4776TIP3   OH214270   4.915   6.307   2.030
 4776TIP3    H114271   4.896   6.390   1.987
 4776TIP3    H214272   4.840   6.293   2.088
 4777TIP3   OH214273   4.317   5.989   1.274
 4777TIP3    H114274   4.283   5.997   1.185
 4777TIP3    H214275   4.347   6.077   1.297
 4778TIP3   OH214276   5.750   6.509   1.508
 4778TIP3    H114277   5.667   6.507   1.557
 4778TIP3    H214278   5.748   6.593   1.462
 4779TIP3   OH214279   6.051   5.420   1.871
 4779TIP3    H114280   5.962   5.436   1.840
 4779TIP3    H214281   6.107   5.446   1.798
 4780TIP3   OH214282   5.343   5.051   1.855
 4780TIP3    H114283   5.333   4.957   1.871
 4780TIP3    H214284   5.268   5.091   1.899
 4781TIP3   OH214285   5.465   6.557   1.172
 4781TIP3    H114286   5.511   6.474   1.158
 4781TIP3    H214287   5.527   6.624   1.142
 4782TIP3   OH214288   5.607   6.339   1.090
 4782TIP3    H114289   5.554   6.267   1.057
 4782TIP3    H214290   5.643   6.307   1.173
 4783TIP3   OH214291   5.983   6.424   1.849
 4783TIP3    H114292   5.971   6.346   1.795
 4783TIP3    H214293   5.966   6.497   1.790
 4784TIP3   OH214294   5.279   5.819   1.109
 4784TIP3    H114295   5.198   5.867   1.094
 4784TIP3    H214296   5.318   5.811   1.022
 4785TIP3   OH214297   5.241   5.602   0.821
 4785TIP3    H114298   5.306   5.653   0.869
 4785TIP3    H214299   5.292   5.539   0.770
 4786TIP3   OH214300   6.176   6.055   1.685
 4786TIP3    H114301   6.097   6.108   1.697
 4786TIP3    H214302   6.213   6.087   1.603
 4787TIP3   OH214303   5.624   5.902   1.087
 4787TIP3    H114304   5.560   5.936   1.151
 4787TIP3    H214305   5.684   5.849   1.140
 4788TIP3   OH214306   5.857   5.941   1.993
 4788TIP3    H114307   5.857   6.026   2.037
 4788TIP3    H214308   5.772   5.937   1.950
 4789TIP3   OH214309   4.856   5.895   1.496
 4789TIP3    H114310   4.812   5.841   1.431
 4789TIP3    H214311   4.930   5.843   1.525
 4790TIP3   OH214312   4.984   6.307   1.643
 4790TIP3    H114313   4.963   6.272   1.557
 4790TIP3    H214314   5.071   6.274   1.662
 4791TIP3   OH214315   4.994   5.868   1.853
 4791TIP3    H114316   5.023   5.845   1.765
 4791TIP3    H214317   5.034   5.954   1.869
 4792TIP3   OH214318   5.521   6.511   1.653
 4792TIP3    H114319   5.484   6.567   1.721
 4792TIP3    H214320   5.508   6.422   1.686
 4793TIP3   OH214321   5.118   6.392   2.198
 4793TIP3    H114322   5.079   6.476   2.222
 4793TIP3    H214323   5.056   6.354   2.136
 4794TIP3   OH214324   5.467   5.759   0.902
 4794TIP3    H114325   5.523   5.819   0.951
 4794TIP3    H214326   5.485   5.779   0.810
 4795TIP3   OH214327   4.888   5.981   2.283
 4795TIP3    H114328   4.895   6.068   2.323
 4795TIP3    H214329   4.794   5.962   2.285
 4796TIP3   OH214330   5.211   6.432   1.187
 4796TIP3    H114331   5.286   6.492   1.193
 4796TIP3    H214332   5.146   6.480   1.134
 4797TIP3   OH214333   4.925   6.599   2.251
 4797TIP3    H114334   4.904   6.600   2.158
 4797TIP3    H214335   4.845   6.566   2.293
 4798TIP3   OH214336   5.983   5.001   0.958
 4798TIP3    H114337   5.901   5.019   1.004
 4798TIP3    H214338   5.996   5.077   0.901
 4799TIP3   OH214339   4.719   5.742   1.303
 4799TIP3    H114340   4.657   5.790   1.247
 4799TIP3    H214341   4.682   5.654   1.309
 4800TIP3   OH214342   4.508   6.129   2.202
 4800TIP3    H114343   4.439   6.111   2.140
 4800TIP3    H214344   4.543   6.043   2.226
 4801TIP3   OH214345   4.360   6.317   1.841
 4801TIP3    H114346   4.454   6.308   1.826
 4801TIP3    H214347   4.351   6.392   1.899
 4802TIP3   OH214348   6.221   6.769   1.901
 4802TIP3    H114349   6.223   6.674   1.912
 4802TIP3    H214350   6.140   6.796   1.944
 4803TIP3   OH214351   5.089   6.686   0.984
 4803TIP3    H114352   5.041   6.658   0.907
 4803TIP3    H214353   5.052   6.771   1.006
 4804TIP3   OH214354   4.528   6.530   1.370
 4804TIP3    H114355   4.572   6.520   1.454
 4804TIP3    H214356   4.479   6.449   1.358
 4805TIP3   OH214357   5.305   6.549   0.671
 4805TIP3    H114358   5.381   6.492   0.660
 4805TIP3    H214359   5.312   6.581   0.761
 4806TIP3   OH214360   5.343   6.629   0.926
 4806TIP3    H114361   5.253   6.645   0.953
 4806TIP3    H214362   5.384   6.587   1.002
 4807TIP3   OH214363   6.109   5.897   2.171
 4807TIP3    H114364   6.027   5.909   2.123
 4807TIP3    H214365   6.129   5.804   2.160
 4808TIP3   OH214366   4.707   6.317   2.216
 4808TIP3    H114367   4.765   6.282   2.283
 4808TIP3    H214368   4.636   6.253   2.209
 4809TIP3   OH214369   5.104   5.131   1.983
 4809TIP3    H114370   5.020   5.097   1.953
 4809TIP3    H214371   5.082   5.211   2.031
 4810TIP3   OH214372   5.644   5.245   2.180
 4810TIP3    H114373   5.713   5.216   2.239
 4810TIP3    H214374   5.563   5.223   2.225
 4811TIP3   OH214375   5.878   5.677   2.098
 4811TIP3    H114376   5.831   5.671   2.181
 4811TIP3    H214377   5.852   5.761   2.061
 4812TIP3   OH214378   5.527   5.807   0.638
 4812TIP3    H114379   5.515   5.761   0.556
 4812TIP3    H214380   5.614   5.847   0.631
 4813TIP3   OH214381   5.252   5.174   0.956
 4813TIP3    H114382   5.218   5.175   1.045
 4813TIP3    H214383   5.213   5.096   0.916
 4814TIP3   OH214384   5.041   5.647   2.002
 4814TIP3    H114385   4.991   5.664   2.082
 4814TIP3    H214386   5.027   5.725   1.948
 4815TIP3   OH214387   4.922   5.530   1.513
 4815TIP3    H114388   4.831   5.508   1.533
 4815TIP3    H214389   4.937   5.493   1.426
 4816TIP3   OH214390   5.416   5.620   1.244
 4816TIP3    H114391   5.363   5.688   1.201
 4816TIP3    H214392   5.470   5.584   1.173
 4817TIP3   OH214393   5.589   5.891   2.329
 4817TIP3    H114394   5.562   5.822   2.389
 4817TIP3    H214395   5.682   5.903   2.347
 4818TIP3   OH214396   5.575   5.648   1.471
 4818TIP3    H114397   5.506   5.673   1.409
 4818TIP3    H214398   5.612   5.568   1.435
 4819TIP3   OH214399   4.860   5.674   2.211
 4819TIP3    H114400   4.896   5.736   2.274
 4819TIP3    H214401   4.851   5.592   2.261
 4820TIP3   OH214402   4.910   5.154   0.922
 4820TIP3    H114403   4.899   5.151   1.017
 4820TIP3    H214404   4.834   5.204   0.891
 4821TIP3   OH214405   4.453   5.195   1.794
 4821TIP3    H114406   4.528   5.227   1.843
 4821TIP3    H214407   4.489   5.166   1.710
 4822TIP3   OH214408   4.419   5.180   1.307
 4822TIP3    H114409   4.464   5.213   1.230
 4822TIP3    H214410   4.356   5.249   1.330
 4823TIP3   OH214411   5.589   5.886   1.902
 4823TIP3    H114412   5.621   5.819   1.842
 4823TIP3    H214413   5.555   5.837   1.977
 4824TIP3   OH214414   5.256   5.356   1.579
 4824TIP3    H114415   5.173   5.352   1.626
 4824TIP3    H214416   5.323   5.346   1.646
 4825TIP3   OH214417   4.684   5.409   1.583
 4825TIP3    H114418   4.593   5.418   1.555
 4825TIP3    H214419   4.708   5.320   1.559
 4826TIP3   OH214420   4.953   5.406   1.273
 4826TIP3    H114421   5.044   5.421   1.248
 4826TIP3    H214422   4.903   5.427   1.193
 4827TIP3   OH214423   5.739   5.430   1.779
 4827TIP3    H114424   5.711   5.443   1.870
 4827TIP3    H214425   5.676   5.368   1.743
 4828TIP3   OH214426   4.800   5.438   1.049
 4828TIP3    H114427   4.729   5.393   1.003
 4828TIP3    H214428   4.853   5.476   0.979
 4829TIP3   OH214429   5.917   7.116   1.996
 4829TIP3    H114430   5.909   7.144   1.905
 4829TIP3    H214431   5.992   7.165   2.031
 4830TIP3   OH214432   4.869   6.229   2.421
 4830TIP3    H114433   4.949   6.261   2.463
 4830TIP3    H214434   4.807   6.218   2.493
 4831TIP3   OH214435   5.336   5.685   1.679
 4831TIP3    H114436   5.399   5.635   1.627
 4831TIP3    H214437   5.335   5.641   1.764
 4832TIP3   OH214438   4.856   5.166   1.556
 4832TIP3    H114439   4.819   5.091   1.603
 4832TIP3    H214440   4.897   5.128   1.478
 4833TIP3   OH214441   5.310   5.585   1.957
 4833TIP3    H114442   5.221   5.614   1.975
 4833TIP3    H214443   5.365   5.643   2.010
 4834TIP3   OH214444   5.050   5.966   1.064
 4834TIP3    H114445   4.979   5.905   1.045
 4834TIP3    H214446   5.029   6.002   1.150
 4835TIP3   OH214447   5.947   6.204   1.683
 4835TIP3    H114448   5.970   6.256   1.606
 4835TIP3    H214449   5.862   6.165   1.661
 4836TIP3   OH214450   5.504   5.276   0.933
 4836TIP3    H114451   5.410   5.258   0.934
 4836TIP3    H214452   5.510   5.371   0.943
 4837TIP3   OH214453   5.467   6.315   2.045
 4837TIP3    H114454   5.452   6.290   2.136
 4837TIP3    H214455   5.429   6.403   2.037
 4838TIP3   OH214456   5.575   5.534   1.030
 4838TIP3    H114457   5.670   5.533   1.034
 4838TIP3    H214458   5.554   5.605   0.970
 4839TIP3   OH214459   4.744   5.996   1.731
 4839TIP3    H114460   4.776   5.969   1.646
 4839TIP3    H214461   4.780   5.931   1.792
 4840TIP3   OH214462   5.193   6.121   0.886
 4840TIP3    H114463   5.149   6.206   0.889
 4840TIP3    H214464   5.139   6.064   0.941
 4841TIP3   OH214465   4.623   5.917   2.346
 4841TIP3    H114466   4.651   5.898   2.436
 4841TIP3    H214467   4.555   5.852   2.329
 4842TIP3   OH214468   5.346   6.024   2.365
 4842TIP3    H114469   5.284   5.968   2.317
 4842TIP3    H214470   5.432   5.992   2.338
 4843TIP3   OH214471   6.006   5.614   0.853
 4843TIP3    H114472   5.948   5.572   0.789
 4843TIP3    H214473   6.012   5.705   0.824
 4844TIP3   OH214474   6.233   6.479   1.937
 4844TIP3    H114475   6.138   6.474   1.934
 4844TIP3    H214476   6.262   6.450   1.851
 4845TIP3   OH214477   5.741   6.427   0.755
 4845TIP3    H114478   5.704   6.378   0.829
 4845TIP3    H214479   5.690   6.399   0.679
 4846TIP3   OH214480   5.713   6.063   1.603
 4846TIP3    H114481   5.621   6.044   1.618
 4846TIP3    H214482   5.745   5.989   1.552
 4847TIP3   OH214483   4.839   6.298   1.360
 4847TIP3    H114484   4.838   6.378   1.306
 4847TIP3    H214485   4.747   6.272   1.364
 4848TIP3   OH214486   4.406   5.601   1.066
 4848TIP3    H114487   4.449   5.686   1.077
 4848TIP3    H214488   4.328   5.606   1.120
 4849TIP3   OH214489   4.977   6.064   1.306
 4849TIP3    H114490   4.943   6.152   1.321
 4849TIP3    H214491   4.939   6.011   1.376
 4850TIP3   OH214492   5.111   6.635   1.827
 4850TIP3    H114493   5.145   6.713   1.783
 4850TIP3    H214494   5.187   6.599   1.874
 4851TIP3   OH214495   4.760   6.536   1.215
 4851TIP3    H114496   4.674   6.542   1.256
 4851TIP3    H214497   4.793   6.626   1.213
 4852TIP3   OH214498   5.502   6.265   1.781
 4852TIP3    H114499   5.486   6.281   1.874
 4852TIP3    H214500   5.578   6.207   1.779
 4853TIP3   OH214501   5.458   6.161   0.676
 4853TIP3    H114502   5.512   6.135   0.750
 4853TIP3    H214503   5.369   6.140   0.702
 4854TIP3   OH214504   5.741   6.785   1.837
 4854TIP3    H114505   5.674   6.729   1.877
 4854TIP3    H214506   5.694   6.863   1.808
 4855TIP3   OH214507   4.831   5.415   2.354
 4855TIP3    H114508   4.736   5.404   2.355
 4855TIP3    H214509   4.863   5.356   2.422
 4856TIP3   OH214510   5.633   6.098   0.889
 4856TIP3    H114511   5.624   6.034   0.960
 4856TIP3    H214512   5.726   6.097   0.868
 4857TIP3   OH214513   4.554   6.506   1.985
 4857TIP3    H114514   4.588   6.424   2.021
 4857TIP3    H214515   4.608   6.574   2.025
 4858TIP3   OH214516   4.832   6.151   0.666
 4858TIP3    H114517   4.851   6.064   0.633
 4858TIP3    H214518   4.818   6.139   0.760
 4859TIP3   OH214519   4.796   6.155   0.936
 4859TIP3    H114520   4.853   6.126   1.008
 4859TIP3    H214521   4.794   6.250   0.943
 4860TIP3   OH214522   4.518   5.850   1.146
 4860TIP3    H114523   4.451   5.886   1.203
 4860TIP3    H214524   4.528   5.915   1.076
 4861TIP3   OH214525   5.672   5.480   2.039
 4861TIP3    H114526   5.752   5.516   2.076
 4861TIP3    H214527   5.656   5.401   2.090
 4862TIP3   OH214528   5.549   5.233   1.205
 4862TIP3    H114529   5.534   5.248   1.112
 4862TIP3    H214530   5.589   5.314   1.237
 4863TIP3   OH214531   5.057   6.355   0.897
 4863TIP3    H114532   4.970   6.379   0.929
 4863TIP3    H214533   5.060   6.392   0.809
 4864TIP3   OH214534   5.240   5.414   1.307
 4864TIP3    H114535   5.301   5.485   1.287
 4864TIP3    H214536   5.242   5.406   1.402
 4865TIP3   OH214537   5.509   5.729   2.110
 4865TIP3    H114538   5.528   5.780   2.188
 4865TIP3    H214539   5.560   5.648   2.120
 4866TIP3   OH214540   5.381   5.138   1.406
 4866TIP3    H114541   5.368   5.215   1.461
 4866TIP3    H214542   5.441   5.168   1.337
 4867TIP3   OH214543   4.799   6.428   0.959
 4867TIP3    H114544   4.764   6.490   0.895
 4867TIP3    H214545   4.778   6.467   1.044
 4868TIP3   OH214546   4.895   5.140   1.198
 4868TIP3    H114547   4.887   5.229   1.232
 4868TIP3    H214548   4.988   5.120   1.202
 4869TIP3   OH214549   6.142   5.632   2.081
 4869TIP3    H114550   6.048   5.638   2.096
 4869TIP3    H214551   6.151   5.564   2.014
 4870TIP3   OH214552   5.815   5.814   1.459
 4870TIP3    H114553   5.726   5.778   1.455
 4870TIP3    H214554   5.854   5.772   1.536
 4871TIP3   OH214555   4.522   6.053   0.955
 4871TIP3    H114556   4.574   6.133   0.947
 4871TIP3    H214557   4.553   5.997   0.884
 4872TIP3   OH214558   4.452   5.331   1.084
 4872TIP3    H114559   4.456   5.426   1.083
 4872TIP3    H214560   4.375   5.309   1.033
 4873TIP3   OH214561   5.769   6.770   1.414
 4873TIP3    H114562   5.724   6.836   1.362
 4873TIP3    H214563   5.861   6.794   1.409
 4874TIP3   OH214564   4.842   5.048   1.955
 4874TIP3    H114565   4.812   5.017   1.869
 4874TIP3    H214566   4.832   4.972   2.012
 4875TIP3   OH214567   4.386   6.284   1.335
 4875TIP3    H114568   4.313   6.300   1.394
 4875TIP3    H214569   4.356   6.316   1.250
 4876TIP3   OH214570   5.023   6.769   2.450
 4876TIP3    H114571   5.116   6.752   2.461
 4876TIP3    H214572   4.996   6.715   2.377
 4877TIP3   OH214573   5.018   6.336   0.601
 4877TIP3    H114574   4.937   6.288   0.616
 4877TIP3    H214575   5.084   6.269   0.585
 4878TIP3   OH214576   5.661   6.703   2.195
 4878TIP3    H114577   5.650   6.623   2.246
 4878TIP3    H214578   5.741   6.743   2.230
 4879TIP3   OH214579   4.670   6.192   2.602
 4879TIP3    H114580   4.679   6.097   2.613
 4879TIP3    H214581   4.583   6.204   2.563
 4880TIP3   OH214582   4.652   5.867   0.799
 4880TIP3    H114583   4.706   5.838   0.873
 4880TIP3    H214584   4.715   5.880   0.728
 4881TIP3   OH214585   5.287   6.303   2.386
 4881TIP3    H114586   5.234   6.324   2.309
 4881TIP3    H214587   5.312   6.211   2.374
 4882TIP3   OH214588   5.147   6.074   0.612
 4882TIP3    H114589   5.154   6.082   0.707
 4882TIP3    H214590   5.143   5.980   0.596
 4883TIP3   OH214591   5.773   6.296   1.995
 4883TIP3    H114592   5.833   6.357   1.952
 4883TIP3    H214593   5.688   6.341   1.995
 4884TIP3   OH214594   4.787   5.928   2.598
 4884TIP3    H114595   4.872   5.894   2.567
 4884TIP3    H214596   4.808   5.973   2.679
 4885TIP3   OH214597   4.861   5.770   1.027
 4885TIP3    H114598   4.824   5.730   1.106
 4885TIP3    H214599   4.893   5.696   0.975
 4886TIP3   OH214600   5.122   5.835   2.250
 4886TIP3    H114601   5.047   5.894   2.257
 4886TIP3    H214602   5.172   5.868   2.175
 4887TIP3   OH214603   4.959   5.565   0.865
 4887TIP3    H114604   4.927   5.569   0.775
 4887TIP3    H214605   5.054   5.570   0.857
 4888TIP3   OH214606   5.645   6.235   2.388
 4888TIP3    H114607   5.714   6.202   2.332
 4888TIP3    H214608   5.638   6.171   2.459
 4889TIP3   OH214609   5.778   5.860   0.534
 4889TIP3    H114610   5.798   5.795   0.467
 4889TIP3    H214611   5.775   5.943   0.487
 4890TIP3   OH214612   5.245   5.624   2.375
 4890TIP3    H114613   5.248   5.546   2.320
 4890TIP3    H214614   5.203   5.691   2.321
 4891TIP3   OH214615   5.249   5.414   2.183
 4891TIP3    H114616   5.278   5.451   2.100
 4891TIP3    H214617   5.158   5.388   2.168
 4892TIP3   OH214618   5.274   5.949   2.061
 4892TIP3    H114619   5.357   5.957   2.014
 4892TIP3    H214620   5.216   6.012   2.017
 4893TIP3   OH214621   5.872   5.910   2.450
 4893TIP3    H114622   5.907   5.821   2.449
 4893TIP3    H214623   5.932   5.961   2.395
 4894TIP3   OH214624   5.903   6.171   2.192
 4894TIP3    H114625   5.844   6.217   2.133
 4894TIP3    H214626   5.990   6.185   2.155
 4895TIP3   OH214627   5.124   5.730   2.608
 4895TIP3    H114628   5.054   5.667   2.625
 4895TIP3    H214629   5.159   5.705   2.523
 4896TIP3   OH214630   5.380   5.174   2.253
 4896TIP3    H114631   5.333   5.255   2.232
 4896TIP3    H214632   5.315   5.105   2.243
 4897TIP3   OH214633   5.502   5.676   2.471
 4897TIP3    H114634   5.493   5.661   2.566
 4897TIP3    H214635   5.417   5.653   2.435
 4898TIP3   OH214636   5.749   5.635   2.332
 4898TIP3    H114637   5.672   5.629   2.388
 4898TIP3    H214638   5.821   5.600   2.385
 4899TIP3   OH214639   5.974   5.573   2.484
 4899TIP3    H114640   5.988   5.478   2.490
 4899TIP3    H214641   5.976   5.603   2.574
 4900TIP3   OH214642   4.954   5.513   2.668
 4900TIP3    H114643   4.966   5.425   2.632
 4900TIP3    H214644   4.997   5.509   2.754
 4901TIP3   OH214645   5.476   5.184   2.511
 4901TIP3    H114646   5.543   5.116   2.510
 4901TIP3    H214647   5.436   5.179   2.424
 4902TIP3   OH214648   5.543   5.402   2.664
 4902TIP3    H114649   5.524   5.330   2.605
 4902TIP3    H214650   5.465   5.457   2.661
 4903TIP3   OH214651   4.766   6.638   0.775
 4903TIP3    H114652   4.859   6.629   0.751
 4903TIP3    H214653   4.724   6.673   0.697
 4904TIP3   OH214654   4.251   5.988   1.008
 4904TIP3    H114655   4.324   6.034   0.967
 4904TIP3    H214656   4.234   5.914   0.950
 4905TIP3   OH214657   4.150   6.620   1.406
 4905TIP3    H114658   4.090   6.560   1.362
 4905TIP3    H214659   4.199   6.564   1.467
 4906TIP3   OH214660   4.288   6.473   1.593
 4906TIP3    H114661   4.279   6.395   1.649
 4906TIP3    H214662   4.350   6.529   1.640
 4907TIP3   OH214663   6.021   6.873   1.387
 4907TIP3    H114664   6.041   6.900   1.476
 4907TIP3    H214665   6.087   6.917   1.333
 4908TIP3   OH214666   6.048   6.889   1.669
 4908TIP3    H114667   6.001   6.806   1.664
 4908TIP3    H214668   6.122   6.872   1.727
 4909TIP3   OH214669   6.098   6.571   2.242
 4909TIP3    H114670   6.024   6.576   2.303
 4909TIP3    H214671   6.139   6.657   2.246
 4910TIP3   OH214672   5.918   6.079   0.875
 4910TIP3    H114673   5.988   6.137   0.845
 4910TIP3    H214674   5.936   6.067   0.968
 4911TIP3   OH214675   6.099   6.343   1.496
 4911TIP3    H114676   6.151   6.279   1.448
 4911TIP3    H214677   6.088   6.416   1.435
 4912TIP3   OH214678   5.923   6.640   1.686
 4912TIP3    H114679   5.856   6.686   1.736
 4912TIP3    H214680   5.875   6.593   1.617
 4913TIP3   OH214681   5.977   5.857   0.720
 4913TIP3    H114682   5.906   5.839   0.659
 4913TIP3    H214683   5.947   5.933   0.771
 4914TIP3   OH214684   5.848   5.539   0.650
 4914TIP3    H114685   5.824   5.560   0.559
 4914TIP3    H214686   5.815   5.451   0.663
 4915TIP3   OH214687   4.481   5.873   1.962
 4915TIP3    H114688   4.475   5.843   1.871
 4915TIP3    H214689   4.576   5.879   1.978
 4916TIP3   OH214690   6.144   6.230   2.071
 4916TIP3    H114691   6.214   6.165   2.060
 4916TIP3    H214692   6.166   6.298   2.007
 4917TIP3   OH214693   6.327   6.029   2.081
 4917TIP3    H114694   6.251   5.985   2.119
 4917TIP3    H214695   6.400   5.969   2.096
 4918TIP3   OH214696   5.775   5.283   0.685
 4918TIP3    H114697   5.856   5.234   0.698
 4918TIP3    H214698   5.706   5.217   0.686
 4919TIP3   OH214699   5.856   5.520   1.094
 4919TIP3    H114700   5.892   5.433   1.112
 4919TIP3    H214701   5.911   5.553   1.022
 4920TIP3   OH214702   6.027   5.700   1.595
 4920TIP3    H114703   6.123   5.701   1.601
 4920TIP3    H214704   5.998   5.724   1.683
 4921TIP3   OH214705   6.072   5.841   1.827
 4921TIP3    H114706   6.000   5.871   1.883
 4921TIP3    H214707   6.108   5.922   1.789
 4922TIP3   OH214708   4.688   5.559   2.617
 4922TIP3    H114709   4.784   5.561   2.623
 4922TIP3    H214710   4.662   5.486   2.674
 4923TIP3   OH214711   6.544   5.439   2.388
 4923TIP3    H114712   6.598   5.370   2.349
 4923TIP3    H214713   6.506   5.485   2.313
 4924TIP3   OH214714   5.954   5.271   1.151
 4924TIP3    H114715   6.002   5.252   1.231
 4924TIP3    H214716   5.893   5.198   1.141
 4925TIP3   OH214717   4.662   5.259   1.969
 4925TIP3    H114718   4.720   5.182   1.974
 4925TIP3    H214719   4.722   5.333   1.956
 4926TIP3   OH214720   4.464   5.534   2.040
 4926TIP3    H114721   4.508   5.519   1.956
 4926TIP3    H214722   4.487   5.624   2.062
 4927TIP3   OH214723   6.401   5.566   2.188
 4927TIP3    H114724   6.318   5.602   2.217
 4927TIP3    H214725   6.378   5.487   2.139
 4928TIP3   OH214726   6.050   5.200   0.780
 4928TIP3    H114727   6.073   5.128   0.722
 4928TIP3    H214728   6.108   5.271   0.755
 4929TIP3   OH214729   4.444   5.040   1.539
 4929TIP3    H114730   4.353   5.031   1.565
 4929TIP3    H214731   4.442   5.095   1.461
 4930TIP3   OH214732   5.626   6.749   1.052
 4930TIP3    H114733   5.642   6.717   0.963
 4930TIP3    H214734   5.688   6.821   1.063
 4931TIP3   OH214735   4.665   5.126   2.358
 4931TIP3    H114736   4.612   5.108   2.436
 4931TIP3    H214737   4.601   5.154   2.292
 4932TIP3   OH214738   4.602   6.527   2.447
 4932TIP3    H114739   4.643   6.455   2.399
 4932TIP3    H214740   4.650   6.533   2.529
 4933TIP3   OH214741   4.883   6.583   1.975
 4933TIP3    H114742   4.837   6.657   1.937
 4933TIP3    H214743   4.970   6.584   1.934
 4934TIP3   OH214744   5.516   6.978   1.943
 4934TIP3    H114745   5.503   6.888   1.974
 4934TIP3    H214746   5.561   7.022   2.015
 4935TIP3   OH214747   6.305   5.321   2.069
 4935TIP3    H114748   6.213   5.307   2.048
 4935TIP3    H214749   6.345   5.234   2.063
 4936TIP3   OH214750   4.564   6.848   2.009
 4936TIP3    H114751   4.472   6.862   1.987
 4936TIP3    H214752   4.581   6.908   2.081
 4937TIP3   OH214753   4.793   6.812   1.858
 4937TIP3    H114754   4.710   6.826   1.905
 4937TIP3    H214755   4.775   6.843   1.769
 4938TIP3   OH214756   5.255   6.892   1.589
 4938TIP3    H114757   5.161   6.886   1.575
 4938TIP3    H214758   5.263   6.940   1.672
 4939TIP3   OH214759   4.471   6.622   1.746
 4939TIP3    H114760   4.493   6.598   1.836
 4939TIP3    H214761   4.541   6.585   1.693
 4940TIP3   OH214762   4.667   6.499   1.607
 4940TIP3    H114763   4.680   6.416   1.653
 4940TIP3    H214764   4.755   6.536   1.599
 4941TIP3   OH214765   4.937   6.590   1.610
 4941TIP3    H114766   4.961   6.499   1.592
 4941TIP3    H214767   4.981   6.611   1.692
 4942TIP3   OH214768   5.509   5.246   1.697
 4942TIP3    H114769   5.464   5.178   1.747
 4942TIP3    H214770   5.577   5.200   1.648
 4943TIP3   OH214771   6.029   5.139   1.597
 4943TIP3    H114772   6.064   5.184   1.520
 4943TIP3    H214773   5.934   5.144   1.586
 4944TIP3   OH214774   6.130   5.240   1.361
 4944TIP3    H114775   6.198   5.184   1.323
 4944TIP3    H214776   6.160   5.329   1.343
 4945TIP3   OH214777   4.754   4.953   1.709
 4945TIP3    H114778   4.662   4.925   1.710
 4945TIP3    H214779   4.804   4.871   1.704
 4946TIP3   OH214780   4.547   4.830   1.359
 4946TIP3    H114781   4.574   4.883   1.284
 4946TIP3    H214782   4.516   4.893   1.423
 4947TIP3   OH214783   5.203   4.989   1.589
 4947TIP3    H114784   5.259   5.036   1.527
 4947TIP3    H214785   5.228   5.025   1.674
 4948TIP3   OH214786   5.749   5.134   1.569
 4948TIP3    H114787   5.744   5.095   1.482
 4948TIP3    H214788   5.736   5.061   1.629
 4949TIP3   OH214789   5.774   5.060   1.138
 4949TIP3    H114790   5.689   5.103   1.147
 4949TIP3    H214791   5.763   4.974   1.179
 4950TIP3   OH214792   4.254   6.404   1.133
 4950TIP3    H114793   4.173   6.361   1.105
 4950TIP3    H214794   4.247   6.494   1.100
 4951TIP3   OH214795   4.663   4.983   1.121
 4951TIP3    H114796   4.707   4.922   1.062
 4951TIP3    H214797   4.733   5.038   1.155
 4952TIP3   OH214798   5.171   5.165   1.221
 4952TIP3    H114799   5.228   5.114   1.277
 4952TIP3    H214800   5.191   5.256   1.242
 4953TIP3   OH214801   5.031   6.588   0.710
 4953TIP3    H114802   5.123   6.602   0.688
 4953TIP3    H214803   5.005   6.511   0.660
 4954TIP3   OH214804   5.751   6.700   0.805
 4954TIP3    H114805   5.742   6.607   0.784
 4954TIP3    H214806   5.741   6.745   0.721
 4955TIP3   OH214807   4.959   5.234   2.614
 4955TIP3    H114808   4.930   5.155   2.659
 4955TIP3    H214809   5.053   5.240   2.632
 4956TIP3   OH214810   5.213   5.232   2.717
 4956TIP3    H114811   5.297   5.209   2.678
 4956TIP3    H214812   5.200   5.166   2.785
 4957TIP3   OH214813   4.367   6.462   0.807
 4957TIP3    H114814   4.316   6.421   0.877
 4957TIP3    H214815   4.419   6.391   0.769
 4958TIP3   OH214816   6.034   5.303   2.513
 4958TIP3    H114817   6.057   5.264   2.597
 4958TIP3    H214818   6.117   5.307   2.465
 4959TIP3   OH214819   5.974   6.847   1.998
 4959TIP3    H114820   5.899   6.809   1.952
 4959TIP3    H214821   5.954   6.941   2.004
 4960TIP3   OH214822   7.225   6.209   1.153
 4960TIP3    H114823   7.271   6.200   1.236
 4960TIP3    H214824   7.186   6.123   1.138
 4961TIP3   OH214825   6.540   6.111   1.517
 4961TIP3    H114826   6.569   6.045   1.580
 4961TIP3    H214827   6.616   6.169   1.507
 4962TIP3   OH214828   6.516   6.520   1.233
 4962TIP3    H114829   6.504   6.425   1.237
 4962TIP3    H214830   6.611   6.532   1.228
 4963TIP3   OH214831   6.279   6.003   1.199
 4963TIP3    H114832   6.338   5.932   1.223
 4963TIP3    H214833   6.325   6.049   1.129
 4964TIP3   OH214834   7.043   6.445   1.193
 4964TIP3    H114835   7.082   6.367   1.153
 4964TIP3    H214836   7.119   6.499   1.217
 4965TIP3   OH214837   8.041   5.781   1.193
 4965TIP3    H114838   8.082   5.850   1.245
 4965TIP3    H214839   8.077   5.792   1.105
 4966TIP3   OH214840   7.452   5.948   1.234
 4966TIP3    H114841   7.496   5.866   1.255
 4966TIP3    H214842   7.422   5.937   1.144
 4967TIP3   OH214843   6.793   5.609   1.189
 4967TIP3    H114844   6.774   5.679   1.127
 4967TIP3    H214845   6.751   5.531   1.151
 4968TIP3   OH214846   7.462   5.701   0.843
 4968TIP3    H114847   7.542   5.685   0.894
 4968TIP3    H214848   7.493   5.716   0.754
 4969TIP3   OH214849   6.439   5.797   1.287
 4969TIP3    H114850   6.520   5.782   1.336
 4969TIP3    H214851   6.448   5.742   1.209
 4970TIP3   OH214852   6.864   6.003   1.095
 4970TIP3    H114853   6.956   5.983   1.108
 4970TIP3    H214854   6.826   5.921   1.062
 4971TIP3   OH214855   6.787   5.591   1.627
 4971TIP3    H114856   6.730   5.627   1.559
 4971TIP3    H214857   6.739   5.605   1.708
 4972TIP3   OH214858   6.893   6.369   1.416
 4972TIP3    H114859   6.834   6.435   1.453
 4972TIP3    H214860   6.938   6.415   1.345
 4973TIP3   OH214861   7.697   5.705   0.987
 4973TIP3    H114862   7.683   5.656   1.068
 4973TIP3    H214863   7.740   5.786   1.014
 4974TIP3   OH214864   6.666   5.705   1.409
 4974TIP3    H114865   6.722   5.778   1.436
 4974TIP3    H214866   6.715   5.663   1.338
 4975TIP3   OH214867   6.720   6.565   1.518
 4975TIP3    H114868   6.701   6.650   1.479
 4975TIP3    H214869   6.645   6.546   1.574
 4976TIP3   OH214870   6.113   6.244   0.762
 4976TIP3    H114871   6.036   6.271   0.713
 4976TIP3    H214872   6.148   6.325   0.799
 4977TIP3   OH214873   7.850   5.660   1.356
 4977TIP3    H114874   7.763   5.696   1.335
 4977TIP3    H214875   7.908   5.698   1.290
 4978TIP3   OH214876   7.136   5.305   1.340
 4978TIP3    H114877   7.130   5.212   1.361
 4978TIP3    H214878   7.063   5.345   1.386
 4979TIP3   OH214879   8.008   6.299   1.214
 4979TIP3    H114880   7.917   6.328   1.225
 4979TIP3    H214881   8.034   6.334   1.129
 4980TIP3   OH214882   7.652   6.193   1.485
 4980TIP3    H114883   7.652   6.272   1.539
 4980TIP3    H214884   7.570   6.198   1.435
 4981TIP3   OH214885   6.657   6.154   0.988
 4981TIP3    H114886   6.611   6.096   0.928
 4981TIP3    H214887   6.732   6.103   1.018
 4982TIP3   OH214888   6.782   6.559   1.143
 4982TIP3    H114889   6.759   6.536   1.052
 4982TIP3    H214890   6.871   6.526   1.154
 4983TIP3   OH214891   6.782   6.129   1.335
 4983TIP3    H114892   6.819   6.103   1.251
 4983TIP3    H214893   6.828   6.211   1.357
 4984TIP3   OH214894   7.276   6.746   1.100
 4984TIP3    H114895   7.300   6.827   1.145
 4984TIP3    H214896   7.290   6.677   1.165
 4985TIP3   OH214897   6.922   6.683   1.666
 4985TIP3    H114898   6.864   6.744   1.711
 4985TIP3    H214899   6.863   6.629   1.614
 4986TIP3   OH214900   6.680   6.239   1.766
 4986TIP3    H114901   6.687   6.326   1.807
 4986TIP3    H214902   6.587   6.216   1.776
 4987TIP3   OH214903   6.718   6.855   1.752
 4987TIP3    H114904   6.689   6.852   1.661
 4987TIP3    H214905   6.641   6.830   1.803
 4988TIP3   OH214906   6.509   5.993   0.820
 4988TIP3    H114907   6.452   6.038   0.757
 4988TIP3    H214908   6.484   5.901   0.813
 4989TIP3   OH214909   6.300   6.380   1.696
 4989TIP3    H114910   6.234   6.360   1.630
 4989TIP3    H214911   6.337   6.295   1.720
 4990TIP3   OH214912   6.156   6.576   1.324
 4990TIP3    H114913   6.252   6.569   1.320
 4990TIP3    H214914   6.140   6.650   1.383
 4991TIP3   OH214915   7.114   6.816   1.519
 4991TIP3    H114916   7.116   6.906   1.550
 4991TIP3    H214917   7.048   6.773   1.573
 4992TIP3   OH214918   6.300   6.775   0.873
 4992TIP3    H114919   6.373   6.775   0.935
 4992TIP3    H214920   6.223   6.758   0.927
 4993TIP3   OH214921   7.915   6.165   1.666
 4993TIP3    H114922   7.847   6.179   1.599
 4993TIP3    H214923   7.947   6.076   1.649
 4994TIP3   OH214924   6.504   6.563   1.684
 4994TIP3    H114925   6.555   6.548   1.763
 4994TIP3    H214926   6.431   6.502   1.689
 4995TIP3   OH214927   6.898   5.387   1.470
 4995TIP3    H114928   6.813   5.354   1.441
 4995TIP3    H214929   6.878   5.465   1.521
 4996TIP3   OH214930   7.440   5.500   1.666
 4996TIP3    H114931   7.509   5.473   1.726
 4996TIP3    H214932   7.359   5.480   1.713
 4997TIP3   OH214933   7.666   5.924   1.576
 4997TIP3    H114934   7.628   5.924   1.664
 4997TIP3    H214935   7.656   6.014   1.546
 4998TIP3   OH214936   6.833   5.907   1.486
 4998TIP3    H114937   6.790   5.925   1.570
 4998TIP3    H214938   6.818   5.986   1.434
 4999TIP3   OH214939   6.714   5.782   0.996
 4999TIP3    H114940   6.622   5.763   1.015
 4999TIP3    H214941   6.727   5.752   0.906
 5000TIP3   OH214942   7.386   6.150   1.817
 5000TIP3    H114943   7.363   6.078   1.876
 5000TIP3    H214944   7.480   6.165   1.833
 5001TIP3   OH214945   7.361   5.908   0.981
 5001TIP3    H114946   7.323   5.957   0.909
 5001TIP3    H214947   7.392   5.827   0.941
 5002TIP3   OH214948   6.653   5.928   1.700
 5002TIP3    H114949   6.691   5.990   1.762
 5002TIP3    H214950   6.645   5.847   1.749
 5003TIP3   OH214951   6.239   5.493   1.277
 5003TIP3    H114952   6.323   5.492   1.323
 5003TIP3    H214953   6.254   5.439   1.200
 5004TIP3   OH214954   6.230   5.450   0.815
 5004TIP3    H114955   6.265   5.477   0.730
 5004TIP3    H214956   6.155   5.507   0.830
 5005TIP3   OH214957   7.366   6.147   1.390
 5005TIP3    H114958   7.405   6.083   1.332
 5005TIP3    H214959   7.341   6.098   1.469
 5006TIP3   OH214960   7.048   5.615   1.063
 5006TIP3    H114961   6.970   5.609   1.119
 5006TIP3    H214962   7.121   5.603   1.123
 5007TIP3   OH214963   6.477   5.642   1.060
 5007TIP3    H114964   6.392   5.611   1.029
 5007TIP3    H214965   6.534   5.565   1.051
 5008TIP3   OH214966   6.752   5.677   0.741
 5008TIP3    H114967   6.845   5.675   0.760
 5008TIP3    H214968   6.746   5.714   0.653
 5009TIP3   OH214969   7.537   5.687   1.264
 5009TIP3    H114970   7.509   5.700   1.354
 5009TIP3    H214971   7.475   5.624   1.228
 5010TIP3   OH214972   6.667   6.487   1.906
 5010TIP3    H114973   6.747   6.515   1.950
 5010TIP3    H214974   6.601   6.484   1.976
 5011TIP3   OH214975   7.130   5.939   1.163
 5011TIP3    H114976   7.208   5.904   1.119
 5011TIP3    H214977   7.132   5.899   1.250
 5012TIP3   OH214978   6.650   5.424   1.042
 5012TIP3    H114979   6.612   5.350   1.089
 5012TIP3    H214980   6.704   5.384   0.975
 5013TIP3   OH214981   7.106   5.843   1.444
 5013TIP3    H114982   7.018   5.876   1.464
 5013TIP3    H214983   7.164   5.897   1.497
 5014TIP3   OH214984   7.749   6.373   1.160
 5014TIP3    H114985   7.741   6.465   1.136
 5014TIP3    H214986   7.659   6.341   1.162
 5015TIP3   OH214987   7.238   6.533   1.548
 5015TIP3    H114988   7.269   6.515   1.637
 5015TIP3    H214989   7.206   6.623   1.551
 5016TIP3   OH214990   6.532   6.238   1.219
 5016TIP3    H114991   6.570   6.217   1.134
 5016TIP3    H214992   6.585   6.190   1.282
 5017TIP3   OH214993   6.415   6.168   1.836
 5017TIP3    H114994   6.441   6.159   1.928
 5017TIP3    H214995   6.352   6.097   1.822
 5018TIP3   OH214996   7.146   6.282   1.852
 5018TIP3    H114997   7.086   6.226   1.803
 5018TIP3    H214998   7.233   6.251   1.828
 5019TIP3   OH214999   7.388   6.786   1.472
 5019TIP3    H115000   7.296   6.792   1.449
 5019TIP3    H215001   7.397   6.838   1.551
 5020TIP3   OH215002   7.488   6.307   1.117
 5020TIP3    H115003   7.393   6.294   1.111
 5020TIP3    H215004   7.525   6.238   1.063
 5021TIP3   OH215005   6.642   6.567   0.884
 5021TIP3    H115006   6.654   6.610   0.800
 5021TIP3    H215007   6.549   6.579   0.904
 5022TIP3   OH215008   6.198   5.859   0.562
 5022TIP3    H115009   6.242   5.936   0.599
 5022TIP3    H215010   6.120   5.848   0.617
 5023TIP3   OH215011   6.757   6.334   0.802
 5023TIP3    H115012   6.739   6.418   0.843
 5023TIP3    H215013   6.742   6.269   0.871
 5024TIP3   OH215014   6.906   6.883   1.321
 5024TIP3    H115015   6.940   6.951   1.262
 5024TIP3    H215016   6.984   6.848   1.364
 5025TIP3   OH215017   7.297   6.522   1.277
 5025TIP3    H115018   7.285   6.516   1.372
 5025TIP3    H215019   7.373   6.467   1.259
 5026TIP3   OH215020   6.628   5.673   1.841
 5026TIP3    H115021   6.533   5.677   1.854
 5026TIP3    H215022   6.660   5.616   1.911
 5027TIP3   OH215023   6.347   6.758   1.473
 5027TIP3    H115024   6.398   6.685   1.507
 5027TIP3    H215025   6.370   6.832   1.528
 5028TIP3   OH215026   6.316   6.097   0.651
 5028TIP3    H115027   6.247   6.137   0.704
 5028TIP3    H215028   6.347   6.167   0.594
 5029TIP3   OH215029   7.465   5.735   1.521
 5029TIP3    H115030   7.543   5.780   1.553
 5029TIP3    H215031   7.457   5.658   1.578
 5030TIP3   OH215032   7.020   5.664   0.795
 5030TIP3    H115033   7.095   5.718   0.770
 5030TIP3    H215034   7.029   5.653   0.890
 5031TIP3   OH215035   7.305   5.984   1.600
 5031TIP3    H115036   7.328   6.037   1.676
 5031TIP3    H215037   7.361   5.906   1.607
 5032TIP3   OH215038   7.195   5.406   0.900
 5032TIP3    H115039   7.186   5.460   0.979
 5032TIP3    H215040   7.268   5.446   0.852
 5033TIP3   OH215041   6.687   5.397   0.674
 5033TIP3    H115042   6.676   5.486   0.709
 5033TIP3    H215043   6.773   5.369   0.707
 5034TIP3   OH215044   7.940   5.909   1.565
 5034TIP3    H115045   7.844   5.901   1.573
 5034TIP3    H215046   7.964   5.847   1.497
 5035TIP3   OH215047   7.587   6.090   0.982
 5035TIP3    H115048   7.520   6.022   0.985
 5035TIP3    H215049   7.667   6.047   1.011
 5036TIP3   OH215050   6.251   5.586   0.577
 5036TIP3    H115051   6.233   5.679   0.569
 5036TIP3    H215052   6.186   5.544   0.521
 5037TIP3   OH215053   6.633   5.305   1.443
 5037TIP3    H115054   6.607   5.271   1.357
 5037TIP3    H215055   6.628   5.230   1.502
 5038TIP3   OH215056   6.168   6.499   0.834
 5038TIP3    H115057   6.113   6.548   0.895
 5038TIP3    H215058   6.237   6.560   0.809
 5039TIP3   OH215059   6.338   7.069   1.894
 5039TIP3    H115060   6.422   7.070   1.939
 5039TIP3    H215061   6.313   6.976   1.892
 5040TIP3   OH215062   6.831   7.024   1.943
 5040TIP3    H115063   6.920   6.988   1.946
 5040TIP3    H215064   6.788   6.977   1.871
 5041TIP3   OH215065   7.440   6.937   1.695
 5041TIP3    H115066   7.437   6.865   1.758
 5041TIP3    H215067   7.527   6.977   1.707
 5042TIP3   OH215068   6.464   6.473   2.094
 5042TIP3    H115069   6.483   6.380   2.102
 5042TIP3    H215070   6.379   6.478   2.051
 5043TIP3   OH215071   7.070   6.557   1.869
 5043TIP3    H115072   7.032   6.578   1.784
 5043TIP3    H215073   7.104   6.467   1.859
 5044TIP3   OH215074   7.560   6.568   1.472
 5044TIP3    H115075   7.624   6.626   1.430
 5044TIP3    H215076   7.479   6.619   1.475
 5045TIP3   OH215077   6.586   6.209   2.078
 5045TIP3    H115078   6.661   6.156   2.051
 5045TIP3    H215079   6.611   6.242   2.165
 5046TIP3   OH215080   6.914   6.089   1.733
 5046TIP3    H115081   6.841   6.151   1.739
 5046TIP3    H215082   6.968   6.122   1.661
 5047TIP3   OH215083   7.443   6.489   1.868
 5047TIP3    H115084   7.518   6.461   1.817
 5047TIP3    H215085   7.438   6.427   1.941
 5048TIP3   OH215086   7.040   5.882   1.864
 5048TIP3    H115087   7.045   5.803   1.811
 5048TIP3    H215088   6.998   5.947   1.808
 5049TIP3   OH215089   7.046   5.671   1.671
 5049TIP3    H115090   7.076   5.707   1.588
 5049TIP3    H215091   6.955   5.645   1.655
 5050TIP3   OH215092   7.070   6.201   1.545
 5050TIP3    H115093   7.157   6.210   1.506
 5050TIP3    H215094   7.017   6.268   1.501
 5051TIP3   OH215095   7.660   6.168   1.926
 5051TIP3    H115096   7.701   6.083   1.937
 5051TIP3    H215097   7.728   6.223   1.888
 5052TIP3   OH215098   7.670   6.427   1.676
 5052TIP3    H115099   7.616   6.475   1.613
 5052TIP3    H215100   7.758   6.430   1.639
 5053TIP3   OH215101   6.918   5.988   2.096
 5053TIP3    H115102   6.853   5.920   2.113
 5053TIP3    H215103   6.956   5.965   2.011
 5054TIP3   OH215104   7.176   5.431   1.741
 5054TIP3    H115105   7.129   5.512   1.720
 5054TIP3    H215106   7.110   5.362   1.731
 5055TIP3   OH215107   7.300   5.934   1.959
 5055TIP3    H115108   7.294   5.920   2.054
 5055TIP3    H215109   7.214   5.911   1.925
 5056TIP3   OH215110   7.543   5.886   1.815
 5056TIP3    H115111   7.469   5.885   1.875
 5056TIP3    H215112   7.618   5.856   1.867
 5057TIP3   OH215113   7.771   5.826   1.964
 5057TIP3    H115114   7.784   5.732   1.977
 5057TIP3    H215115   7.770   5.863   2.052
 5058TIP3   OH215116   6.762   5.768   2.154
 5058TIP3    H115117   6.763   5.679   2.118
 5058TIP3    H215118   6.801   5.759   2.241
 5059TIP3   OH215119   7.273   5.439   1.997
 5059TIP3    H115120   7.339   5.371   1.996
 5059TIP3    H215121   7.232   5.435   1.911
 5060TIP3   OH215122   7.336   5.654   2.158
 5060TIP3    H115123   7.318   5.583   2.096
 5060TIP3    H215124   7.260   5.711   2.151
 5061TIP3   OH215125   5.948   6.877   0.897
 5061TIP3    H115126   5.885   6.824   0.848
 5061TIP3    H215127   5.993   6.814   0.953
 5062TIP3   OH215128   6.107   6.720   1.067
 5062TIP3    H115129   6.080   6.650   1.126
 5062TIP3    H215130   6.146   6.786   1.123
 5063TIP3   OH215131   6.278   6.134   1.441
 5063TIP3    H115132   6.275   6.101   1.352
 5063TIP3    H215133   6.372   6.137   1.462
 5064TIP3   OH215134   7.896   6.466   1.535
 5064TIP3    H115135   7.980   6.428   1.562
 5064TIP3    H215136   7.919   6.528   1.466
 5065TIP3   OH215137   7.807   5.951   1.074
 5065TIP3    H115138   7.893   5.975   1.039
 5065TIP3    H215139   7.808   5.984   1.164
 5066TIP3   OH215140   7.850   6.082   1.306
 5066TIP3    H115141   7.784   6.120   1.364
 5066TIP3    H215142   7.916   6.151   1.296
 5067TIP3   OH215143   6.497   5.821   2.126
 5067TIP3    H115144   6.593   5.816   2.127
 5067TIP3    H215145   6.469   5.736   2.159
 5068TIP3   OH215146   6.455   5.517   1.465
 5068TIP3    H115147   6.509   5.437   1.467
 5068TIP3    H215148   6.518   5.587   1.448
 5069TIP3   OH215149   6.240   5.813   1.472
 5069TIP3    H115150   6.317   5.802   1.416
 5069TIP3    H215151   6.267   5.877   1.538
 5070TIP3   OH215152   6.231   5.326   1.056
 5070TIP3    H115153   6.143   5.290   1.057
 5070TIP3    H215154   6.241   5.363   0.968
 5071TIP3   OH215155   6.460   5.383   1.842
 5071TIP3    H115156   6.415   5.364   1.924
 5071TIP3    H215157   6.389   5.401   1.780
 5072TIP3   OH215158   6.499   6.801   1.917
 5072TIP3    H115159   6.408   6.776   1.897
 5072TIP3    H215160   6.511   6.778   2.009
 5073TIP3   OH215161   6.681   6.837   1.466
 5073TIP3    H115162   6.631   6.909   1.426
 5073TIP3    H215163   6.767   6.842   1.423
 5074TIP3   OH215164   7.142   7.088   1.609
 5074TIP3    H115165   7.178   7.084   1.698
 5074TIP3    H215166   7.211   7.128   1.557
 5075TIP3   OH215167   8.079   5.567   1.574
 5075TIP3    H115168   8.005   5.589   1.518
 5075TIP3    H215169   8.134   5.510   1.520
 5076TIP3   OH215170   6.352   7.091   1.488
 5076TIP3    H115171   6.264   7.122   1.465
 5076TIP3    H215172   6.369   7.131   1.573
 5077TIP3   OH215173   6.584   7.064   1.343
 5077TIP3    H115174   6.499   7.074   1.387
 5077TIP3    H215175   6.568   7.092   1.253
 5078TIP3   OH215176   6.997   7.072   1.157
 5078TIP3    H115177   6.958   7.110   1.078
 5078TIP3    H215178   7.029   7.148   1.206
 5079TIP3   OH215179   6.270   6.879   1.231
 5079TIP3    H115180   6.289   6.855   1.322
 5079TIP3    H215181   6.341   6.840   1.181
 5080TIP3   OH215182   6.466   6.751   1.091
 5080TIP3    H115183   6.477   6.670   1.141
 5080TIP3    H215184   6.553   6.790   1.090
 5081TIP3   OH215185   6.726   6.843   1.102
 5081TIP3    H115186   6.759   6.753   1.088
 5081TIP3    H215187   6.776   6.875   1.177
 5082TIP3   OH215188   7.290   5.492   1.164
 5082TIP3    H115189   7.257   5.428   1.226
 5082TIP3    H215190   7.372   5.455   1.132
 5083TIP3   OH215191   7.828   5.389   1.088
 5083TIP3    H115192   7.869   5.434   1.014
 5083TIP3    H215193   7.735   5.407   1.078
 5084TIP3   OH215194   7.943   5.480   0.857
 5084TIP3    H115195   7.993   5.431   0.792
 5084TIP3    H215196   7.948   5.571   0.827
 5085TIP3   OH215197   6.550   5.211   1.194
 5085TIP3    H115198   6.459   5.182   1.194
 5085TIP3    H215199   6.601   5.130   1.189
 5086TIP3   OH215200   6.361   5.081   0.853
 5086TIP3    H115201   6.389   5.131   0.776
 5086TIP3    H215202   6.306   5.141   0.902
 5087TIP3   OH215203   6.995   5.248   1.084
 5087TIP3    H115204   7.054   5.293   1.024
 5087TIP3    H215205   7.024   5.275   1.171
 5088TIP3   OH215206   7.538   5.388   1.057
 5088TIP3    H115207   7.554   5.345   0.973
 5088TIP3    H215208   7.529   5.316   1.120
 5089TIP3   OH215209   6.459   5.229   0.647
 5089TIP3    H115210   6.466   5.188   0.561
 5089TIP3    H215211   6.536   5.286   0.653
 5090TIP3   OH215212   6.936   5.400   0.776
 5090TIP3    H115213   7.008   5.342   0.803
 5090TIP3    H215214   6.973   5.488   0.779
 5091TIP3   OH215215   6.760   5.495   2.090
 5091TIP3    H115216   6.722   5.424   2.142
 5091TIP3    H215217   6.853   5.496   2.114
 5092TIP3   OH215218   7.010   5.492   2.206
 5092TIP3    H115219   7.093   5.466   2.166
 5092TIP3    H215220   6.993   5.426   2.273
 5093TIP3   OH215221   7.832   5.555   1.995
 5093TIP3    H115222   7.851   5.525   2.084
 5093TIP3    H215223   7.917   5.552   1.950
 5094TIP3   OH215224   0.509   6.557   2.880
 5094TIP3    H115225   0.535   6.637   2.925
 5094TIP3    H215226   0.533   6.571   2.788
 5095TIP3   OH215227   8.435   6.466   2.501
 5095TIP3    H115228   8.500   6.475   2.571
 5095TIP3    H215229   8.468   6.522   2.430
 5096TIP3   OH215230   0.573   6.765   3.057
 5096TIP3    H115231   0.490   6.811   3.041
 5096TIP3    H215232   0.605   6.801   3.140
 5097TIP3   OH215233   0.140   6.505   2.676
 5097TIP3    H115234   0.156   6.422   2.721
 5097TIP3    H215235   0.205   6.565   2.712
 5098TIP3   OH215236   0.307   6.465   3.049
 5098TIP3    H115237   0.225   6.501   3.015
 5098TIP3    H215238   0.372   6.487   2.982
 5099TIP3   OH215239   0.223   7.484   3.029
 5099TIP3    H115240   0.209   7.398   2.990
 5099TIP3    H215241   0.259   7.537   2.958
 5100TIP3   OH215242   0.430   7.105   2.871
 5100TIP3    H115243   0.351   7.157   2.883
 5100TIP3    H215244   0.461   7.127   2.784
 5101TIP3   OH215245   0.234   6.043   2.138
 5101TIP3    H115246   0.158   6.063   2.192
 5101TIP3    H215247   0.263   6.128   2.103
 5102TIP3   OH215248   0.375   6.942   3.353
 5102TIP3    H115249   0.298   6.969   3.304
 5102TIP3    H215250   0.378   6.847   3.344
 5103TIP3   OH215251   0.200   7.256   2.870
 5103TIP3    H115252   0.234   7.302   2.793
 5103TIP3    H215253   0.114   7.224   2.843
 5104TIP3   OH215254   0.474   7.509   3.123
 5104TIP3    H115255   0.380   7.515   3.112
 5104TIP3    H215256   0.508   7.491   3.035
 5105TIP3   OH215257   0.374   6.677   3.273
 5105TIP3    H115258   0.293   6.632   3.297
 5105TIP3    H215259   0.396   6.643   3.186
 5106TIP3   OH215260   0.044   6.848   2.652
 5106TIP3    H115261  -0.018   6.776   2.666
 5106TIP3    H215262   0.124   6.819   2.697
 5107TIP3   OH215263   0.300   6.595   3.694
 5107TIP3    H115264   0.298   6.500   3.688
 5107TIP3    H215265   0.207   6.621   3.698
 5108TIP3   OH215266   0.300   6.995   2.228
 5108TIP3    H115267   0.232   6.953   2.282
 5108TIP3    H215268   0.364   7.027   2.292
 5109TIP3   OH215269   0.330   7.380   2.671
 5109TIP3    H115270   0.394   7.323   2.628
 5109TIP3    H215271   0.335   7.463   2.623
 5110TIP3   OH215272   0.133   6.837   2.388
 5110TIP3    H115273   0.125   6.741   2.382
 5110TIP3    H215274   0.102   6.858   2.476
 5111TIP3   OH215275   0.387   7.270   3.247
 5111TIP3    H115276   0.458   7.206   3.239
 5111TIP3    H215277   0.413   7.341   3.188
 5112TIP3   OH215278   0.582   7.077   3.253
 5112TIP3    H115279   0.508   7.035   3.297
 5112TIP3    H215280   0.656   7.018   3.267
 5113TIP3   OH215281   0.134   6.565   2.307
 5113TIP3    H115282   0.150   6.480   2.348
 5113TIP3    H215283   0.156   6.552   2.215
 5114TIP3   OH215284   0.265   6.746   2.784
 5114TIP3    H115285   0.346   6.766   2.738
 5114TIP3    H215286   0.276   6.784   2.871
 5115TIP3   OH215287   0.320   6.891   3.013
 5115TIP3    H115288   0.238   6.920   3.052
 5115TIP3    H215289   0.356   6.969   2.970
 5116TIP3   OH215290   0.788   6.481   3.562
 5116TIP3    H115291   0.843   6.413   3.521
 5116TIP3    H215292   0.753   6.531   3.488
 5117TIP3   OH215293   0.216   6.303   2.323
 5117TIP3    H115294   0.260   6.291   2.406
 5117TIP3    H215295   0.146   6.237   2.323
 5118TIP3   OH215296   0.645   6.612   3.371
 5118TIP3    H115297   0.566   6.657   3.404
 5118TIP3    H215298   0.611   6.544   3.313
 5119TIP3   OH215299   0.337   6.252   1.992
 5119TIP3    H115300   0.358   6.191   1.921
 5119TIP3    H215301   0.357   6.339   1.956
 5120TIP3   OH215302   0.547   6.371   3.250
 5120TIP3    H115303   0.458   6.358   3.218
 5120TIP3    H215304   0.589   6.285   3.242
 5121TIP3   OH215305   0.296   6.174   2.771
 5121TIP3    H115306   0.334   6.221   2.697
 5121TIP3    H215307   0.202   6.190   2.765
 5122TIP3   OH215308   0.380   6.283   2.539
 5122TIP3    H115309   0.448   6.227   2.501
 5122TIP3    H215310   0.410   6.372   2.521
 5123TIP3   OH215311   0.034   6.211   2.740
 5123TIP3    H115312  -0.033   6.212   2.672
 5123TIP3    H215313   0.015   6.132   2.791
 5124TIP3   OH215314   8.528   6.099   2.311
 5124TIP3    H115315   8.445   6.127   2.273
 5124TIP3    H215316   8.508   6.015   2.354
 5125TIP3   OH215317   0.292   6.324   3.681
 5125TIP3    H115318   0.305   6.301   3.773
 5125TIP3    H215319   0.379   6.320   3.642
 5126TIP3   OH215320   1.492   7.259   1.944
 5126TIP3    H115321   1.450   7.344   1.930
 5126TIP3    H215322   1.427   7.195   1.912
 5127TIP3   OH215323   1.490   7.263   2.326
 5127TIP3    H115324   1.526   7.245   2.413
 5127TIP3    H215325   1.450   7.180   2.299
 5128TIP3   OH215326   0.788   7.159   2.691
 5128TIP3    H115327   0.816   7.091   2.753
 5128TIP3    H215328   0.863   7.218   2.684
 5129TIP3   OH215329   1.713   7.567   2.012
 5129TIP3    H115330   1.708   7.495   2.075
 5129TIP3    H215331   1.768   7.633   2.055
 5130TIP3   OH215332   0.821   7.515   2.485
 5130TIP3    H115333   0.788   7.431   2.454
 5130TIP3    H215334   0.897   7.532   2.429
 5131TIP3   OH215335   0.456   6.755   2.187
 5131TIP3    H115336   0.416   6.842   2.177
 5131TIP3    H215337   0.410   6.716   2.261
 5132TIP3   OH215338   0.530   7.060   2.372
 5132TIP3    H115339   0.573   6.982   2.408
 5132TIP3    H215340   0.601   7.110   2.332
 5133TIP3   OH215341   1.307   7.482   2.367
 5133TIP3    H115342   1.348   7.404   2.330
 5133TIP3    H215343   1.380   7.537   2.394
 5134TIP3   OH215344   2.304   6.814   2.368
 5134TIP3    H115345   2.332   6.894   2.413
 5134TIP3    H215346   2.327   6.829   2.276
 5135TIP3   OH215347   1.702   6.991   2.399
 5135TIP3    H115348   1.745   6.909   2.423
 5135TIP3    H215349   1.670   6.976   2.310
 5136TIP3   OH215350   1.040   6.653   2.364
 5136TIP3    H115351   1.022   6.726   2.304
 5136TIP3    H215352   0.994   6.578   2.325
 5137TIP3   OH215353   1.739   6.743   1.987
 5137TIP3    H115354   1.805   6.728   2.055
 5137TIP3    H215355   1.788   6.778   1.913
 5138TIP3   OH215356   0.675   6.851   2.473
 5138TIP3    H115357   0.754   6.835   2.525
 5138TIP3    H215358   0.688   6.799   2.394
 5139TIP3   OH215359   1.114   7.052   2.269
 5139TIP3    H115360   1.206   7.030   2.282
 5139TIP3    H215361   1.074   6.970   2.240
 5140TIP3   OH215362   2.375   7.022   2.539
 5140TIP3    H115363   2.292   7.065   2.521
 5140TIP3    H215364   2.399   7.051   2.627
 5141TIP3   OH215365   1.034   6.637   2.802
 5141TIP3    H115366   0.978   6.672   2.733
 5141TIP3    H215367   0.985   6.653   2.883
 5142TIP3   OH215368   1.357   7.469   1.826
 5142TIP3    H115369   1.347   7.446   1.734
 5142TIP3    H215370   1.400   7.554   1.825
 5143TIP3   OH215371   1.139   7.417   2.593
 5143TIP3    H115372   1.078   7.481   2.628
 5143TIP3    H215373   1.181   7.461   2.519
 5144TIP3   OH215374   1.941   6.751   2.167
 5144TIP3    H115375   1.929   6.703   2.248
 5144TIP3    H215376   1.994   6.827   2.191
 5145TIP3   OH215377   0.911   6.752   2.584
 5145TIP3    H115378   0.968   6.825   2.609
 5145TIP3    H215379   0.957   6.709   2.511
 5146TIP3   OH215380   0.965   7.628   2.699
 5146TIP3    H115381   0.924   7.619   2.613
 5146TIP3    H215382   0.892   7.623   2.761
 5147TIP3   OH215383   2.097   6.711   2.532
 5147TIP3    H115384   2.010   6.740   2.503
 5147TIP3    H215385   2.157   6.743   2.464
 5148TIP3   OH215386   1.387   6.351   2.518
 5148TIP3    H115387   1.377   6.257   2.535
 5148TIP3    H215388   1.313   6.391   2.562
 5149TIP3   OH215389   1.735   7.581   1.728
 5149TIP3    H115390   1.705   7.502   1.682
 5149TIP3    H215391   1.746   7.553   1.819
 5150TIP3   OH215392   2.020   7.724   2.514
 5150TIP3    H115393   2.012   7.647   2.458
 5150TIP3    H215394   2.050   7.793   2.455
 5151TIP3   OH215395   1.334   7.110   1.774
 5151TIP3    H115396   1.258   7.168   1.766
 5151TIP3    H215397   1.376   7.113   1.688
 5152TIP3   OH215398   1.306   6.895   1.506
 5152TIP3    H115399   1.370   6.951   1.551
 5152TIP3    H215400   1.359   6.834   1.454
 5153TIP3   OH215401   2.226   7.362   2.357
 5153TIP3    H115402   2.144   7.411   2.367
 5153TIP3    H215403   2.257   7.386   2.270
 5154TIP3   OH215404   1.673   7.194   1.751
 5154TIP3    H115405   1.617   7.217   1.825
 5154TIP3    H215406   1.756   7.167   1.791
 5155TIP3   OH215407   1.902   7.240   2.659
 5155TIP3    H115408   1.905   7.320   2.711
 5155TIP3    H215409   1.818   7.244   2.614
 5156TIP3   OH215410   0.908   7.195   2.150
 5156TIP3    H115411   0.863   7.134   2.093
 5156TIP3    H215412   0.982   7.146   2.186
 5157TIP3   OH215413   1.043   7.570   2.344
 5157TIP3    H115414   1.030   7.532   2.257
 5157TIP3    H215415   1.138   7.580   2.351
 5158TIP3   OH215416   1.032   7.175   2.510
 5158TIP3    H115417   1.070   7.149   2.426
 5158TIP3    H215418   1.076   7.257   2.532
 5159TIP3   OH215419   1.211   7.629   2.836
 5159TIP3    H115420   1.187   7.718   2.864
 5159TIP3    H215421   1.137   7.599   2.785
 5160TIP3   OH215422   1.520   7.055   1.570
 5160TIP3    H115423   1.572   7.116   1.622
 5160TIP3    H215424   1.540   7.076   1.479
 5161TIP3   OH215425   0.930   7.282   2.941
 5161TIP3    H115426   0.939   7.369   2.981
 5161TIP3    H215427   0.838   7.259   2.955
 5162TIP3   OH215428   2.024   6.300   1.619
 5162TIP3    H115429   1.944   6.318   1.669
 5162TIP3    H215430   2.039   6.380   1.568
 5163TIP3   OH215431   0.756   7.035   1.965
 5163TIP3    H115432   0.703   7.085   1.903
 5163TIP3    H215433   0.720   6.946   1.961
 5164TIP3   OH215434   0.563   7.425   2.880
 5164TIP3    H115435   0.500   7.403   2.812
 5164TIP3    H215436   0.600   7.340   2.906
 5165TIP3   OH215437   2.157   7.197   2.837
 5165TIP3    H115438   2.076   7.212   2.789
 5165TIP3    H215439   2.174   7.104   2.828
 5166TIP3   OH215440   0.755   7.625   2.874
 5166TIP3    H115441   0.810   7.592   2.945
 5166TIP3    H215442   0.683   7.561   2.868
 5167TIP3   OH215443   1.149   6.432   2.647
 5167TIP3    H115444   1.064   6.399   2.617
 5167TIP3    H215445   1.127   6.512   2.695
 5168TIP3   OH215446   1.688   6.545   2.842
 5168TIP3    H115447   1.756   6.517   2.903
 5168TIP3    H215448   1.606   6.525   2.887
 5169TIP3   OH215449   1.921   6.975   2.758
 5169TIP3    H115450   1.875   6.972   2.841
 5169TIP3    H215451   1.901   7.062   2.722
 5170TIP3   OH215452   1.586   7.090   1.311
 5170TIP3    H115453   1.556   7.067   1.223
 5170TIP3    H215454   1.650   7.160   1.297
 5171TIP3   OH215455   1.287   6.486   1.611
 5171TIP3    H115456   1.267   6.486   1.704
 5171TIP3    H215457   1.258   6.400   1.580
 5172TIP3   OH215458   1.082   6.952   2.661
 5172TIP3    H115459   1.036   6.968   2.744
 5172TIP3    H215460   1.066   7.031   2.609
 5173TIP3   OH215461   0.964   6.834   2.178
 5173TIP3    H115462   0.874   6.809   2.197
 5173TIP3    H215463   0.981   6.798   2.091
 5174TIP3   OH215464   1.464   6.913   1.908
 5174TIP3    H115465   1.412   6.981   1.865
 5174TIP3    H215466   1.520   6.878   1.838
 5175TIP3   OH215467   1.639   7.189   2.989
 5175TIP3    H115468   1.614   7.120   3.050
 5175TIP3    H215469   1.729   7.210   3.011
 5176TIP3   OH215470   1.616   6.942   2.141
 5176TIP3    H115471   1.553   6.973   2.075
 5176TIP3    H215472   1.653   6.863   2.103
 5177TIP3   OH215473   0.903   6.974   2.874
 5177TIP3    H115474   0.935   7.038   2.937
 5177TIP3    H215475   0.893   6.893   2.924
 5178TIP3   OH215476   0.931   6.437   1.575
 5178TIP3    H115477   0.949   6.435   1.669
 5178TIP3    H215478   0.855   6.494   1.565
 5179TIP3   OH215479   0.495   6.511   2.453
 5179TIP3    H115480   0.575   6.528   2.502
 5179TIP3    H215481   0.525   6.470   2.372
 5180TIP3   OH215482   0.457   6.506   1.958
 5180TIP3    H115483   0.531   6.506   1.896
 5180TIP3    H215484   0.467   6.587   2.007
 5181TIP3   OH215485   1.623   7.189   2.564
 5181TIP3    H115486   1.658   7.122   2.505
 5181TIP3    H215487   1.595   7.140   2.642
 5182TIP3   OH215488   1.299   6.657   2.241
 5182TIP3    H115489   1.219   6.653   2.294
 5182TIP3    H215490   1.370   6.647   2.305
 5183TIP3   OH215491   0.727   6.709   2.243
 5183TIP3    H115492   0.637   6.710   2.210
 5183TIP3    H215493   0.757   6.619   2.227
 5184TIP3   OH215494   1.006   6.714   1.938
 5184TIP3    H115495   1.101   6.721   1.927
 5184TIP3    H215496   0.972   6.716   1.848
 5185TIP3   OH215497   1.786   6.730   2.442
 5185TIP3    H115498   1.757   6.744   2.533
 5185TIP3    H215499   1.722   6.670   2.405
 5186TIP3   OH215500   0.869   6.694   1.703
 5186TIP3    H115501   0.776   6.707   1.724
 5186TIP3    H215502   0.886   6.756   1.632
 5187TIP3   OH215503   0.919   7.529   3.081
 5187TIP3    H115504   0.999   7.555   3.127
 5187TIP3    H215505   0.854   7.518   3.150
 5188TIP3   OH215506   1.379   6.985   2.337
 5188TIP3    H115507   1.450   6.944   2.288
 5188TIP3    H215508   1.383   6.943   2.423
 5189TIP3   OH215509   0.896   6.468   2.219
 5189TIP3    H115510   0.860   6.394   2.268
 5189TIP3    H215511   0.945   6.428   2.148
 5190TIP3   OH215512   1.354   6.885   2.625
 5190TIP3    H115513   1.266   6.920   2.640
 5190TIP3    H215514   1.411   6.943   2.675
 5191TIP3   OH215515   1.118   7.270   1.750
 5191TIP3    H115516   1.057   7.197   1.751
 5191TIP3    H215517   1.096   7.321   1.828
 5192TIP3   OH215518   1.991   7.502   2.349
 5192TIP3    H115519   2.020   7.550   2.271
 5192TIP3    H215520   1.908   7.463   2.324
 5193TIP3   OH215521   1.543   6.587   1.579
 5193TIP3    H115522   1.450   6.570   1.592
 5193TIP3    H215523   1.556   6.676   1.610
 5194TIP3   OH215524   1.500   7.607   2.721
 5194TIP3    H115525   1.535   7.560   2.796
 5194TIP3    H215526   1.425   7.656   2.755
 5195TIP3   OH215527   1.621   6.828   1.690
 5195TIP3    H115528   1.716   6.833   1.706
 5195TIP3    H215529   1.602   6.908   1.640
 5196TIP3   OH215530   0.769   7.249   2.388
 5196TIP3    H115531   0.819   7.244   2.306
 5196TIP3    H215532   0.826   7.209   2.453
 5197TIP3   OH215533   1.294   7.386   1.567
 5197TIP3    H115534   1.242   7.447   1.516
 5197TIP3    H215535   1.230   7.336   1.618
 5198TIP3   OH215536   0.669   7.205   3.013
 5198TIP3    H115537   0.686   7.193   3.106
 5198TIP3    H215538   0.599   7.143   2.993
 5199TIP3   OH215539   1.398   7.312   3.035
 5199TIP3    H115540   1.335   7.265   2.981
 5199TIP3    H215541   1.483   7.283   3.004
 5200TIP3   OH215542   2.056   6.923   1.522
 5200TIP3    H115543   1.997   6.875   1.464
 5200TIP3    H215544   2.058   7.012   1.485
 5201TIP3   OH215545   2.277   7.758   2.605
 5201TIP3    H115546   2.182   7.774   2.600
 5201TIP3    H215547   2.304   7.747   2.514
 5202TIP3   OH215548   1.754   7.373   2.252
 5202TIP3    H115549   1.664   7.350   2.276
 5202TIP3    H215550   1.791   7.292   2.217
 5203TIP3   OH215551   1.022   7.382   1.981
 5203TIP3    H115552   0.995   7.466   2.019
 5203TIP3    H215553   0.993   7.316   2.043
 5204TIP3   OH215554   1.546   7.574   2.451
 5204TIP3    H115555   1.532   7.586   2.544
 5204TIP3    H215556   1.633   7.535   2.444
 5205TIP3   OH215557   1.518   7.411   1.340
 5205TIP3    H115558   1.574   7.405   1.417
 5205TIP3    H215559   1.429   7.400   1.374
 5206TIP3   OH215560   0.875   6.717   3.018
 5206TIP3    H115561   0.780   6.720   3.029
 5206TIP3    H215562   0.906   6.660   3.088
 5207TIP3   OH215563   1.685   7.375   1.551
 5207TIP3    H115564   1.677   7.306   1.617
 5207TIP3    H215565   1.779   7.379   1.532
 5208TIP3   OH215566   1.716   6.781   2.701
 5208TIP3    H115567   1.794   6.822   2.737
 5208TIP3    H215568   1.703   6.703   2.754
 5209TIP3   OH215569   1.595   6.535   1.867
 5209TIP3    H115570   1.584   6.559   1.774
 5209TIP3    H215571   1.637   6.612   1.906
 5210TIP3   OH215572   1.283   6.716   1.972
 5210TIP3    H115573   1.346   6.785   1.953
 5210TIP3    H215574   1.287   6.705   2.067
 5211TIP3   OH215575   1.553   7.030   2.774
 5211TIP3    H115576   1.577   7.083   2.850
 5211TIP3    H215577   1.606   6.950   2.783
 5212TIP3   OH215578   1.427   6.439   2.069
 5212TIP3    H115579   1.423   6.511   2.132
 5212TIP3    H215580   1.487   6.470   2.001
 5213TIP3   OH215581   0.953   6.438   1.855
 5213TIP3    H115582   0.939   6.527   1.887
 5213TIP3    H215583   1.047   6.424   1.863
 5214TIP3   OH215584   2.187   6.931   2.755
 5214TIP3    H115585   2.091   6.931   2.764
 5214TIP3    H215586   2.204   6.889   2.671
 5215TIP3   OH215587   1.842   7.125   2.146
 5215TIP3    H115588   1.767   7.068   2.158
 5215TIP3    H215589   1.913   7.081   2.193
 5216TIP3   OH215590   0.887   6.348   2.618
 5216TIP3    H115591   0.858   6.316   2.533
 5216TIP3    H215592   0.877   6.272   2.677
 5217TIP3   OH215593   0.714   7.495   3.257
 5217TIP3    H115594   0.738   7.403   3.268
 5217TIP3    H215595   0.625   7.492   3.221
 5218TIP3   OH215596   1.334   7.574   3.072
 5218TIP3    H115597   1.300   7.591   2.984
 5218TIP3    H215598   1.370   7.486   3.067
 5219TIP3   OH215599   1.809   7.609   2.648
 5219TIP3    H115600   1.881   7.657   2.606
 5219TIP3    H215601   1.736   7.671   2.648
 5220TIP3   OH215602   0.842   7.247   3.259
 5220TIP3    H115603   0.919   7.196   3.233
 5220TIP3    H215604   0.864   7.281   3.345
 5221TIP3   OH215605   0.942   7.066   1.738
 5221TIP3    H115606   0.895   7.028   1.812
 5221TIP3    H215607   0.942   6.997   1.672
 5222TIP3   OH215608   1.166   7.135   2.912
 5222TIP3    H115609   1.092   7.195   2.918
 5222TIP3    H215610   1.217   7.168   2.838
 5223TIP3   OH215611   1.029   6.860   1.511
 5223TIP3    H115612   1.040   6.810   1.429
 5223TIP3    H215613   1.117   6.889   1.533
 5224TIP3   OH215614   1.690   7.529   3.046
 5224TIP3    H115615   1.775   7.514   3.004
 5224TIP3    H215616   1.689   7.469   3.120
 5225TIP3   OH215617   1.829   7.206   1.185
 5225TIP3    H115618   1.805   7.162   1.103
 5225TIP3    H215619   1.797   7.295   1.174
 5226TIP3   OH215620   1.291   6.926   3.039
 5226TIP3    H115621   1.293   6.848   2.985
 5226TIP3    H215622   1.249   6.992   2.985
 5227TIP3   OH215623   1.294   6.713   2.848
 5227TIP3    H115624   1.323   6.753   2.766
 5227TIP3    H215625   1.203   6.689   2.831
 5228TIP3   OH215626   1.317   7.250   2.721
 5228TIP3    H115627   1.401   7.258   2.677
 5228TIP3    H215628   1.262   7.316   2.679
 5229TIP3   OH215629   1.905   7.215   3.103
 5229TIP3    H115630   1.954   7.133   3.106
 5229TIP3    H215631   1.969   7.280   3.072
 5230TIP3   OH215632   1.943   7.465   2.833
 5230TIP3    H115633   1.884   7.517   2.778
 5230TIP3    H215634   2.030   7.484   2.799
 5231TIP3   OH215635   1.170   7.031   3.273
 5231TIP3    H115636   1.103   6.966   3.289
 5231TIP3    H215637   1.205   7.009   3.187
 5232TIP3   OH215638   1.425   6.476   2.919
 5232TIP3    H115639   1.379   6.557   2.896
 5232TIP3    H215640   1.359   6.407   2.907
 5233TIP3   OH215641   1.550   6.976   3.135
 5233TIP3    H115642   1.541   6.965   3.230
 5233TIP3    H215643   1.464   6.954   3.099
 5234TIP3   OH215644   1.791   6.927   2.989
 5234TIP3    H115645   1.716   6.929   3.048
 5234TIP3    H215646   1.865   6.899   3.044
 5235TIP3   OH215647   2.019   6.871   3.141
 5235TIP3    H115648   2.032   6.777   3.155
 5235TIP3    H215649   2.016   6.908   3.230
 5236TIP3   OH215650   1.009   6.812   3.330
 5236TIP3    H115651   1.013   6.723   3.294
 5236TIP3    H215652   1.044   6.804   3.419
 5237TIP3   OH215653   1.518   6.482   3.177
 5237TIP3    H115654   1.586   6.414   3.172
 5237TIP3    H215655   1.478   6.481   3.090
 5238TIP3   OH215656   1.584   6.696   3.338
 5238TIP3    H115657   1.565   6.627   3.275
 5238TIP3    H215658   1.509   6.755   3.331
 5239TIP3   OH215659   2.171   7.887   2.884
 5239TIP3    H115660   2.098   7.868   2.944
 5239TIP3    H215661   2.196   7.977   2.903
 5240TIP3   OH215662   1.956   7.374   1.531
 5240TIP3    H115663   2.024   7.433   1.498
 5240TIP3    H215664   1.995   7.334   1.609
 5241TIP3   OH215665   2.084   7.248   1.732
 5241TIP3    H115666   2.023   7.206   1.793
 5241TIP3    H215667   2.153   7.283   1.788
 5242TIP3   OH215668   2.123   7.636   2.153
 5242TIP3    H115669   2.189   7.582   2.110
 5242TIP3    H215670   2.130   7.721   2.110
 5243TIP3   OH215671   2.022   7.159   1.375
 5243TIP3    H115672   1.955   7.160   1.308
 5243TIP3    H215673   1.998   7.231   1.434
 5244TIP3   OH215674   1.891   6.830   1.329
 5244TIP3    H115675   1.848   6.869   1.253
 5244TIP3    H215676   1.871   6.736   1.322
 5245TIP3   OH215677   1.898   7.105   1.879
 5245TIP3    H115678   1.908   7.010   1.870
 5245TIP3    H215679   1.884   7.118   1.973
 5246TIP3   OH215680   0.526   7.188   2.620
 5246TIP3    H115681   0.520   7.152   2.531
 5246TIP3    H215682   0.619   7.189   2.640
 5247TIP3   OH215683   2.187   7.528   2.733
 5247TIP3    H115684   2.258   7.465   2.723
 5247TIP3    H215685   2.213   7.602   2.679
 5248TIP3   OH215686   2.372   7.331   2.742
 5248TIP3    H115687   2.298   7.287   2.783
 5248TIP3    H215688   2.446   7.272   2.758
 5249TIP3   OH215689   1.837   6.564   1.314
 5249TIP3    H115690   1.912   6.535   1.365
 5249TIP3    H215691   1.767   6.504   1.338
 5250TIP3   OH215692   1.898   6.822   1.766
 5250TIP3    H115693   1.936   6.736   1.783
 5250TIP3    H215694   1.953   6.859   1.696
 5251TIP3   OH215695   2.058   6.998   2.265
 5251TIP3    H115696   2.140   7.019   2.222
 5251TIP3    H215697   2.067   7.032   2.354
 5252TIP3   OH215698   2.125   7.143   2.495
 5252TIP3    H115699   2.050   7.175   2.546
 5252TIP3    H215700   2.159   7.221   2.451
 5253TIP3   OH215701   0.743   6.861   3.290
 5253TIP3    H115702   0.838   6.860   3.296
 5253TIP3    H215703   0.716   6.779   3.333
 5254TIP3   OH215704   2.572   6.731   3.048
 5254TIP3    H115705   2.634   6.669   3.012
 5254TIP3    H215706   2.546   6.786   2.974
 5255TIP3   OH215707   2.003   6.573   1.809
 5255TIP3    H115708   2.052   6.559   1.890
 5255TIP3    H215709   1.943   6.498   1.805
 5256TIP3   OH215710   0.707   6.558   2.629
 5256TIP3    H115711   0.765   6.482   2.637
 5256TIP3    H215712   0.766   6.633   2.621
 5257TIP3   OH215713   0.507   6.833   2.699
 5257TIP3    H115714   0.554   6.825   2.616
 5257TIP3    H215715   0.538   6.915   2.736
 5258TIP3   OH215716   2.443   6.871   2.853
 5258TIP3    H115717   2.361   6.914   2.875
 5258TIP3    H215718   2.418   6.797   2.798
 5259TIP3   OH215719   2.082   6.507   1.438
 5259TIP3    H115720   2.121   6.436   1.388
 5259TIP3    H215721   2.148   6.576   1.437
 5260TIP3   OH215722   0.484   6.371   2.208
 5260TIP3    H115723   0.399   6.336   2.233
 5260TIP3    H215724   0.473   6.397   2.117
 5261TIP3   OH215725   0.709   6.420   3.017
 5261TIP3    H115726   0.659   6.412   3.099
 5261TIP3    H215727   0.645   6.454   2.954
 5262TIP3   OH215728   2.346   6.630   2.736
 5262TIP3    H115729   2.257   6.623   2.702
 5262TIP3    H215730   2.382   6.541   2.727
 5263TIP3   OH215731   1.548   6.545   2.352
 5263TIP3    H115732   1.508   6.477   2.406
 5263TIP3    H215733   1.623   6.503   2.311
 5264TIP3   OH215734   2.071   6.432   2.258
 5264TIP3    H115735   2.108   6.481   2.185
 5264TIP3    H215736   1.977   6.450   2.253
 5265TIP3   OH215737   2.171   6.531   2.022
 5265TIP3    H115738   2.241   6.476   1.987
 5265TIP3    H215739   2.202   6.620   2.010
 5266TIP3   OH215740   0.799   6.254   2.372
 5266TIP3    H115741   0.708   6.225   2.372
 5266TIP3    H215742   0.850   6.173   2.367
 5267TIP3   OH215743   0.605   6.116   2.040
 5267TIP3    H115744   0.652   6.165   1.972
 5267TIP3    H215745   0.552   6.182   2.084
 5268TIP3   OH215746   1.245   6.294   2.253
 5268TIP3    H115747   1.303   6.339   2.191
 5268TIP3    H215748   1.273   6.325   2.339
 5269TIP3   OH215749   1.787   6.435   2.236
 5269TIP3    H115750   1.792   6.396   2.149
 5269TIP3    H215751   1.777   6.360   2.295
 5270TIP3   OH215752   1.818   6.361   1.800
 5270TIP3    H115753   1.734   6.404   1.815
 5270TIP3    H215754   1.809   6.275   1.843
 5271TIP3   OH215755   0.739   6.257   1.848
 5271TIP3    H115756   0.752   6.214   1.763
 5271TIP3    H215757   0.810   6.320   1.855
 5272TIP3   OH215758   1.226   6.468   1.879
 5272TIP3    H115759   1.277   6.415   1.939
 5272TIP3    H215760   1.244   6.558   1.906
 5273TIP3   OH215761   1.008   6.538   3.266
 5273TIP3    H115762   0.972   6.468   3.319
 5273TIP3    H215763   1.101   6.540   3.289
 5274TIP3   OH215764   1.258   6.536   3.381
 5274TIP3    H115765   1.341   6.515   3.339
 5274TIP3    H215766   1.245   6.466   3.445
 5275TIP3   OH215767   2.087   6.601   3.171
 5275TIP3    H115768   2.107   6.571   3.260
 5275TIP3    H215769   2.171   6.598   3.125
 5276TIP3   OH215770   3.288   7.506   1.432
 5276TIP3    H115771   3.256   7.594   1.411
 5276TIP3    H215772   3.220   7.448   1.400
 5277TIP3   OH215773   3.291   7.515   1.804
 5277TIP3    H115774   3.319   7.508   1.895
 5277TIP3    H215775   3.244   7.434   1.787
 5278TIP3   OH215776   2.586   7.416   2.175
 5278TIP3    H115777   2.615   7.348   2.236
 5278TIP3    H215778   2.657   7.480   2.175
 5279TIP3   OH215779   3.508   7.823   1.502
 5279TIP3    H115780   3.505   7.752   1.566
 5279TIP3    H215781   3.560   7.891   1.544
 5280TIP3   OH215782   2.613   7.765   1.972
 5280TIP3    H115783   2.582   7.681   1.941
 5280TIP3    H215784   2.696   7.778   1.926
 5281TIP3   OH215785   2.263   7.028   1.680
 5281TIP3    H115786   2.221   7.112   1.698
 5281TIP3    H215787   2.194   6.976   1.639
 5282TIP3   OH215788   2.322   7.316   1.857
 5282TIP3    H115789   2.368   7.239   1.891
 5282TIP3    H215790   2.391   7.371   1.821
 5283TIP3   OH215791   3.106   7.735   1.850
 5283TIP3    H115792   3.146   7.660   1.806
 5283TIP3    H215793   3.179   7.788   1.881
 5284TIP3   OH215794   4.116   7.065   1.856
 5284TIP3    H115795   4.127   7.150   1.901
 5284TIP3    H215796   4.133   7.085   1.764
 5285TIP3   OH215797   3.511   7.201   1.912
 5285TIP3    H115798   3.444   7.133   1.908
 5285TIP3    H215799   3.511   7.241   1.825
 5286TIP3   OH215800   2.837   6.909   1.851
 5286TIP3    H115801   2.819   6.982   1.791
 5286TIP3    H215802   2.791   6.834   1.812
 5287TIP3   OH215803   3.534   7.005   1.480
 5287TIP3    H115804   3.598   6.989   1.550
 5287TIP3    H215805   3.587   7.034   1.405
 5288TIP3   OH215806   2.471   7.110   1.961
 5288TIP3    H115807   2.551   7.093   2.011
 5288TIP3    H215808   2.481   7.058   1.882
 5289TIP3   OH215809   2.909   7.308   1.755
 5289TIP3    H115810   3.001   7.287   1.766
 5289TIP3    H215811   2.869   7.226   1.724
 5290TIP3   OH215812   4.160   7.279   2.045
 5290TIP3    H115813   4.089   7.336   2.018
 5290TIP3    H215814   4.208   7.330   2.111
 5291TIP3   OH215815   2.830   6.894   2.290
 5291TIP3    H115816   2.774   6.930   2.221
 5291TIP3    H215817   2.781   6.908   2.371
 5292TIP3   OH215818   3.169   7.711   1.296
 5292TIP3    H115819   3.126   7.709   1.211
 5292TIP3    H215820   3.196   7.802   1.307
 5293TIP3   OH215821   2.936   7.673   2.083
 5293TIP3    H115822   2.873   7.736   2.118
 5293TIP3    H215823   2.974   7.716   2.007
 5294TIP3   OH215824   3.732   7.006   1.668
 5294TIP3    H115825   3.779   6.926   1.692
 5294TIP3    H215826   3.792   7.077   1.690
 5295TIP3   OH215827   2.708   7.009   2.071
 5295TIP3    H115828   2.765   7.081   2.095
 5295TIP3    H215829   2.753   6.966   1.997
 5296TIP3   OH215830   2.762   7.883   2.187
 5296TIP3    H115831   2.721   7.881   2.100
 5296TIP3    H215832   2.688   7.880   2.248
 5297TIP3   OH215833   2.162   7.520   1.427
 5297TIP3    H115834   2.128   7.545   1.341
 5297TIP3    H215835   2.183   7.603   1.469
 5298TIP3   OH215836   3.184   6.606   2.010
 5298TIP3    H115837   3.172   6.512   2.025
 5298TIP3    H215838   3.109   6.647   2.053
 5299TIP3   OH215839   3.536   7.839   1.218
 5299TIP3    H115840   3.505   7.761   1.173
 5299TIP3    H215841   3.543   7.812   1.310
 5300TIP3   OH215842   3.829   7.976   1.992
 5300TIP3    H115843   3.813   7.894   1.946
 5300TIP3    H215844   3.782   8.042   1.941
 5301TIP3   OH215845   3.119   7.369   1.264
 5301TIP3    H115846   3.039   7.419   1.247
 5301TIP3    H215847   3.163   7.365   1.179
 5302TIP3   OH215848   3.080   7.158   0.975
 5302TIP3    H115849   3.144   7.212   1.022
 5302TIP3    H215850   3.132   7.095   0.927
 5303TIP3   OH215851   4.026   7.614   1.845
 5303TIP3    H115852   3.943   7.662   1.855
 5303TIP3    H215853   4.058   7.640   1.759
 5304TIP3   OH215854   3.467   7.449   1.237
 5304TIP3    H115855   3.411   7.471   1.311
 5304TIP3    H215856   3.551   7.424   1.277
 5305TIP3   OH215857   3.680   7.491   2.120
 5305TIP3    H115858   3.703   7.559   2.183
 5305TIP3    H215859   3.600   7.521   2.079
 5306TIP3   OH215860   2.703   7.452   1.638
 5306TIP3    H115861   2.661   7.394   1.575
 5306TIP3    H215862   2.778   7.402   1.671
 5307TIP3   OH215863   2.838   7.819   1.842
 5307TIP3    H115864   2.801   7.818   1.754
 5307TIP3    H215865   2.933   7.818   1.828
 5308TIP3   OH215866   2.833   7.430   1.998
 5308TIP3    H115867   2.866   7.408   1.911
 5308TIP3    H215868   2.874   7.514   2.019
 5309TIP3   OH215869   3.007   7.887   2.325
 5309TIP3    H115870   2.979   7.975   2.352
 5309TIP3    H215871   2.935   7.855   2.271
 5310TIP3   OH215872   3.302   7.316   1.059
 5310TIP3    H115873   3.361   7.371   1.110
 5310TIP3    H215874   3.329   7.330   0.968
 5311TIP3   OH215875   2.726   7.537   2.428
 5311TIP3    H115876   2.736   7.623   2.468
 5311TIP3    H215877   2.634   7.515   2.442
 5312TIP3   OH215878   3.820   6.561   1.107
 5312TIP3    H115879   3.739   6.579   1.155
 5312TIP3    H215880   3.834   6.639   1.053
 5313TIP3   OH215881   2.566   7.296   1.449
 5313TIP3    H115882   2.501   7.338   1.393
 5313TIP3    H215883   2.528   7.210   1.468
 5314TIP3   OH215884   2.362   7.679   2.359
 5314TIP3    H115885   2.294   7.658   2.296
 5314TIP3    H215886   2.396   7.594   2.388
 5315TIP3   OH215887   3.968   7.455   2.322
 5315TIP3    H115888   3.883   7.498   2.313
 5315TIP3    H215889   3.947   7.363   2.335
 5316TIP3   OH215890   2.552   7.881   2.362
 5316TIP3    H115891   2.606   7.846   2.433
 5316TIP3    H215892   2.480   7.818   2.353
 5317TIP3   OH215893   2.945   6.690   2.133
 5317TIP3    H115894   2.861   6.655   2.104
 5317TIP3    H215895   2.923   6.769   2.183
 5318TIP3   OH215896   3.481   6.803   2.321
 5318TIP3    H115897   3.548   6.779   2.384
 5318TIP3    H215898   3.398   6.788   2.366
 5319TIP3   OH215899   3.718   7.242   2.213
 5319TIP3    H115900   3.682   7.228   2.301
 5319TIP3    H215901   3.708   7.336   2.198
 5320TIP3   OH215902   3.388   7.350   0.809
 5320TIP3    H115903   3.345   7.332   0.726
 5320TIP3    H215904   3.457   7.413   0.787
 5321TIP3   OH215905   3.091   6.733   1.105
 5321TIP3    H115906   3.060   6.734   1.195
 5321TIP3    H215907   3.056   6.652   1.067
 5322TIP3   OH215908   2.883   7.207   2.148
 5322TIP3    H115909   2.835   7.222   2.230
 5322TIP3    H215910   2.866   7.286   2.096
 5323TIP3   OH215911   2.763   7.088   1.663
 5323TIP3    H115912   2.673   7.065   1.684
 5323TIP3    H215913   2.778   7.050   1.576
 5324TIP3   OH215914   3.258   7.172   1.395
 5324TIP3    H115915   3.205   7.240   1.353
 5324TIP3    H215916   3.313   7.138   1.324
 5325TIP3   OH215917   3.432   7.449   2.473
 5325TIP3    H115918   3.409   7.382   2.538
 5325TIP3    H215919   3.520   7.478   2.498
 5326TIP3   OH215920   3.418   7.203   1.634
 5326TIP3    H115921   3.354   7.241   1.573
 5326TIP3    H215922   3.448   7.123   1.590
 5327TIP3   OH215923   2.703   7.230   2.359
 5327TIP3    H115924   2.723   7.297   2.424
 5327TIP3    H215925   2.690   7.150   2.410
 5328TIP3   OH215926   2.749   6.712   1.070
 5328TIP3    H115927   2.742   6.708   1.166
 5328TIP3    H215928   2.672   6.763   1.043
 5329TIP3   OH215929   2.294   6.753   1.940
 5329TIP3    H115930   2.367   6.785   1.994
 5329TIP3    H215931   2.336   6.722   1.860
 5330TIP3   OH215932   2.259   6.736   1.457
 5330TIP3    H115933   2.306   6.769   1.381
 5330TIP3    H215934   2.199   6.806   1.482
 5331TIP3   OH215935   3.404   7.434   2.044
 5331TIP3    H115936   3.446   7.365   1.994
 5331TIP3    H215937   3.383   7.393   2.128
 5332TIP3   OH215938   3.095   6.923   1.729
 5332TIP3    H115939   3.016   6.913   1.781
 5332TIP3    H215940   3.165   6.892   1.786
 5333TIP3   OH215941   2.526   6.968   1.732
 5333TIP3    H115942   2.434   6.975   1.705
 5333TIP3    H215943   2.550   6.878   1.711
 5334TIP3   OH215944   2.792   6.964   1.421
 5334TIP3    H115945   2.885   6.977   1.401
 5334TIP3    H215946   2.747   6.986   1.340
 5335TIP3   OH215947   2.639   6.998   1.196
 5335TIP3    H115948   2.570   6.952   1.149
 5335TIP3    H215949   2.693   7.036   1.127
 5336TIP3   OH215950   2.715   7.783   2.568
 5336TIP3    H115951   2.794   7.811   2.614
 5336TIP3    H215952   2.649   7.774   2.637
 5337TIP3   OH215953   3.177   7.246   1.828
 5337TIP3    H115954   3.229   7.189   1.771
 5337TIP3    H215955   3.169   7.197   1.910
 5338TIP3   OH215956   2.695   6.724   1.706
 5338TIP3    H115957   2.659   6.649   1.754
 5338TIP3    H215958   2.741   6.685   1.632
 5339TIP3   OH215959   3.154   7.147   2.107
 5339TIP3    H115960   3.063   7.173   2.121
 5339TIP3    H215961   3.205   7.205   2.163
 5340TIP3   OH215962   2.887   7.512   1.216
 5340TIP3    H115963   2.812   7.455   1.200
 5340TIP3    H215964   2.866   7.557   1.298
 5341TIP3   OH215965   3.792   7.750   1.835
 5341TIP3    H115966   3.817   7.802   1.758
 5341TIP3    H215967   3.703   7.721   1.816
 5342TIP3   OH215968   3.345   6.835   1.081
 5342TIP3    H115969   3.251   6.818   1.083
 5342TIP3    H215970   3.353   6.929   1.097
 5343TIP3   OH215971   3.296   7.857   2.211
 5343TIP3    H115972   3.335   7.821   2.291
 5343TIP3    H215973   3.220   7.906   2.241
 5344TIP3   OH215974   3.415   7.089   1.177
 5344TIP3    H115975   3.510   7.094   1.188
 5344TIP3    H215976   3.394   7.164   1.122
 5345TIP3   OH215977   2.562   7.503   1.871
 5345TIP3    H115978   2.613   7.496   1.791
 5345TIP3    H215979   2.616   7.463   1.938
 5346TIP3   OH215980   2.997   7.698   1.052
 5346TIP3    H115981   2.960   7.770   1.103
 5346TIP3    H215982   2.966   7.619   1.096
 5347TIP3   OH215983   2.466   7.459   2.499
 5347TIP3    H115984   2.482   7.449   2.592
 5347TIP3    H215985   2.393   7.400   2.480
 5348TIP3   OH215986   3.191   7.570   2.524
 5348TIP3    H115987   3.128   7.520   2.471
 5348TIP3    H215988   3.276   7.545   2.490
 5349TIP3   OH215989   3.854   7.181   1.007
 5349TIP3    H115990   3.793   7.133   0.952
 5349TIP3    H215991   3.855   7.270   0.971
 5350TIP3   OH215992   6.907   0.003   2.092
 5350TIP3    H115993   6.812   0.010   2.081
 5350TIP3    H215994   6.941  -0.012   2.004
 5351TIP3   OH215995   3.550   7.631   1.731
 5351TIP3    H115996   3.460   7.613   1.759
 5351TIP3    H215997   3.582   7.548   1.696
 5352TIP3   OH215998   2.245   7.159   1.213
 5352TIP3    H115999   2.294   7.238   1.232
 5352TIP3    H216000   2.171   7.161   1.274
 5353TIP3   OH216001   2.813   7.633   1.456
 5353TIP3    H116002   2.777   7.714   1.492
 5353TIP3    H216003   2.789   7.566   1.521
 5354TIP3   OH216004   3.345   7.823   1.941
 5354TIP3    H116005   3.320   7.837   2.032
 5354TIP3    H216006   3.440   7.820   1.943
 5355TIP3   OH216007   3.348   7.668   0.792
 5355TIP3    H116008   3.382   7.653   0.880
 5355TIP3    H216009   3.265   7.714   0.805
 5356TIP3   OH216010   2.671   6.973   2.504
 5356TIP3    H116011   2.576   6.978   2.516
 5356TIP3    H216012   2.701   6.918   2.577
 5357TIP3   OH216013   3.473   7.636   1.039
 5357TIP3    H116014   3.465   7.566   1.103
 5357TIP3    H216015   3.567   7.638   1.017
 5358TIP3   OH216016   2.659   7.655   0.866
 5358TIP3    H116017   2.697   7.573   0.835
 5358TIP3    H216018   2.701   7.671   0.951
 5359TIP3   OH216019   2.364   7.398   1.291
 5359TIP3    H116020   2.300   7.433   1.353
 5359TIP3    H216021   2.374   7.468   1.226
 5360TIP3   OH216022   3.551   7.018   2.176
 5360TIP3    H116023   3.560   7.052   2.266
 5360TIP3    H216024   3.517   6.929   2.188
 5361TIP3   OH216025   3.389   6.792   1.355
 5361TIP3    H116026   3.375   6.808   1.262
 5361TIP3    H216027   3.428   6.873   1.388
 5362TIP3   OH216028   3.077   6.972   1.457
 5362TIP3    H116029   3.141   7.040   1.435
 5362TIP3    H216030   3.081   6.964   1.552
 5363TIP3   OH216031   3.366   7.285   2.270
 5363TIP3    H116032   3.365   7.361   2.327
 5363TIP3    H216033   3.403   7.215   2.324
 5364TIP3   OH216034   3.222   6.696   1.554
 5364TIP3    H116035   3.218   6.769   1.616
 5364TIP3    H216036   3.281   6.725   1.485
 5365TIP3   OH216037   2.736   6.697   1.347
 5365TIP3    H116038   2.729   6.786   1.383
 5365TIP3    H216039   2.829   6.677   1.352
 5366TIP3   OH216040   3.978   7.139   2.223
 5366TIP3    H116041   3.888   7.173   2.219
 5366TIP3    H216042   4.025   7.188   2.155
 5367TIP3   OH216043   3.637   7.378   1.636
 5367TIP3    H116044   3.564   7.315   1.634
 5367TIP3    H216045   3.708   7.331   1.677
 5368TIP3   OH216046   2.354   7.612   1.104
 5368TIP3    H116047   2.381   7.703   1.096
 5368TIP3    H216048   2.410   7.565   1.043
 5369TIP3   OH216049   2.294   6.889   1.236
 5369TIP3    H116050   2.297   6.984   1.233
 5369TIP3    H216051   2.215   6.865   1.188
 5370TIP3   OH216052   2.684   6.605   2.105
 5370TIP3    H116053   2.653   6.573   2.020
 5370TIP3    H216054   2.674   6.530   2.164
 5371TIP3   OH216055   2.511   7.755   2.744
 5371TIP3    H116056   2.532   7.662   2.754
 5371TIP3    H216057   2.422   7.755   2.708
 5372TIP3   OH216058   2.492   7.414   0.964
 5372TIP3    H116059   2.542   7.381   1.038
 5372TIP3    H216060   2.555   7.422   0.893
 5373TIP3   OH216061   3.131   7.833   2.559
 5373TIP3    H116062   3.096   7.849   2.472
 5373TIP3    H216063   3.169   7.746   2.555
 5374TIP3   OH216064   2.933   7.595   0.775
 5374TIP3    H116065   2.970   7.616   0.861
 5374TIP3    H216066   2.966   7.508   0.755
 5375TIP3   OH216067   3.589   7.834   2.069
 5375TIP3    H116068   3.671   7.883   2.080
 5375TIP3    H216069   3.532   7.868   2.139
 5376TIP3   OH216070   2.636   7.503   2.745
 5376TIP3    H116071   2.712   7.452   2.720
 5376TIP3    H216072   2.658   7.538   2.832
 5377TIP3   OH216073   2.684   7.325   1.168
 5377TIP3    H116074   2.663   7.286   1.253
 5377TIP3    H216075   2.727   7.255   1.119
 5378TIP3   OH216076   2.967   7.396   2.398
 5378TIP3    H116077   2.890   7.451   2.404
 5378TIP3    H216078   3.014   7.429   2.321
 5379TIP3   OH216079   2.801   7.125   1.015
 5379TIP3    H116080   2.773   7.124   0.923
 5379TIP3    H216081   2.896   7.129   1.010
 5380TIP3   OH216082   3.470   7.785   2.521
 5380TIP3    H116083   3.549   7.825   2.486
 5380TIP3    H216084   3.500   7.733   2.596
 5381TIP3   OH216085   3.615   7.481   0.704
 5381TIP3    H116086   3.596   7.417   0.636
 5381TIP3    H216087   3.600   7.566   0.663
 5382TIP3   OH216088   3.090   7.185   2.525
 5382TIP3    H116089   3.087   7.106   2.472
 5382TIP3    H216090   3.045   7.251   2.472
 5383TIP3   OH216091   3.089   6.971   2.333
 5383TIP3    H116092   3.116   7.009   2.249
 5383TIP3    H216093   2.998   6.945   2.320
 5384TIP3   OH216094   3.120   7.507   2.201
 5384TIP3    H116095   3.201   7.527   2.154
 5384TIP3    H216096   3.056   7.570   2.168
 5385TIP3   OH216097   3.697   7.472   2.584
 5385TIP3    H116098   3.755   7.403   2.617
 5385TIP3    H216099   3.757   7.542   2.557
 5386TIP3   OH216100   3.758   7.670   2.300
 5386TIP3    H116101   3.700   7.745   2.309
 5386TIP3    H216102   3.842   7.707   2.271
 5387TIP3   OH216103   2.966   7.289   2.760
 5387TIP3    H116104   2.899   7.222   2.777
 5387TIP3    H216105   3.001   7.266   2.674
 5388TIP3   OH216106   3.221   6.732   2.399
 5388TIP3    H116107   3.172   6.812   2.381
 5388TIP3    H216108   3.156   6.662   2.392
 5389TIP3   OH216109   3.352   7.229   2.614
 5389TIP3    H116110   3.348   7.219   2.710
 5389TIP3    H216111   3.263   7.210   2.585
 5390TIP3   OH216112   3.588   7.167   2.451
 5390TIP3    H116113   3.516   7.182   2.513
 5390TIP3    H216114   3.663   7.148   2.506
 5391TIP3   OH216115   3.812   7.125   2.618
 5391TIP3    H116116   3.825   7.032   2.637
 5391TIP3    H216117   3.805   7.166   2.704
 5392TIP3   OH216118   2.807   7.068   2.816
 5392TIP3    H116119   2.809   6.979   2.782
 5392TIP3    H216120   2.843   7.060   2.905
 5393TIP3   OH216121   3.320   6.743   2.656
 5393TIP3    H116122   3.384   6.672   2.658
 5393TIP3    H216123   3.278   6.736   2.571
 5394TIP3   OH216124   3.383   6.958   2.817
 5394TIP3    H116125   3.363   6.887   2.756
 5394TIP3    H216126   3.306   7.015   2.814
 5395TIP3   OH216127   2.083   7.528   1.113
 5395TIP3    H116128   2.170   7.567   1.106
 5395TIP3    H216129   2.091   7.442   1.073
 5396TIP3   OH216130   6.813   0.138   2.366
 5396TIP3    H116131   6.727   0.100   2.382
 5396TIP3    H216132   6.829   0.193   2.443
 5397TIP3   OH216133   3.748   7.635   1.023
 5397TIP3    H116134   3.818   7.692   0.990
 5397TIP3    H216135   3.787   7.593   1.100
 5398TIP3   OH216136   3.880   7.504   1.218
 5398TIP3    H116137   3.819   7.462   1.278
 5398TIP3    H216138   3.949   7.539   1.275
 5399TIP3   OH216139   3.918   7.894   1.642
 5399TIP3    H116140   3.985   7.843   1.597
 5399TIP3    H216141   3.925   7.981   1.603
 5400TIP3   OH216142   3.822   7.419   0.869
 5400TIP3    H116143   3.753   7.420   0.803
 5400TIP3    H216144   3.799   7.489   0.930
 5401TIP3   OH216145   3.686   7.091   0.819
 5401TIP3    H116146   3.675   7.125   0.731
 5401TIP3    H216147   3.660   6.999   0.813
 5402TIP3   OH216148   3.695   7.362   1.365
 5402TIP3    H116149   3.702   7.268   1.353
 5402TIP3    H216150   3.681   7.374   1.459
 5403TIP3   OH216151   2.322   7.443   2.108
 5403TIP3    H116152   2.316   7.408   2.019
 5403TIP3    H216153   2.416   7.443   2.127
 5404TIP3   OH216154   3.985   7.780   2.216
 5404TIP3    H116155   4.066   7.729   2.207
 5404TIP3    H216156   4.001   7.858   2.163
 5405TIP3   OH216157   4.179   7.591   2.227
 5405TIP3    H116158   4.103   7.548   2.267
 5405TIP3    H216159   4.251   7.530   2.241
 5406TIP3   OH216160   3.630   6.826   0.807
 5406TIP3    H116161   3.705   6.789   0.854
 5406TIP3    H216162   3.560   6.762   0.820
 5407TIP3   OH216163   3.697   7.082   1.256
 5407TIP3    H116164   3.733   6.994   1.271
 5407TIP3    H216165   3.749   7.116   1.183
 5408TIP3   OH216166   3.856   7.258   1.759
 5408TIP3    H116167   3.936   7.275   1.709
 5408TIP3    H216168   3.871   7.301   1.843
 5409TIP3   OH216169   3.915   7.405   1.986
 5409TIP3    H116170   3.840   7.444   2.031
 5409TIP3    H216171   3.955   7.479   1.939
 5410TIP3   OH216172   2.541   7.120   2.781
 5410TIP3    H116173   2.636   7.118   2.785
 5410TIP3    H216174   2.514   7.037   2.821
 5411TIP3   OH216175   4.354   7.015   2.542
 5411TIP3    H116176   4.423   6.949   2.535
 5411TIP3    H216177   4.343   7.048   2.453
 5412TIP3   OH216178   3.797   6.830   1.299
 5412TIP3    H116179   3.848   6.810   1.377
 5412TIP3    H216180   3.736   6.756   1.291
 5413TIP3   OH216181   2.502   6.816   2.114
 5413TIP3    H116182   2.561   6.740   2.123
 5413TIP3    H216183   2.561   6.891   2.106
 5414TIP3   OH216184   2.301   7.090   2.185
 5414TIP3    H116185   2.350   7.085   2.103
 5414TIP3    H216186   2.329   7.173   2.225
 5415TIP3   OH216187   4.237   7.136   2.335
 5415TIP3    H116188   4.168   7.173   2.390
 5415TIP3    H216189   4.193   7.072   2.280
 5416TIP3   OH216190   3.881   6.762   0.925
 5416TIP3    H116191   3.917   6.691   0.873
 5416TIP3    H216192   3.947   6.831   0.919
 5417TIP3   OH216193   2.286   6.592   1.687
 5417TIP3    H116194   2.195   6.588   1.716
 5417TIP3    H216195   2.283   6.649   1.610
 5418TIP3   OH216196   2.504   6.674   2.502
 5418TIP3    H116197   2.457   6.667   2.585
 5418TIP3    H216198   2.440   6.710   2.441
 5419TIP3   OH216199   4.135   6.888   2.229
 5419TIP3    H116200   4.050   6.930   2.212
 5419TIP3    H216201   4.120   6.796   2.209
 5420TIP3   OH216202   3.322   6.801   1.837
 5420TIP3    H116203   3.294   6.731   1.897
 5420TIP3    H216204   3.408   6.774   1.807
 5421TIP3   OH216205   3.867   6.713   1.765
 5421TIP3    H116206   3.907   6.741   1.682
 5421TIP3    H216207   3.774   6.703   1.744
 5422TIP3   OH216208   3.964   6.785   1.517
 5422TIP3    H116209   4.030   6.728   1.478
 5422TIP3    H216210   3.996   6.874   1.501
 5423TIP3   OH216211   2.594   6.510   1.858
 5423TIP3    H116212   2.503   6.481   1.861
 5423TIP3    H216213   2.645   6.429   1.855
 5424TIP3   OH216214   2.381   6.388   1.507
 5424TIP3    H116215   2.413   6.441   1.435
 5424TIP3    H216216   2.356   6.451   1.575
 5425TIP3   OH216217   3.042   6.548   1.739
 5425TIP3    H116218   3.099   6.592   1.677
 5425TIP3    H216219   3.067   6.584   1.824
 5426TIP3   OH216220   3.592   6.689   1.719
 5426TIP3    H116221   3.580   6.653   1.632
 5426TIP3    H216222   3.575   6.615   1.778
 5427TIP3   OH216223   3.614   6.619   1.289
 5427TIP3    H116224   3.529   6.661   1.298
 5427TIP3    H216225   3.603   6.533   1.330
 5428TIP3   OH216226   2.504   6.544   1.268
 5428TIP3    H116227   2.549   6.480   1.212
 5428TIP3    H216228   2.575   6.597   1.304
 5429TIP3   OH216229   3.012   6.722   1.370
 5429TIP3    H116230   3.069   6.671   1.427
 5429TIP3    H216231   3.031   6.813   1.392
 5430TIP3   OH216232   2.805   6.794   2.753
 5430TIP3    H116233   2.768   6.724   2.807
 5430TIP3    H216234   2.898   6.796   2.777
 5431TIP3   OH216235   3.054   6.789   2.871
 5431TIP3    H116236   3.139   6.763   2.834
 5431TIP3    H216237   3.038   6.724   2.940
 5432TIP3   OH216238   3.879   6.856   2.659
 5432TIP3    H116239   3.891   6.826   2.749
 5432TIP3    H216240   3.966   6.849   2.620
 5433TIP3   OH216241   5.076   7.773   0.920
 5433TIP3    H116242   5.054   7.863   0.894
 5433TIP3    H216243   5.011   7.719   0.877
 5434TIP3   OH216244   5.088   7.778   1.297
 5434TIP3    H116245   5.118   7.754   1.385
 5434TIP3    H216246   5.042   7.700   1.265
 5435TIP3   OH216247   4.383   7.674   1.660
 5435TIP3    H116248   4.413   7.606   1.721
 5435TIP3    H216249   4.452   7.740   1.662
 5436TIP3   OH216250   8.139   0.065   0.985
 5436TIP3    H116251   8.143  -0.012   1.042
 5436TIP3    H216252   8.188   0.132   1.032
 5437TIP3   OH216253   4.412   8.023   1.461
 5437TIP3    H116254   4.380   7.938   1.431
 5437TIP3    H216255   4.494   8.036   1.413
 5438TIP3   OH216256   4.058   7.284   1.167
 5438TIP3    H116257   4.014   7.368   1.185
 5438TIP3    H216258   3.991   7.231   1.124
 5439TIP3   OH216259   4.117   7.573   1.345
 5439TIP3    H116260   4.164   7.496   1.379
 5439TIP3    H216261   4.185   7.626   1.304
 5440TIP3   OH216262   4.901   7.995   1.337
 5440TIP3    H116263   4.944   7.918   1.299
 5440TIP3    H216264   4.973   8.050   1.367
 5441TIP3   OH216265   5.894   7.325   1.346
 5441TIP3    H116266   5.921   7.405   1.391
 5441TIP3    H216267   5.911   7.342   1.254
 5442TIP3   OH216268   5.293   7.503   1.376
 5442TIP3    H116269   5.335   7.421   1.400
 5442TIP3    H216270   5.264   7.490   1.286
 5443TIP3   OH216271   4.635   7.164   1.336
 5443TIP3    H116272   4.614   7.238   1.278
 5443TIP3    H216273   4.590   7.090   1.297
 5444TIP3   OH216274   5.329   7.261   0.960
 5444TIP3    H116275   5.397   7.248   1.026
 5444TIP3    H216276   5.377   7.287   0.881
 5445TIP3   OH216277   4.266   7.365   1.449
 5445TIP3    H116278   4.347   7.348   1.497
 5445TIP3    H216279   4.274   7.313   1.370
 5446TIP3   OH216280   4.706   7.564   1.241
 5446TIP3    H116281   4.797   7.541   1.254
 5446TIP3    H216282   4.664   7.483   1.210
 5447TIP3   OH216283   5.967   7.536   1.515
 5447TIP3    H116284   5.886   7.582   1.494
 5447TIP3    H216285   5.991   7.568   1.602
 5448TIP3   OH216286   4.626   7.151   1.777
 5448TIP3    H116287   4.571   7.186   1.706
 5448TIP3    H216288   4.575   7.168   1.856
 5449TIP3   OH216289   4.959   7.975   0.749
 5449TIP3    H116290   4.880   7.925   0.732
 5449TIP3    H216291   4.928   8.055   0.791
 5450TIP3   OH216292   4.731   7.932   1.568
 5450TIP3    H116293   4.666   7.993   1.603
 5450TIP3    H216294   4.766   7.976   1.490
 5451TIP3   OH216295   5.531   7.268   1.147
 5451TIP3    H116296   5.572   7.201   1.202
 5451TIP3    H216297   5.578   7.348   1.166
 5452TIP3   OH216298   4.505   7.265   1.556
 5452TIP3    H116299   4.562   7.338   1.581
 5452TIP3    H216300   4.550   7.223   1.483
 5453TIP3   OH216301   7.392   0.125   1.676
 5453TIP3    H116302   7.351   0.122   1.589
 5453TIP3    H216303   7.319   0.123   1.737
 5454TIP3   OH216304   3.957   7.777   0.916
 5454TIP3    H116305   3.916   7.796   0.831
 5454TIP3    H216306   3.976   7.864   0.952
 5455TIP3   OH216307   5.689   7.205   1.501
 5455TIP3    H116308   5.614   7.264   1.492
 5455TIP3    H216309   5.752   7.236   1.436
 5456TIP3   OH216310   4.978   6.868   1.495
 5456TIP3    H116311   4.970   6.773   1.510
 5456TIP3    H216312   4.902   6.905   1.539
 5457TIP3   OH216313   8.451   0.220   1.489
 5457TIP3    H116314   8.438   0.143   1.435
 5457TIP3    H216315   8.475   0.289   1.428
 5458TIP3   OH216316   4.919   7.633   0.738
 5458TIP3    H116317   4.835   7.679   0.736
 5458TIP3    H216318   4.948   7.633   0.647
 5459TIP3   OH216319   5.815   7.873   1.328
 5459TIP3    H116320   5.733   7.921   1.340
 5459TIP3    H216321   5.844   7.897   1.240
 5460TIP3   OH216322   5.264   7.721   0.729
 5460TIP3    H116323   5.207   7.743   0.803
 5460TIP3    H216324   5.346   7.692   0.769
 5461TIP3   OH216325   5.494   7.754   1.631
 5461TIP3    H116326   5.497   7.835   1.682
 5461TIP3    H216327   5.409   7.756   1.587
 5462TIP3   OH216328   4.496   7.707   1.127
 5462TIP3    H116329   4.456   7.651   1.062
 5462TIP3    H216330   4.573   7.659   1.157
 5463TIP3   OH216331   7.469   0.062   1.327
 5463TIP3    H116332   7.430   0.059   1.240
 5463TIP3    H216333   7.563   0.059   1.311
 5464TIP3   OH216334   4.632   7.686   1.484
 5464TIP3    H116335   4.664   7.664   1.397
 5464TIP3    H216336   4.672   7.770   1.504
 5465TIP3   OH216337   7.641   0.131   1.809
 5465TIP3    H116338   7.611   0.219   1.834
 5465TIP3    H216339   7.569   0.095   1.758
 5466TIP3   OH216340   4.522   7.793   1.915
 5466TIP3    H116341   4.533   7.879   1.955
 5466TIP3    H216342   4.430   7.771   1.929
 5467TIP3   OH216343   4.361   7.549   0.937
 5467TIP3    H116344   4.296   7.593   0.882
 5467TIP3    H216345   4.326   7.462   0.952
 5468TIP3   OH216346   4.161   7.938   1.849
 5468TIP3    H116347   4.085   7.926   1.792
 5468TIP3    H216348   4.189   7.849   1.870
 5469TIP3   OH216349   5.752   7.713   1.808
 5469TIP3    H116350   5.668   7.729   1.766
 5469TIP3    H216351   5.765   7.619   1.803
 5470TIP3   OH216352   7.183   0.124   1.851
 5470TIP3    H116353   7.235   0.086   1.921
 5470TIP3    H216354   7.109   0.064   1.840
 5471TIP3   OH216355   4.741   6.946   1.622
 5471TIP3    H116356   4.657   6.911   1.591
 5471TIP3    H216357   4.718   7.025   1.669
 5472TIP3   OH216358   5.280   7.059   1.810
 5472TIP3    H116359   5.354   7.029   1.863
 5472TIP3    H216360   5.202   7.033   1.860
 5473TIP3   OH216361   5.519   7.492   1.732
 5473TIP3    H116362   5.471   7.486   1.815
 5473TIP3    H216363   5.494   7.578   1.697
 5474TIP3   OH216364   4.907   6.996   0.594
 5474TIP3    H116365   4.863   6.987   0.678
 5474TIP3    H216366   4.875   6.922   0.542
 5475TIP3   OH216367   4.677   7.464   1.636
 5475TIP3    H116368   4.628   7.480   1.717
 5475TIP3    H216369   4.662   7.542   1.583
 5476TIP3   OH216370   4.559   7.345   1.150
 5476TIP3    H116371   4.468   7.321   1.171
 5476TIP3    H216372   4.574   7.308   1.064
 5477TIP3   OH216373   5.049   7.438   0.878
 5477TIP3    H116374   4.989   7.503   0.842
 5477TIP3    H216375   5.120   7.433   0.815
 5478TIP3   OH216376   5.229   7.704   1.963
 5478TIP3    H116377   5.204   7.635   2.024
 5478TIP3    H216378   5.320   7.724   1.985
 5479TIP3   OH216379   5.211   7.459   1.115
 5479TIP3    H116380   5.148   7.497   1.053
 5479TIP3    H216381   5.244   7.381   1.071
 5480TIP3   OH216382   4.499   7.489   1.846
 5480TIP3    H116383   4.516   7.558   1.910
 5480TIP3    H216384   4.489   7.409   1.899
 5481TIP3   OH216385   4.536   6.941   0.578
 5481TIP3    H116386   4.524   6.947   0.673
 5481TIP3    H216387   4.486   7.015   0.542
 5482TIP3   OH216388   4.084   7.009   1.436
 5482TIP3    H116389   4.163   7.039   1.481
 5482TIP3    H216390   4.115   6.980   1.350
 5483TIP3   OH216391   4.058   6.993   0.945
 5483TIP3    H116392   4.106   7.025   0.868
 5483TIP3    H216393   3.997   7.064   0.965
 5484TIP3   OH216394   5.220   7.703   1.542
 5484TIP3    H116395   5.251   7.635   1.481
 5484TIP3    H216396   5.189   7.655   1.618
 5485TIP3   OH216397   4.890   7.167   1.215
 5485TIP3    H116398   4.805   7.162   1.259
 5485TIP3    H216399   4.954   7.169   1.287
 5486TIP3   OH216400   4.320   7.224   1.219
 5486TIP3    H116401   4.229   7.233   1.194
 5486TIP3    H216402   4.343   7.134   1.197
 5487TIP3   OH216403   4.592   7.225   0.909
 5487TIP3    H116404   4.683   7.233   0.882
 5487TIP3    H216405   4.542   7.252   0.831
 5488TIP3   OH216406   5.372   7.170   1.434
 5488TIP3    H116407   5.356   7.216   1.517
 5488TIP3    H216408   5.285   7.156   1.397
 5489TIP3   OH216409   4.419   7.270   0.697
 5489TIP3    H116410   4.341   7.223   0.667
 5489TIP3    H216411   4.486   7.249   0.631
 5490TIP3   OH216412   7.346   0.025   2.056
 5490TIP3    H116413   7.424   0.054   2.104
 5490TIP3    H216414   7.279   0.016   2.123
 5491TIP3   OH216415   4.971   7.497   1.312
 5491TIP3    H116416   5.043   7.457   1.263
 5491TIP3    H216417   4.975   7.457   1.398
 5492TIP3   OH216418   4.495   6.979   1.191
 5492TIP3    H116419   4.458   6.905   1.238
 5492TIP3    H216420   4.525   6.942   1.108
 5493TIP3   OH216421   4.947   7.399   1.598
 5493TIP3    H116422   4.858   7.431   1.612
 5493TIP3    H216423   5.002   7.457   1.650
 5494TIP3   OH216424   4.698   7.784   0.709
 5494TIP3    H116425   4.628   7.722   0.687
 5494TIP3    H216426   4.669   7.825   0.790
 5495TIP3   OH216427   8.416  -0.002   1.326
 5495TIP3    H116428   8.444   0.048   1.249
 5495TIP3    H216429   8.332  -0.039   1.301
 5496TIP3   OH216430   7.927   0.110   1.694
 5496TIP3    H116431   7.960   0.062   1.770
 5496TIP3    H216432   7.843   0.146   1.723
 5497TIP3   OH216433   4.358   7.763   1.359
 5497TIP3    H116434   4.408   7.753   1.278
 5497TIP3    H216435   4.411   7.720   1.426
 5498TIP3   OH216436   4.263   7.713   1.984
 5498TIP3    H116437   4.277   7.704   2.079
 5498TIP3    H216438   4.187   7.658   1.965
 5499TIP3   OH216439   4.988   7.829   2.009
 5499TIP3    H116440   4.923   7.779   1.958
 5499TIP3    H216441   5.073   7.798   1.976
 5500TIP3   OH216442   0.206   0.257   1.577
 5500TIP3    H116443   0.112   0.271   1.570
 5500TIP3    H216444   0.237   0.246   1.487
 5501TIP3   OH216445   5.349   7.885   1.233
 5501TIP3    H116446   5.257   7.863   1.251
 5501TIP3    H216447   5.384   7.805   1.194
 5502TIP3   OH216448   4.049   7.408   0.713
 5502TIP3    H116449   4.094   7.491   0.727
 5502TIP3    H216450   3.969   7.414   0.765
 5503TIP3   OH216451   4.617   7.882   0.948
 5503TIP3    H116452   4.586   7.970   0.969
 5503TIP3    H216453   4.582   7.827   1.018
 5504TIP3   OH216454   7.974   0.073   1.423
 5504TIP3    H116455   7.961   0.085   1.517
 5504TIP3    H216456   8.058   0.027   1.417
 5505TIP3   OH216457   4.467   7.229   1.993
 5505TIP3    H116458   4.372   7.234   2.007
 5505TIP3    H216459   4.499   7.173   2.064
 5506TIP3   OH216460   4.162   7.654   0.782
 5506TIP3    H116461   4.097   7.689   0.843
 5506TIP3    H216462   4.177   7.726   0.720
 5507TIP3   OH216463   5.319   7.289   1.668
 5507TIP3    H116464   5.386   7.336   1.718
 5507TIP3    H216465   5.297   7.214   1.723
 5508TIP3   OH216466   5.172   7.052   0.845
 5508TIP3    H116467   5.138   7.076   0.758
 5508TIP3    H216468   5.223   7.128   0.872
 5509TIP3   OH216469   4.881   7.225   0.944
 5509TIP3    H116470   4.940   7.297   0.923
 5509TIP3    H216471   4.880   7.224   1.040
 5510TIP3   OH216472   5.146   7.545   1.751
 5510TIP3    H116473   5.164   7.604   1.824
 5510TIP3    H216474   5.197   7.466   1.771
 5511TIP3   OH216475   5.023   6.959   1.055
 5511TIP3    H116476   4.991   7.040   1.095
 5511TIP3    H216477   5.077   6.989   0.982
 5512TIP3   OH216478   4.530   6.957   0.854
 5512TIP3    H116479   4.531   7.049   0.882
 5512TIP3    H216480   4.622   6.933   0.849
 5513TIP3   OH216481   5.783   7.447   1.731
 5513TIP3    H116482   5.688   7.442   1.740
 5513TIP3    H216483   5.800   7.421   1.640
 5514TIP3   OH216484   5.437   7.641   1.126
 5514TIP3    H116485   5.361   7.583   1.129
 5514TIP3    H216486   5.506   7.592   1.170
 5515TIP3   OH216487   4.161   7.868   0.599
 5515TIP3    H116488   4.188   7.957   0.623
 5515TIP3    H216489   4.153   7.871   0.503
 5516TIP3   OH216490   4.100   7.143   0.718
 5516TIP3    H116491   4.094   7.238   0.723
 5516TIP3    H216492   4.016   7.115   0.680
 5517TIP3   OH216493   4.480   6.861   1.591
 5517TIP3    H116494   4.450   6.832   1.505
 5517TIP3    H216495   4.468   6.785   1.648
 5518TIP3   OH216496   4.307   8.014   2.233
 5518TIP3    H116497   4.327   7.921   2.244
 5518TIP3    H216498   4.218   8.016   2.199
 5519TIP3   OH216499   7.765   0.080   2.046
 5519TIP3    H116500   7.729   0.097   1.959
 5519TIP3    H216501   7.799  -0.009   2.042
 5520TIP3   OH216502   8.237   0.104   1.624
 5520TIP3    H116503   8.304   0.159   1.583
 5520TIP3    H216504   8.159   0.159   1.625
 5521TIP3   OH216505   4.436   7.762   2.233
 5521TIP3    H116506   4.513   7.711   2.209
 5521TIP3    H216507   4.456   7.797   2.319
 5522TIP3   OH216508   4.512   7.580   0.679
 5522TIP3    H116509   4.465   7.548   0.756
 5522TIP3    H216510   4.530   7.501   0.627
 5523TIP3   OH216511   4.763   7.653   1.889
 5523TIP3    H116512   4.685   7.707   1.893
 5523TIP3    H216513   4.811   7.685   1.812
 5524TIP3   OH216514   5.281   8.039   2.022
 5524TIP3    H116515   5.364   8.022   1.978
 5524TIP3    H216516   5.279   7.979   2.096
 5525TIP3   OH216517   4.883   7.439   2.012
 5525TIP3    H116518   4.885   7.362   1.956
 5525TIP3    H216519   4.842   7.507   1.959
 5526TIP3   OH216520   4.886   7.225   1.820
 5526TIP3    H116521   4.914   7.266   1.738
 5526TIP3    H216522   4.795   7.202   1.805
 5527TIP3   OH216523   4.911   7.766   1.693
 5527TIP3    H116524   4.993   7.776   1.645
 5527TIP3    H216525   4.852   7.830   1.653
 5528TIP3   OH216526   5.495   7.727   2.075
 5528TIP3    H116527   5.544   7.646   2.090
 5528TIP3    H216528   5.560   7.790   2.046
 5529TIP3   OH216529   5.538   7.977   1.808
 5529TIP3    H116530   5.478   8.029   1.754
 5529TIP3    H216531   5.625   7.997   1.773
 5530TIP3   OH216532   4.763   7.547   2.247
 5530TIP3    H116533   4.693   7.484   2.264
 5530TIP3    H216534   4.797   7.522   2.161
 5531TIP3   OH216535   5.016   6.986   1.891
 5531TIP3    H116536   4.972   7.067   1.868
 5531TIP3    H216537   4.949   6.918   1.880
 5532TIP3   OH216538   5.143   7.489   2.107
 5532TIP3    H116539   5.136   7.478   2.201
 5532TIP3    H216540   5.056   7.467   2.073
 5533TIP3   OH216541   5.383   7.436   1.959
 5533TIP3    H116542   5.308   7.440   2.018
 5533TIP3    H216543   5.456   7.407   2.014
 5534TIP3   OH216544   5.617   7.385   2.111
 5534TIP3    H116545   5.626   7.291   2.126
 5534TIP3    H216546   5.608   7.422   2.199
 5535TIP3   OH216547   4.601   7.328   2.303
 5535TIP3    H116548   4.626   7.245   2.261
 5535TIP3    H216549   4.636   7.321   2.391
 5536TIP3   OH216550   5.115   6.999   2.147
 5536TIP3    H116551   5.174   6.924   2.151
 5536TIP3    H216552   5.076   6.994   2.060
 5537TIP3   OH216553   5.177   7.214   2.307
 5537TIP3    H116554   5.159   7.144   2.244
 5537TIP3    H216555   5.101   7.272   2.302
 5538TIP3   OH216556   3.886   7.798   0.594
 5538TIP3    H116557   3.980   7.811   0.606
 5538TIP3    H216558   3.877   7.704   0.579
 5539TIP3   OH216559   0.095   0.388   1.859
 5539TIP3    H116560   0.022   0.371   1.918
 5539TIP3    H216561   0.139   0.465   1.895
 5540TIP3   OH216562   0.056   0.135   1.137
 5540TIP3    H116563   0.114   0.082   1.083
 5540TIP3    H216564   0.045   0.216   1.087
 5541TIP3   OH216565   5.475   7.611   0.854
 5541TIP3    H116566   5.498   7.519   0.849
 5541TIP3    H216567   5.476   7.631   0.948
 5542TIP3   OH216568   4.118   7.693   1.597
 5542TIP3    H116569   4.111   7.662   1.507
 5542TIP3    H216570   4.213   7.697   1.613
 5543TIP3   OH216571   0.114   0.028   1.706
 5543TIP3    H116572   0.188  -0.033   1.697
 5543TIP3    H216573   0.138   0.102   1.651
 5544TIP3   OH216574   5.970   7.845   1.720
 5544TIP3    H116575   5.892   7.805   1.759
 5544TIP3    H216576   6.040   7.782   1.735
 5545TIP3   OH216577   5.483   7.326   0.737
 5545TIP3    H116578   5.523   7.240   0.754
 5545TIP3    H216579   5.549   7.373   0.686
 5546TIP3   OH216580   5.651   7.506   1.242
 5546TIP3    H116581   5.732   7.530   1.198
 5546TIP3    H216582   5.659   7.545   1.330
 5547TIP3   OH216583   5.716   7.655   1.470
 5547TIP3    H116584   5.641   7.687   1.521
 5547TIP3    H216585   5.748   7.733   1.424
 5548TIP3   OH216586   4.337   7.373   2.251
 5548TIP3    H116587   4.431   7.373   2.264
 5548TIP3    H216588   4.307   7.292   2.293
 5549TIP3   OH216589   6.175   7.250   2.024
 5549TIP3    H116590   6.230   7.183   1.983
 5549TIP3    H216591   6.141   7.301   1.951
 5550TIP3   OH216592   5.585   7.086   0.796
 5550TIP3    H116593   5.642   7.062   0.869
 5550TIP3    H216594   5.530   7.008   0.783
 5551TIP3   OH216595   4.300   7.073   1.603
 5551TIP3    H116596   4.358   6.997   1.610
 5551TIP3    H216597   4.360   7.147   1.593
 5552TIP3   OH216598   4.099   7.346   1.675
 5552TIP3    H116599   4.147   7.338   1.592
 5552TIP3    H216600   4.118   7.435   1.705
 5553TIP3   OH216601   6.036   7.381   1.832
 5553TIP3    H116602   5.956   7.426   1.860
 5553TIP3    H216603   6.006   7.313   1.773
 5554TIP3   OH216604   4.081   6.868   1.183
 5554TIP3    H116605   3.989   6.848   1.199
 5554TIP3    H216606   4.081   6.916   1.100
 5555TIP3   OH216607   4.297   6.911   1.992
 5555TIP3    H116608   4.251   6.923   2.076
 5555TIP3    H216609   4.241   6.956   1.928
 5556TIP3   OH216610   5.934   7.148   1.702
 5556TIP3    H116611   5.847   7.146   1.663
 5556TIP3    H216612   5.965   7.057   1.695
 5557TIP3   OH216613   5.136   7.061   1.342
 5557TIP3    H116614   5.090   6.999   1.398
 5557TIP3    H216615   5.167   7.008   1.269
 5558TIP3   OH216616   5.651   6.981   1.259
 5558TIP3    H116617   5.715   7.010   1.194
 5558TIP3    H216618   5.581   6.941   1.207
 5559TIP3   OH216619   5.765   7.039   1.014
 5559TIP3    H116620   5.831   6.985   0.971
 5559TIP3    H216621   5.788   7.129   0.991
 5560TIP3   OH216622   4.390   6.768   1.346
 5560TIP3    H116623   4.298   6.741   1.345
 5560TIP3    H216624   4.439   6.686   1.340
 5561TIP3   OH216625   4.180   6.641   1.004
 5561TIP3    H116626   4.218   6.683   0.927
 5561TIP3    H216627   4.157   6.714   1.062
 5562TIP3   OH216628   4.842   6.803   1.226
 5562TIP3    H116629   4.899   6.851   1.167
 5562TIP3    H216630   4.859   6.842   1.312
 5563TIP3   OH216631   5.387   6.943   1.224
 5563TIP3    H116632   5.371   6.940   1.130
 5563TIP3    H216633   5.363   6.856   1.255
 5564TIP3   OH216634   5.413   6.876   0.820
 5564TIP3    H116635   5.327   6.906   0.793
 5564TIP3    H216636   5.400   6.785   0.848
 5565TIP3   OH216637   4.298   6.808   0.758
 5565TIP3    H116638   4.338   6.740   0.702
 5565TIP3    H216639   4.372   6.852   0.799
 5566TIP3   OH216640   4.805   6.977   0.855
 5566TIP3    H116641   4.859   6.919   0.910
 5566TIP3    H216642   4.833   7.065   0.880
 5567TIP3   OH216643   4.611   7.042   2.224
 5567TIP3    H116644   4.576   7.021   2.311
 5567TIP3    H216645   4.706   7.042   2.237
 5568TIP3   OH216646   4.853   7.048   2.349
 5568TIP3    H116647   4.940   7.025   2.317
 5568TIP3    H216648   4.837   6.988   2.422
 5569TIP3   OH216649   5.674   7.113   2.144
 5569TIP3    H116650   5.686   7.082   2.234
 5569TIP3    H216651   5.759   7.102   2.103
 5570TIP3   OH216652   6.176   7.925   1.139
 5570TIP3    H116653   6.227   7.886   1.209
 5570TIP3    H216654   6.241   7.957   1.076
 5571TIP3   OH216655   6.054   7.619   0.950
 5571TIP3    H116656   6.143   7.594   0.974
 5571TIP3    H216657   6.043   7.585   0.861
 5572TIP3   OH216658   6.411   7.404   1.269
 5572TIP3    H116659   6.357   7.439   1.198
 5572TIP3    H216660   6.359   7.419   1.348
 5573TIP3   OH216661   6.304   7.513   1.033
 5573TIP3    H116662   6.351   7.590   1.063
 5573TIP3    H216663   6.360   7.474   0.966
 5574TIP3   OH216664   6.771   7.126   0.987
 5574TIP3    H116665   6.762   7.031   0.995
 5574TIP3    H216666   6.690   7.161   1.024
 5575TIP3   OH216667   0.612   0.044   1.404
 5575TIP3    H116668   0.602   0.134   1.436
 5575TIP3    H216669   0.525   0.005   1.416
 5576TIP3   OH216670   0.280   0.174   1.332
 5576TIP3    H116671   0.208   0.164   1.270
 5576TIP3    H216672   0.306   0.085   1.354
 5577TIP3   OH216673   6.529   7.207   1.113
 5577TIP3    H116674   6.446   7.170   1.083
 5577TIP3    H216675   6.504   7.280   1.168
 5578TIP3   OH216676   7.047   7.277   1.332
 5578TIP3    H116677   7.084   7.321   1.409
 5578TIP3    H216678   6.954   7.269   1.351
 5579TIP3   OH216679   6.457   7.713   1.124
 5579TIP3    H116680   6.411   7.741   1.203
 5579TIP3    H216681   6.488   7.795   1.084
 5580TIP3   OH216682   6.312   7.753   1.352
 5580TIP3    H116683   6.285   7.820   1.414
 5580TIP3    H216684   6.289   7.670   1.395
 5581TIP3   OH216685   5.887   7.259   0.922
 5581TIP3    H116686   5.956   7.293   0.979
 5581TIP3    H216687   5.926   7.260   0.834
 5582TIP3   OH216688   6.039   7.959   1.476
 5582TIP3    H116689   6.043   7.943   1.570
 5582TIP3    H216690   5.962   7.910   1.447
 5583TIP3   OH216691   6.260   7.487   1.483
 5583TIP3    H116692   6.165   7.491   1.492
 5583TIP3    H216693   6.289   7.431   1.554
 5584TIP3   OH216694   6.273   7.121   1.087
 5584TIP3    H116695   6.241   7.092   1.002
 5584TIP3    H216696   6.264   7.044   1.143
 5585TIP3   OH216697   0.450   0.256   1.700
 5585TIP3    H116698   0.480   0.165   1.699
 5585TIP3    H216699   0.360   0.252   1.667
 5586TIP3   OH216700   6.236   8.020   1.715
 5586TIP3    H116701   6.299   7.948   1.706
 5586TIP3    H216702   6.248   8.051   1.805
 5587TIP3   OH216703   6.653   7.708   1.498
 5587TIP3    H116704   6.684   7.621   1.472
 5587TIP3    H216705   6.593   7.734   1.429
 5588TIP3   OH216706   6.660   7.503   1.282
 5588TIP3    H116707   6.643   7.540   1.195
 5588TIP3    H216708   6.577   7.462   1.306
 5589TIP3   OH216709   6.563   7.795   1.742
 5589TIP3    H116710   6.493   7.732   1.757
 5589TIP3    H216711   6.595   7.777   1.654
 5590TIP3   OH216712   6.781   7.252   1.394
 5590TIP3    H116713   6.734   7.324   1.354
 5590TIP3    H216714   6.727   7.175   1.377
 5591TIP3   OH216715   6.398   7.580   1.788
 5591TIP3    H116716   6.400   7.491   1.753
 5591TIP3    H216717   6.430   7.571   1.878
 5592TIP3   OH216718   6.914   7.252   1.640
 5592TIP3    H116719   6.980   7.183   1.629
 5592TIP3    H216720   6.861   7.247   1.561
 5593TIP3   OH216721   7.025   7.449   1.813
 5593TIP3    H116722   6.989   7.381   1.756
 5593TIP3    H216723   6.955   7.514   1.820
 5594TIP3   OH216724   5.916   7.945   1.079
 5594TIP3    H116725   5.918   7.904   0.993
 5594TIP3    H216726   6.007   7.950   1.106
 5595TIP3   OH216727   6.132   7.630   1.753
 5595TIP3    H116728   6.228   7.629   1.759
 5595TIP3    H216729   6.105   7.549   1.795
 5596TIP3   OH216730   6.093   7.329   1.091
 5596TIP3    H116731   6.151   7.254   1.101
 5596TIP3    H216732   6.152   7.403   1.080
 5597TIP3   OH216733   5.893   7.603   1.169
 5597TIP3    H116734   5.943   7.600   1.087
 5597TIP3    H216735   5.911   7.690   1.205
 5598TIP3   OH216736   6.097   7.189   1.475
 5598TIP3    H116737   6.050   7.180   1.559
 5598TIP3    H216738   6.032   7.224   1.415
 5599TIP3   OH216739   6.179   7.026   0.852
 5599TIP3    H116740   6.088   6.997   0.846
 5599TIP3    H216741   6.231   6.949   0.830
 5600TIP3   OH216742   6.396   7.308   1.722
 5600TIP3    H116743   6.356   7.240   1.777
 5600TIP3    H216744   6.488   7.309   1.748
 5601TIP3   OH216745   6.643   7.303   1.841
 5601TIP3    H116746   6.729   7.287   1.803
 5601TIP3    H216747   6.631   7.234   1.906
 5602TIP3   OH216748   1.844   0.504   5.751
 5602TIP3    H116749   1.819   0.441   5.819
 5602TIP3    H216750   1.864   0.584   5.799
 5603TIP3   OH216751   1.487   0.953   5.765
 5603TIP3    H116752   1.544   0.889   5.723
 5603TIP3    H216753   1.483   0.925   5.856
 5604TIP3   OH216754   8.101   7.951   6.301
 5604TIP3    H116755   8.028   8.009   6.278
 5604TIP3    H216756   8.166   8.009   6.342
 5605TIP3   OH216757   1.525   0.437   5.520
 5605TIP3    H116758   1.455   0.374   5.501
 5605TIP3    H216759   1.481   0.507   5.569
 5606TIP3   OH216760   1.899   0.747   5.908
 5606TIP3    H116761   1.809   0.741   5.940
 5606TIP3    H216762   1.902   0.831   5.862
 5607TIP3   OH216763   1.648   0.789   5.619
 5607TIP3    H116764   1.685   0.706   5.587
 5607TIP3    H216765   1.681   0.855   5.558
 5608TIP3   OH216766   1.764   0.575   5.493
 5608TIP3    H116767   1.696   0.512   5.469
 5608TIP3    H216768   1.804   0.538   5.573
 5609TIP3   OH216769   2.128   0.654   6.259
 5609TIP3    H116770   2.121   0.578   6.200
 5609TIP3    H216771   2.114   0.729   6.201
 5610TIP3   OH216772   2.319   0.289   6.099
 5610TIP3    H116773   2.242   0.345   6.104
 5610TIP3    H216774   2.356   0.305   6.012
 5611TIP3   OH216775   1.765   0.152   5.496
 5611TIP3    H116776   1.704   0.143   5.570
 5611TIP3    H216777   1.845   0.108   5.526
 5612TIP3   OH216778   1.652   0.756   6.014
 5612TIP3    H116779   1.643   0.838   6.063
 5612TIP3    H216780   1.645   0.688   6.080
 5613TIP3   OH216781   1.372   0.745   5.528
 5613TIP3    H116782   1.432   0.748   5.602
 5613TIP3    H216783   1.298   0.694   5.560
 5614TIP3   OH216784   1.927   0.596   4.911
 5614TIP3    H116785   1.933   0.690   4.896
 5614TIP3    H216786   2.017   0.564   4.899
 5615TIP3   OH216787   2.365   0.999   6.306
 5615TIP3    H116788   2.368   0.905   6.319
 5615TIP3    H216789   2.284   1.027   6.348
 5616TIP3   OH216790   1.496   0.816   6.404
 5616TIP3    H116791   1.489   0.899   6.451
 5616TIP3    H216792   1.426   0.762   6.439
 5617TIP3   OH216793   1.179   0.918   5.376
 5617TIP3    H116794   1.180   0.919   5.280
 5617TIP3    H216795   1.191   1.009   5.401
 5618TIP3   OH216796   1.430   0.810   5.032
 5618TIP3    H116797   1.490   0.744   4.998
 5618TIP3    H216798   1.459   0.825   5.122
 5619TIP3   OH216799   1.471   0.869   5.304
 5619TIP3    H116800   1.395   0.854   5.360
 5619TIP3    H216801   1.544   0.826   5.350
 5620TIP3   OH216802   2.259   0.114   6.581
 5620TIP3    H116803   2.177   0.161   6.570
 5620TIP3    H216804   2.237   0.022   6.563
 5621TIP3   OH216805   1.667   0.057   5.043
 5621TIP3    H116806   1.650   0.006   4.963
 5621TIP3    H216807   1.758   0.085   5.035
 5622TIP3   OH216808   2.048   1.346   6.397
 5622TIP3    H116809   2.046   1.371   6.305
 5622TIP3    H216810   2.130   1.381   6.431
 5623TIP3   OH216811   2.084   0.441   6.089
 5623TIP3    H116812   2.125   0.490   6.017
 5623TIP3    H216813   2.006   0.402   6.049
 5624TIP3   OH216814   1.375   0.400   5.220
 5624TIP3    H116815   1.322   0.476   5.245
 5624TIP3    H216816   1.376   0.345   5.299
 5625TIP3   OH216817   1.764   0.779   6.376
 5625TIP3    H116818   1.669   0.791   6.370
 5625TIP3    H216819   1.790   0.836   6.448
 5626TIP3   OH216820   7.835   7.875   5.248
 5626TIP3    H116821   7.774   7.817   5.203
 5626TIP3    H216822   7.817   7.961   5.212
 5627TIP3   OH216823   2.380   0.716   6.338
 5627TIP3    H116824   2.285   0.705   6.337
 5627TIP3    H216825   2.408   0.688   6.251
 5628TIP3   OH216826   1.865   0.675   5.178
 5628TIP3    H116827   1.838   0.608   5.240
 5628TIP3    H216828   1.876   0.628   5.095
 5629TIP3   OH216829   1.867   0.294   5.995
 5629TIP3    H116830   1.780   0.275   6.029
 5629TIP3    H216831   1.888   0.219   5.938
 5630TIP3   OH216832   1.276   0.889   6.245
 5630TIP3    H116833   1.301   0.957   6.183
 5630TIP3    H216834   1.355   0.871   6.295
 5631TIP3   OH216835   1.690   0.541   6.194
 5631TIP3    H116836   1.662   0.562   6.283
 5631TIP3    H216837   1.786   0.540   6.200
 5632TIP3   OH216838   1.614   0.407   5.076
 5632TIP3    H116839   1.675   0.374   5.142
 5632TIP3    H216840   1.528   0.402   5.119
 5633TIP3   OH216841   1.886   1.038   6.240
 5633TIP3    H116842   1.806   0.986   6.228
 5633TIP3    H216843   1.882   1.105   6.172
 5634TIP3   OH216844   1.954   0.872   4.894
 5634TIP3    H116845   1.989   0.935   4.831
 5634TIP3    H216846   1.876   0.916   4.929
 5635TIP3   OH216847   1.781   0.331   5.280
 5635TIP3    H116848   1.760   0.272   5.353
 5635TIP3    H216849   1.877   0.329   5.275
 5636TIP3   OH216850   1.198   0.598   5.286
 5636TIP3    H116851   1.147   0.605   5.366
 5636TIP3    H216852   1.213   0.688   5.259
 5637TIP3   OH216853   1.915   1.017   5.826
 5637TIP3    H116854   1.870   1.053   5.750
 5637TIP3    H216855   2.006   1.041   5.813
 5638TIP3   OH216856   1.147   0.558   4.997
 5638TIP3    H116857   1.151   0.520   5.085
 5638TIP3    H216858   1.223   0.523   4.952
 5639TIP3   OH216859   1.809   0.910   6.621
 5639TIP3    H116860   1.846   0.836   6.669
 5639TIP3    H216861   1.876   0.979   6.628
 5640TIP3   OH216862   1.583   0.623   4.898
 5640TIP3    H116863   1.620   0.558   4.958
 5640TIP3    H216864   1.640   0.619   4.821
 5641TIP3   OH216865   1.916   0.553   6.399
 5641TIP3    H116866   2.000   0.578   6.360
 5641TIP3    H216867   1.863   0.633   6.397
 5642TIP3   OH216868   1.918   0.127   4.930
 5642TIP3    H116869   1.903   0.081   4.847
 5642TIP3    H216870   1.885   0.215   4.915
 5643TIP3   OH216871   2.079   0.383   6.562
 5643TIP3    H116872   2.021   0.435   6.507
 5643TIP3    H216873   2.167   0.406   6.532
 5644TIP3   OH216874   0.870   0.874   5.157
 5644TIP3    H116875   0.953   0.840   5.190
 5644TIP3    H216876   0.893   0.914   5.073
 5645TIP3   OH216877   2.161   1.121   5.789
 5645TIP3    H116878   2.188   1.142   5.878
 5645TIP3    H216879   2.239   1.135   5.736
 5646TIP3   OH216880   2.190   1.119   6.074
 5646TIP3    H116881   2.154   1.031   6.071
 5646TIP3    H216882   2.272   1.111   6.124
 5647TIP3   OH216883   2.239   0.803   6.648
 5647TIP3    H116884   2.169   0.806   6.714
 5647TIP3    H216885   2.281   0.888   6.653
 5648TIP3   OH216886   2.060   0.316   5.266
 5648TIP3    H116887   2.126   0.379   5.236
 5648TIP3    H216888   2.099   0.277   5.344
 5649TIP3   OH216889   2.180   0.187   5.471
 5649TIP3    H116890   2.120   0.147   5.533
 5649TIP3    H216891   2.253   0.219   5.525
 5650TIP3   OH216892   2.231   0.566   5.903
 5650TIP3    H116893   2.292   0.504   5.862
 5650TIP3    H216894   2.197   0.618   5.830
 5651TIP3   OH216895   2.065   0.870   6.102
 5651TIP3    H116896   1.999   0.918   6.152
 5651TIP3    H216897   2.016   0.828   6.031
 5652TIP3   OH216898   2.114   0.095   5.115
 5652TIP3    H116899   2.046   0.097   5.047
 5652TIP3    H216900   2.091   0.168   5.173
 5653TIP3   OH216901   7.663   7.767   5.062
 5653TIP3    H116902   7.618   7.834   5.010
 5653TIP3    H216903   7.615   7.686   5.044
 5654TIP3   OH216904   1.998   0.033   5.628
 5654TIP3    H116905   2.021  -0.055   5.597
 5654TIP3    H216906   2.018   0.032   5.721
 5655TIP3   OH216907   2.313   0.470   6.461
 5655TIP3    H116908   2.378   0.400   6.458
 5655TIP3    H216909   2.348   0.538   6.403
 5656TIP3   OH216910   2.472   0.257   6.494
 5656TIP3    H116911   2.398   0.206   6.528
 5656TIP3    H216912   2.549   0.202   6.509
 5657TIP3   OH216913   7.811   7.964   6.009
 5657TIP3    H116914   7.894   7.981   5.964
 5657TIP3    H216915   7.826   7.995   6.099
 5658TIP3   OH216916   2.204   0.087   6.243
 5658TIP3    H116917   2.122   0.126   6.275
 5658TIP3    H216918   2.249   0.158   6.198
 5659TIP3   OH216919   1.742   0.972   5.442
 5659TIP3    H116920   1.799   0.957   5.367
 5659TIP3    H216921   1.789   1.033   5.497
 5660TIP3   OH216922   1.476   1.062   6.526
 5660TIP3    H116923   1.513   1.052   6.614
 5660TIP3    H216924   1.542   1.113   6.478
 5661TIP3   OH216925   1.662   1.204   6.383
 5661TIP3    H116926   1.733   1.156   6.339
 5661TIP3    H216927   1.707   1.264   6.443
 5662TIP3   OH216928   1.371   1.076   6.058
 5662TIP3    H116929   1.298   1.092   5.998
 5662TIP3    H216930   1.389   1.161   6.097
 5663TIP3   OH216931   1.637   1.014   6.113
 5663TIP3    H116932   1.543   1.031   6.099
 5663TIP3    H216933   1.681   1.090   6.076
 5664TIP3   OH216934   1.839   1.200   6.025
 5664TIP3    H116935   1.828   1.284   5.981
 5664TIP3    H216936   1.869   1.141   5.955
 5665TIP3   OH216937   1.166   0.819   5.110
 5665TIP3    H116938   1.255   0.837   5.080
 5665TIP3    H216939   1.141   0.738   5.065
 5666TIP3   OH216940   1.899   0.940   5.217
 5666TIP3    H116941   1.897   0.845   5.210
 5666TIP3    H216942   1.854   0.971   5.138
 5667TIP3   OH216943   2.118   1.082   6.401
 5667TIP3    H116944   2.042   1.050   6.352
 5667TIP3    H216945   2.104   1.176   6.409
 5668TIP3   OH216946   3.387   0.451   5.168
 5668TIP3    H116947   3.364   0.543   5.152
 5668TIP3    H216948   3.311   0.402   5.137
 5669TIP3   OH216949   3.396   0.449   5.549
 5669TIP3    H116950   3.419   0.429   5.640
 5669TIP3    H216951   3.340   0.376   5.522
 5670TIP3   OH216952   3.631   0.758   5.237
 5670TIP3    H116953   3.614   0.690   5.301
 5670TIP3    H216954   3.661   0.833   5.288
 5671TIP3   OH216955   8.008   7.978   5.441
 5671TIP3    H116956   7.965   8.064   5.441
 5671TIP3    H216957   7.954   7.924   5.384
 5672TIP3   OH216958   2.420   0.253   5.591
 5672TIP3    H116959   2.458   0.174   5.630
 5672TIP3    H216960   2.492   0.292   5.541
 5673TIP3   OH216961   3.273   1.216   5.243
 5673TIP3    H116962   3.322   1.143   5.206
 5673TIP3    H216963   3.268   1.196   5.337
 5674TIP3   OH216964   3.189   0.666   5.606
 5674TIP3    H116965   3.226   0.596   5.552
 5674TIP3    H216966   3.265   0.721   5.628
 5675TIP3   OH216967   3.604   0.178   5.645
 5675TIP3    H116968   3.619   0.087   5.671
 5675TIP3    H216969   3.565   0.172   5.558
 5676TIP3   OH216970   0.079   7.819   5.581
 5676TIP3    H116971   0.064   7.901   5.534
 5676TIP3    H216972   0.009   7.761   5.552
 5677TIP3   OH216973   0.760   7.966   5.268
 5677TIP3    H116974   0.820   7.922   5.328
 5677TIP3    H216975   0.809   7.973   5.186
 5678TIP3   OH216976   2.545   0.036   5.694
 5678TIP3    H116977   2.630   0.040   5.737
 5678TIP3    H216978   2.559  -0.020   5.618
 5679TIP3   OH216979   3.009   0.239   5.473
 5679TIP3    H116980   3.095   0.220   5.509
 5679TIP3    H216981   2.968   0.153   5.461
 5680TIP3   OH216982   4.231   0.191   5.801
 5680TIP3    H116983   4.161   0.244   5.763
 5680TIP3    H216984   4.294   0.254   5.834
 5681TIP3   OH216985   3.279   0.676   5.036
 5681TIP3    H116986   3.236   0.653   4.955
 5681TIP3    H216987   3.236   0.757   5.065
 5682TIP3   OH216988   3.064   0.618   5.849
 5682TIP3    H116989   2.983   0.667   5.862
 5682TIP3    H216990   3.092   0.642   5.761
 5683TIP3   OH216991   8.461   8.010   5.773
 5683TIP3    H116992   8.526   8.062   5.821
 5683TIP3    H216993   8.511   7.934   5.742
 5684TIP3   OH216994   2.827   0.774   5.885
 5684TIP3    H116995   2.850   0.856   5.841
 5684TIP3    H216996   2.775   0.801   5.960
 5685TIP3   OH216997   2.258   0.485   5.158
 5685TIP3    H116998   2.220   0.510   5.074
 5685TIP3    H216999   2.289   0.568   5.196
 5686TIP3   OH217000   3.700   1.001   5.398
 5686TIP3    H117001   3.614   0.989   5.440
 5686TIP3    H217002   3.693   1.085   5.354
 5687TIP3   OH217003   3.404   1.042   5.069
 5687TIP3    H117004   3.451   0.960   5.052
 5687TIP3    H217005   3.460   1.110   5.033
 5688TIP3   OH217006   3.547   0.826   4.983
 5688TIP3    H117007   3.501   0.749   4.950
 5688TIP3    H217008   3.585   0.798   5.066
 5689TIP3   OH217009   3.926   0.911   5.742
 5689TIP3    H117010   3.913   0.834   5.686
 5689TIP3    H217011   3.907   0.985   5.684
 5690TIP3   OH217012   3.215   0.309   5.000
 5690TIP3    H117013   3.136   0.358   4.980
 5690TIP3    H217014   3.261   0.303   4.916
 5691TIP3   OH217015   3.181   0.080   4.717
 5691TIP3    H117016   3.241   0.133   4.769
 5691TIP3    H217017   3.238   0.034   4.655
 5692TIP3   OH217018   4.121   0.555   5.589
 5692TIP3    H117019   4.038   0.602   5.594
 5692TIP3    H217020   4.153   0.573   5.500
 5693TIP3   OH217021   3.565   0.389   4.971
 5693TIP3    H117022   3.509   0.412   5.046
 5693TIP3    H217023   3.649   0.367   5.010
 5694TIP3   OH217024   3.796   0.429   5.889
 5694TIP3    H117025   3.795   0.511   5.939
 5694TIP3    H217026   3.712   0.426   5.844
 5695TIP3   OH217027   2.802   0.387   5.367
 5695TIP3    H117028   2.764   0.318   5.312
 5695TIP3    H217029   2.872   0.344   5.415
 5696TIP3   OH217030   2.864   0.746   5.565
 5696TIP3    H117031   2.911   0.711   5.489
 5696TIP3    H217032   2.912   0.827   5.587
 5697TIP3   OH217033   3.464   0.993   5.523
 5697TIP3    H117034   3.443   1.071   5.575
 5697TIP3    H217035   3.444   0.919   5.581
 5698TIP3   OH217036   3.064   0.897   6.080
 5698TIP3    H117037   3.005   0.966   6.110
 5698TIP3    H217038   3.019   0.857   6.006
 5699TIP3   OH217039   3.402   0.248   4.797
 5699TIP3    H117040   3.461   0.307   4.844
 5699TIP3    H217041   3.427   0.260   4.705
 5700TIP3   OH217042   2.824   0.463   6.185
 5700TIP3    H117043   2.823   0.551   6.224
 5700TIP3    H217044   2.739   0.457   6.140
 5701TIP3   OH217045   3.152   0.925   5.069
 5701TIP3    H117046   3.233   0.973   5.085
 5701TIP3    H217047   3.091   0.992   5.036
 5702TIP3   OH217048   2.865   1.084   6.156
 5702TIP3    H117049   2.833   1.105   6.068
 5702TIP3    H217050   2.786   1.059   6.204
 5703TIP3   OH217051   2.664   0.213   5.179
 5703TIP3    H117052   2.597   0.263   5.133
 5703TIP3    H217053   2.622   0.130   5.201
 5704TIP3   OH217054   3.723   0.854   4.396
 5704TIP3    H117055   3.729   0.948   4.383
 5704TIP3    H217056   3.812   0.822   4.384
 5705TIP3   OH217057   2.444   0.616   6.099
 5705TIP3    H117058   2.383   0.590   6.029
 5705TIP3    H217059   2.481   0.533   6.131
 5706TIP3   OH217060   4.161   1.257   5.793
 5706TIP3    H117061   4.163   1.162   5.805
 5706TIP3    H217062   4.081   1.284   5.837
 5707TIP3   OH217063   3.287   1.039   5.939
 5707TIP3    H117064   3.277   1.133   5.957
 5707TIP3    H217065   3.198   1.005   5.941
 5708TIP3   OH217066   3.026   1.168   4.877
 5708TIP3    H117067   2.986   1.152   4.792
 5708TIP3    H217068   2.998   1.257   4.900
 5709TIP3   OH217069   2.471   1.028   5.268
 5709TIP3    H117070   2.523   1.023   5.348
 5709TIP3    H217071   2.412   0.953   5.274
 5710TIP3   OH217072   3.233   1.070   4.517
 5710TIP3    H117073   3.289   1.002   4.481
 5710TIP3    H217074   3.265   1.082   4.606
 5711TIP3   OH217075   3.280   1.120   4.788
 5711TIP3    H117076   3.194   1.128   4.830
 5711TIP3    H217077   3.336   1.084   4.857
 5712TIP3   OH217078   4.049   0.372   6.067
 5712TIP3    H117079   3.974   0.410   6.022
 5712TIP3    H217080   4.038   0.278   6.055
 5713TIP3   OH217081   2.643   0.811   6.091
 5713TIP3    H117082   2.697   0.791   6.167
 5713TIP3    H217083   2.575   0.744   6.090
 5714TIP3   OH217084   3.833   0.173   6.012
 5714TIP3    H117085   3.791   0.198   6.094
 5714TIP3    H217086   3.810   0.243   5.951
 5715TIP3   OH217087   2.983   0.157   5.895
 5715TIP3    H117088   2.932   0.157   5.976
 5715TIP3    H217089   2.954   0.236   5.848
 5716TIP3   OH217090   0.029   8.023   5.414
 5716TIP3    H117091  -0.065   8.013   5.425
 5716TIP3    H217092   0.045   7.998   5.323
 5717TIP3   OH217093   3.349   0.109   5.131
 5717TIP3    H117094   3.301   0.181   5.092
 5717TIP3    H217095   3.413   0.083   5.064
 5718TIP3   OH217096   3.539   0.410   6.211
 5718TIP3    H117097   3.510   0.331   6.256
 5718TIP3    H217098   3.632   0.418   6.233
 5719TIP3   OH217099   3.493   0.170   5.392
 5719TIP3    H117100   3.440   0.219   5.330
 5719TIP3    H217101   3.517   0.090   5.345
 5720TIP3   OH217102   2.828   0.142   6.118
 5720TIP3    H117103   2.814   0.227   6.161
 5720TIP3    H217104   2.798   0.078   6.182
 5721TIP3   OH217105   8.101   7.792   5.233
 5721TIP3    H117106   8.116   7.783   5.139
 5721TIP3    H217107   8.007   7.813   5.240
 5722TIP3   OH217108   3.523   0.382   5.798
 5722TIP3    H117109   3.559   0.316   5.739
 5722TIP3    H217110   3.496   0.333   5.876
 5723TIP3   OH217111   8.270   7.910   5.457
 5723TIP3    H117112   8.179   7.939   5.448
 5723TIP3    H217113   8.276   7.832   5.402
 5724TIP3   OH217114   0.071   7.927   5.165
 5724TIP3    H117115   0.162   7.918   5.136
 5724TIP3    H217116   0.020   7.921   5.084
 5725TIP3   OH217117   8.403   7.915   4.934
 5725TIP3    H117118   8.326   7.900   4.878
 5725TIP3    H217119   8.465   7.961   4.878
 5726TIP3   OH217120   3.857   1.607   5.890
 5726TIP3    H117121   3.853   1.629   5.797
 5726TIP3    H217122   3.936   1.651   5.922
 5727TIP3   OH217123   2.804   0.723   6.307
 5727TIP3    H117124   2.887   0.748   6.348
 5727TIP3    H217125   2.742   0.718   6.380
 5728TIP3   OH217126   3.263   0.171   5.571
 5728TIP3    H117127   3.345   0.145   5.530
 5728TIP3    H217128   3.269   0.138   5.661
 5729TIP3   OH217129   3.267   0.094   5.834
 5729TIP3    H117130   3.177   0.104   5.864
 5729TIP3    H217131   3.319   0.140   5.901
 5730TIP3   OH217132   2.983   0.457   4.946
 5730TIP3    H117133   2.912   0.393   4.936
 5730TIP3    H217134   2.971   0.493   5.034
 5731TIP3   OH217135   3.886   0.693   5.576
 5731TIP3    H117136   3.911   0.743   5.498
 5731TIP3    H217137   3.803   0.652   5.553
 5732TIP3   OH217138   0.587   7.831   4.782
 5732TIP3    H117139   0.531   7.798   4.852
 5732TIP3    H217140   0.623   7.913   4.818
 5733TIP3   OH217141   3.400   0.784   5.947
 5733TIP3    H117142   3.401   0.749   6.036
 5733TIP3    H217143   3.361   0.871   5.955
 5734TIP3   OH217144   3.521   0.032   4.925
 5734TIP3    H117145   3.616   0.042   4.935
 5734TIP3    H217146   3.495   0.105   4.870
 5735TIP3   OH217147   3.131   0.607   4.770
 5735TIP3    H117148   3.085   0.691   4.774
 5735TIP3    H217149   3.080   0.550   4.828
 5736TIP3   OH217150   2.543   0.413   6.251
 5736TIP3    H117151   2.592   0.400   6.332
 5736TIP3    H217152   2.492   0.333   6.241
 5737TIP3   OH217153   3.287   0.516   6.262
 5737TIP3    H117154   3.223   0.465   6.212
 5737TIP3    H217155   3.372   0.488   6.228
 5738TIP3   OH217156   3.553   1.042   5.847
 5738TIP3    H117157   3.459   1.031   5.858
 5738TIP3    H217158   3.581   1.093   5.923
 5739TIP3   OH217159   3.954   0.107   4.736
 5739TIP3    H117160   3.898   0.053   4.681
 5739TIP3    H217161   3.942   0.196   4.702
 5740TIP3   OH217162   4.174   0.966   5.829
 5740TIP3    H117163   4.079   0.963   5.824
 5740TIP3    H217164   4.205   0.937   5.743
 5741TIP3   OH217165   3.657   0.927   4.662
 5741TIP3    H117166   3.632   0.859   4.725
 5741TIP3    H217167   3.670   0.880   4.580
 5742TIP3   OH217168   3.654   0.556   5.493
 5742TIP3    H117169   3.562   0.531   5.509
 5742TIP3    H217170   3.691   0.480   5.448
 5743TIP3   OH217171   2.772   0.782   5.228
 5743TIP3    H117172   2.784   0.867   5.186
 5743TIP3    H217173   2.677   0.770   5.233
 5744TIP3   OH217174   2.339   0.089   4.957
 5744TIP3    H117175   2.390   0.168   4.976
 5744TIP3    H217176   2.265   0.093   5.017
 5745TIP3   OH217177   2.921   0.554   5.188
 5745TIP3    H117178   2.882   0.639   5.207
 5745TIP3    H217179   2.889   0.496   5.257
 5746TIP3   OH217180   2.693   1.035   5.099
 5746TIP3    H117181   2.612   1.040   5.150
 5746TIP3    H217182   2.730   1.123   5.106
 5747TIP3   OH217183   3.441   0.760   5.680
 5747TIP3    H117184   3.429   0.763   5.775
 5747TIP3    H217185   3.518   0.705   5.667
 5748TIP3   OH217186   3.413   0.656   4.566
 5748TIP3    H117187   3.471   0.633   4.639
 5748TIP3    H217188   3.326   0.631   4.597
 5749TIP3   OH217189   3.687   1.294   5.729
 5749TIP3    H117190   3.611   1.236   5.726
 5749TIP3    H217191   3.672   1.357   5.658
 5750TIP3   OH217192   3.751   1.132   4.381
 5750TIP3    H117193   3.793   1.202   4.331
 5750TIP3    H217194   3.672   1.171   4.416
 5751TIP3   OH217195   3.577   0.584   4.776
 5751TIP3    H117196   3.565   0.523   4.848
 5751TIP3    H217197   3.672   0.586   4.762
 5752TIP3   OH217198   2.505   0.983   5.897
 5752TIP3    H117199   2.551   0.928   5.960
 5752TIP3    H217200   2.523   1.073   5.926
 5753TIP3   OH217201   2.775   0.633   4.565
 5753TIP3    H117202   2.794   0.544   4.537
 5753TIP3    H217203   2.757   0.626   4.658
 5754TIP3   OH217204   2.722   0.642   4.838
 5754TIP3    H117205   2.796   0.610   4.890
 5754TIP3    H217206   2.726   0.737   4.845
 5755TIP3   OH217207   2.455   0.331   5.038
 5755TIP3    H117208   2.392   0.375   5.096
 5755TIP3    H217209   2.477   0.397   4.972
 5756TIP3   OH217210   2.985   0.836   4.779
 5756TIP3    H117211   2.902   0.860   4.819
 5756TIP3    H217212   3.011   0.913   4.727
 5757TIP3   OH217213   0.356   7.909   5.163
 5757TIP3    H117214   0.409   7.987   5.151
 5757TIP3    H217215   0.364   7.889   5.256
 5758TIP3   OH217216   3.463   0.220   6.008
 5758TIP3    H117217   3.449   0.287   6.075
 5758TIP3    H217218   3.509   0.150   6.053
 5759TIP3   OH217219   2.731   0.915   4.853
 5759TIP3    H117220   2.706   0.983   4.789
 5759TIP3    H217221   2.718   0.957   4.938
 5760TIP3   OH217222   3.742   0.313   5.374
 5760TIP3    H117223   3.661   0.264   5.395
 5760TIP3    H217224   3.810   0.267   5.423
 5761TIP3   OH217225   2.457   0.542   4.839
 5761TIP3    H117226   2.528   0.605   4.853
 5761TIP3    H217227   2.493   0.480   4.776
 5762TIP3   OH217228   8.061   7.831   4.955
 5762TIP3    H117229   8.053   7.927   4.956
 5762TIP3    H217230   7.971   7.800   4.962
 5763TIP3   OH217231   3.709   1.273   5.319
 5763TIP3    H117232   3.664   1.317   5.247
 5763TIP3    H217233   3.802   1.289   5.302
 5764TIP3   OH217234   2.321   0.762   5.234
 5764TIP3    H117235   2.237   0.792   5.269
 5764TIP3    H217236   2.323   0.796   5.144
 5765TIP3   OH217237   2.496   1.299   6.303
 5765TIP3    H117238   2.573   1.292   6.359
 5765TIP3    H217239   2.464   1.209   6.294
 5766TIP3   OH217240   2.956   1.264   6.346
 5766TIP3    H117241   3.050   1.253   6.357
 5766TIP3    H217242   2.932   1.202   6.277
 5767TIP3   OH217243   2.939   0.834   4.472
 5767TIP3    H117244   2.884   0.768   4.513
 5767TIP3    H217245   3.017   0.786   4.443
 5768TIP3   OH217246   3.596   1.174   6.087
 5768TIP3    H117247   3.590   1.103   6.150
 5768TIP3    H217248   3.675   1.223   6.112
 5769TIP3   OH217249   3.379   0.874   4.387
 5769TIP3    H117250   3.416   0.810   4.447
 5769TIP3    H217251   3.437   0.873   4.311
 5770TIP3   OH217252   2.604   0.701   6.502
 5770TIP3    H117253   2.627   0.608   6.506
 5770TIP3    H217254   2.522   0.702   6.452
 5771TIP3   OH217255   2.591   0.350   4.700
 5771TIP3    H117256   2.644   0.320   4.774
 5771TIP3    H217257   2.653   0.357   4.627
 5772TIP3   OH217258   3.217   0.789   6.281
 5772TIP3    H117259   3.173   0.812   6.199
 5772TIP3    H217260   3.245   0.698   6.269
 5773TIP3   OH217261   3.096   0.550   4.502
 5773TIP3    H117262   3.101   0.565   4.597
 5773TIP3    H217263   3.106   0.455   4.493
 5774TIP3   OH217264   3.712   0.801   5.883
 5774TIP3    H117265   3.783   0.847   5.838
 5774TIP3    H217266   3.636   0.858   5.874
 5775TIP3   OH217267   2.727   0.445   6.481
 5775TIP3    H117268   2.807   0.407   6.444
 5775TIP3    H217269   2.752   0.468   6.571
 5776TIP3   OH217270   2.787   0.260   4.913
 5776TIP3    H117271   2.768   0.227   5.001
 5776TIP3    H217272   2.828   0.186   4.868
 5777TIP3   OH217273   3.073   0.357   6.146
 5777TIP3    H117274   2.986   0.397   6.145
 5777TIP3    H217275   3.110   0.379   6.060
 5778TIP3   OH217276   2.900   0.052   4.764
 5778TIP3    H117277   2.871   0.058   4.673
 5778TIP3    H217278   2.995   0.052   4.759
 5779TIP3   OH217279   3.588   0.728   6.283
 5779TIP3    H117280   3.651   0.693   6.220
 5779TIP3    H217281   3.573   0.656   6.344
 5780TIP3   OH217282   3.728   0.382   4.404
 5780TIP3    H117283   3.679   0.326   4.344
 5780TIP3    H217284   3.690   0.469   4.392
 5781TIP3   OH217285   3.150   0.133   6.265
 5781TIP3    H117286   3.102   0.070   6.211
 5781TIP3    H217287   3.129   0.218   6.227
 5782TIP3   OH217288   3.240   0.441   5.948
 5782TIP3    H117289   3.314   0.447   5.888
 5782TIP3    H217290   3.178   0.507   5.915
 5783TIP3   OH217291   3.793   0.404   6.314
 5783TIP3    H117292   3.826   0.347   6.383
 5783TIP3    H217293   3.869   0.456   6.288
 5784TIP3   OH217294   3.842   0.657   6.067
 5784TIP3    H117295   3.781   0.707   6.013
 5784TIP3    H217296   3.928   0.677   6.031
 5785TIP3   OH217297   3.040   0.254   6.499
 5785TIP3    H117298   2.989   0.177   6.527
 5785TIP3    H217299   3.095   0.221   6.427
 5786TIP3   OH217300   3.429   0.184   6.304
 5786TIP3    H117301   3.453   0.158   6.393
 5786TIP3    H217302   3.334   0.173   6.301
 5787TIP3   OH217303   2.706   1.117   4.662
 5787TIP3    H117304   2.800   1.106   4.648
 5787TIP3    H217305   2.676   1.166   4.586
 5788TIP3   OH217306   2.187   0.498   4.878
 5788TIP3    H117307   2.279   0.521   4.866
 5788TIP3    H217308   2.178   0.411   4.839
 5789TIP3   OH217309   2.077   1.122   5.311
 5789TIP3    H117310   2.015   1.058   5.277
 5789TIP3    H217311   2.128   1.074   5.376
 5790TIP3   OH217312   2.226   0.976   5.480
 5790TIP3    H117313   2.223   0.890   5.521
 5790TIP3    H217314   2.287   1.027   5.534
 5791TIP3   OH217315   3.964   1.360   5.281
 5791TIP3    H117316   3.987   1.390   5.369
 5791TIP3    H217317   4.027   1.404   5.223
 5792TIP3   OH217318   3.991   1.377   5.564
 5792TIP3    H117319   3.944   1.293   5.559
 5792TIP3    H217320   4.066   1.359   5.620
 5793TIP3   OH217321   4.040   1.059   6.139
 5793TIP3    H117322   3.967   1.066   6.201
 5793TIP3    H217323   4.081   1.145   6.140
 5794TIP3   OH217324   3.856   0.570   4.752
 5794TIP3    H117325   3.920   0.635   4.723
 5794TIP3    H217326   3.896   0.532   4.831
 5795TIP3   OH217327   3.979   0.443   4.958
 5795TIP3    H117328   3.914   0.404   5.016
 5795TIP3    H217329   4.044   0.481   5.017
 5796TIP3   OH217330   4.039   0.832   5.390
 5796TIP3    H117331   4.089   0.765   5.344
 5796TIP3    H217332   4.030   0.904   5.327
 5797TIP3   OH217333   3.863   1.130   5.584
 5797TIP3    H117334   3.794   1.171   5.637
 5797TIP3    H217335   3.816   1.084   5.515
 5798TIP3   OH217336   3.909   0.345   4.603
 5798TIP3    H117337   3.847   0.351   4.530
 5798TIP3    H217338   3.887   0.419   4.659
 5799TIP3   OH217339   3.773   0.001   4.550
 5799TIP3    H117340   3.767   0.082   4.498
 5799TIP3    H217341   3.689  -0.043   4.537
 5800TIP3   OH217342   3.793   0.307   5.102
 5800TIP3    H117343   3.795   0.214   5.079
 5800TIP3    H217344   3.780   0.308   5.197
 5801TIP3   OH217345   2.408   0.370   5.840
 5801TIP3    H117346   2.401   0.332   5.753
 5801TIP3    H217347   2.501   0.392   5.850
 5802TIP3   OH217348   4.085   0.720   5.961
 5802TIP3    H117349   4.155   0.655   5.950
 5802TIP3    H217350   4.107   0.788   5.897
 5803TIP3   OH217351   4.264   0.517   5.978
 5803TIP3    H117352   4.190   0.467   6.012
 5803TIP3    H217353   4.340   0.461   5.993
 5804TIP3   OH217354   3.793   0.055   4.971
 5804TIP3    H117355   3.820  -0.021   5.023
 5804TIP3    H217356   3.856   0.058   4.899
 5805TIP3   OH217357   3.952   0.187   5.503
 5805TIP3    H117358   4.034   0.210   5.458
 5805TIP3    H217359   3.963   0.224   5.591
 5806TIP3   OH217360   4.015   0.340   5.727
 5806TIP3    H117361   3.939   0.372   5.774
 5806TIP3    H217362   4.049   0.417   5.680
 5807TIP3   OH217363   2.638   0.047   6.520
 5807TIP3    H117364   2.732   0.036   6.505
 5807TIP3    H217365   2.610  -0.038   6.554
 5808TIP3   OH217366   2.395   0.024   5.924
 5808TIP3    H117367   2.437   0.020   5.838
 5808TIP3    H217368   2.449   0.084   5.974
 5809TIP3   OH217369   3.544   1.229   4.934
 5809TIP3    H117370   3.596   1.217   4.855
 5809TIP3    H217371   3.593   1.292   4.986
 5810TIP3   OH217372   2.642   1.031   6.321
 5810TIP3    H117373   2.552   1.007   6.296
 5810TIP3    H217374   2.647   1.010   6.414
 5811TIP3   OH217375   3.267   1.315   6.010
 5811TIP3    H117376   3.310   1.310   6.096
 5811TIP3    H217377   3.329   1.362   5.955
 5812TIP3   OH217378   3.448   1.462   5.868
 5812TIP3    H117379   3.513   1.408   5.822
 5812TIP3    H217380   3.500   1.518   5.926
 5813TIP3   OH217381   2.485   1.293   5.905
 5813TIP3    H117382   2.401   1.331   5.881
 5813TIP3    H217383   2.524   1.356   5.966
 5814TIP3   OH217384   2.726   1.357   5.768
 5814TIP3    H117385   2.650   1.312   5.807
 5814TIP3    H217386   2.721   1.337   5.675
 5815TIP3   OH217387   3.190   1.361   5.511
 5815TIP3    H117388   3.100   1.366   5.479
 5815TIP3    H217389   3.197   1.430   5.576
 5816TIP3   OH217390   3.433   1.269   5.601
 5816TIP3    H117391   3.341   1.283   5.578
 5816TIP3    H217392   3.479   1.342   5.558
 5817TIP3   OH217393   3.641   1.459   5.513
 5817TIP3    H117394   3.626   1.542   5.467
 5817TIP3    H217395   3.666   1.398   5.443
 5818TIP3   OH217396   2.416   1.094   5.641
 5818TIP3    H117397   2.445   1.079   5.731
 5818TIP3    H217398   2.491   1.068   5.587
 5819TIP3   OH217399   2.642   0.985   5.493
 5819TIP3    H117400   2.675   0.896   5.487
 5819TIP3    H217401   2.708   1.032   5.543
 5820TIP3   OH217402   2.193   0.895   5.031
 5820TIP3    H117403   2.111   0.855   5.001
 5820TIP3    H217404   2.192   0.983   4.993
 5821TIP3   OH217405   2.974   1.070   4.609
 5821TIP3    H117406   3.060   1.095   4.576
 5821TIP3    H217407   2.948   0.996   4.553
 5822TIP3   OH217408   3.691   1.193   4.703
 5822TIP3    H117409   3.685   1.098   4.694
 5822TIP3    H217410   3.647   1.227   4.625
 5823TIP3   OH217411   2.277   0.906   4.668
 5823TIP3    H117412   2.287   0.932   4.759
 5823TIP3    H217413   2.361   0.864   4.645
 5824TIP3   OH217414   3.913   1.338   5.891
 5824TIP3    H117415   3.838   1.304   5.841
 5824TIP3    H217416   3.898   1.432   5.897
 5825TIP3   OH217417   5.180   0.709   4.656
 5825TIP3    H117418   5.157   0.800   4.638
 5825TIP3    H217419   5.108   0.658   4.620
 5826TIP3   OH217420   5.184   0.710   5.042
 5826TIP3    H117421   5.215   0.688   5.129
 5826TIP3    H217422   5.140   0.631   5.011
 5827TIP3   OH217423   4.482   0.604   5.404
 5827TIP3    H117424   4.511   0.534   5.462
 5827TIP3    H217425   4.560   0.658   5.390
 5828TIP3   OH217426   5.427   1.014   4.723
 5828TIP3    H117427   5.413   0.945   4.787
 5828TIP3    H217428   5.457   1.089   4.775
 5829TIP3   OH217429   4.457   1.013   5.125
 5829TIP3    H117430   4.445   0.918   5.127
 5829TIP3    H217431   4.552   1.025   5.121
 5830TIP3   OH217432   4.147   0.230   4.925
 5830TIP3    H117433   4.095   0.309   4.936
 5830TIP3    H217434   4.092   0.172   4.872
 5831TIP3   OH217435   4.215   0.514   5.085
 5831TIP3    H117436   4.254   0.433   5.117
 5831TIP3    H217437   4.277   0.547   5.021
 5832TIP3   OH217438   5.079   1.473   4.737
 5832TIP3    H117439   5.121   1.403   4.687
 5832TIP3    H217440   5.068   1.436   4.825
 5833TIP3   OH217441   4.984   0.935   5.086
 5833TIP3    H117442   5.018   0.858   5.041
 5833TIP3    H217443   5.062   0.984   5.113
 5834TIP3   OH217444   5.399   0.436   5.132
 5834TIP3    H117445   5.418   0.346   5.159
 5834TIP3    H217446   5.361   0.427   5.044
 5835TIP3   OH217447   4.716   0.059   5.054
 5835TIP3    H117448   4.696   0.147   5.020
 5835TIP3    H217449   4.636   0.009   5.039
 5836TIP3   OH217450   5.390   0.210   4.756
 5836TIP3    H117451   5.449   0.164   4.817
 5836TIP3    H217452   5.440   0.215   4.675
 5837TIP3   OH217453   4.345   0.294   5.182
 5837TIP3    H117454   4.433   0.301   5.219
 5837TIP3    H217455   4.354   0.235   5.107
 5838TIP3   OH217456   4.802   0.497   4.988
 5838TIP3    H117457   4.894   0.474   5.003
 5838TIP3    H217458   4.761   0.414   4.962
 5839TIP3   OH217459   6.023   0.442   5.284
 5839TIP3    H117460   5.955   0.501   5.252
 5839TIP3    H217461   6.089   0.501   5.323
 5840TIP3   OH217462   5.073   0.932   4.524
 5840TIP3    H117463   5.033   0.911   4.440
 5840TIP3    H217464   5.030   1.012   4.552
 5841TIP3   OH217465   4.835   0.857   5.310
 5841TIP3    H117466   4.774   0.921   5.347
 5841TIP3    H217467   4.877   0.903   5.238
 5842TIP3   OH217468   4.600   0.263   5.251
 5842TIP3    H117469   4.667   0.308   5.303
 5842TIP3    H217470   4.629   0.172   5.249
 5843TIP3   OH217471   4.662   1.053   5.410
 5843TIP3    H117472   4.641   1.138   5.372
 5843TIP3    H217473   4.587   1.031   5.465
 5844TIP3   OH217474   4.056   0.743   4.645
 5844TIP3    H117475   4.014   0.767   4.563
 5844TIP3    H217476   4.087   0.826   4.682
 5845TIP3   OH217477   5.493   1.258   4.885
 5845TIP3    H117478   5.407   1.246   4.925
 5845TIP3    H217479   5.488   1.342   4.841
 5846TIP3   OH217480   5.199   1.301   4.556
 5846TIP3    H117481   5.245   1.218   4.540
 5846TIP3    H217482   5.255   1.368   4.519
 5847TIP3   OH217483   5.341   1.084   4.470
 5847TIP3    H117484   5.299   1.006   4.434
 5847TIP3    H217485   5.379   1.054   4.553
 5848TIP3   OH217486   5.721   1.167   5.228
 5848TIP3    H117487   5.710   1.090   5.172
 5848TIP3    H217488   5.704   1.242   5.170
 5849TIP3   OH217489   5.013   0.568   4.485
 5849TIP3    H117490   4.933   0.616   4.466
 5849TIP3    H217491   5.057   0.560   4.400
 5850TIP3   OH217492   4.973   0.345   4.206
 5850TIP3    H117493   5.042   0.396   4.248
 5850TIP3    H217494   5.020   0.276   4.159
 5851TIP3   OH217495   5.918   0.812   5.075
 5851TIP3    H117496   5.835   0.859   5.081
 5851TIP3    H217497   5.949   0.830   4.986
 5852TIP3   OH217498   5.360   0.646   4.460
 5852TIP3    H117499   5.305   0.669   4.535
 5852TIP3    H217500   5.445   0.624   4.499
 5853TIP3   OH217501   5.593   0.685   5.378
 5853TIP3    H117502   5.591   0.764   5.431
 5853TIP3    H217503   5.509   0.686   5.332
 5854TIP3   OH217504   4.594   0.639   4.875
 5854TIP3    H117505   4.553   0.583   4.809
 5854TIP3    H217506   4.669   0.589   4.907
 5855TIP3   OH217507   4.725   1.054   5.022
 5855TIP3    H117508   4.703   1.015   4.937
 5855TIP3    H217509   4.812   1.020   5.042
 5856TIP3   OH217510   4.733   0.610   5.237
 5856TIP3    H117511   4.760   0.584   5.148
 5856TIP3    H217512   4.774   0.695   5.251
 5857TIP3   OH217513   5.256   1.251   5.009
 5857TIP3    H117514   5.242   1.330   5.062
 5857TIP3    H217515   5.240   1.179   5.070
 5858TIP3   OH217516   4.866   1.168   5.555
 5858TIP3    H117517   4.810   1.230   5.601
 5858TIP3    H217518   4.805   1.115   5.504
 5859TIP3   OH217519   5.203   0.502   4.284
 5859TIP3    H117520   5.258   0.560   4.336
 5859TIP3    H217521   5.226   0.521   4.193
 5860TIP3   OH217522   4.614   0.734   5.656
 5860TIP3    H117523   4.621   0.818   5.700
 5860TIP3    H217524   4.522   0.709   5.666
 5861TIP3   OH217525   4.948   1.179   4.560
 5861TIP3    H117526   5.029   1.230   4.571
 5861TIP3    H217527   4.886   1.241   4.521
 5862TIP3   OH217528   4.661   1.334   5.642
 5862TIP3    H117529   4.628   1.336   5.552
 5862TIP3    H217530   4.584   1.313   5.695
 5863TIP3   OH217531   4.458   0.483   4.678
 5863TIP3    H117532   4.393   0.529   4.625
 5863TIP3    H217533   4.421   0.396   4.693
 5864TIP3   OH217534   5.519   1.110   3.882
 5864TIP3    H117535   5.524   1.205   3.869
 5864TIP3    H217536   5.609   1.080   3.870
 5865TIP3   OH217537   4.241   0.868   5.587
 5865TIP3    H117538   4.174   0.850   5.521
 5865TIP3    H217539   4.278   0.782   5.608
 5866TIP3   OH217540   4.097   1.063   5.219
 5866TIP3    H117541   4.192   1.056   5.211
 5866TIP3    H217542   4.083   1.140   5.275
 5867TIP3   OH217543   5.957   1.513   5.280
 5867TIP3    H117544   5.959   1.418   5.291
 5867TIP3    H217545   5.876   1.540   5.323
 5868TIP3   OH217546   5.064   1.299   5.414
 5868TIP3    H117547   5.063   1.390   5.443
 5868TIP3    H217548   4.995   1.257   5.465
 5869TIP3   OH217549   4.828   1.428   4.363
 5869TIP3    H117550   4.781   1.409   4.282
 5869TIP3    H217551   4.795   1.514   4.390
 5870TIP3   OH217552   4.265   1.273   4.751
 5870TIP3    H117553   4.312   1.267   4.834
 5870TIP3    H217554   4.212   1.194   4.748
 5871TIP3   OH217555   5.030   1.328   4.003
 5871TIP3    H117556   5.085   1.259   3.967
 5871TIP3    H217557   5.061   1.339   4.092
 5872TIP3   OH217558   5.079   1.377   4.273
 5872TIP3    H117559   4.992   1.387   4.313
 5872TIP3    H217560   5.132   1.338   4.343
 5873TIP3   OH217561   5.846   0.633   5.547
 5873TIP3    H117562   5.767   0.666   5.503
 5873TIP3    H217563   5.838   0.538   5.542
 5874TIP3   OH217564   4.446   1.050   5.575
 5874TIP3    H117565   4.495   1.037   5.656
 5874TIP3    H217566   4.372   0.989   5.581
 5875TIP3   OH217567   5.625   0.427   5.499
 5875TIP3    H117568   5.593   0.457   5.584
 5875TIP3    H217569   5.604   0.499   5.439
 5876TIP3   OH217570   5.282   0.543   4.029
 5876TIP3    H117571   5.241   0.521   3.945
 5876TIP3    H217572   5.361   0.592   4.005
 5877TIP3   OH217573   4.794   0.396   5.396
 5877TIP3    H117574   4.735   0.412   5.470
 5877TIP3    H217575   4.781   0.472   5.339
 5878TIP3   OH217576   4.657   0.277   4.899
 5878TIP3    H117577   4.565   0.257   4.913
 5878TIP3    H217578   4.676   0.248   4.810
 5879TIP3   OH217579   5.145   0.368   4.621
 5879TIP3    H117580   5.097   0.439   4.578
 5879TIP3    H217581   5.210   0.340   4.556
 5880TIP3   OH217582   5.336   0.664   5.696
 5880TIP3    H117583   5.308   0.587   5.744
 5880TIP3    H217584   5.428   0.675   5.717
 5881TIP3   OH217585   5.288   0.428   4.878
 5881TIP3    H117586   5.235   0.475   4.814
 5881TIP3    H217587   5.314   0.347   4.833
 5882TIP3   OH217588   4.597   0.424   5.589
 5882TIP3    H117589   4.615   0.488   5.658
 5882TIP3    H217590   4.578   0.343   5.636
 5883TIP3   OH217591   4.226   0.034   4.723
 5883TIP3    H117592   4.245   0.030   4.629
 5883TIP3    H217593   4.132   0.051   4.728
 5884TIP3   OH217594   5.313   0.638   5.284
 5884TIP3    H117595   5.351   0.571   5.226
 5884TIP3    H217596   5.288   0.590   5.362
 5885TIP3   OH217597   4.405   0.151   4.942
 5885TIP3    H117598   4.317   0.186   4.933
 5885TIP3    H217599   4.406   0.073   4.887
 5886TIP3   OH217600   4.701   0.174   4.652
 5886TIP3    H117601   4.791   0.161   4.622
 5886TIP3    H217602   4.648   0.165   4.573
 5887TIP3   OH217603   4.535   0.158   4.423
 5887TIP3    H117604   4.460   0.139   4.367
 5887TIP3    H217605   4.596   0.204   4.367
 5888TIP3   OH217606   5.654   1.864   5.377
 5888TIP3    H117607   5.649   1.886   5.284
 5888TIP3    H217608   5.731   1.911   5.409
 5889TIP3   OH217609   4.606   0.975   5.801
 5889TIP3    H117610   4.687   1.003   5.843
 5889TIP3    H217611   4.541   0.975   5.871
 5890TIP3   OH217612   5.060   0.428   5.055
 5890TIP3    H117613   5.142   0.400   5.014
 5890TIP3    H217614   5.066   0.396   5.145
 5891TIP3   OH217615   5.068   0.356   5.317
 5891TIP3    H117616   4.979   0.352   5.352
 5891TIP3    H217617   5.119   0.399   5.386
 5892TIP3   OH217618   4.780   0.714   4.437
 5892TIP3    H117619   4.711   0.649   4.424
 5892TIP3    H217620   4.765   0.748   4.525
 5893TIP3   OH217621   5.682   0.951   5.063
 5893TIP3    H117622   5.707   1.000   4.984
 5893TIP3    H217623   5.599   0.909   5.040
 5894TIP3   OH217624   5.203   0.097   4.261
 5894TIP3    H117625   5.154   0.046   4.325
 5894TIP3    H217626   5.253   0.160   4.313
 5895TIP3   OH217627   5.183   1.034   5.435
 5895TIP3    H117628   5.210   1.013   5.524
 5895TIP3    H217629   5.144   1.121   5.442
 5896TIP3   OH217630   5.320   0.288   4.418
 5896TIP3    H117631   5.415   0.298   4.425
 5896TIP3    H217632   5.293   0.362   4.364
 5897TIP3   OH217633   4.480   0.736   5.111
 5897TIP3    H117634   4.516   0.709   5.027
 5897TIP3    H217635   4.519   0.675   5.174
 5898TIP3   OH217636   4.927   0.865   4.261
 5898TIP3    H117637   4.882   0.949   4.265
 5898TIP3    H217638   4.876   0.808   4.318
 5899TIP3   OH217639   4.357   0.654   5.728
 5899TIP3    H117640   4.375   0.640   5.821
 5899TIP3    H217641   4.285   0.594   5.708
 5900TIP3   OH217642   5.085   0.774   5.749
 5900TIP3    H117643   5.023   0.721   5.699
 5900TIP3    H217644   5.171   0.747   5.717
 5901TIP3   OH217645   5.341   1.294   5.332
 5901TIP3    H117646   5.246   1.290   5.343
 5901TIP3    H217647   5.371   1.344   5.408
 5902TIP3   OH217648   5.751   0.364   4.224
 5902TIP3    H117649   5.692   0.312   4.169
 5902TIP3    H217650   5.741   0.454   4.192
 5903TIP3   OH217651   5.970   1.224   5.316
 5903TIP3    H117652   5.875   1.218   5.311
 5903TIP3    H217653   6.000   1.194   5.230
 5904TIP3   OH217654   5.455   1.183   4.148
 5904TIP3    H117655   5.427   1.116   4.211
 5904TIP3    H217656   5.466   1.136   4.066
 5905TIP3   OH217657   5.448   0.813   4.980
 5905TIP3    H117658   5.356   0.790   4.995
 5905TIP3    H217659   5.485   0.737   4.936
 5906TIP3   OH217660   4.577   1.042   4.737
 5906TIP3    H117661   4.577   1.122   4.684
 5906TIP3    H217662   4.484   1.024   4.752
 5907TIP3   OH217663   4.138   0.346   4.447
 5907TIP3    H117664   4.185   0.427   4.465
 5907TIP3    H217665   4.061   0.349   4.504
 5908TIP3   OH217666   4.711   0.806   4.682
 5908TIP3    H117667   4.679   0.894   4.698
 5908TIP3    H217668   4.678   0.754   4.755
 5909TIP3   OH217669   4.850   1.384   5.206
 5909TIP3    H117670   4.889   1.456   5.156
 5909TIP3    H217671   4.924   1.347   5.255
 5910TIP3   OH217672   4.495   1.281   4.591
 5910TIP3    H117673   4.411   1.287   4.636
 5910TIP3    H217674   4.529   1.371   4.593
 5911TIP3   OH217675   5.234   1.018   5.168
 5911TIP3    H117676   5.222   1.019   5.263
 5911TIP3    H217677   5.313   0.965   5.154
 5912TIP3   OH217678   5.211   0.912   4.052
 5912TIP3    H117679   5.266   0.889   4.127
 5912TIP3    H217680   5.123   0.884   4.077
 5913TIP3   OH217681   5.481   1.550   5.215
 5913TIP3    H117682   5.405   1.493   5.212
 5913TIP3    H217683   5.467   1.614   5.145
 5914TIP3   OH217684   5.547   1.388   3.867
 5914TIP3    H117685   5.588   1.459   3.817
 5914TIP3    H217686   5.467   1.427   3.903
 5915TIP3   OH217687   5.374   0.843   4.263
 5915TIP3    H117688   5.359   0.779   4.333
 5915TIP3    H217689   5.468   0.843   4.250
 5916TIP3   OH217690   4.286   1.245   5.367
 5916TIP3    H117691   4.339   1.173   5.401
 5916TIP3    H217692   4.310   1.321   5.420
 5917TIP3   OH217693   4.574   0.889   4.050
 5917TIP3    H117694   4.588   0.799   4.021
 5917TIP3    H217695   4.554   0.882   4.143
 5918TIP3   OH217696   4.520   0.899   4.321
 5918TIP3    H117697   4.591   0.868   4.378
 5918TIP3    H217698   4.522   0.994   4.328
 5919TIP3   OH217699   4.252   0.591   4.526
 5919TIP3    H117700   4.187   0.632   4.583
 5919TIP3    H217701   4.269   0.656   4.458
 5920TIP3   OH217702   4.785   1.096   4.268
 5920TIP3    H117703   4.699   1.117   4.306
 5920TIP3    H217704   4.804   1.170   4.210
 5921TIP3   OH217705   4.989   0.147   4.646
 5921TIP3    H117706   5.039   0.228   4.639
 5921TIP3    H217707   4.993   0.124   4.739
 5922TIP3   OH217708   5.258   0.478   5.496
 5922TIP3    H117709   5.253   0.542   5.566
 5922TIP3    H217710   5.308   0.405   5.532
 5923TIP3   OH217711   4.530   1.171   4.339
 5923TIP3    H117712   4.503   1.239   4.277
 5923TIP3    H217713   4.515   1.211   4.425
 5924TIP3   OH217714   5.537   0.571   4.862
 5924TIP3    H117715   5.458   0.521   4.882
 5924TIP3    H217716   5.606   0.525   4.909
 5925TIP3   OH217717   4.252   0.796   4.328
 5925TIP3    H117718   4.318   0.864   4.340
 5925TIP3    H217719   4.290   0.736   4.263
 5926TIP3   OH217720   4.190   0.074   4.450
 5926TIP3    H117721   4.185   0.169   4.445
 5926TIP3    H217722   4.100   0.045   4.435
 5927TIP3   OH217723   5.505   1.529   4.806
 5927TIP3    H117724   5.460   1.573   4.734
 5927TIP3    H217725   5.598   1.545   4.789
 5928TIP3   OH217726   4.115   1.013   4.713
 5928TIP3    H117727   4.053   1.043   4.781
 5928TIP3    H217728   4.084   1.055   4.633
 5929TIP3   OH217729   4.281   1.559   5.788
 5929TIP3    H117730   4.363   1.563   5.836
 5929TIP3    H217731   4.259   1.465   5.786
 5930TIP3   OH217732   4.755   1.514   5.833
 5930TIP3    H117733   4.849   1.502   5.841
 5930TIP3    H217734   4.729   1.456   5.762
 5931TIP3   OH217735   4.737   1.090   3.959
 5931TIP3    H117736   4.680   1.025   3.999
 5931TIP3    H217737   4.814   1.041   3.929
 5932TIP3   OH217738   5.398   1.425   5.567
 5932TIP3    H117739   5.389   1.357   5.633
 5932TIP3    H217740   5.473   1.477   5.596
 5933TIP3   OH217741   5.174   1.132   3.874
 5933TIP3    H117742   5.212   1.068   3.934
 5933TIP3    H217743   5.232   1.130   3.797
 5934TIP3   OH217744   4.404   0.959   5.988
 5934TIP3    H117745   4.422   0.866   5.992
 5934TIP3    H217746   4.319   0.966   5.944
 5935TIP3   OH217747   4.388   0.608   4.184
 5935TIP3    H117748   4.440   0.577   4.258
 5935TIP3    H217749   4.450   0.614   4.112
 5936TIP3   OH217750   5.013   1.048   5.762
 5936TIP3    H117751   4.973   1.067   5.677
 5936TIP3    H217752   5.044   0.957   5.754
 5937TIP3   OH217753   4.898   0.810   3.992
 5937TIP3    H117754   4.899   0.826   4.086
 5937TIP3    H217755   4.900   0.715   3.984
 5938TIP3   OH217756   5.506   1.061   5.368
 5938TIP3    H117757   5.582   1.102   5.325
 5938TIP3    H217758   5.435   1.124   5.355
 5939TIP3   OH217759   4.531   0.694   5.974
 5939TIP3    H117760   4.612   0.652   5.946
 5939TIP3    H217761   4.551   0.729   6.061
 5940TIP3   OH217762   4.588   0.516   4.403
 5940TIP3    H117763   4.566   0.480   4.489
 5940TIP3    H217764   4.625   0.442   4.354
 5941TIP3   OH217765   4.861   0.611   5.630
 5941TIP3    H117766   4.779   0.661   5.628
 5941TIP3    H217767   4.906   0.636   5.549
 5942TIP3   OH217768   4.693   0.309   4.249
 5942TIP3    H117769   4.664   0.314   4.158
 5942TIP3    H217770   4.789   0.314   4.243
 5943TIP3   OH217771   5.381   0.983   5.766
 5943TIP3    H117772   5.454   0.952   5.714
 5943TIP3    H217773   5.369   0.916   5.834
 5944TIP3   OH217774   5.511   0.640   3.905
 5944TIP3    H117775   5.492   0.594   3.824
 5944TIP3    H217776   5.482   0.730   3.889
 5945TIP3   OH217777   4.946   0.390   5.751
 5945TIP3    H117778   4.902   0.326   5.695
 5945TIP3    H217779   4.923   0.475   5.714
 5946TIP3   OH217780   5.023   0.699   5.433
 5946TIP3    H117781   5.104   0.704   5.382
 5946TIP3    H217782   4.964   0.760   5.389
 5947TIP3   OH217783   5.592   0.657   5.794
 5947TIP3    H117784   5.620   0.603   5.868
 5947TIP3    H217785   5.668   0.710   5.773
 5948TIP3   OH217786   5.637   0.913   5.550
 5948TIP3    H117787   5.577   0.965   5.496
 5948TIP3    H217788   5.724   0.933   5.515
 5949TIP3   OH217789   4.827   0.512   5.982
 5949TIP3    H117790   4.786   0.433   6.020
 5949TIP3    H217791   4.887   0.478   5.915
 5950TIP3   OH217792   5.227   0.440   5.792
 5950TIP3    H117793   5.255   0.411   5.879
 5950TIP3    H217794   5.132   0.429   5.793
 5951TIP3   OH217795   4.503   1.373   4.148
 5951TIP3    H117796   4.597   1.363   4.132
 5951TIP3    H217797   4.471   1.423   4.073
 5952TIP3   OH217798   3.982   0.754   4.363
 5952TIP3    H117799   4.074   0.776   4.351
 5952TIP3    H217800   3.973   0.667   4.323
 5953TIP3   OH217801   3.895   1.362   4.782
 5953TIP3    H117802   3.829   1.305   4.744
 5953TIP3    H217803   3.940   1.307   4.847
 5954TIP3   OH217804   4.032   1.212   4.970
 5954TIP3    H117805   4.018   1.141   5.033
 5954TIP3    H217806   4.082   1.277   5.018
 5955TIP3   OH217807   5.760   1.617   4.768
 5955TIP3    H117808   5.785   1.647   4.856
 5955TIP3    H217809   5.823   1.659   4.710
 5956TIP3   OH217810   5.787   1.633   5.051
 5956TIP3    H117811   5.740   1.550   5.045
 5956TIP3    H217812   5.862   1.614   5.108
 5957TIP3   OH217813   5.832   1.316   5.623
 5957TIP3    H117814   5.761   1.322   5.687
 5957TIP3    H217815   5.875   1.401   5.626
 5958TIP3   OH217816   5.653   0.826   4.239
 5958TIP3    H117817   5.717   0.892   4.210
 5958TIP3    H217818   5.692   0.789   4.318
 5959TIP3   OH217819   5.775   0.700   4.445
 5959TIP3    H117820   5.710   0.661   4.503
 5959TIP3    H217821   5.840   0.738   4.504
 5960TIP3   OH217822   5.834   1.088   4.875
 5960TIP3    H117823   5.886   1.022   4.831
 5960TIP3    H217824   5.827   1.159   4.812
 5961TIP3   OH217825   5.659   1.387   5.070
 5961TIP3    H117826   5.591   1.428   5.123
 5961TIP3    H217827   5.612   1.340   5.001
 5962TIP3   OH217828   5.706   0.602   4.091
 5962TIP3    H117829   5.640   0.607   4.023
 5962TIP3    H217830   5.687   0.676   4.149
 5963TIP3   OH217831   5.576   0.270   4.036
 5963TIP3    H117832   5.554   0.343   3.978
 5963TIP3    H217833   5.534   0.194   3.995
 5964TIP3   OH217834   5.588   0.564   4.589
 5964TIP3    H117835   5.591   0.471   4.566
 5964TIP3    H217836   5.576   0.565   4.684
 5965TIP3   OH217837   4.217   0.622   5.338
 5965TIP3    H117838   4.211   0.593   5.247
 5965TIP3    H217839   4.312   0.625   5.356
 5966TIP3   OH217840   5.882   0.977   5.447
 5966TIP3    H117841   5.952   0.911   5.438
 5966TIP3    H217842   5.907   1.046   5.385
 5967TIP3   OH217843   6.062   0.775   5.459
 5967TIP3    H117844   5.987   0.726   5.493
 5967TIP3    H217845   6.138   0.719   5.477
 5968TIP3   OH217846   5.591   0.314   4.458
 5968TIP3    H117847   5.617   0.238   4.511
 5968TIP3    H217848   5.653   0.315   4.385
 5969TIP3   OH217849   5.747   0.445   4.989
 5969TIP3    H117850   5.829   0.467   4.944
 5969TIP3    H217851   5.758   0.480   5.077
 5970TIP3   OH217852   5.810   0.597   5.213
 5970TIP3    H117853   5.734   0.630   5.261
 5970TIP3    H217854   5.845   0.674   5.167
 5971TIP3   OH217855   4.430   0.305   6.016
 5971TIP3    H117856   4.521   0.285   5.996
 5971TIP3    H217857   4.395   0.224   6.053
 5972TIP3   OH217858   4.195   0.277   5.415
 5972TIP3    H117859   4.239   0.275   5.330
 5972TIP3    H217860   4.222   0.360   5.454
 5973TIP3   OH217861   5.342   1.485   4.422
 5973TIP3    H117862   5.393   1.472   4.343
 5973TIP3    H217863   5.391   1.550   4.472
 5974TIP3   OH217864   4.440   1.285   5.807
 5974TIP3    H117865   4.349   1.263   5.791
 5974TIP3    H217866   4.452   1.273   5.901
 5975TIP3   OH217867   4.623   1.325   5.354
 5975TIP3    H117868   4.571   1.397   5.319
 5975TIP3    H217869   4.709   1.334   5.311
 5976TIP3   OH217870   5.064   1.565   5.493
 5976TIP3    H117871   5.103   1.562   5.580
 5976TIP3    H217872   5.127   1.615   5.441
 5977TIP3   OH217873   5.244   1.718   5.355
 5977TIP3    H117874   5.312   1.665   5.312
 5977TIP3    H217875   5.293   1.775   5.415
 5978TIP3   OH217876   4.295   1.579   5.382
 5978TIP3    H117877   4.207   1.607   5.358
 5978TIP3    H217878   4.312   1.623   5.465
 5979TIP3   OH217879   4.530   1.557   5.238
 5979TIP3    H117880   4.446   1.568   5.283
 5979TIP3    H217881   4.513   1.589   5.149
 5980TIP3   OH217882   4.957   1.585   5.036
 5980TIP3    H117883   4.888   1.601   4.971
 5980TIP3    H217884   4.970   1.670   5.078
 5981TIP3   OH217885   5.226   1.524   5.087
 5981TIP3    H117886   5.133   1.538   5.069
 5981TIP3    H217887   5.270   1.597   5.044
 5982TIP3   OH217888   5.435   1.715   4.999
 5982TIP3    H117889   5.420   1.798   4.954
 5982TIP3    H217890   5.460   1.654   4.929
 5983TIP3   OH217891   4.211   1.368   5.124
 5983TIP3    H117892   4.232   1.343   5.214
 5983TIP3    H217893   4.280   1.329   5.071
 5984TIP3   OH217894   4.406   1.242   4.983
 5984TIP3    H117895   4.417   1.160   5.031
 5984TIP3    H217896   4.494   1.279   4.979
 5985TIP3   OH217897   4.672   1.334   4.989
 5985TIP3    H117898   4.699   1.243   4.975
 5985TIP3    H217899   4.716   1.360   5.070
 5986TIP3   OH217900   3.994   1.147   4.512
 5986TIP3    H117901   3.910   1.111   4.481
 5986TIP3    H217902   3.988   1.240   4.493
 5987TIP3   OH217903   4.770   1.325   4.095
 5987TIP3    H117904   4.856   1.352   4.063
 5987TIP3    H217905   4.744   1.252   4.039
 5988TIP3   OH217906   5.488   1.449   4.189
 5988TIP3    H117907   5.481   1.354   4.181
 5988TIP3    H217908   5.443   1.483   4.112
 5989TIP3   OH217909   4.073   1.166   4.153
 5989TIP3    H117910   4.072   1.187   4.247
 5989TIP3    H217911   4.158   1.125   4.139
 5990TIP3   OH217912   5.710   1.594   5.377
 5990TIP3    H117913   5.634   1.561   5.329
 5990TIP3    H217914   5.693   1.688   5.385
 5991TIP3   OH217915   6.978   0.965   4.141
 5991TIP3    H117916   6.955   1.057   4.125
 5991TIP3    H217917   6.903   0.915   4.108
 5992TIP3   OH217918   6.979   0.965   4.528
 5992TIP3    H117919   7.012   0.948   4.616
 5992TIP3    H217920   6.934   0.885   4.503
 5993TIP3   OH217921   6.277   0.859   4.890
 5993TIP3    H117922   6.305   0.790   4.950
 5993TIP3    H217923   6.354   0.915   4.881
 5994TIP3   OH217924   7.225   1.269   4.211
 5994TIP3    H117925   7.209   1.202   4.277
 5994TIP3    H217926   7.253   1.346   4.261
 5995TIP3   OH217927   6.253   1.269   4.612
 5995TIP3    H117928   6.241   1.174   4.614
 5995TIP3    H217929   6.348   1.281   4.609
 5996TIP3   OH217930   5.944   0.487   4.412
 5996TIP3    H117931   5.891   0.566   4.423
 5996TIP3    H217932   5.889   0.429   4.360
 5997TIP3   OH217933   6.010   0.770   4.572
 5997TIP3    H117934   6.049   0.689   4.605
 5997TIP3    H217935   6.074   0.803   4.509
 5998TIP3   OH217936   6.876   1.729   4.224
 5998TIP3    H117937   6.918   1.659   4.174
 5998TIP3    H217938   6.866   1.692   4.312
 5999TIP3   OH217939   6.781   1.193   4.573
 5999TIP3    H117940   6.815   1.115   4.529
 5999TIP3    H217941   6.858   1.241   4.601
 6000TIP3   OH217942   7.200   0.694   4.617
 6000TIP3    H117943   7.212   0.604   4.650
 6000TIP3    H217944   7.158   0.683   4.532
 6001TIP3   OH217945   6.515   0.313   4.534
 6001TIP3    H117946   6.494   0.403   4.507
 6001TIP3    H217947   6.431   0.267   4.527
 6002TIP3   OH217948   7.187   0.468   4.243
 6002TIP3    H117949   7.246   0.423   4.304
 6002TIP3    H217950   7.237   0.473   4.161
 6003TIP3   OH217951   6.142   0.552   4.668
 6003TIP3    H117952   6.230   0.558   4.705
 6003TIP3    H217953   6.150   0.492   4.594
 6004TIP3   OH217954   6.599   0.754   4.473
 6004TIP3    H117955   6.690   0.730   4.490
 6004TIP3    H217956   6.557   0.671   4.448
 6005TIP3   OH217957   7.824   0.701   4.770
 6005TIP3    H117958   7.751   0.757   4.741
 6005TIP3    H217959   7.887   0.762   4.807
 6006TIP3   OH217960   6.870   1.189   4.009
 6006TIP3    H117961   6.829   1.169   3.926
 6006TIP3    H217962   6.827   1.270   4.039
 6007TIP3   OH217963   6.631   1.114   4.797
 6007TIP3    H117964   6.571   1.178   4.835
 6007TIP3    H217965   6.674   1.161   4.726
 6008TIP3   OH217966   6.398   0.518   4.735
 6008TIP3    H117967   6.462   0.567   4.787
 6008TIP3    H217968   6.423   0.427   4.747
 6009TIP3   OH217969   6.457   1.310   4.897
 6009TIP3    H117970   6.436   1.395   4.860
 6009TIP3    H217971   6.383   1.288   4.954
 6010TIP3   OH217972   5.852   1.000   4.132
 6010TIP3    H117973   5.811   1.024   4.049
 6010TIP3    H217974   5.883   1.082   4.169
 6011TIP3   OH217975   7.289   1.514   4.370
 6011TIP3    H117976   7.203   1.502   4.411
 6011TIP3    H217977   7.284   1.599   4.327
 6012TIP3   OH217978   6.995   1.557   4.042
 6012TIP3    H117979   7.042   1.474   4.026
 6012TIP3    H217980   7.052   1.624   4.005
 6013TIP3   OH217981   7.137   1.340   3.959
 6013TIP3    H117982   7.091   1.263   3.925
 6013TIP3    H217983   7.176   1.310   4.041
 6014TIP3   OH217984   7.519   1.426   4.715
 6014TIP3    H117985   7.507   1.347   4.663
 6014TIP3    H217986   7.501   1.498   4.654
 6015TIP3   OH217987   6.808   0.823   3.971
 6015TIP3    H117988   6.727   0.872   3.954
 6015TIP3    H217989   6.852   0.819   3.885
 6016TIP3   OH217990   6.768   0.603   3.691
 6016TIP3    H117991   6.837   0.653   3.735
 6016TIP3    H217992   6.816   0.534   3.643
 6017TIP3   OH217993   7.704   1.054   4.551
 6017TIP3    H117994   7.627   1.109   4.565
 6017TIP3    H217995   7.742   1.086   4.469
 6018TIP3   OH217996   7.157   0.902   3.946
 6018TIP3    H117997   7.100   0.925   4.020
 6018TIP3    H217998   7.241   0.880   3.986
 6019TIP3   OH217999   7.384   0.928   4.853
 6019TIP3    H118000   7.396   1.002   4.912
 6019TIP3    H218001   7.298   0.944   4.813
 6020TIP3   OH218002   6.391   0.896   4.361
 6020TIP3    H118003   6.350   0.839   4.296
 6020TIP3    H218004   6.465   0.846   4.394
 6021TIP3   OH218005   6.522   1.311   4.509
 6021TIP3    H118006   6.500   1.271   4.424
 6021TIP3    H218007   6.609   1.277   4.529
 6022TIP3   OH218008   6.529   0.867   4.723
 6022TIP3    H118009   6.558   0.842   4.635
 6022TIP3    H218010   6.570   0.952   4.739
 6023TIP3   OH218011   7.052   1.507   4.496
 6023TIP3    H118012   7.039   1.585   4.550
 6023TIP3    H218013   7.037   1.434   4.557
 6024TIP3   OH218014   6.662   1.428   5.040
 6024TIP3    H118015   6.605   1.488   5.088
 6024TIP3    H218016   6.602   1.373   4.991
 6025TIP3   OH218017   7.000   0.758   3.770
 6025TIP3    H118018   7.054   0.818   3.822
 6025TIP3    H218019   7.023   0.777   3.680
 6026TIP3   OH218020   6.409   0.992   5.139
 6026TIP3    H118021   6.418   1.075   5.187
 6026TIP3    H218022   6.318   0.966   5.153
 6027TIP3   OH218023   6.744   1.436   4.047
 6027TIP3    H118024   6.825   1.487   4.058
 6027TIP3    H218025   6.682   1.498   4.008
 6028TIP3   OH218026   6.455   1.594   5.129
 6028TIP3    H118027   6.424   1.593   5.038
 6028TIP3    H218028   6.378   1.572   5.181
 6029TIP3   OH218029   6.256   0.739   4.163
 6029TIP3    H118030   6.190   0.785   4.111
 6029TIP3    H218031   6.217   0.653   4.181
 6030TIP3   OH218032   7.309   1.369   3.369
 6030TIP3    H118033   7.316   1.463   3.356
 6030TIP3    H218034   7.399   1.336   3.358
 6031TIP3   OH218035   6.037   1.124   5.074
 6031TIP3    H118036   5.971   1.104   5.008
 6031TIP3    H218037   6.075   1.039   5.097
 6032TIP3   OH218038   5.893   1.319   4.706
 6032TIP3    H118039   5.988   1.311   4.698
 6032TIP3    H218040   5.880   1.396   4.762
 6033TIP3   OH218041   7.758   1.771   4.768
 6033TIP3    H118042   7.762   1.676   4.780
 6033TIP3    H218043   7.676   1.797   4.810
 6034TIP3   OH218044   6.858   1.558   4.899
 6034TIP3    H118045   6.858   1.648   4.931
 6034TIP3    H218046   6.791   1.514   4.950
 6035TIP3   OH218047   6.624   1.684   3.850
 6035TIP3    H118048   6.578   1.665   3.769
 6035TIP3    H218049   6.592   1.770   3.876
 6036TIP3   OH218050   6.061   1.530   4.237
 6036TIP3    H118051   6.108   1.524   4.321
 6036TIP3    H218052   6.008   1.451   4.234
 6037TIP3   OH218053   6.826   1.584   3.490
 6037TIP3    H118054   6.881   1.516   3.453
 6037TIP3    H218055   6.858   1.595   3.579
 6038TIP3   OH218056   6.874   1.634   3.760
 6038TIP3    H118057   6.788   1.643   3.799
 6038TIP3    H218058   6.928   1.596   3.830
 6039TIP3   OH218059   7.645   0.883   5.047
 6039TIP3    H118060   7.572   0.937   5.019
 6039TIP3    H218061   7.620   0.793   5.023
 6040TIP3   OH218062   6.241   1.308   5.063
 6040TIP3    H118063   6.292   1.292   5.143
 6040TIP3    H218064   6.169   1.246   5.069
 6041TIP3   OH218065   7.421   0.684   4.986
 6041TIP3    H118066   7.387   0.716   5.069
 6041TIP3    H218067   7.401   0.754   4.924
 6042TIP3   OH218068   7.078   0.796   3.514
 6042TIP3    H118069   7.038   0.776   3.429
 6042TIP3    H218070   7.155   0.848   3.492
 6043TIP3   OH218071   6.589   0.653   4.882
 6043TIP3    H118072   6.531   0.669   4.957
 6043TIP3    H218073   6.577   0.729   4.826
 6044TIP3   OH218074   6.454   0.534   4.385
 6044TIP3    H118075   6.362   0.512   4.400
 6044TIP3    H218076   6.472   0.504   4.296
 6045TIP3   OH218077   6.940   0.624   4.107
 6045TIP3    H118078   6.892   0.695   4.065
 6045TIP3    H218079   7.006   0.598   4.043
 6046TIP3   OH218080   7.127   0.916   5.178
 6046TIP3    H118081   7.106   0.839   5.230
 6046TIP3    H218082   7.218   0.936   5.199
 6047TIP3   OH218083   7.083   0.684   4.366
 6047TIP3    H118084   7.030   0.733   4.303
 6047TIP3    H218085   7.109   0.605   4.319
 6048TIP3   OH218086   6.392   0.680   5.077
 6048TIP3    H118087   6.414   0.743   5.146
 6048TIP3    H218088   6.375   0.598   5.124
 6049TIP3   OH218089   6.023   0.290   4.211
 6049TIP3    H118090   6.041   0.282   4.117
 6049TIP3    H218091   5.929   0.309   4.216
 6050TIP3   OH218092   7.101   0.894   4.767
 6050TIP3    H118093   7.145   0.829   4.712
 6050TIP3    H218094   7.081   0.847   4.848
 6051TIP3   OH218095   6.202   0.407   4.429
 6051TIP3    H118096   6.114   0.443   4.421
 6051TIP3    H218097   6.202   0.329   4.374
 6052TIP3   OH218098   6.499   0.430   4.138
 6052TIP3    H118099   6.588   0.417   4.104
 6052TIP3    H218100   6.443   0.422   4.061
 6053TIP3   OH218101   6.333   0.412   3.911
 6053TIP3    H118102   6.257   0.395   3.855
 6053TIP3    H218103   6.393   0.460   3.854
 6054TIP3   OH218104   7.449   2.122   4.864
 6054TIP3    H118105   7.445   2.141   4.770
 6054TIP3    H218106   7.528   2.168   4.895
 6055TIP3   OH218107   6.403   1.234   5.287
 6055TIP3    H118108   6.484   1.259   5.330
 6055TIP3    H218109   6.338   1.229   5.357
 6056TIP3   OH218110   6.855   0.684   4.542
 6056TIP3    H118111   6.938   0.657   4.502
 6056TIP3    H218112   6.860   0.653   4.632
 6057TIP3   OH218113   6.864   0.613   4.804
 6057TIP3    H118114   6.776   0.609   4.839
 6057TIP3    H218115   6.916   0.656   4.872
 6058TIP3   OH218116   6.577   0.970   3.924
 6058TIP3    H118117   6.507   0.906   3.910
 6058TIP3    H218118   6.561   1.004   4.012
 6059TIP3   OH218119   7.478   1.208   4.550
 6059TIP3    H118120   7.503   1.257   4.472
 6059TIP3    H218121   7.394   1.168   4.528
 6060TIP3   OH218122   7.016   0.352   3.746
 6060TIP3    H118123   6.956   0.301   3.799
 6060TIP3    H218124   7.053   0.417   3.806
 6061TIP3   OH218125   6.974   1.287   4.923
 6061TIP3    H118126   7.020   1.267   5.004
 6061TIP3    H218127   6.941   1.376   4.935
 6062TIP3   OH218128   7.118   0.547   3.905
 6062TIP3    H118129   7.212   0.558   3.914
 6062TIP3    H218130   7.090   0.622   3.853
 6063TIP3   OH218131   6.275   0.991   4.598
 6063TIP3    H118132   6.313   0.965   4.514
 6063TIP3    H218133   6.315   0.933   4.662
 6064TIP3   OH218134   6.723   1.121   3.748
 6064TIP3    H118135   6.678   1.205   3.751
 6064TIP3    H218136   6.672   1.065   3.806
 6065TIP3   OH218137   6.153   0.912   5.215
 6065TIP3    H118138   6.173   0.899   5.308
 6065TIP3    H218139   6.083   0.849   5.196
 6066TIP3   OH218140   6.881   1.031   5.236
 6066TIP3    H118141   6.820   0.977   5.186
 6066TIP3    H218142   6.967   1.005   5.205
 6067TIP3   OH218143   7.136   1.555   4.819
 6067TIP3    H118144   7.041   1.549   4.830
 6067TIP3    H218145   7.166   1.603   4.896
 6068TIP3   OH218146   7.548   0.618   3.710
 6068TIP3    H118147   7.490   0.567   3.654
 6068TIP3    H218148   7.538   0.708   3.679
 6069TIP3   OH218149   7.767   1.487   4.802
 6069TIP3    H118150   7.672   1.475   4.798
 6069TIP3    H218151   7.799   1.455   4.718
 6070TIP3   OH218152   7.249   1.440   3.635
 6070TIP3    H118153   7.223   1.372   3.698
 6070TIP3    H218154   7.260   1.394   3.553
 6071TIP3   OH218155   7.243   1.072   4.463
 6071TIP3    H118156   7.152   1.048   4.482
 6071TIP3    H218157   7.280   0.994   4.422
 6072TIP3   OH218158   6.373   1.298   4.223
 6072TIP3    H118159   6.373   1.378   4.170
 6072TIP3    H218160   6.280   1.280   4.239
 6073TIP3   OH218161   5.934   0.602   3.935
 6073TIP3    H118162   5.982   0.683   3.952
 6073TIP3    H218163   5.859   0.605   3.993
 6074TIP3   OH218164   6.507   1.063   4.168
 6074TIP3    H118165   6.475   1.151   4.185
 6074TIP3    H218166   6.474   1.010   4.241
 6075TIP3   OH218167   6.647   1.641   4.693
 6075TIP3    H118168   6.686   1.712   4.643
 6075TIP3    H218169   6.720   1.602   4.741
 6076TIP3   OH218170   6.291   1.538   4.077
 6076TIP3    H118171   6.207   1.543   4.122
 6076TIP3    H218172   6.324   1.628   4.079
 6077TIP3   OH218173   7.031   1.275   4.657
 6077TIP3    H118174   7.015   1.275   4.751
 6077TIP3    H218175   7.113   1.227   4.646
 6078TIP3   OH218176   7.006   1.167   3.538
 6078TIP3    H118177   7.060   1.144   3.614
 6078TIP3    H218178   6.917   1.142   3.564
 6079TIP3   OH218179   7.277   1.807   4.703
 6079TIP3    H118180   7.202   1.749   4.700
 6079TIP3    H218181   7.263   1.870   4.632
 6080TIP3   OH218182   7.342   1.647   3.354
 6080TIP3    H118183   7.379   1.718   3.302
 6080TIP3    H218184   7.263   1.683   3.392
 6081TIP3   OH218185   7.170   1.096   3.749
 6081TIP3    H118186   7.157   1.035   3.820
 6081TIP3    H218187   7.265   1.099   3.736
 6082TIP3   OH218188   6.083   1.502   4.853
 6082TIP3    H118189   6.134   1.428   4.886
 6082TIP3    H218190   6.107   1.575   4.909
 6083TIP3   OH218191   6.371   1.146   3.537
 6083TIP3    H118192   6.384   1.056   3.508
 6083TIP3    H218193   6.351   1.139   3.631
 6084TIP3   OH218194   6.316   1.155   3.808
 6084TIP3    H118195   6.387   1.125   3.866
 6084TIP3    H218196   6.318   1.250   3.815
 6085TIP3   OH218197   6.048   0.848   4.012
 6085TIP3    H118198   5.984   0.889   4.070
 6085TIP3    H218199   6.065   0.913   3.944
 6086TIP3   OH218200   6.581   1.352   3.755
 6086TIP3    H118201   6.496   1.373   3.793
 6086TIP3    H218202   6.601   1.425   3.696
 6087TIP3   OH218203   6.791   0.401   4.132
 6087TIP3    H118204   6.839   0.483   4.127
 6087TIP3    H218205   6.783   0.383   4.225
 6088TIP3   OH218206   7.054   0.735   4.982
 6088TIP3    H118207   7.052   0.804   5.049
 6088TIP3    H218208   7.103   0.664   5.023
 6089TIP3   OH218209   6.327   1.428   3.826
 6089TIP3    H118210   6.298   1.495   3.763
 6089TIP3    H218211   6.311   1.468   3.911
 6090TIP3   OH218212   7.333   0.825   4.347
 6090TIP3    H118213   7.253   0.779   4.371
 6090TIP3    H218214   7.402   0.781   4.397
 6091TIP3   OH218215   6.048   1.052   3.814
 6091TIP3    H118216   6.113   1.121   3.827
 6091TIP3    H218217   6.087   0.994   3.749
 6092TIP3   OH218218   5.991   0.329   3.933
 6092TIP3    H118219   5.982   0.424   3.932
 6092TIP3    H218220   5.901   0.296   3.922
 6093TIP3   OH218221   7.301   1.786   4.292
 6093TIP3    H118222   7.256   1.830   4.220
 6093TIP3    H218223   7.394   1.804   4.277
 6094TIP3   OH218224   5.911   1.270   4.200
 6094TIP3    H118225   5.849   1.299   4.267
 6094TIP3    H218226   5.880   1.312   4.120
 6095TIP3   OH218227   6.075   1.813   5.276
 6095TIP3    H118228   6.160   1.815   5.321
 6095TIP3    H218229   6.052   1.720   5.272
 6096TIP3   OH218230   6.555   1.771   5.317
 6096TIP3    H118231   6.648   1.750   5.326
 6096TIP3    H218232   6.524   1.714   5.247
 6097TIP3   OH218233   6.533   1.347   3.445
 6097TIP3    H118234   6.477   1.280   3.485
 6097TIP3    H218235   6.609   1.299   3.414
 6098TIP3   OH218236   7.189   1.683   5.057
 6098TIP3    H118237   7.182   1.613   5.121
 6098TIP3    H218238   7.268   1.731   5.082
 6099TIP3   OH218239   6.971   1.389   3.359
 6099TIP3    H118240   7.011   1.327   3.419
 6099TIP3    H218241   7.027   1.388   3.282
 6100TIP3   OH218242   6.200   1.219   5.475
 6100TIP3    H118243   6.221   1.126   5.481
 6100TIP3    H218244   6.116   1.222   5.430
 6101TIP3   OH218245   6.184   0.865   3.670
 6101TIP3    H118246   6.236   0.835   3.745
 6101TIP3    H218247   6.247   0.871   3.598
 6102TIP3   OH218248   6.807   1.304   5.249
 6102TIP3    H118249   6.771   1.321   5.162
 6102TIP3    H218250   6.842   1.214   5.243
 6103TIP3   OH218251   6.695   1.067   3.480
 6103TIP3    H118252   6.695   1.083   3.574
 6103TIP3    H218253   6.695   0.972   3.471
 6104TIP3   OH218254   7.297   1.319   4.850
 6104TIP3    H118255   7.379   1.356   4.816
 6104TIP3    H218256   7.233   1.389   4.838
 6105TIP3   OH218257   6.327   0.959   5.459
 6105TIP3    H118258   6.401   0.901   5.438
 6105TIP3    H218259   6.344   0.989   5.548
 6106TIP3   OH218260   6.384   0.773   3.890
 6106TIP3    H118261   6.361   0.738   3.976
 6106TIP3    H218262   6.421   0.699   3.842
 6107TIP3   OH218263   6.655   0.865   5.115
 6107TIP3    H118264   6.574   0.917   5.113
 6107TIP3    H218265   6.701   0.891   5.035
 6108TIP3   OH218266   6.489   0.566   3.736
 6108TIP3    H118267   6.459   0.571   3.645
 6108TIP3    H218268   6.584   0.571   3.729
 6109TIP3   OH218269   7.181   1.240   5.242
 6109TIP3    H118270   7.276   1.248   5.235
 6109TIP3    H218271   7.168   1.177   5.313
 6110TIP3   OH218272   7.307   0.896   3.392
 6110TIP3    H118273   7.289   0.850   3.310
 6110TIP3    H218274   7.278   0.985   3.377
 6111TIP3   OH218275   6.743   0.644   5.236
 6111TIP3    H118276   6.698   0.582   5.179
 6111TIP3    H218277   6.720   0.730   5.201
 6112TIP3   OH218278   6.818   0.953   4.918
 6112TIP3    H118279   6.901   0.960   4.871
 6112TIP3    H218280   6.761   1.017   4.875
 6113TIP3   OH218281   7.381   0.919   5.286
 6113TIP3    H118282   7.423   0.868   5.355
 6113TIP3    H218283   7.442   0.991   5.269
 6114TIP3   OH218284   7.429   1.136   5.012
 6114TIP3    H118285   7.366   1.200   4.978
 6114TIP3    H218286   7.514   1.176   4.997
 6115TIP3   OH218287   6.636   0.774   5.463
 6115TIP3    H118288   6.582   0.710   5.510
 6115TIP3    H218289   6.686   0.721   5.400
 6116TIP3   OH218290   7.024   0.689   5.278
 6116TIP3    H118291   7.048   0.667   5.368
 6116TIP3    H218292   6.928   0.684   5.278
 6117TIP3   OH218293   6.299   1.630   3.635
 6117TIP3    H118294   6.393   1.620   3.619
 6117TIP3    H218295   6.267   1.679   3.559
 6118TIP3   OH218296   5.778   1.010   3.849
 6118TIP3    H118297   5.870   1.032   3.838
 6118TIP3    H218298   5.769   0.923   3.810
 6119TIP3   OH218299   5.693   1.618   4.269
 6119TIP3    H118300   5.626   1.561   4.230
 6119TIP3    H218301   5.737   1.563   4.333
 6120TIP3   OH218302   5.828   1.468   4.457
 6120TIP3    H118303   5.813   1.397   4.519
 6120TIP3    H218304   5.879   1.533   4.506
 6121TIP3   OH218305   7.554   1.876   4.254
 6121TIP3    H118306   7.582   1.906   4.341
 6121TIP3    H218307   7.623   1.906   4.195
 6122TIP3   OH218308   7.583   1.891   4.538
 6122TIP3    H118309   7.536   1.808   4.532
 6122TIP3    H218310   7.661   1.871   4.590
 6123TIP3   OH218311   7.633   1.570   5.106
 6123TIP3    H118312   7.563   1.564   5.171
 6123TIP3    H218313   7.669   1.658   5.117
 6124TIP3   OH218314   7.449   1.084   3.724
 6124TIP3    H118315   7.513   1.149   3.694
 6124TIP3    H218316   7.488   1.048   3.804
 6125TIP3   OH218317   7.568   0.964   3.937
 6125TIP3    H118318   7.500   0.918   3.988
 6125TIP3    H218319   7.624   1.004   4.003
 6126TIP3   OH218320   7.629   1.344   4.360
 6126TIP3    H118321   7.678   1.282   4.308
 6126TIP3    H218322   7.622   1.422   4.305
 6127TIP3   OH218323   7.454   1.644   4.555
 6127TIP3    H118324   7.387   1.683   4.610
 6127TIP3    H218325   7.406   1.597   4.487
 6128TIP3   OH218326   7.500   0.857   3.579
 6128TIP3    H118327   7.435   0.864   3.510
 6128TIP3    H218328   7.484   0.933   3.635
 6129TIP3   OH218329   7.375   0.516   3.517
 6129TIP3    H118330   7.359   0.601   3.475
 6129TIP3    H218331   7.320   0.454   3.469
 6130TIP3   OH218332   7.386   0.819   4.076
 6130TIP3    H118333   7.389   0.726   4.054
 6130TIP3    H218334   7.372   0.821   4.171
 6131TIP3   OH218335   6.014   0.881   4.824
 6131TIP3    H118336   6.008   0.851   4.734
 6131TIP3    H218337   6.108   0.882   4.843
 6132TIP3   OH218338   7.670   1.226   4.923
 6132TIP3    H118339   7.746   1.168   4.926
 6132TIP3    H218340   7.704   1.311   4.895
 6133TIP3   OH218341   7.854   1.027   4.950
 6133TIP3    H118342   7.781   0.980   4.991
 6133TIP3    H218343   7.930   0.970   4.963
 6134TIP3   OH218344   7.389   0.568   3.945
 6134TIP3    H118345   7.415   0.491   3.996
 6134TIP3    H218346   7.453   0.572   3.874
 6135TIP3   OH218347   7.546   0.703   4.473
 6135TIP3    H118348   7.627   0.726   4.429
 6135TIP3    H218349   7.555   0.737   4.562
 6136TIP3   OH218350   7.605   0.848   4.701
 6136TIP3    H118351   7.529   0.878   4.750
 6136TIP3    H218352   7.637   0.926   4.655
 6137TIP3   OH218353   6.224   0.563   5.503
 6137TIP3    H118354   6.320   0.555   5.509
 6137TIP3    H218355   6.192   0.476   5.526
 6138TIP3   OH218356   5.990   0.534   4.900
 6138TIP3    H118357   6.036   0.533   4.816
 6138TIP3    H218358   6.020   0.614   4.943
 6139TIP3   OH218359   7.137   1.742   3.909
 6139TIP3    H118360   7.189   1.729   3.829
 6139TIP3    H218361   7.187   1.806   3.959
 6140TIP3   OH218362   6.236   1.547   5.295
 6140TIP3    H118363   6.145   1.520   5.277
 6140TIP3    H218364   6.250   1.523   5.386
 6141TIP3   OH218365   6.419   1.582   4.841
 6141TIP3    H118366   6.368   1.654   4.805
 6141TIP3    H218367   6.505   1.590   4.799
 6142TIP3   OH218368   6.862   1.824   4.984
 6142TIP3    H118369   6.902   1.821   5.071
 6142TIP3    H218370   6.925   1.872   4.930
 6143TIP3   OH218371   7.041   1.974   4.842
 6143TIP3    H118372   7.108   1.921   4.798
 6143TIP3    H218373   7.091   2.031   4.901
 6144TIP3   OH218374   6.091   1.836   4.867
 6144TIP3    H118375   6.003   1.865   4.843
 6144TIP3    H218376   6.106   1.875   4.953
 6145TIP3   OH218377   6.327   1.815   4.725
 6145TIP3    H118378   6.243   1.825   4.770
 6145TIP3    H218379   6.310   1.845   4.636
 6146TIP3   OH218380   6.754   1.842   4.523
 6146TIP3    H118381   6.685   1.858   4.458
 6146TIP3    H218382   6.767   1.927   4.565
 6147TIP3   OH218383   7.023   1.781   4.574
 6147TIP3    H118384   6.930   1.796   4.555
 6147TIP3    H218385   7.068   1.853   4.531
 6148TIP3   OH218386   7.229   1.971   4.485
 6148TIP3    H118387   7.215   2.054   4.440
 6148TIP3    H218388   7.256   1.910   4.416
 6149TIP3   OH218389   6.007   1.625   4.611
 6149TIP3    H118390   6.028   1.600   4.701
 6149TIP3    H218391   6.076   1.585   4.558
 6150TIP3   OH218392   6.202   1.499   4.471
 6150TIP3    H118393   6.213   1.416   4.518
 6150TIP3    H218394   6.290   1.535   4.467
 6151TIP3   OH218395   6.469   1.590   4.476
 6151TIP3    H118396   6.495   1.499   4.463
 6151TIP3    H218397   6.513   1.616   4.557
 6152TIP3   OH218398   5.790   1.403   3.998
 6152TIP3    H118399   5.706   1.367   3.968
 6152TIP3    H218400   5.784   1.497   3.979
 6153TIP3   OH218401   6.566   1.582   3.582
 6153TIP3    H118402   6.652   1.609   3.549
 6153TIP3    H218403   6.540   1.509   3.526
 6154TIP3   OH218404   7.284   1.706   3.676
 6154TIP3    H118405   7.277   1.611   3.668
 6154TIP3    H218406   7.239   1.740   3.599
 6155TIP3   OH218407   5.869   1.422   3.640
 6155TIP3    H118408   5.869   1.444   3.733
 6155TIP3    H218409   5.954   1.381   3.625
 6156TIP3   OH218410   7.508   1.852   4.862
 6156TIP3    H118411   7.433   1.817   4.815
 6156TIP3    H218412   7.489   1.946   4.871
 6157TIP3   OH218413   8.025   1.513   4.133
 6157TIP3    H118414   7.993   1.436   4.085
 6157TIP3    H218415   8.118   1.518   4.110
 6158TIP3   OH218416   7.749   0.758   3.917
 6158TIP3    H118417   7.681   0.824   3.908
 6158TIP3    H218418   7.721   0.686   3.861
 6159TIP3   OH218419   7.834   1.017   4.056
 6159TIP3    H118420   7.841   0.923   4.042
 6159TIP3    H218421   7.870   1.056   3.977
 6160TIP3   OH218422   7.648   1.252   3.620
 6160TIP3    H118423   7.604   1.277   3.538
 6160TIP3    H218424   7.673   1.335   3.659
 6161TIP3   OH218425   8.211   1.885   4.591
 6161TIP3    H118426   8.179   1.883   4.501
 6161TIP3    H218427   8.133   1.876   4.645
 6162TIP3   OH218428   7.840   1.385   4.559
 6162TIP3    H118429   7.767   1.358   4.503
 6162TIP3    H218430   7.872   1.303   4.596
 6163TIP3   OH218431   7.696   1.577   4.197
 6163TIP3    H118432   7.791   1.576   4.193
 6163TIP3    H218433   7.674   1.652   4.252
 6164TIP3   OH218434   7.828   1.781   3.718
 6164TIP3    H118435   7.913   1.794   3.761
 6164TIP3    H218436   7.783   1.716   3.771
 6165TIP3   OH218437   8.044   1.565   4.536
 6165TIP3    H118438   8.098   1.536   4.610
 6165TIP3    H218439   7.967   1.509   4.539
 6166TIP3   OH218440   7.813   0.538   3.685
 6166TIP3    H118441   7.829   0.555   3.592
 6166TIP3    H218442   7.720   0.557   3.697
 6167TIP3   OH218443   8.186   1.463   4.745
 6167TIP3    H118444   8.252   1.530   4.766
 6167TIP3    H218445   8.134   1.455   4.825
 6168TIP3   OH218446   7.936   1.174   4.701
 6168TIP3    H118447   7.981   1.177   4.785
 6168TIP3    H218448   7.872   1.103   4.710
 6169TIP3   OH218449   7.727   0.847   3.420
 6169TIP3    H118450   7.775   0.929   3.434
 6169TIP3    H218451   7.651   0.854   3.478
 6170TIP3   OH218452   7.876   1.758   4.342
 6170TIP3    H118453   7.932   1.691   4.380
 6170TIP3    H218454   7.904   1.840   4.383
 6171TIP3   OH218455   7.822   1.090   3.482
 6171TIP3    H118456   7.767   1.136   3.546
 6171TIP3    H218457   7.846   1.157   3.418
 6172TIP3   OH218458   7.834   1.296   3.284
 6172TIP3    H118459   7.898   1.358   3.317
 6172TIP3    H218460   7.861   1.279   3.194
 6173TIP3   OH218461   7.789   0.583   3.412
 6173TIP3    H118462   7.782   0.678   3.414
 6173TIP3    H218463   7.699   0.552   3.404
 6174TIP3   OH218464   7.690   1.508   3.690
 6174TIP3    H118465   7.636   1.553   3.755
 6174TIP3    H218466   7.686   1.564   3.612
 6175TIP3   OH218467   7.867   2.064   4.764
 6175TIP3    H118468   7.954   2.060   4.805
 6175TIP3    H218469   7.837   1.974   4.762
 6176TIP3   OH218470   7.998   1.478   4.960
 6176TIP3    H118471   8.009   1.385   4.979
 6176TIP3    H218472   7.911   1.484   4.920
 6177TIP3   OH218473   8.109   1.210   4.946
 6177TIP3    H118474   8.178   1.146   4.927
 6177TIP3    H218475   8.131   1.244   5.033
 6178TIP3   OH218476   7.565   1.263   3.336
 6178TIP3    H118477   7.658   1.282   3.325
 6178TIP3    H218478   7.554   1.175   3.300
 6179TIP3   OH218479   7.488   1.876   3.757
 6179TIP3    H118480   7.421   1.818   3.720
 6179TIP3    H218481   7.536   1.820   3.818
 6180TIP3   OH218482   7.628   1.721   3.940
 6180TIP3    H118483   7.614   1.653   4.006
 6180TIP3    H218484   7.678   1.789   3.985
 6181TIP3   OH218485   7.819   1.134   4.307
 6181TIP3    H118486   7.815   1.094   4.220
 6181TIP3    H218487   7.910   1.162   4.316
 6182TIP3   OH218488   8.024   0.816   4.984
 6182TIP3    H118489   8.118   0.809   4.997
 6182TIP3    H218490   7.987   0.741   5.030
 6183TIP3   OH218491   7.790   0.787   4.379
 6183TIP3    H118492   7.861   0.781   4.315
 6183TIP3    H218493   7.803   0.872   4.421
 6184TIP3   OH218494   8.035   1.797   4.792
 6184TIP3    H118495   7.948   1.770   4.763
 6184TIP3    H218496   8.039   1.770   4.884
 6185TIP3   OH218497   7.875   2.078   4.361
 6185TIP3    H118498   7.791   2.116   4.335
 6185TIP3    H218499   7.904   2.131   4.435
 6186TIP3   OH218500   8.130   2.062   4.228
 6186TIP3    H118501   8.040   2.071   4.258
 6186TIP3    H218502   8.129   2.095   4.138
 6187TIP3   OH218503   7.795   1.884   4.100
 6187TIP3    H118504   7.823   1.866   4.190
 6187TIP3    H218505   7.864   1.846   4.045
 6188TIP3   OH218506   7.980   1.749   3.958
 6188TIP3    H118507   7.989   1.662   3.998
 6188TIP3    H218508   8.068   1.770   3.928
 6189TIP3   OH218509   7.595   1.654   3.474
 6189TIP3    H118510   7.507   1.626   3.448
 6189TIP3    H218511   7.591   1.750   3.474
 6190TIP3   OH218512   7.664   1.688   3.144
 6190TIP3    H118513   7.628   1.723   3.226
 6190TIP3    H218514   7.733   1.628   3.172
 6191TIP3   OH218515   1.226   2.010   5.317
 6191TIP3    H118516   1.202   2.101   5.301
 6191TIP3    H218517   1.151   1.960   5.285
 6192TIP3   OH218518   1.230   2.008   5.704
 6192TIP3    H118519   1.263   1.991   5.792
 6192TIP3    H218520   1.186   1.926   5.679
 6193TIP3   OH218521   0.536   1.908   6.076
 6193TIP3    H118522   0.564   1.907   6.167
 6193TIP3    H218523   0.604   1.958   6.030
 6194TIP3   OH218524   1.473   2.313   5.388
 6194TIP3    H118525   1.458   2.249   5.458
 6194TIP3    H218526   1.502   2.392   5.434
 6195TIP3   OH218527   0.502   2.313   5.789
 6195TIP3    H118528   0.494   2.217   5.793
 6195TIP3    H218529   0.596   2.328   5.782
 6196TIP3   OH218530   0.260   1.816   5.758
 6196TIP3    H118531   0.317   1.751   5.799
 6196TIP3    H218532   0.311   1.848   5.684
 6197TIP3   OH218533   1.120   2.772   5.399
 6197TIP3    H118534   1.164   2.701   5.352
 6197TIP3    H218535   1.113   2.740   5.489
 6198TIP3   OH218536   1.029   2.233   5.753
 6198TIP3    H118537   1.066   2.161   5.702
 6198TIP3    H218538   1.104   2.284   5.781
 6199TIP3   OH218539   2.038   1.572   5.745
 6199TIP3    H118540   2.069   1.634   5.811
 6199TIP3    H218541   2.038   1.621   5.663
 6200TIP3   OH218542   1.438   1.735   5.780
 6200TIP3    H118543   1.478   1.652   5.803
 6200TIP3    H218544   1.405   1.722   5.691
 6201TIP3   OH218545   0.789   1.404   5.731
 6201TIP3    H118546   0.772   1.476   5.670
 6201TIP3    H218547   0.751   1.327   5.687
 6202TIP3   OH218548   1.482   1.489   5.373
 6202TIP3    H118549   1.552   1.469   5.435
 6202TIP3    H218550   1.528   1.527   5.297
 6203TIP3   OH218551   0.418   1.618   5.866
 6203TIP3    H118552   0.494   1.578   5.907
 6203TIP3    H218553   0.395   1.559   5.794
 6204TIP3   OH218554   0.853   1.797   5.650
 6204TIP3    H118555   0.946   1.777   5.662
 6204TIP3    H218556   0.816   1.718   5.611
 6205TIP3   OH218557   2.101   1.759   5.931
 6205TIP3    H118558   2.024   1.813   5.914
 6205TIP3    H218559   2.144   1.802   6.005
 6206TIP3   OH218560   0.788   1.375   6.167
 6206TIP3    H118561   0.735   1.418   6.100
 6206TIP3    H218562   0.730   1.367   6.242
 6207TIP3   OH218563   1.114   2.231   5.189
 6207TIP3    H118564   1.078   2.218   5.100
 6207TIP3    H218565   1.075   2.313   5.218
 6208TIP3   OH218566   0.880   2.157   5.977
 6208TIP3    H118567   0.821   2.224   6.012
 6208TIP3    H218568   0.927   2.201   5.907
 6209TIP3   OH218569   1.694   1.478   5.559
 6209TIP3    H118570   1.645   1.457   5.638
 6209TIP3    H218571   1.736   1.561   5.578
 6210TIP3   OH218572   0.663   1.497   5.954
 6210TIP3    H118573   0.706   1.574   5.990
 6210TIP3    H218574   0.718   1.470   5.881
 6211TIP3   OH218575   0.703   2.353   6.072
 6211TIP3    H118576   0.686   2.439   6.033
 6211TIP3    H218577   0.630   2.338   6.132
 6212TIP3   OH218578   0.116   2.038   5.311
 6212TIP3    H118579   0.063   2.058   5.233
 6212TIP3    H218580   0.137   2.123   5.348
 6213TIP3   OH218581   1.538   2.557   5.546
 6213TIP3    H118582   1.451   2.547   5.587
 6213TIP3    H218583   1.534   2.642   5.503
 6214TIP3   OH218584   1.834   1.446   5.902
 6214TIP3    H118585   1.749   1.487   5.885
 6214TIP3    H218586   1.894   1.488   5.840
 6215TIP3   OH218587   1.141   1.121   5.895
 6215TIP3    H118588   1.119   1.028   5.887
 6215TIP3    H218589   1.063   1.161   5.932
 6216TIP3   OH218590   1.244   2.600   5.220
 6216TIP3    H118591   1.290   2.518   5.201
 6216TIP3    H218592   1.300   2.668   5.184
 6217TIP3   OH218593   1.385   2.383   5.135
 6217TIP3    H118594   1.350   2.304   5.093
 6217TIP3    H218595   1.422   2.352   5.218
 6218TIP3   OH218596   1.765   2.468   5.892
 6218TIP3    H118597   1.755   2.392   5.835
 6218TIP3    H218598   1.747   2.543   5.835
 6219TIP3   OH218599   1.056   1.861   5.151
 6219TIP3    H118600   0.978   1.914   5.134
 6219TIP3    H218601   1.104   1.861   5.068
 6220TIP3   OH218602   1.020   1.648   4.867
 6220TIP3    H118603   1.083   1.701   4.915
 6220TIP3    H218604   1.074   1.586   4.818
 6221TIP3   OH218605   1.959   2.100   5.732
 6221TIP3    H118606   1.880   2.153   5.742
 6221TIP3    H218607   1.995   2.127   5.648
 6222TIP3   OH218608   1.406   1.944   5.125
 6222TIP3    H118609   1.351   1.970   5.198
 6222TIP3    H218610   1.491   1.923   5.165
 6223TIP3   OH218611   1.639   1.985   6.040
 6223TIP3    H118612   1.644   2.063   6.095
 6223TIP3    H218613   1.557   1.995   5.993
 6224TIP3   OH218614   0.637   1.939   5.541
 6224TIP3    H118615   0.599   1.885   5.473
 6224TIP3    H218616   0.715   1.891   5.570
 6225TIP3   OH218617   0.767   2.349   5.688
 6225TIP3    H118618   0.750   2.318   5.599
 6225TIP3    H218619   0.855   2.318   5.708
 6226TIP3   OH218620   0.777   1.916   5.893
 6226TIP3    H118621   0.808   1.894   5.805
 6226TIP3    H218622   0.818   2.001   5.912
 6227TIP3   OH218623   1.301   2.551   5.673
 6227TIP3    H118624   1.286   2.633   5.720
 6227TIP3    H218625   1.283   2.483   5.738
 6228TIP3   OH218626   0.911   2.469   6.218
 6228TIP3    H118627   0.857   2.532   6.265
 6228TIP3    H218628   0.849   2.417   6.168
 6229TIP3   OH218629   1.248   1.804   4.948
 6229TIP3    H118630   1.304   1.862   4.999
 6229TIP3    H218631   1.270   1.823   4.857
 6230TIP3   OH218632   0.993   2.481   5.224
 6230TIP3    H118633   1.074   2.531   5.236
 6230TIP3    H218634   0.932   2.544   5.186
 6231TIP3   OH218635   0.708   2.636   6.305
 6231TIP3    H118636   0.673   2.641   6.216
 6231TIP3    H218637   0.632   2.616   6.360
 6232TIP3   OH218638   1.763   1.045   5.001
 6232TIP3    H118639   1.681   1.062   5.047
 6232TIP3    H218640   1.776   1.122   4.946
 6233TIP3   OH218641   0.507   1.785   5.340
 6233TIP3    H118642   0.443   1.832   5.286
 6233TIP3    H218643   0.465   1.701   5.357
 6234TIP3   OH218644   1.564   2.411   4.547
 6234TIP3    H118645   1.569   2.505   4.532
 6234TIP3    H218646   1.654   2.380   4.535
 6235TIP3   OH218647   0.302   2.153   6.245
 6235TIP3    H118648   0.242   2.161   6.170
 6235TIP3    H218649   0.277   2.070   6.287
 6236TIP3   OH218650   0.150   2.385   5.869
 6236TIP3    H118651   0.234   2.343   5.854
 6236TIP3    H218652   0.167   2.448   5.940
 6237TIP3   OH218653   2.003   2.814   5.943
 6237TIP3    H118654   2.004   2.719   5.955
 6237TIP3    H218655   1.922   2.842   5.984
 6238TIP3   OH218656   1.108   2.599   6.076
 6238TIP3    H118657   1.109   2.690   6.106
 6238TIP3    H218658   1.041   2.557   6.129
 6239TIP3   OH218659   0.872   2.727   5.028
 6239TIP3    H118660   0.828   2.711   4.945
 6239TIP3    H218661   0.841   2.813   5.055
 6240TIP3   OH218662   0.309   2.576   5.414
 6240TIP3    H118663   0.358   2.571   5.496
 6240TIP3    H218664   0.256   2.496   5.414
 6241TIP3   OH218665   1.074   2.628   4.667
 6241TIP3    H118666   1.130   2.560   4.630
 6241TIP3    H218667   1.107   2.641   4.756
 6242TIP3   OH218668   1.123   2.679   4.937
 6242TIP3    H118669   1.036   2.688   4.977
 6242TIP3    H218670   1.179   2.646   5.007
 6243TIP3   OH218671   1.896   1.941   6.218
 6243TIP3    H118672   1.813   1.957   6.173
 6243TIP3    H218673   1.910   1.847   6.211
 6244TIP3   OH218674   0.494   2.350   6.247
 6244TIP3    H118675   0.549   2.331   6.323
 6244TIP3    H218676   0.425   2.284   6.250
 6245TIP3   OH218677   0.890   1.180   6.000
 6245TIP3    H118678   0.806   1.139   5.979
 6245TIP3    H218679   0.868   1.253   6.058
 6246TIP3   OH218680   1.460   1.292   6.208
 6246TIP3    H118681   1.524   1.265   6.274
 6246TIP3    H218682   1.375   1.277   6.250
 6247TIP3   OH218683   1.652   1.719   6.131
 6247TIP3    H118684   1.612   1.715   6.218
 6247TIP3    H218685   1.636   1.809   6.102
 6248TIP3   OH218686   1.323   1.844   4.691
 6248TIP3    H118687   1.287   1.822   4.605
 6248TIP3    H218688   1.404   1.891   4.672
 6249TIP3   OH218689   1.034   1.221   4.994
 6249TIP3    H118690   1.009   1.218   5.087
 6249TIP3    H218691   0.996   1.142   4.956
 6250TIP3   OH218692   0.817   1.704   6.052
 6250TIP3    H118693   0.807   1.749   6.136
 6250TIP3    H218694   0.804   1.772   5.986
 6251TIP3   OH218695   0.717   1.580   5.540
 6251TIP3    H118696   0.627   1.551   5.558
 6251TIP3    H218697   0.738   1.541   5.455
 6252TIP3   OH218698   1.196   1.663   5.282
 6252TIP3    H118699   1.144   1.734   5.244
 6252TIP3    H218700   1.251   1.632   5.210
 6253TIP3   OH218701   1.370   1.936   6.367
 6253TIP3    H118702   1.348   1.870   6.433
 6253TIP3    H218703   1.458   1.965   6.391
 6254TIP3   OH218704   1.349   1.688   5.522
 6254TIP3    H118705   1.291   1.725   5.456
 6254TIP3    H218706   1.384   1.609   5.481
 6255TIP3   OH218707   0.697   1.189   4.964
 6255TIP3    H118708   0.685   1.191   5.059
 6255TIP3    H218709   0.626   1.244   4.930
 6256TIP3   OH218710   1.355   1.931   5.945
 6256TIP3    H118711   1.393   1.865   5.887
 6256TIP3    H218712   1.332   1.882   6.024
 6257TIP3   OH218713   1.049   1.401   5.616
 6257TIP3    H118714   0.969   1.399   5.670
 6257TIP3    H218715   1.120   1.393   5.679
 6258TIP3   OH218716   0.493   1.434   5.586
 6258TIP3    H118717   0.399   1.439   5.604
 6258TIP3    H218718   0.518   1.348   5.619
 6259TIP3   OH218719   0.741   1.438   5.307
 6259TIP3    H118720   0.831   1.464   5.287
 6259TIP3    H218721   0.690   1.468   5.231
 6260TIP3   OH218722   1.519   1.472   5.810
 6260TIP3    H118723   1.499   1.487   5.902
 6260TIP3    H218724   1.449   1.414   5.780
 6261TIP3   OH218725   0.578   1.484   5.093
 6261TIP3    H118726   0.507   1.438   5.048
 6261TIP3    H218727   0.631   1.520   5.022
 6262TIP3   OH218728   1.699   3.161   6.041
 6262TIP3    H118729   1.696   3.189   5.950
 6262TIP3    H218730   1.774   3.207   6.079
 6263TIP3   OH218731   0.648   2.274   6.466
 6263TIP3    H118732   0.731   2.297   6.506
 6263TIP3    H218733   0.584   2.279   6.537
 6264TIP3   OH218734   1.117   1.727   5.716
 6264TIP3    H118735   1.189   1.692   5.664
 6264TIP3    H218736   1.126   1.685   5.801
 6265TIP3   OH218737   0.709   1.187   5.558
 6265TIP3    H118738   0.733   1.121   5.625
 6265TIP3    H218739   0.790   1.202   5.510
 6266TIP3   OH218740   1.095   1.630   6.002
 6266TIP3    H118741   1.009   1.669   6.016
 6266TIP3    H218742   1.155   1.686   6.051
 6267TIP3   OH218743   0.827   2.012   5.103
 6267TIP3    H118744   0.755   1.951   5.088
 6267TIP3    H218745   0.811   2.048   5.190
 6268TIP3   OH218746   1.729   2.250   5.726
 6268TIP3    H118747   1.756   2.301   5.649
 6268TIP3    H218748   1.645   2.212   5.701
 6269TIP3   OH218749   1.288   1.324   4.972
 6269TIP3    H118750   1.193   1.309   4.973
 6269TIP3    H218751   1.298   1.418   4.987
 6270TIP3   OH218752   1.221   2.329   6.104
 6270TIP3    H118753   1.259   2.317   6.191
 6270TIP3    H218754   1.188   2.419   6.104
 6271TIP3   OH218755   1.357   1.577   5.066
 6271TIP3    H118756   1.451   1.586   5.079
 6271TIP3    H218757   1.333   1.654   5.014
 6272TIP3   OH218758   0.525   2.034   5.776
 6272TIP3    H118759   0.558   2.016   5.688
 6272TIP3    H218760   0.566   1.967   5.831
 6273TIP3   OH218761   0.972   2.165   4.925
 6273TIP3    H118762   0.927   2.249   4.926
 6273TIP3    H218763   0.922   2.110   4.984
 6274TIP3   OH218764   0.493   1.896   6.427
 6274TIP3    H118765   0.477   1.974   6.481
 6274TIP3    H218766   0.407   1.872   6.394
 6275TIP3   OH218767   1.108   2.073   6.371
 6275TIP3    H118768   1.111   2.034   6.284
 6275TIP3    H218769   1.194   2.053   6.409
 6276TIP3   OH218770   1.385   2.586   6.001
 6276TIP3    H118771   1.289   2.590   6.009
 6276TIP3    H218772   1.417   2.639   6.073
 6277TIP3   OH218773   1.793   1.669   4.898
 6277TIP3    H118774   1.735   1.621   4.840
 6277TIP3    H218775   1.795   1.758   4.863
 6278TIP3   OH218776   2.012   2.522   5.980
 6278TIP3    H118777   1.917   2.518   5.975
 6278TIP3    H218778   2.043   2.495   5.894
 6279TIP3   OH218779   1.498   2.485   4.811
 6279TIP3    H118780   1.473   2.415   4.872
 6279TIP3    H218781   1.513   2.440   4.728
 6280TIP3   OH218782   1.493   2.114   5.643
 6280TIP3    H118783   1.401   2.092   5.659
 6280TIP3    H218784   1.528   2.036   5.599
 6281TIP3   OH218785   0.623   2.343   5.399
 6281TIP3    H118786   0.627   2.423   5.347
 6281TIP3    H218787   0.530   2.331   5.418
 6282TIP3   OH218788   0.171   1.652   5.124
 6282TIP3    H118789   0.239   1.719   5.122
 6282TIP3    H218790   0.105   1.687   5.185
 6283TIP3   OH218791   0.753   2.105   5.346
 6283TIP3    H118792   0.724   2.195   5.359
 6283TIP3    H218793   0.719   2.057   5.421
 6284TIP3   OH218794   0.895   2.685   5.869
 6284TIP3    H118795   0.932   2.758   5.819
 6284TIP3    H218796   0.969   2.651   5.920
 6285TIP3   OH218797   0.541   2.583   5.255
 6285TIP3    H118798   0.456   2.590   5.300
 6285TIP3    H218799   0.577   2.672   5.257
 6286TIP3   OH218800   1.276   2.317   5.836
 6286TIP3    H118801   1.264   2.318   5.931
 6286TIP3    H218802   1.362   2.276   5.823
 6287TIP3   OH218803   1.256   2.210   4.716
 6287TIP3    H118804   1.310   2.188   4.792
 6287TIP3    H218805   1.166   2.188   4.743
 6288TIP3   OH218806   1.526   2.850   5.875
 6288TIP3    H118807   1.446   2.798   5.869
 6288TIP3    H218808   1.516   2.917   5.807
 6289TIP3   OH218809   1.591   2.688   4.531
 6289TIP3    H118810   1.632   2.756   4.477
 6289TIP3    H218811   1.513   2.729   4.567
 6290TIP3   OH218812   1.418   2.143   4.930
 6290TIP3    H118813   1.407   2.078   5.000
 6290TIP3    H218814   1.512   2.144   4.914
 6291TIP3   OH218815   0.324   2.544   6.034
 6291TIP3    H118816   0.389   2.484   6.069
 6291TIP3    H218817   0.345   2.628   6.075
 6292TIP3   OH218818   0.620   2.190   4.713
 6292TIP3    H118819   0.634   2.100   4.685
 6292TIP3    H218820   0.601   2.184   4.807
 6293TIP3   OH218821   0.566   2.200   4.986
 6293TIP3    H118822   0.639   2.174   5.043
 6293TIP3    H218823   0.565   2.295   4.990
 6294TIP3   OH218824   0.302   1.888   5.183
 6294TIP3    H118825   0.240   1.932   5.241
 6294TIP3    H218826   0.320   1.953   5.115
 6295TIP3   OH218827   1.459   1.527   6.069
 6295TIP3    H118828   1.531   1.579   6.105
 6295TIP3    H218829   1.457   1.449   6.124
 6296TIP3   OH218830   1.336   1.280   5.245
 6296TIP3    H118831   1.318   1.299   5.153
 6296TIP3    H218832   1.372   1.362   5.280
 6297TIP3   OH218833   0.828   2.395   4.932
 6297TIP3    H118834   0.743   2.419   4.969
 6297TIP3    H218835   0.851   2.469   4.876
 6298TIP3   OH218836   1.021   1.462   5.347
 6298TIP3    H118837   1.082   1.533   5.326
 6298TIP3    H218838   1.028   1.452   5.442
 6299TIP3   OH218839   1.288   1.773   6.159
 6299TIP3    H118840   1.311   1.831   6.232
 6299TIP3    H218841   1.344   1.696   6.171
 6300TIP3   OH218842   1.173   1.189   5.450
 6300TIP3    H118843   1.159   1.262   5.510
 6300TIP3    H218844   1.235   1.223   5.385
 6301TIP3   OH218845   0.573   2.471   5.002
 6301TIP3    H118846   0.546   2.538   4.939
 6301TIP3    H218847   0.560   2.513   5.088
 6302TIP3   OH218848   0.711   1.159   5.236
 6302TIP3    H118849   0.684   1.245   5.269
 6302TIP3    H218850   0.806   1.159   5.243
 6303TIP3   OH218851   1.919   1.676   6.147
 6303TIP3    H118852   1.824   1.670   6.141
 6303TIP3    H218853   1.951   1.655   6.059
 6304TIP3   OH218854   1.579   1.867   5.523
 6304TIP3    H118855   1.501   1.814   5.539
 6304TIP3    H218856   1.649   1.824   5.573
 6305TIP3   OH218857   0.300   2.097   4.991
 6305TIP3    H118858   0.362   2.169   5.004
 6305TIP3    H218859   0.340   2.042   4.924
 6306TIP3   OH218860   0.279   1.404   5.043
 6306TIP3    H118861   0.273   1.490   5.084
 6306TIP3    H218862   0.214   1.351   5.089
 6307TIP3   OH218863   1.550   2.828   5.468
 6307TIP3    H118864   1.505   2.872   5.396
 6307TIP3    H218865   1.643   2.845   5.451
 6308TIP3   OH218866   0.159   2.314   5.377
 6308TIP3    H118867   0.096   2.346   5.443
 6308TIP3    H218868   0.132   2.357   5.296
 6309TIP3   OH218869   0.349   2.874   6.426
 6309TIP3    H118870   0.425   2.881   6.484
 6309TIP3    H218871   0.304   2.795   6.454
 6310TIP3   OH218872   0.799   2.817   6.497
 6310TIP3    H118873   0.894   2.807   6.507
 6310TIP3    H218874   0.776   2.759   6.426
 6311TIP3   OH218875   0.782   2.394   4.621
 6311TIP3    H118876   0.729   2.325   4.661
 6311TIP3    H218877   0.858   2.347   4.586
 6312TIP3   OH218878   1.444   2.724   6.229
 6312TIP3    H118879   1.435   2.657   6.297
 6312TIP3    H218880   1.516   2.779   6.259
 6313TIP3   OH218881   1.219   2.433   4.535
 6313TIP3    H118882   1.264   2.373   4.594
 6313TIP3    H218883   1.272   2.434   4.456
 6314TIP3   OH218884   0.447   2.258   6.659
 6314TIP3    H118885   0.477   2.189   6.718
 6314TIP3    H218886   0.352   2.246   6.655
 6315TIP3   OH218887   0.433   1.907   4.848
 6315TIP3    H118888   0.488   1.882   4.922
 6315TIP3    H218889   0.494   1.914   4.774
 6316TIP3   OH218890   1.061   2.353   6.426
 6316TIP3    H118891   1.018   2.373   6.343
 6316TIP3    H218892   1.084   2.260   6.419
 6317TIP3   OH218893   0.941   2.109   4.656
 6317TIP3    H118894   0.943   2.125   4.750
 6317TIP3    H218895   0.941   2.014   4.648
 6318TIP3   OH218896   1.549   2.361   6.029
 6318TIP3    H118897   1.626   2.400   5.988
 6318TIP3    H218898   1.481   2.427   6.020
 6319TIP3   OH218899   0.630   1.817   5.063
 6319TIP3    H118900   0.609   1.780   5.149
 6319TIP3    H218901   0.670   1.744   5.015
 6320TIP3   OH218902   0.851   1.894   6.288
 6320TIP3    H118903   0.873   1.963   6.350
 6320TIP3    H218904   0.912   1.906   6.215
 6321TIP3   OH218905   0.740   1.610   4.908
 6321TIP3    H118906   0.710   1.616   4.817
 6321TIP3    H218907   0.836   1.617   4.901
 6322TIP3   OH218908   1.416   2.277   6.430
 6322TIP3    H118909   1.503   2.260   6.394
 6322TIP3    H218910   1.411   2.221   6.508
 6323TIP3   OH218911   1.556   1.940   4.572
 6323TIP3    H118912   1.538   1.893   4.491
 6323TIP3    H218913   1.527   2.030   4.556
 6324TIP3   OH218914   1.047   1.658   6.419
 6324TIP3    H118915   1.054   1.579   6.365
 6324TIP3    H218916   1.008   1.723   6.361
 6325TIP3   OH218917   1.045   1.462   6.222
 6325TIP3    H118918   1.071   1.502   6.139
 6325TIP3    H218919   0.957   1.428   6.206
 6326TIP3   OH218920   1.044   1.978   6.111
 6326TIP3    H118921   1.131   1.986   6.072
 6326TIP3    H218922   0.992   2.047   6.071
 6327TIP3   OH218923   1.645   1.952   6.476
 6327TIP3    H118924   1.698   1.874   6.493
 6327TIP3    H218925   1.708   2.018   6.448
 6328TIP3   OH218926   1.682   2.209   6.209
 6328TIP3    H118927   1.621   2.263   6.158
 6328TIP3    H218928   1.769   2.232   6.174
 6329TIP3   OH218929   0.828   1.781   6.573
 6329TIP3    H118930   0.819   1.799   6.667
 6329TIP3    H218931   0.919   1.752   6.563
 6330TIP3   OH218932   1.198   1.243   6.275
 6330TIP3    H118933   1.156   1.326   6.256
 6330TIP3    H218934   1.125   1.181   6.285
 6331TIP3   OH218935   1.297   1.720   6.518
 6331TIP3    H118936   1.292   1.716   6.613
 6331TIP3    H218937   1.210   1.694   6.488
 6332TIP3   OH218938   1.527   1.663   6.364
 6332TIP3    H118939   1.455   1.676   6.426
 6332TIP3    H218940   1.602   1.640   6.420
 6333TIP3   OH218941   1.757   1.614   6.519
 6333TIP3    H118942   1.770   1.521   6.535
 6333TIP3    H218943   1.752   1.654   6.606
 6334TIP3   OH218944   1.243   1.205   6.542
 6334TIP3    H118945   1.322   1.151   6.547
 6334TIP3    H218946   1.233   1.224   6.449
 6335TIP3   OH218947   1.320   1.441   6.693
 6335TIP3    H118948   1.288   1.368   6.640
 6335TIP3    H218949   1.246   1.500   6.700
 6336TIP3   OH218950   0.547   2.669   4.810
 6336TIP3    H118951   0.641   2.663   4.797
 6336TIP3    H218952   0.515   2.722   4.737
 6337TIP3   OH218953   0.035   2.041   5.034
 6337TIP3    H118954   0.125   2.070   5.020
 6337TIP3    H218955   0.029   1.959   4.986
 6338TIP3   OH218956   8.427   2.665   5.453
 6338TIP3    H118957   8.380   2.603   5.398
 6338TIP3    H218958   8.473   2.610   5.518
 6339TIP3   OH218959   0.071   2.516   5.638
 6339TIP3    H118960   0.075   2.447   5.705
 6339TIP3    H218961   0.122   2.588   5.675
 6340TIP3   OH218962   1.806   2.915   5.432
 6340TIP3    H118963   1.828   2.947   5.520
 6340TIP3    H218964   1.867   2.961   5.374
 6341TIP3   OH218965   1.831   2.936   5.714
 6341TIP3    H118966   1.787   2.851   5.709
 6341TIP3    H218967   1.908   2.920   5.770
 6342TIP3   OH218968   1.885   2.620   6.292
 6342TIP3    H118969   1.810   2.624   6.352
 6342TIP3    H218970   1.926   2.706   6.298
 6343TIP3   OH218971   1.697   2.127   4.905
 6343TIP3    H118972   1.759   2.193   4.873
 6343TIP3    H218973   1.741   2.089   4.981
 6344TIP3   OH218974   1.825   1.992   5.107
 6344TIP3    H118975   1.759   1.956   5.166
 6344TIP3    H218976   1.890   2.031   5.165
 6345TIP3   OH218977   1.879   2.388   5.538
 6345TIP3    H118978   1.932   2.324   5.491
 6345TIP3    H218979   1.874   2.464   5.479
 6346TIP3   OH218980   1.704   2.687   5.735
 6346TIP3    H118981   1.636   2.732   5.786
 6346TIP3    H218982   1.656   2.642   5.665
 6347TIP3   OH218983   1.756   1.903   4.756
 6347TIP3    H118984   1.689   1.903   4.687
 6347TIP3    H218985   1.736   1.979   4.810
 6348TIP3   OH218986   1.628   1.573   4.710
 6348TIP3    H118987   1.590   1.618   4.634
 6348TIP3    H218988   1.604   1.481   4.698
 6349TIP3   OH218989   1.634   1.854   5.255
 6349TIP3    H118990   1.641   1.759   5.248
 6349TIP3    H218991   1.619   1.870   5.349
 6350TIP3   OH218992   0.266   1.913   6.021
 6350TIP3    H118993   0.249   1.902   5.928
 6350TIP3    H218994   0.360   1.926   6.028
 6351TIP3   OH218995   1.927   2.278   6.110
 6351TIP3    H118996   1.996   2.213   6.102
 6351TIP3    H218997   1.953   2.349   6.052
 6352TIP3   OH218998   2.108   2.079   6.122
 6352TIP3    H118999   2.035   2.032   6.163
 6352TIP3    H219000   2.184   2.022   6.135
 6353TIP3   OH219001   1.574   1.308   4.697
 6353TIP3    H119002   1.644   1.273   4.752
 6353TIP3    H219003   1.499   1.251   4.713
 6354TIP3   OH219004   1.638   1.567   5.148
 6354TIP3    H119005   1.678   1.481   5.158
 6354TIP3    H219006   1.687   1.608   5.076
 6355TIP3   OH219007   1.792   1.736   5.645
 6355TIP3    H119008   1.872   1.764   5.600
 6355TIP3    H219009   1.799   1.774   5.733
 6356TIP3   OH219010   1.856   1.886   5.873
 6356TIP3    H119011   1.783   1.920   5.925
 6356TIP3    H219012   1.891   1.963   5.828
 6357TIP3   OH219013   2.292   1.442   6.425
 6357TIP3    H119014   2.368   1.396   6.389
 6357TIP3    H219015   2.306   1.534   6.400
 6358TIP3   OH219016   1.748   1.309   5.193
 6358TIP3    H119017   1.769   1.290   5.285
 6358TIP3    H219018   1.680   1.246   5.170
 6359TIP3   OH219019   2.179   1.626   6.237
 6359TIP3    H119020   2.091   1.659   6.253
 6359TIP3    H219021   2.166   1.542   6.194
 6360TIP3   OH219022   1.826   1.248   4.827
 6360TIP3    H119023   1.857   1.183   4.764
 6360TIP3    H219024   1.883   1.323   4.813
 6361TIP3   OH219025   1.387   2.784   5.086
 6361TIP3    H119026   1.439   2.774   5.007
 6361TIP3    H219027   1.431   2.852   5.136
 6362TIP3   OH219028   0.494   2.586   6.476
 6362TIP3    H119029   0.419   2.527   6.463
 6362TIP3    H219030   0.509   2.583   6.571
 6363TIP3   OH219031   0.667   2.623   6.013
 6363TIP3    H119032   0.616   2.697   5.980
 6363TIP3    H219033   0.753   2.633   5.973
 6364TIP3   OH219034   1.110   2.865   6.155
 6364TIP3    H119035   1.147   2.864   6.243
 6364TIP3    H219036   1.172   2.917   6.104
 6365TIP3   OH219037   1.291   3.019   6.019
 6365TIP3    H119038   1.361   2.968   5.978
 6365TIP3    H219039   1.336   3.077   6.080
 6366TIP3   OH219040   2.084   1.377   6.115
 6366TIP3    H119041   1.994   1.373   6.082
 6366TIP3    H219042   2.118   1.288   6.104
 6367TIP3   OH219043   0.336   2.872   6.049
 6367TIP3    H119044   0.248   2.901   6.025
 6367TIP3    H219045   0.356   2.919   6.129
 6368TIP3   OH219046   0.573   2.854   5.901
 6368TIP3    H119047   0.490   2.868   5.947
 6368TIP3    H219048   0.558   2.889   5.814
 6369TIP3   OH219049   1.002   2.885   5.699
 6369TIP3    H119050   0.933   2.903   5.634
 6369TIP3    H219051   1.017   2.970   5.741
 6370TIP3   OH219052   1.271   2.823   5.748
 6370TIP3    H119053   1.178   2.839   5.734
 6370TIP3    H219054   1.315   2.898   5.709
 6371TIP3   OH219055   1.480   3.016   5.663
 6371TIP3    H119056   1.463   3.101   5.621
 6371TIP3    H219057   1.504   2.958   5.591
 6372TIP3   OH219058   0.253   2.670   5.780
 6372TIP3    H119059   0.267   2.652   5.873
 6372TIP3    H219060   0.326   2.626   5.736
 6373TIP3   OH219061   0.451   2.540   5.644
 6373TIP3    H119062   0.464   2.460   5.694
 6373TIP3    H219063   0.538   2.581   5.643
 6374TIP3   OH219064   0.715   2.635   5.654
 6374TIP3    H119065   0.745   2.545   5.642
 6374TIP3    H219066   0.758   2.664   5.734
 6375TIP3   OH219067   1.295   1.298   5.735
 6375TIP3    H119068   1.249   1.236   5.792
 6375TIP3    H219069   1.364   1.247   5.693
 6376TIP3   OH219070   1.807   1.172   5.619
 6376TIP3    H119071   1.838   1.263   5.609
 6376TIP3    H219072   1.713   1.180   5.630
 6377TIP3   OH219073   0.952   1.081   5.618
 6377TIP3    H119074   1.034   1.096   5.570
 6377TIP3    H219075   0.980   1.035   5.698
 6378TIP3   OH219076   1.528   1.172   5.616
 6378TIP3    H119077   1.522   1.135   5.528
 6378TIP3    H219078   1.512   1.097   5.674
 6379TIP3   OH219079   1.554   1.108   5.180
 6379TIP3    H119080   1.471   1.154   5.192
 6379TIP3    H219081   1.542   1.024   5.225
 6380TIP3   OH219082   0.030   2.451   5.181
 6380TIP3    H119083  -0.039   2.402   5.137
 6380TIP3    H219084   0.025   2.539   5.144
 6381TIP3   OH219085   0.973   1.209   5.265
 6381TIP3    H119086   1.033   1.167   5.326
 6381TIP3    H219087   0.984   1.303   5.281
 6382TIP3   OH219088   0.815   2.627   4.760
 6382TIP3    H119089   0.901   2.655   4.727
 6382TIP3    H219090   0.790   2.554   4.703
 6383TIP3   OH219091   1.533   2.751   4.853
 6383TIP3    H119092   1.526   2.656   4.843
 6383TIP3    H219093   1.488   2.786   4.776
 6384TIP3   OH219094   0.116   2.462   4.820
 6384TIP3    H119095   0.121   2.506   4.905
 6384TIP3    H219096   0.204   2.425   4.808
 6385TIP3   OH219097   1.821   1.344   6.553
 6385TIP3    H119098   1.842   1.316   6.642
 6385TIP3    H219099   1.904   1.343   6.507
 6386TIP3   OH219100   1.756   2.895   6.040
 6386TIP3    H119101   1.680   2.862   5.993
 6386TIP3    H219102   1.741   2.989   6.048
 6387TIP3   OH219103   3.022   2.266   4.805
 6387TIP3    H119104   2.997   2.357   4.787
 6387TIP3    H219105   2.949   2.214   4.771
 6388TIP3   OH219106   3.023   2.268   5.194
 6388TIP3    H119107   3.058   2.244   5.280
 6388TIP3    H219108   2.983   2.187   5.161
 6389TIP3   OH219109   2.322   2.159   5.559
 6389TIP3    H119110   2.351   2.092   5.621
 6389TIP3    H219111   2.398   2.217   5.549
 6390TIP3   OH219112   3.268   2.567   4.875
 6390TIP3    H119113   3.256   2.502   4.944
 6390TIP3    H219114   3.301   2.645   4.921
 6391TIP3   OH219115   2.297   2.568   5.276
 6391TIP3    H119116   2.285   2.473   5.278
 6391TIP3    H219117   2.391   2.580   5.268
 6392TIP3   OH219118   1.992   1.764   5.066
 6392TIP3    H119119   1.957   1.851   5.086
 6392TIP3    H219120   1.925   1.723   5.012
 6393TIP3   OH219121   2.063   2.058   5.236
 6393TIP3    H119122   2.113   1.986   5.272
 6393TIP3    H219123   2.125   2.107   5.182
 6394TIP3   OH219124   2.919   3.027   4.890
 6394TIP3    H119125   2.959   2.960   4.834
 6394TIP3    H219126   2.914   2.986   4.976
 6395TIP3   OH219127   2.825   2.492   5.237
 6395TIP3    H119128   2.861   2.416   5.192
 6395TIP3    H219129   2.902   2.543   5.264
 6396TIP3   OH219130   3.838   1.815   5.234
 6396TIP3    H119131   3.865   1.895   5.279
 6396TIP3    H219132   3.859   1.831   5.142
 6397TIP3   OH219133   3.233   1.991   5.266
 6397TIP3    H119134   3.277   1.910   5.290
 6397TIP3    H219135   3.202   1.977   5.177
 6398TIP3   OH219136   2.568   1.646   5.232
 6398TIP3    H119137   2.555   1.721   5.173
 6398TIP3    H219138   2.522   1.574   5.190
 6399TIP3   OH219139   3.271   1.745   4.854
 6399TIP3    H119140   3.338   1.731   4.921
 6399TIP3    H219141   3.319   1.781   4.779
 6400TIP3   OH219142   2.208   1.847   5.343
 6400TIP3    H119143   2.286   1.831   5.396
 6400TIP3    H219144   2.223   1.801   5.262
 6401TIP3   OH219145   2.648   2.051   5.137
 6401TIP3    H119146   2.741   2.032   5.149
 6401TIP3    H219147   2.611   1.969   5.105
 6402TIP3   OH219148   3.909   2.023   5.406
 6402TIP3    H119149   3.826   2.067   5.387
 6402TIP3    H219150   3.932   2.053   5.494
 6403TIP3   OH219151   2.561   1.633   5.662
 6403TIP3    H119152   2.504   1.674   5.596
 6403TIP3    H219153   2.516   1.649   5.745
 6404TIP3   OH219154   2.904   2.484   4.679
 6404TIP3    H119155   2.875   2.473   4.588
 6404TIP3    H219156   2.866   2.567   4.706
 6405TIP3   OH219157   2.675   2.414   5.459
 6405TIP3    H119158   2.616   2.480   5.496
 6405TIP3    H219159   2.720   2.460   5.388
 6406TIP3   OH219160   3.475   1.752   5.033
 6406TIP3    H119161   3.462   1.706   5.116
 6406TIP3    H219162   3.527   1.829   5.056
 6407TIP3   OH219163   2.444   1.760   5.448
 6407TIP3    H119164   2.504   1.830   5.475
 6407TIP3    H219165   2.490   1.714   5.378
 6408TIP3   OH219166   2.503   2.611   5.560
 6408TIP3    H119167   2.483   2.696   5.522
 6408TIP3    H219168   2.428   2.590   5.616
 6409TIP3   OH219169   1.895   2.300   4.796
 6409TIP3    H119170   1.857   2.323   4.711
 6409TIP3    H219171   1.926   2.383   4.832
 6410TIP3   OH219172   3.334   2.816   5.038
 6410TIP3    H119173   3.246   2.806   5.074
 6410TIP3    H219174   3.331   2.899   4.990
 6411TIP3   OH219175   3.629   1.713   5.397
 6411TIP3    H119176   3.543   1.743   5.368
 6411TIP3    H219177   3.689   1.745   5.330
 6412TIP3   OH219178   2.921   1.357   5.379
 6412TIP3    H119179   2.932   1.268   5.412
 6412TIP3    H219180   2.844   1.391   5.424
 6413TIP3   OH219181   3.036   2.857   4.706
 6413TIP3    H119182   3.083   2.775   4.687
 6413TIP3    H219183   3.092   2.926   4.671
 6414TIP3   OH219184   3.176   2.639   4.624
 6414TIP3    H119185   3.156   2.561   4.574
 6414TIP3    H219186   3.213   2.607   4.706
 6415TIP3   OH219187   3.562   2.724   5.379
 6415TIP3    H119188   3.552   2.648   5.322
 6415TIP3    H219189   3.546   2.799   5.322
 6416TIP3   OH219190   2.853   2.119   4.637
 6416TIP3    H119191   2.776   2.172   4.619
 6416TIP3    H219192   2.901   2.118   4.555
 6417TIP3   OH219193   2.816   1.904   4.355
 6417TIP3    H119194   2.879   1.957   4.403
 6417TIP3    H219195   2.869   1.841   4.305
 6418TIP3   OH219196   3.756   2.365   5.226
 6418TIP3    H119197   3.674   2.414   5.232
 6418TIP3    H219198   3.790   2.386   5.139
 6419TIP3   OH219199   3.203   2.200   4.612
 6419TIP3    H119200   3.148   2.226   4.686
 6419TIP3    H219201   3.287   2.177   4.652
 6420TIP3   OH219202   3.435   2.241   5.526
 6420TIP3    H119203   3.436   2.323   5.576
 6420TIP3    H219204   3.352   2.244   5.478
 6421TIP3   OH219205   2.434   2.195   5.028
 6421TIP3    H119206   2.395   2.140   4.961
 6421TIP3    H219207   2.511   2.147   5.058
 6422TIP3   OH219208   2.564   2.607   5.174
 6422TIP3    H119209   2.545   2.576   5.085
 6422TIP3    H219210   2.652   2.575   5.193
 6423TIP3   OH219211   2.566   2.174   5.377
 6423TIP3    H119212   2.603   2.148   5.293
 6423TIP3    H219213   2.611   2.256   5.399
 6424TIP3   OH219214   3.093   2.810   5.159
 6424TIP3    H119215   3.082   2.888   5.213
 6424TIP3    H219216   3.080   2.737   5.220
 6425TIP3   OH219217   2.706   2.727   5.706
 6425TIP3    H119218   2.649   2.789   5.751
 6425TIP3    H219219   2.646   2.673   5.655
 6426TIP3   OH219220   3.043   2.061   4.436
 6426TIP3    H119221   3.099   2.118   4.488
 6426TIP3    H219222   3.066   2.080   4.345
 6427TIP3   OH219223   2.463   2.284   5.807
 6427TIP3    H119224   2.472   2.369   5.849
 6427TIP3    H219225   2.371   2.262   5.818
 6428TIP3   OH219226   2.787   2.739   4.715
 6428TIP3    H119227   2.870   2.786   4.721
 6428TIP3    H219228   2.728   2.800   4.670
 6429TIP3   OH219229   2.502   2.893   5.793
 6429TIP3    H119230   2.470   2.895   5.702
 6429TIP3    H219231   2.425   2.870   5.845
 6430TIP3   OH219232   3.557   1.301   4.485
 6430TIP3    H119233   3.478   1.320   4.536
 6430TIP3    H219234   3.573   1.381   4.435
 6431TIP3   OH219235   2.299   2.040   4.830
 6431TIP3    H119236   2.239   2.092   4.776
 6431TIP3    H219237   2.258   1.954   4.837
 6432TIP3   OH219238   3.362   2.670   4.034
 6432TIP3    H119239   3.366   2.765   4.021
 6432TIP3    H219240   3.452   2.640   4.022
 6433TIP3   OH219241   2.081   2.426   5.739
 6433TIP3    H119242   2.017   2.405   5.671
 6433TIP3    H219243   2.120   2.341   5.762
 6434TIP3   OH219244   1.938   2.618   5.375
 6434TIP3    H119245   2.033   2.615   5.363
 6434TIP3    H219246   1.923   2.698   5.426
 6435TIP3   OH219247   3.799   3.072   5.432
 6435TIP3    H119248   3.800   2.976   5.440
 6435TIP3    H219249   3.717   3.098   5.473
 6436TIP3   OH219250   2.905   2.856   5.565
 6436TIP3    H119251   2.904   2.948   5.594
 6436TIP3    H219252   2.836   2.814   5.616
 6437TIP3   OH219253   2.665   2.983   4.515
 6437TIP3    H119254   2.626   2.962   4.431
 6437TIP3    H219255   2.635   3.071   4.535
 6438TIP3   OH219256   2.105   2.833   4.902
 6438TIP3    H119257   2.153   2.825   4.984
 6438TIP3    H219258   2.050   2.754   4.899
 6439TIP3   OH219259   2.870   2.884   4.154
 6439TIP3    H119260   2.925   2.816   4.115
 6439TIP3    H219261   2.905   2.898   4.242
 6440TIP3   OH219262   2.919   2.938   4.424
 6440TIP3    H119263   2.834   2.944   4.467
 6440TIP3    H219264   2.977   2.901   4.490
 6441TIP3   OH219265   3.688   2.199   5.702
 6441TIP3    H119266   3.608   2.212   5.651
 6441TIP3    H219267   3.707   2.106   5.695
 6442TIP3   OH219268   2.286   2.608   5.724
 6442TIP3    H119269   2.336   2.596   5.805
 6442TIP3    H219270   2.213   2.547   5.731
 6443TIP3   OH219271   2.681   1.430   5.502
 6443TIP3    H119272   2.593   1.411   5.469
 6443TIP3    H219273   2.669   1.505   5.561
 6444TIP3   OH219274   3.223   1.547   5.710
 6444TIP3    H119275   3.290   1.517   5.771
 6444TIP3    H219276   3.140   1.524   5.752
 6445TIP3   OH219277   3.455   1.976   5.624
 6445TIP3    H119278   3.408   1.974   5.708
 6445TIP3    H219279   3.434   2.063   5.588
 6446TIP3   OH219280   3.122   2.100   4.181
 6446TIP3    H119281   3.084   2.078   4.096
 6446TIP3    H219282   3.200   2.151   4.160
 6447TIP3   OH219283   2.828   1.478   4.485
 6447TIP3    H119284   2.798   1.479   4.576
 6447TIP3    H219285   2.793   1.397   4.448
 6448TIP3   OH219286   2.617   1.954   5.530
 6448TIP3    H119287   2.571   1.971   5.612
 6448TIP3    H219288   2.601   2.032   5.477
 6449TIP3   OH219289   2.501   1.830   5.045
 6449TIP3    H119290   2.409   1.814   5.062
 6449TIP3    H219291   2.516   1.795   4.957
 6450TIP3   OH219292   2.989   1.918   4.770
 6450TIP3    H119293   2.939   1.989   4.730
 6450TIP3    H219294   3.047   1.887   4.699
 6451TIP3   OH219295   3.168   2.194   5.860
 6451TIP3    H119296   3.143   2.123   5.919
 6451TIP3    H219297   3.261   2.209   5.878
 6452TIP3   OH219298   3.146   1.944   5.007
 6452TIP3    H119299   3.086   1.978   4.941
 6452TIP3    H219300   3.184   1.865   4.967
 6453TIP3   OH219301   2.436   1.976   5.743
 6453TIP3    H119302   2.472   2.039   5.805
 6453TIP3    H219303   2.431   1.894   5.792
 6454TIP3   OH219304   2.484   1.453   4.451
 6454TIP3    H119305   2.477   1.453   4.547
 6454TIP3    H219306   2.411   1.507   4.421
 6455TIP3   OH219307   2.002   1.478   4.854
 6455TIP3    H119308   2.046   1.507   4.774
 6455TIP3    H219309   1.938   1.547   4.872
 6456TIP3   OH219310   3.156   2.189   5.432
 6456TIP3    H119311   3.190   2.122   5.373
 6456TIP3    H219312   3.128   2.140   5.509
 6457TIP3   OH219313   2.830   1.658   5.107
 6457TIP3    H119314   2.755   1.655   5.167
 6457TIP3    H219315   2.907   1.645   5.163
 6458TIP3   OH219316   2.258   1.710   5.108
 6458TIP3    H119317   2.165   1.722   5.086
 6458TIP3    H219318   2.278   1.621   5.077
 6459TIP3   OH219319   2.529   1.703   4.803
 6459TIP3    H119320   2.621   1.721   4.788
 6459TIP3    H219321   2.485   1.730   4.723
 6460TIP3   OH219322   3.322   1.733   5.311
 6460TIP3    H119323   3.291   1.746   5.401
 6460TIP3    H219324   3.262   1.670   5.273
 6461TIP3   OH219325   2.378   1.738   4.575
 6461TIP3    H119326   2.310   1.694   4.524
 6461TIP3    H219327   2.433   1.782   4.510
 6462TIP3   OH219328   3.495   3.422   5.527
 6462TIP3    H119329   3.490   3.440   5.433
 6462TIP3    H219330   3.574   3.467   5.556
 6463TIP3   OH219331   2.451   2.532   5.947
 6463TIP3    H119332   2.531   2.560   5.993
 6463TIP3    H219333   2.384   2.529   6.015
 6464TIP3   OH219334   2.913   1.984   5.202
 6464TIP3    H119335   2.986   1.947   5.152
 6464TIP3    H219336   2.919   1.942   5.288
 6465TIP3   OH219337   2.436   1.451   5.074
 6465TIP3    H119338   2.468   1.362   5.088
 6465TIP3    H219339   2.481   1.480   4.995
 6466TIP3   OH219340   2.887   1.884   5.493
 6466TIP3    H119341   2.799   1.921   5.508
 6466TIP3    H219342   2.945   1.941   5.542
 6467TIP3   OH219343   2.622   2.270   4.588
 6467TIP3    H119344   2.551   2.208   4.574
 6467TIP3    H219345   2.606   2.305   4.676
 6468TIP3   OH219346   3.521   2.506   5.216
 6468TIP3    H119347   3.550   2.555   5.139
 6468TIP3    H219348   3.438   2.467   5.189
 6469TIP3   OH219349   3.082   1.583   4.454
 6469TIP3    H119350   2.988   1.567   4.461
 6469TIP3    H219351   3.092   1.676   4.476
 6470TIP3   OH219352   3.019   2.588   5.587
 6470TIP3    H119353   3.054   2.573   5.675
 6470TIP3    H219354   2.985   2.678   5.589
 6471TIP3   OH219355   3.152   1.832   4.554
 6471TIP3    H119356   3.247   1.839   4.569
 6471TIP3    H219357   3.131   1.911   4.504
 6472TIP3   OH219358   2.314   2.285   5.262
 6472TIP3    H119359   2.353   2.265   5.177
 6472TIP3    H219360   2.368   2.237   5.325
 6473TIP3   OH219361   2.771   2.422   4.414
 6473TIP3    H119362   2.725   2.506   4.415
 6473TIP3    H219363   2.719   2.366   4.472
 6474TIP3   OH219364   2.198   2.214   5.879
 6474TIP3    H119365   2.225   2.206   5.970
 6474TIP3    H219366   2.133   2.146   5.866
 6475TIP3   OH219367   2.927   2.328   5.895
 6475TIP3    H119368   2.866   2.272   5.848
 6475TIP3    H219369   3.013   2.296   5.870
 6476TIP3   OH219370   3.182   2.848   5.487
 6476TIP3    H119371   3.086   2.848   5.494
 6476TIP3    H219372   3.212   2.901   5.560
 6477TIP3   OH219373   3.591   1.925   4.385
 6477TIP3    H119374   3.532   1.877   4.328
 6477TIP3    H219375   3.590   2.015   4.351
 6478TIP3   OH219376   3.811   2.781   5.467
 6478TIP3    H119377   3.716   2.776   5.462
 6478TIP3    H219378   3.842   2.752   5.381
 6479TIP3   OH219379   3.281   2.739   4.293
 6479TIP3    H119380   3.275   2.666   4.354
 6479TIP3    H219381   3.307   2.699   4.210
 6480TIP3   OH219382   3.288   2.369   5.131
 6480TIP3    H119383   3.195   2.347   5.145
 6480TIP3    H219384   3.324   2.292   5.088
 6481TIP3   OH219385   2.420   2.602   4.891
 6481TIP3    H119386   2.425   2.680   4.836
 6481TIP3    H219387   2.326   2.583   4.898
 6482TIP3   OH219388   1.986   1.902   4.597
 6482TIP3    H119389   2.031   1.985   4.612
 6482TIP3    H219390   1.909   1.906   4.653
 6483TIP3   OH219391   2.548   2.362   4.833
 6483TIP3    H119392   2.521   2.452   4.848
 6483TIP3    H219393   2.515   2.313   4.908
 6484TIP3   OH219394   2.691   2.942   5.356
 6484TIP3    H119395   2.729   3.014   5.305
 6484TIP3    H219396   2.765   2.904   5.403
 6485TIP3   OH219397   2.337   2.840   4.742
 6485TIP3    H119398   2.252   2.846   4.787
 6485TIP3    H219399   2.371   2.930   4.743
 6486TIP3   OH219400   3.075   2.577   5.319
 6486TIP3    H119401   3.064   2.574   5.414
 6486TIP3    H219402   3.154   2.526   5.302
 6487TIP3   OH219403   3.053   2.465   4.203
 6487TIP3    H119404   3.106   2.444   4.280
 6487TIP3    H219405   2.963   2.442   4.229
 6488TIP3   OH219406   3.321   3.111   5.365
 6488TIP3    H119407   3.243   3.055   5.358
 6488TIP3    H219408   3.311   3.175   5.295
 6489TIP3   OH219409   3.386   2.945   4.011
 6489TIP3    H119410   3.449   3.015   3.996
 6489TIP3    H219411   3.306   2.990   4.038
 6490TIP3   OH219412   2.414   1.716   5.886
 6490TIP3    H119413   2.322   1.725   5.909
 6490TIP3    H219414   2.453   1.666   5.957
 6491TIP3   OH219415   3.215   2.403   4.421
 6491TIP3    H119416   3.202   2.336   4.488
 6491TIP3    H219417   3.309   2.401   4.403
 6492TIP3   OH219418   2.128   2.804   5.516
 6492TIP3    H119419   2.182   2.732   5.550
 6492TIP3    H219420   2.150   2.879   5.572
 6493TIP3   OH219421   2.415   2.449   4.202
 6493TIP3    H119422   2.425   2.361   4.167
 6493TIP3    H219423   2.395   2.437   4.295
 6494TIP3   OH219424   2.359   2.456   4.477
 6494TIP3    H119425   2.437   2.429   4.526
 6494TIP3    H219426   2.361   2.551   4.478
 6495TIP3   OH219427   2.094   2.149   4.676
 6495TIP3    H119428   2.029   2.192   4.732
 6495TIP3    H219429   2.112   2.213   4.607
 6496TIP3   OH219430   3.247   1.783   5.570
 6496TIP3    H119431   3.327   1.822   5.604
 6496TIP3    H219432   3.235   1.704   5.622
 6497TIP3   OH219433   3.129   1.535   4.733
 6497TIP3    H119434   3.116   1.555   4.641
 6497TIP3    H219435   3.169   1.614   4.770
 6498TIP3   OH219436   2.625   2.651   4.421
 6498TIP3    H119437   2.540   2.677   4.456
 6498TIP3    H219438   2.646   2.719   4.356
 6499TIP3   OH219439   2.809   1.719   4.837
 6499TIP3    H119440   2.873   1.787   4.814
 6499TIP3    H219441   2.819   1.707   4.931
 6500TIP3   OH219442   3.086   2.029   5.641
 6500TIP3    H119443   3.109   2.081   5.718
 6500TIP3    H219444   3.139   1.950   5.649
 6501TIP3   OH219445   2.961   1.437   4.932
 6501TIP3    H119446   2.965   1.504   5.001
 6501TIP3    H219447   3.019   1.470   4.864
 6502TIP3   OH219448   2.370   2.729   4.488
 6502TIP3    H119449   2.344   2.796   4.425
 6502TIP3    H219450   2.356   2.770   4.574
 6503TIP3   OH219451   2.473   1.443   4.729
 6503TIP3    H119452   2.470   1.535   4.755
 6503TIP3    H219453   2.565   1.419   4.732
 6504TIP3   OH219454   3.721   1.933   5.623
 6504TIP3    H119455   3.625   1.933   5.630
 6504TIP3    H219456   3.739   1.891   5.539
 6505TIP3   OH219457   3.376   2.125   5.012
 6505TIP3    H119458   3.300   2.068   5.024
 6505TIP3    H219459   3.447   2.081   5.058
 6506TIP3   OH219460   2.093   2.353   4.479
 6506TIP3    H119461   2.159   2.421   4.491
 6506TIP3    H219462   2.130   2.295   4.413
 6507TIP3   OH219463   2.022   1.628   4.625
 6507TIP3    H119464   2.035   1.723   4.621
 6507TIP3    H219465   1.955   1.610   4.559
 6508TIP3   OH219466   3.347   3.090   4.957
 6508TIP3    H119467   3.302   3.135   4.886
 6508TIP3    H219468   3.440   3.106   4.940
 6509TIP3   OH219469   1.954   2.569   4.864
 6509TIP3    H119470   1.892   2.600   4.929
 6509TIP3    H219471   1.927   2.611   4.782
 6510TIP3   OH219472   2.121   3.120   5.934
 6510TIP3    H119473   2.202   3.127   5.984
 6510TIP3    H219474   2.100   3.027   5.936
 6511TIP3   OH219475   2.602   3.073   5.981
 6511TIP3    H119476   2.695   3.053   5.987
 6511TIP3    H219477   2.569   3.016   5.912
 6512TIP3   OH219478   2.580   2.650   4.111
 6512TIP3    H119479   2.527   2.580   4.148
 6512TIP3    H219480   2.655   2.605   4.071
 6513TIP3   OH219481   3.234   2.986   5.721
 6513TIP3    H119482   3.229   2.915   5.785
 6513TIP3    H219483   3.312   3.035   5.746
 6514TIP3   OH219484   3.016   2.690   4.022
 6514TIP3    H119485   3.063   2.635   4.085
 6514TIP3    H219486   3.073   2.693   3.945
 6515TIP3   OH219487   2.247   2.512   6.130
 6515TIP3    H119488   2.268   2.419   6.131
 6515TIP3    H219489   2.161   2.516   6.088
 6516TIP3   OH219490   2.226   2.165   4.335
 6516TIP3    H119491   2.284   2.139   4.406
 6516TIP3    H219492   2.283   2.170   4.258
 6517TIP3   OH219493   2.852   2.605   5.912
 6517TIP3    H119494   2.813   2.626   5.827
 6517TIP3    H219495   2.885   2.515   5.902
 6518TIP3   OH219496   2.738   2.365   4.146
 6518TIP3    H119497   2.740   2.381   4.240
 6518TIP3    H219498   2.736   2.270   4.137
 6519TIP3   OH219499   3.347   2.620   5.520
 6519TIP3    H119500   3.424   2.657   5.475
 6519TIP3    H219501   3.278   2.685   5.505
 6520TIP3   OH219502   2.369   2.255   6.123
 6520TIP3    H119503   2.431   2.184   6.108
 6520TIP3    H219504   2.387   2.285   6.212
 6521TIP3   OH219505   2.428   2.073   4.551
 6521TIP3    H119506   2.407   2.033   4.635
 6521TIP3    H219507   2.468   2.003   4.499
 6522TIP3   OH219508   2.698   2.136   5.778
 6522TIP3    H119509   2.625   2.196   5.784
 6522TIP3    H219510   2.750   2.168   5.705
 6523TIP3   OH219511   2.537   1.868   4.395
 6523TIP3    H119512   2.508   1.873   4.304
 6523TIP3    H219513   2.633   1.874   4.389
 6524TIP3   OH219514   3.220   2.538   5.916
 6524TIP3    H119515   3.296   2.512   5.865
 6524TIP3    H219516   3.214   2.474   5.987
 6525TIP3   OH219517   3.354   2.198   4.058
 6525TIP3    H119518   3.333   2.152   3.977
 6525TIP3    H219519   3.325   2.288   4.042
 6526TIP3   OH219520   2.825   1.925   5.904
 6526TIP3    H119521   2.825   1.846   5.849
 6526TIP3    H219522   2.783   1.992   5.850
 6527TIP3   OH219523   2.821   1.716   5.715
 6527TIP3    H119524   2.851   1.755   5.633
 6527TIP3    H219525   2.731   1.687   5.697
 6528TIP3   OH219526   2.852   2.249   5.589
 6528TIP3    H119527   2.938   2.259   5.547
 6528TIP3    H219528   2.797   2.313   5.545
 6529TIP3   OH219529   3.438   2.214   5.969
 6529TIP3    H119530   3.481   2.129   5.976
 6529TIP3    H219531   3.505   2.271   5.932
 6530TIP3   OH219532   3.476   2.472   5.703
 6530TIP3    H119533   3.418   2.524   5.648
 6530TIP3    H219534   3.564   2.488   5.668
 6531TIP3   OH219535   2.714   2.034   6.139
 6531TIP3    H119536   2.634   1.985   6.159
 6531TIP3    H219537   2.741   2.003   6.052
 6532TIP3   OH219538   2.964   1.486   5.788
 6532TIP3    H119539   2.917   1.567   5.766
 6532TIP3    H219540   2.898   1.417   5.783
 6533TIP3   OH219541   3.081   1.978   6.003
 6533TIP3    H119542   3.070   1.967   6.097
 6533TIP3    H219543   2.996   1.955   5.965
 6534TIP3   OH219544   3.325   1.932   5.858
 6534TIP3    H119545   3.250   1.931   5.917
 6534TIP3    H219546   3.398   1.901   5.911
 6535TIP3   OH219547   3.551   1.871   6.008
 6535TIP3    H119548   3.566   1.777   6.021
 6535TIP3    H219549   3.550   1.908   6.096
 6536TIP3   OH219550   2.536   1.818   6.175
 6536TIP3    H119551   2.544   1.727   6.146
 6536TIP3    H219552   2.580   1.820   6.260
 6537TIP3   OH219553   3.045   1.481   6.048
 6537TIP3    H119554   3.115   1.416   6.045
 6537TIP3    H219555   3.010   1.484   5.959
 6538TIP3   OH219556   3.117   1.698   6.204
 6538TIP3    H119557   3.097   1.630   6.140
 6538TIP3    H219558   3.044   1.759   6.197
 6539TIP3   OH219559   2.344   2.930   4.299
 6539TIP3    H119560   2.439   2.921   4.285
 6539TIP3    H219561   2.313   2.980   4.224
 6540TIP3   OH219562   1.823   2.309   4.516
 6540TIP3    H119563   1.915   2.333   4.503
 6540TIP3    H219564   1.815   2.223   4.475
 6541TIP3   OH219565   1.737   2.921   4.932
 6541TIP3    H119566   1.671   2.864   4.892
 6541TIP3    H219567   1.782   2.865   4.996
 6542TIP3   OH219568   1.873   2.770   5.119
 6542TIP3    H119569   1.857   2.700   5.182
 6542TIP3    H219570   1.924   2.835   5.168
 6543TIP3   OH219571   3.603   3.175   4.912
 6543TIP3    H119572   3.640   3.212   4.992
 6543TIP3    H219573   3.670   3.189   4.846
 6544TIP3   OH219574   3.627   3.195   5.208
 6544TIP3    H119575   3.582   3.112   5.192
 6544TIP3    H219576   3.708   3.171   5.251
 6545TIP3   OH219577   3.674   2.873   5.775
 6545TIP3    H119578   3.603   2.880   5.838
 6545TIP3    H219579   3.716   2.959   5.776
 6546TIP3   OH219580   3.492   2.383   4.392
 6546TIP3    H119581   3.554   2.449   4.360
 6546TIP3    H219582   3.535   2.345   4.469
 6547TIP3   OH219583   3.619   2.249   4.596
 6547TIP3    H119584   3.554   2.210   4.654
 6547TIP3    H219585   3.684   2.287   4.655
 6548TIP3   OH219586   3.674   2.638   5.032
 6548TIP3    H119587   3.725   2.575   4.981
 6548TIP3    H219588   3.680   2.719   4.981
 6549TIP3   OH219589   3.501   2.943   5.224
 6549TIP3    H119590   3.430   2.987   5.271
 6549TIP3    H219591   3.457   2.897   5.152
 6550TIP3   OH219592   3.553   2.161   4.241
 6550TIP3    H119593   3.485   2.162   4.174
 6550TIP3    H219594   3.531   2.235   4.298
 6551TIP3   OH219595   3.428   1.829   4.193
 6551TIP3    H119596   3.380   1.873   4.122
 6551TIP3    H219597   3.405   1.736   4.182
 6552TIP3   OH219598   3.430   2.109   4.743
 6552TIP3    H119599   3.440   2.014   4.736
 6552TIP3    H219600   3.417   2.125   4.836
 6553TIP3   OH219601   2.060   2.179   5.487
 6553TIP3    H119602   2.056   2.150   5.396
 6553TIP3    H219603   2.154   2.182   5.507
 6554TIP3   OH219604   3.723   2.533   5.599
 6554TIP3    H119605   3.792   2.468   5.589
 6554TIP3    H219606   3.745   2.601   5.536
 6555TIP3   OH219607   3.905   2.333   5.612
 6555TIP3    H119608   3.830   2.287   5.650
 6555TIP3    H219609   3.979   2.274   5.625
 6556TIP3   OH219610   3.372   1.562   4.177
 6556TIP3    H119611   3.444   1.535   4.234
 6556TIP3    H219612   3.298   1.508   4.203
 6557TIP3   OH219613   3.430   1.823   4.633
 6557TIP3    H119614   3.469   1.737   4.649
 6557TIP3    H219615   3.485   1.861   4.564
 6558TIP3   OH219616   3.591   1.998   5.132
 6558TIP3    H119617   3.673   2.020   5.088
 6558TIP3    H219618   3.601   2.033   5.221
 6559TIP3   OH219619   3.658   2.145   5.362
 6559TIP3    H119620   3.582   2.177   5.410
 6559TIP3    H219621   3.692   2.223   5.317
 6560TIP3   OH219622   2.271   1.861   6.139
 6560TIP3    H119623   2.366   1.870   6.151
 6560TIP3    H219624   2.247   1.783   6.189
 6561TIP3   OH219625   4.107   1.732   5.915
 6561TIP3    H119626   4.168   1.670   5.876
 6561TIP3    H219627   4.080   1.788   5.843
 6562TIP3   OH219628   3.538   1.573   4.675
 6562TIP3    H119629   3.586   1.560   4.756
 6562TIP3    H219630   3.477   1.499   4.671
 6563TIP3   OH219631   2.039   1.823   5.566
 6563TIP3    H119632   2.090   1.831   5.485
 6563TIP3    H219633   2.055   1.906   5.612
 6564TIP3   OH219634   3.976   1.871   5.721
 6564TIP3    H119635   3.893   1.914   5.741
 6564TIP3    H219636   3.952   1.798   5.665
 6565TIP3   OH219637   3.616   1.508   4.307
 6565TIP3    H119638   3.655   1.438   4.254
 6565TIP3    H219639   3.680   1.579   4.304
 6566TIP3   OH219640   2.022   1.349   5.092
 6566TIP3    H119641   1.928   1.336   5.100
 6566TIP3    H219642   2.032   1.403   5.013
 6567TIP3   OH219643   3.175   3.050   4.580
 6567TIP3    H119644   3.215   3.030   4.496
 6567TIP3    H219645   3.238   3.107   4.624
 6568TIP3   OH219646   2.240   1.418   5.880
 6568TIP3    H119647   2.195   1.418   5.964
 6568TIP3    H219648   2.176   1.455   5.819
 6569TIP3   OH219649   2.282   2.843   5.953
 6569TIP3    H119650   2.190   2.820   5.940
 6569TIP3    H219651   2.294   2.841   6.048
 6570TIP3   OH219652   2.465   2.882   5.504
 6570TIP3    H119653   2.413   2.955   5.469
 6570TIP3    H219654   2.550   2.891   5.462
 6571TIP3   OH219655   2.906   3.123   5.644
 6571TIP3    H119656   2.945   3.122   5.731
 6571TIP3    H219657   2.968   3.173   5.591
 6572TIP3   OH219658   3.084   3.277   5.504
 6572TIP3    H119659   3.150   3.225   5.458
 6572TIP3    H219660   3.135   3.332   5.564
 6573TIP3   OH219661   3.879   1.631   5.602
 6573TIP3    H119662   3.789   1.624   5.570
 6573TIP3    H219663   3.915   1.543   5.593
 6574TIP3   OH219664   2.135   3.136   5.532
 6574TIP3    H119665   2.047   3.166   5.509
 6574TIP3    H219666   2.152   3.176   5.617
 6575TIP3   OH219667   2.372   3.115   5.389
 6575TIP3    H119668   2.288   3.126   5.434
 6575TIP3    H219669   2.356   3.145   5.300
 6576TIP3   OH219670   2.798   3.142   5.188
 6576TIP3    H119671   2.732   3.156   5.121
 6576TIP3    H219672   2.811   3.229   5.227
 6577TIP3   OH219673   3.068   3.083   5.240
 6577TIP3    H119674   2.975   3.096   5.220
 6577TIP3    H219675   3.113   3.152   5.191
 6578TIP3   OH219676   3.275   3.274   5.148
 6578TIP3    H119677   3.259   3.357   5.103
 6578TIP3    H219678   3.303   3.214   5.079
 6579TIP3   OH219679   2.052   2.927   5.274
 6579TIP3    H119680   2.073   2.902   5.364
 6579TIP3    H219681   2.121   2.887   5.221
 6580TIP3   OH219682   2.246   2.799   5.134
 6580TIP3    H119683   2.258   2.717   5.181
 6580TIP3    H219684   2.334   2.837   5.130
 6581TIP3   OH219685   2.511   2.892   5.141
 6581TIP3    H119686   2.540   2.803   5.123
 6581TIP3    H219687   2.557   2.918   5.221
 6582TIP3   OH219688   3.075   1.543   5.207
 6582TIP3    H119689   3.042   1.479   5.270
 6582TIP3    H219690   3.157   1.506   5.175
 6583TIP3   OH219691   3.604   1.430   5.123
 6583TIP3    H119692   3.641   1.481   5.051
 6583TIP3    H219693   3.510   1.452   5.122
 6584TIP3   OH219694   3.705   1.531   4.889
 6584TIP3    H119695   3.775   1.477   4.853
 6584TIP3    H219696   3.735   1.621   4.877
 6585TIP3   OH219697   2.135   1.132   4.886
 6585TIP3    H119698   2.164   1.175   4.806
 6585TIP3    H219699   2.084   1.198   4.932
 6586TIP3   OH219700   2.777   1.301   5.127
 6586TIP3    H119701   2.830   1.342   5.058
 6586TIP3    H219702   2.820   1.326   5.209
 6587TIP3   OH219703   3.320   1.439   5.105
 6587TIP3    H119704   3.326   1.402   5.017
 6587TIP3    H219705   3.306   1.362   5.161
 6588TIP3   OH219706   3.352   1.362   4.667
 6588TIP3    H119707   3.269   1.408   4.680
 6588TIP3    H219708   3.340   1.278   4.711
 6589TIP3   OH219709   1.833   2.705   4.664
 6589TIP3    H119710   1.750   2.669   4.632
 6589TIP3    H219711   1.829   2.798   4.641
 6590TIP3   OH219712   2.242   1.282   4.656
 6590TIP3    H119713   2.285   1.223   4.594
 6590TIP3    H219714   2.312   1.339   4.687
 6591TIP3   OH219715   2.748   1.468   4.752
 6591TIP3    H119716   2.810   1.420   4.807
 6591TIP3    H219717   2.765   1.560   4.771
 6592TIP3   OH219718   2.612   2.884   4.248
 6592TIP3    H119719   2.698   2.911   4.216
 6592TIP3    H219720   2.586   2.812   4.191
 6593TIP3   OH219721   3.301   3.006   4.347
 6593TIP3    H119722   3.305   2.912   4.332
 6593TIP3    H219723   3.287   3.043   4.260
 6594TIP3   OH219724   2.545   1.537   6.121
 6594TIP3    H119725   2.505   1.470   6.177
 6594TIP3    H219726   2.637   1.538   6.148
 6595TIP3   OH219727   2.799   1.520   6.243
 6595TIP3    H119728   2.875   1.526   6.185
 6595TIP3    H219729   2.809   1.436   6.287
 6596TIP3   OH219730   1.914   2.720   4.303
 6596TIP3    H119731   1.918   2.746   4.395
 6596TIP3    H219732   1.999   2.679   4.286
 6597TIP3   OH219733   3.619   1.601   6.036
 6597TIP3    H119734   3.635   1.570   6.125
 6597TIP3    H219735   3.705   1.597   5.993
 6598TIP3   OH219736   3.548   3.151   5.531
 6598TIP3    H119737   3.475   3.118   5.478
 6598TIP3    H219738   3.533   3.246   5.534
 6599TIP3   OH219739   4.819   2.527   4.290
 6599TIP3    H119740   4.792   2.617   4.271
 6599TIP3    H219741   4.745   2.474   4.261
 6600TIP3   OH219742   4.824   2.522   4.678
 6600TIP3    H119743   4.856   2.499   4.765
 6600TIP3    H219744   4.779   2.443   4.647
 6601TIP3   OH219745   4.120   2.415   5.043
 6601TIP3    H119746   4.150   2.348   5.105
 6601TIP3    H219747   4.195   2.475   5.035
 6602TIP3   OH219748   5.066   2.825   4.361
 6602TIP3    H119749   5.047   2.758   4.426
 6602TIP3    H219750   5.094   2.901   4.411
 6603TIP3   OH219751   4.096   2.824   4.770
 6603TIP3    H119752   4.085   2.729   4.769
 6603TIP3    H219753   4.190   2.837   4.754
 6604TIP3   OH219754   3.795   2.030   4.547
 6604TIP3    H119755   3.753   2.113   4.567
 6604TIP3    H219756   3.727   1.978   4.504
 6605TIP3   OH219757   3.856   2.317   4.724
 6605TIP3    H119758   3.905   2.243   4.759
 6605TIP3    H219759   3.916   2.359   4.663
 6606TIP3   OH219760   4.709   3.272   4.370
 6606TIP3    H119761   4.769   3.213   4.326
 6606TIP3    H219762   4.707   3.241   4.461
 6607TIP3   OH219763   4.621   2.748   4.723
 6607TIP3    H119764   4.656   2.673   4.676
 6607TIP3    H219765   4.699   2.798   4.750
 6608TIP3   OH219766   5.635   2.072   4.721
 6608TIP3    H119767   5.663   2.152   4.765
 6608TIP3    H219768   5.654   2.087   4.628
 6609TIP3   OH219769   5.032   2.248   4.753
 6609TIP3    H119770   5.074   2.165   4.775
 6609TIP3    H219771   4.999   2.235   4.664
 6610TIP3   OH219772   4.370   1.910   4.717
 6610TIP3    H119773   4.352   1.984   4.658
 6610TIP3    H219774   4.323   1.836   4.678
 6611TIP3   OH219775   5.068   2.001   4.341
 6611TIP3    H119776   5.135   1.987   4.408
 6611TIP3    H219777   5.116   2.037   4.266
 6612TIP3   OH219778   4.005   2.110   4.828
 6612TIP3    H119779   4.086   2.094   4.877
 6612TIP3    H219780   4.014   2.058   4.749
 6613TIP3   OH219781   4.444   2.308   4.622
 6613TIP3    H119782   4.536   2.286   4.636
 6613TIP3    H219783   4.404   2.227   4.590
 6614TIP3   OH219784   5.705   2.281   4.891
 6614TIP3    H119785   5.623   2.324   4.870
 6614TIP3    H219786   5.721   2.304   4.983
 6615TIP3   OH219787   4.363   1.894   5.156
 6615TIP3    H119788   4.308   1.930   5.086
 6615TIP3    H219789   4.314   1.910   5.236
 6616TIP3   OH219790   4.710   2.749   4.160
 6616TIP3    H119791   4.667   2.730   4.076
 6616TIP3    H219792   4.673   2.833   4.187
 6617TIP3   OH219793   4.471   2.672   4.947
 6617TIP3    H119794   4.410   2.737   4.984
 6617TIP3    H219795   4.513   2.718   4.875
 6618TIP3   OH219796   5.272   2.008   4.520
 6618TIP3    H119797   5.253   1.963   4.603
 6618TIP3    H219798   5.323   2.085   4.545
 6619TIP3   OH219799   4.241   2.009   4.937
 6619TIP3    H119800   4.298   2.082   4.963
 6619TIP3    H219801   4.287   1.967   4.864
 6620TIP3   OH219802   4.299   2.867   5.049
 6620TIP3    H119803   4.278   2.950   5.006
 6620TIP3    H219804   4.223   2.848   5.104
 6621TIP3   OH219805   3.685   2.558   4.279
 6621TIP3    H119806   3.647   2.578   4.193
 6621TIP3    H219807   3.706   2.643   4.317
 6622TIP3   OH219808   5.134   3.074   4.524
 6622TIP3    H119809   5.048   3.060   4.565
 6622TIP3    H219810   5.124   3.157   4.477
 6623TIP3   OH219811   5.427   1.970   4.886
 6623TIP3    H119812   5.340   1.997   4.856
 6623TIP3    H219813   5.486   2.001   4.817
 6624TIP3   OH219814   4.717   1.610   4.872
 6624TIP3    H119815   4.706   1.516   4.889
 6624TIP3    H219816   4.643   1.651   4.917
 6625TIP3   OH219817   4.864   3.129   4.193
 6625TIP3    H119818   4.902   3.044   4.169
 6625TIP3    H219819   4.916   3.193   4.144
 6626TIP3   OH219820   4.980   2.897   4.108
 6626TIP3    H119821   4.929   2.823   4.074
 6626TIP3    H219822   5.015   2.865   4.191
 6627TIP3   OH219823   5.359   2.981   4.865
 6627TIP3    H119824   5.347   2.904   4.809
 6627TIP3    H219825   5.341   3.056   4.808
 6628TIP3   OH219826   4.650   2.375   4.126
 6628TIP3    H119827   4.571   2.426   4.110
 6628TIP3    H219828   4.696   2.376   4.042
 6629TIP3   OH219829   4.612   2.164   3.837
 6629TIP3    H119830   4.674   2.214   3.890
 6629TIP3    H219831   4.666   2.100   3.790
 6630TIP3   OH219832   5.553   2.624   4.713
 6630TIP3    H119833   5.470   2.671   4.719
 6630TIP3    H219834   5.585   2.643   4.625
 6631TIP3   OH219835   5.000   2.458   4.098
 6631TIP3    H119836   4.944   2.483   4.172
 6631TIP3    H219837   5.083   2.434   4.139
 6632TIP3   OH219838   5.231   2.498   5.011
 6632TIP3    H119839   5.231   2.580   5.061
 6632TIP3    H219840   5.147   2.497   4.965
 6633TIP3   OH219841   4.231   2.452   4.512
 6633TIP3    H119842   4.191   2.397   4.445
 6633TIP3    H219843   4.307   2.402   4.542
 6634TIP3   OH219844   4.360   2.863   4.661
 6634TIP3    H119845   4.338   2.832   4.573
 6634TIP3    H219846   4.448   2.829   4.676
 6635TIP3   OH219847   4.369   2.428   4.867
 6635TIP3    H119848   4.400   2.405   4.779
 6635TIP3    H219849   4.409   2.513   4.886
 6636TIP3   OH219850   4.897   3.065   4.647
 6636TIP3    H119851   4.877   3.145   4.697
 6636TIP3    H219852   4.877   2.994   4.708
 6637TIP3   OH219853   4.502   2.983   5.194
 6637TIP3    H119854   4.445   3.047   5.238
 6637TIP3    H219855   4.442   2.930   5.141
 6638TIP3   OH219856   4.842   2.317   3.922
 6638TIP3    H119857   4.897   2.375   3.974
 6638TIP3    H219858   4.864   2.337   3.831
 6639TIP3   OH219859   4.259   2.539   5.297
 6639TIP3    H119860   4.267   2.625   5.338
 6639TIP3    H219861   4.166   2.517   5.306
 6640TIP3   OH219862   4.592   3.000   4.190
 6640TIP3    H119863   4.650   3.065   4.228
 6640TIP3    H219864   4.520   3.051   4.153
 6641TIP3   OH219865   4.298   3.152   5.279
 6641TIP3    H119866   4.269   3.153   5.188
 6641TIP3    H219867   4.219   3.129   5.328
 6642TIP3   OH219868   5.353   1.557   3.972
 6642TIP3    H119869   5.274   1.576   4.023
 6642TIP3    H219870   5.369   1.638   3.922
 6643TIP3   OH219871   4.098   2.298   4.311
 6643TIP3    H119872   4.032   2.347   4.261
 6643TIP3    H219873   4.056   2.214   4.331
 6644TIP3   OH219874   5.155   2.925   3.517
 6644TIP3    H119875   5.159   3.020   3.507
 6644TIP3    H219876   5.246   2.896   3.506
 6645TIP3   OH219877   3.878   2.682   5.226
 6645TIP3    H119878   3.814   2.665   5.157
 6645TIP3    H219879   3.915   2.596   5.246
 6646TIP3   OH219880   3.742   2.860   4.890
 6646TIP3    H119881   3.815   2.866   4.829
 6646TIP3    H219882   3.712   2.951   4.901
 6647TIP3   OH219883   5.594   3.328   4.917
 6647TIP3    H119884   5.596   3.233   4.927
 6647TIP3    H219885   5.513   3.355   4.960
 6648TIP3   OH219886   4.703   3.111   5.054
 6648TIP3    H119887   4.701   3.203   5.081
 6648TIP3    H219888   4.632   3.070   5.102
 6649TIP3   OH219889   4.464   3.239   4.000
 6649TIP3    H119890   4.417   3.227   3.918
 6649TIP3    H219891   4.437   3.326   4.030
 6650TIP3   OH219892   4.663   3.137   3.640
 6650TIP3    H119893   4.722   3.071   3.606
 6650TIP3    H219894   4.698   3.159   3.726
 6651TIP3   OH219895   4.714   3.181   3.916
 6651TIP3    H119896   4.628   3.206   3.949
 6651TIP3    H219897   4.753   3.128   3.986
 6652TIP3   OH219898   5.485   2.457   5.188
 6652TIP3    H119899   5.403   2.470   5.141
 6652TIP3    H219900   5.503   2.363   5.180
 6653TIP3   OH219901   4.085   2.864   5.216
 6653TIP3    H119902   4.134   2.845   5.296
 6653TIP3    H219903   4.009   2.805   5.220
 6654TIP3   OH219904   4.479   1.690   5.000
 6654TIP3    H119905   4.394   1.657   4.971
 6654TIP3    H219906   4.458   1.770   5.048
 6655TIP3   OH219907   5.016   1.802   5.195
 6655TIP3    H119908   5.084   1.776   5.257
 6655TIP3    H219909   4.934   1.783   5.240
 6656TIP3   OH219910   5.254   2.235   5.115
 6656TIP3    H119911   5.205   2.231   5.197
 6656TIP3    H219912   5.229   2.320   5.077
 6657TIP3   OH219913   4.914   2.356   3.662
 6657TIP3    H119914   4.881   2.333   3.575
 6657TIP3    H219915   4.993   2.407   3.645
 6658TIP3   OH219916   4.626   1.734   3.972
 6658TIP3    H119917   4.595   1.737   4.062
 6658TIP3    H219918   4.589   1.654   3.935
 6659TIP3   OH219919   4.413   2.206   5.018
 6659TIP3    H119920   4.365   2.223   5.098
 6659TIP3    H219921   4.399   2.285   4.964
 6660TIP3   OH219922   4.296   2.088   4.529
 6660TIP3    H119923   4.206   2.067   4.551
 6660TIP3    H219924   4.310   2.050   4.443
 6661TIP3   OH219925   4.788   2.177   4.259
 6661TIP3    H119926   4.736   2.247   4.219
 6661TIP3    H219927   4.843   2.144   4.187
 6662TIP3   OH219928   4.964   2.450   5.346
 6662TIP3    H119929   4.938   2.381   5.406
 6662TIP3    H219930   5.057   2.466   5.366
 6663TIP3   OH219931   4.944   2.201   4.494
 6663TIP3    H119932   4.882   2.234   4.429
 6663TIP3    H219933   4.980   2.122   4.455
 6664TIP3   OH219934   4.235   2.232   5.228
 6664TIP3    H119935   4.261   2.296   5.293
 6664TIP3    H219936   4.223   2.151   5.277
 6665TIP3   OH219937   4.282   1.712   3.937
 6665TIP3    H119938   4.275   1.708   4.033
 6665TIP3    H219939   4.207   1.765   3.910
 6666TIP3   OH219940   3.828   1.753   4.807
 6666TIP3    H119941   3.899   1.787   4.862
 6666TIP3    H219942   3.871   1.725   4.726
 6667TIP3   OH219943   3.792   1.738   4.322
 6667TIP3    H119944   3.839   1.772   4.246
 6667TIP3    H219945   3.732   1.808   4.347
 6668TIP3   OH219946   4.958   2.446   4.919
 6668TIP3    H119947   4.990   2.378   4.859
 6668TIP3    H219948   4.926   2.397   4.995
 6669TIP3   OH219949   4.628   1.909   4.593
 6669TIP3    H119950   4.547   1.910   4.644
 6669TIP3    H219951   4.698   1.908   4.659
 6670TIP3   OH219952   4.059   1.969   4.598
 6670TIP3    H119953   3.967   1.977   4.572
 6670TIP3    H219954   4.083   1.879   4.576
 6671TIP3   OH219955   4.326   1.962   4.289
 6671TIP3    H119956   4.418   1.980   4.269
 6671TIP3    H219957   4.279   1.986   4.209
 6672TIP3   OH219958   5.116   1.986   4.795
 6672TIP3    H119959   5.088   2.001   4.885
 6672TIP3    H219960   5.050   1.928   4.759
 6673TIP3   OH219961   4.174   1.996   4.064
 6673TIP3    H119962   4.101   1.954   4.019
 6673TIP3    H219963   4.226   2.035   3.993
 6674TIP3   OH219964   5.292   3.677   5.014
 6674TIP3    H119965   5.287   3.697   4.921
 6674TIP3    H219966   5.368   3.727   5.046
 6675TIP3   OH219967   4.245   2.786   5.438
 6675TIP3    H119968   4.325   2.816   5.482
 6675TIP3    H219969   4.179   2.783   5.507
 6676TIP3   OH219970   4.709   2.241   4.692
 6676TIP3    H119971   4.781   2.201   4.643
 6676TIP3    H219972   4.713   2.200   4.778
 6677TIP3   OH219973   4.227   1.725   4.572
 6677TIP3    H119974   4.192   1.650   4.621
 6677TIP3    H219975   4.275   1.687   4.499
 6678TIP3   OH219976   4.684   2.142   4.978
 6678TIP3    H119977   4.595   2.175   4.993
 6678TIP3    H219978   4.740   2.201   5.028
 6679TIP3   OH219979   4.422   2.525   4.078
 6679TIP3    H119980   4.350   2.464   4.062
 6679TIP3    H219981   4.403   2.562   4.164
 6680TIP3   OH219982   5.319   2.764   4.700
 6680TIP3    H119983   5.344   2.814   4.622
 6680TIP3    H219984   5.236   2.722   4.677
 6681TIP3   OH219985   4.877   1.841   3.937
 6681TIP3    H119986   4.784   1.823   3.947
 6681TIP3    H219987   4.887   1.932   3.964
 6682TIP3   OH219988   4.822   2.849   5.073
 6682TIP3    H119989   4.843   2.828   5.164
 6682TIP3    H219990   4.782   2.936   5.076
 6683TIP3   OH219991   4.948   2.088   4.041
 6683TIP3    H119992   5.042   2.095   4.057
 6683TIP3    H219993   4.927   2.167   3.991
 6684TIP3   OH219994   4.113   2.543   4.748
 6684TIP3    H119995   4.151   2.522   4.663
 6684TIP3    H219996   4.159   2.486   4.810
 6685TIP3   OH219997   4.563   2.678   3.896
 6685TIP3    H119998   4.519   2.763   3.899
 6685TIP3    H219999   4.512   2.623   3.956
 6686TIP3   OH220000   3.996   2.467   5.364
 6686TIP3    H120001   4.014   2.456   5.457
 6686TIP3    H220002   3.926   2.404   5.345
 6687TIP3   OH220003   4.722   2.586   5.380
 6687TIP3    H120004   4.658   2.528   5.338
 6687TIP3    H220005   4.807   2.552   5.353
 6688TIP3   OH220006   4.980   3.107   4.972
 6688TIP3    H120007   4.885   3.103   4.980
 6688TIP3    H220008   5.008   3.160   5.047
 6689TIP3   OH220009   5.388   2.182   3.872
 6689TIP3    H120010   5.329   2.134   3.815
 6689TIP3    H220011   5.387   2.271   3.838
 6690TIP3   OH220012   5.608   3.039   4.953
 6690TIP3    H120013   5.513   3.034   4.949
 6690TIP3    H220014   5.637   3.009   4.867
 6691TIP3   OH220015   5.081   2.993   3.784
 6691TIP3    H120016   5.059   2.924   3.847
 6691TIP3    H220017   5.098   2.946   3.702
 6692TIP3   OH220018   5.085   2.625   4.618
 6692TIP3    H120019   4.993   2.603   4.633
 6692TIP3    H220020   5.121   2.548   4.574
 6693TIP3   OH220021   4.208   2.857   4.374
 6693TIP3    H120022   4.211   2.938   4.323
 6693TIP3    H220023   4.116   2.845   4.394
 6694TIP3   OH220024   3.779   2.161   4.083
 6694TIP3    H120025   3.824   2.243   4.100
 6694TIP3    H220026   3.702   2.163   4.140
 6695TIP3   OH220027   4.347   2.622   4.320
 6695TIP3    H120028   4.312   2.710   4.333
 6695TIP3    H220029   4.312   2.571   4.393
 6696TIP3   OH220030   4.487   3.198   4.845
 6696TIP3    H120031   4.521   3.269   4.790
 6696TIP3    H220032   4.564   3.164   4.891
 6697TIP3   OH220033   4.129   3.089   4.233
 6697TIP3    H120034   4.037   3.081   4.257
 6697TIP3    H220035   4.148   3.182   4.240
 6698TIP3   OH220036   4.871   2.832   4.806
 6698TIP3    H120037   4.859   2.832   4.901
 6698TIP3    H220038   4.950   2.779   4.791
 6699TIP3   OH220039   4.848   2.722   3.689
 6699TIP3    H120040   4.902   2.699   3.765
 6699TIP3    H220041   4.758   2.702   3.716
 6700TIP3   OH220042   5.118   3.365   4.852
 6700TIP3    H120043   5.041   3.309   4.847
 6700TIP3    H220044   5.106   3.429   4.782
 6701TIP3   OH220045   5.186   3.202   3.503
 6701TIP3    H120046   5.228   3.278   3.462
 6701TIP3    H220047   5.109   3.239   3.547
 6702TIP3   OH220048   4.204   1.975   5.370
 6702TIP3    H120049   4.109   1.980   5.382
 6702TIP3    H220050   4.235   1.921   5.443
 6703TIP3   OH220051   5.011   2.653   3.899
 6703TIP3    H120052   4.998   2.592   3.973
 6703TIP3    H220053   5.106   2.656   3.888
 6704TIP3   OH220054   3.923   3.074   5.012
 6704TIP3    H120055   3.957   2.985   5.020
 6704TIP3    H220056   3.979   3.126   5.070
 6705TIP3   OH220057   4.213   2.702   3.685
 6705TIP3    H120058   4.226   2.611   3.660
 6705TIP3    H220059   4.195   2.699   3.779
 6706TIP3   OH220060   4.161   2.713   3.955
 6706TIP3    H120061   4.225   2.686   4.022
 6706TIP3    H220062   4.157   2.808   3.963
 6707TIP3   OH220063   3.888   2.408   4.164
 6707TIP3    H120064   3.823   2.450   4.220
 6707TIP3    H220065   3.903   2.471   4.093
 6708TIP3   OH220066   5.048   2.037   5.054
 6708TIP3    H120067   5.124   2.078   5.095
 6708TIP3    H220068   5.031   1.959   5.106
 6709TIP3   OH220069   4.927   1.791   4.219
 6709TIP3    H120070   4.911   1.813   4.128
 6709TIP3    H220071   4.966   1.870   4.257
 6710TIP3   OH220072   4.422   2.910   3.904
 6710TIP3    H120073   4.337   2.930   3.942
 6710TIP3    H220074   4.446   2.989   3.854
 6711TIP3   OH220075   4.612   1.973   4.323
 6711TIP3    H120076   4.673   2.044   4.303
 6711TIP3    H220077   4.615   1.964   4.418
 6712TIP3   OH220078   4.883   2.288   5.128
 6712TIP3    H120079   4.903   2.342   5.205
 6712TIP3    H220080   4.935   2.208   5.141
 6713TIP3   OH220081   4.756   1.697   4.421
 6713TIP3    H120082   4.744   1.771   4.481
 6713TIP3    H220083   4.816   1.728   4.355
 6714TIP3   OH220084   4.168   2.985   3.977
 6714TIP3    H120085   4.138   3.052   3.916
 6714TIP3    H220086   4.149   3.021   4.063
 6715TIP3   OH220087   4.270   1.699   4.213
 6715TIP3    H120088   4.262   1.787   4.249
 6715TIP3    H220089   4.364   1.678   4.219
 6716TIP3   OH220090   5.518   2.189   5.107
 6716TIP3    H120091   5.424   2.191   5.120
 6716TIP3    H220092   5.531   2.144   5.024
 6717TIP3   OH220093   5.172   2.381   4.498
 6717TIP3    H120094   5.095   2.326   4.510
 6717TIP3    H220095   5.242   2.336   4.545
 6718TIP3   OH220096   3.886   2.609   3.967
 6718TIP3    H120097   3.941   2.686   3.982
 6718TIP3    H220098   3.934   2.559   3.900
 6719TIP3   OH220099   3.827   1.890   4.098
 6719TIP3    H120100   3.832   1.985   4.098
 6719TIP3    H220101   3.742   1.870   4.059
 6720TIP3   OH220102   5.136   3.350   4.437
 6720TIP3    H120103   5.092   3.365   4.354
 6720TIP3    H220104   5.228   3.369   4.420
 6721TIP3   OH220105   4.217   1.606   4.971
 6721TIP3    H120106   4.186   1.575   4.886
 6721TIP3    H220107   4.207   1.531   5.029
 6722TIP3   OH220108   3.915   3.371   5.428
 6722TIP3    H120109   4.000   3.372   5.472
 6722TIP3    H220110   3.892   3.279   5.422
 6723TIP3   OH220111   4.393   3.326   5.472
 6723TIP3    H120112   4.488   3.313   5.475
 6723TIP3    H220113   4.364   3.271   5.400
 6724TIP3   OH220114   4.372   2.906   3.593
 6724TIP3    H120115   4.317   2.840   3.635
 6724TIP3    H220116   4.451   2.858   3.569
 6725TIP3   OH220117   5.032   3.242   5.207
 6725TIP3    H120118   5.025   3.172   5.272
 6725TIP3    H220119   5.108   3.293   5.235
 6726TIP3   OH220120   4.813   2.945   3.509
 6726TIP3    H120121   4.855   2.887   3.572
 6726TIP3    H220122   4.873   2.947   3.434
 6727TIP3   OH220123   4.041   2.776   5.626
 6727TIP3    H120124   4.060   2.683   5.631
 6727TIP3    H220125   3.957   2.781   5.580
 6728TIP3   OH220126   4.027   2.423   3.819
 6728TIP3    H120127   4.078   2.396   3.896
 6728TIP3    H220128   4.091   2.429   3.748
 6729TIP3   OH220129   4.649   2.862   5.399
 6729TIP3    H120130   4.607   2.883   5.315
 6729TIP3    H220131   4.680   2.772   5.389
 6730TIP3   OH220132   4.536   2.623   3.628
 6730TIP3    H120133   4.535   2.640   3.722
 6730TIP3    H220134   4.532   2.528   3.621
 6731TIP3   OH220135   5.144   2.874   5.007
 6731TIP3    H120136   5.218   2.916   4.963
 6731TIP3    H220137   5.072   2.936   4.995
 6732TIP3   OH220138   4.164   2.514   5.610
 6732TIP3    H120139   4.235   2.456   5.584
 6732TIP3    H220140   4.188   2.544   5.697
 6733TIP3   OH220141   4.226   2.330   4.040
 6733TIP3    H120142   4.198   2.296   4.124
 6733TIP3    H220143   4.263   2.255   3.993
 6734TIP3   OH220144   4.499   2.397   5.268
 6734TIP3    H120145   4.421   2.452   5.273
 6734TIP3    H220146   4.547   2.429   5.192
 6735TIP3   OH220147   4.332   2.124   3.879
 6735TIP3    H120148   4.303   2.133   3.788
 6735TIP3    H220149   4.428   2.131   3.874
 6736TIP3   OH220150   5.017   2.795   5.404
 6736TIP3    H120151   5.091   2.765   5.352
 6736TIP3    H220152   5.009   2.732   5.475
 6737TIP3   OH220153   5.149   2.454   3.544
 6737TIP3    H120154   5.129   2.408   3.463
 6737TIP3    H220155   5.120   2.544   3.528
 6738TIP3   OH220156   4.622   2.184   5.391
 6738TIP3    H120157   4.622   2.106   5.336
 6738TIP3    H220158   4.579   2.251   5.338
 6739TIP3   OH220159   4.624   1.970   5.200
 6739TIP3    H120160   4.652   2.011   5.118
 6739TIP3    H220161   4.532   1.947   5.185
 6740TIP3   OH220162   4.649   2.507   5.074
 6740TIP3    H120163   4.733   2.519   5.030
 6740TIP3    H220164   4.591   2.570   5.031
 6741TIP3   OH220165   5.232   2.470   5.455
 6741TIP3    H120166   5.277   2.387   5.469
 6741TIP3    H220167   5.299   2.527   5.417
 6742TIP3   OH220168   5.273   2.728   5.191
 6742TIP3    H120169   5.214   2.779   5.136
 6742TIP3    H220170   5.360   2.745   5.155
 6743TIP3   OH220171   4.502   2.289   5.625
 6743TIP3    H120172   4.432   2.227   5.645
 6743TIP3    H220173   4.534   2.263   5.539
 6744TIP3   OH220174   4.754   1.732   5.271
 6744TIP3    H120175   4.708   1.813   5.248
 6744TIP3    H220176   4.687   1.664   5.261
 6745TIP3   OH220177   4.878   2.234   5.488
 6745TIP3    H120178   4.868   2.222   5.582
 6745TIP3    H220179   4.793   2.212   5.451
 6746TIP3   OH220180   5.120   2.185   5.344
 6746TIP3    H120181   5.044   2.187   5.402
 6746TIP3    H220182   5.192   2.155   5.399
 6747TIP3   OH220183   5.354   2.128   5.493
 6747TIP3    H120184   5.365   2.034   5.508
 6747TIP3    H220185   5.347   2.166   5.581
 6748TIP3   OH220186   4.338   2.070   5.681
 6748TIP3    H120187   4.343   1.981   5.648
 6748TIP3    H220188   4.374   2.065   5.770
 6749TIP3   OH220189   4.850   1.740   5.528
 6749TIP3    H120190   4.916   1.672   5.524
 6749TIP3    H220191   4.808   1.738   5.442
 6750TIP3   OH220192   4.915   1.958   5.685
 6750TIP3    H120193   4.893   1.888   5.624
 6750TIP3    H220194   4.839   2.016   5.683
 6751TIP3   OH220195   4.138   3.183   3.782
 6751TIP3    H120196   4.232   3.176   3.771
 6751TIP3    H220197   4.109   3.237   3.708
 6752TIP3   OH220198   3.619   2.563   4.002
 6752TIP3    H120199   3.711   2.588   3.990
 6752TIP3    H220200   3.611   2.478   3.959
 6753TIP3   OH220201   5.396   3.429   4.405
 6753TIP3    H120202   5.424   3.462   4.491
 6753TIP3    H220203   5.455   3.471   4.343
 6754TIP3   OH220204   5.426   3.450   4.690
 6754TIP3    H120205   5.377   3.368   4.681
 6754TIP3    H220206   5.501   3.427   4.746
 6755TIP3   OH220207   5.471   3.130   5.261
 6755TIP3    H120208   5.400   3.135   5.324
 6755TIP3    H220209   5.513   3.216   5.265
 6756TIP3   OH220210   5.291   2.640   3.879
 6756TIP3    H120211   5.354   2.706   3.849
 6756TIP3    H220212   5.332   2.601   3.957
 6757TIP3   OH220213   5.416   2.507   4.084
 6757TIP3    H120214   5.349   2.467   4.140
 6757TIP3    H220215   5.479   2.545   4.145
 6758TIP3   OH220216   5.473   2.902   4.515
 6758TIP3    H120217   5.522   2.835   4.468
 6758TIP3    H220218   5.467   2.975   4.454
 6759TIP3   OH220219   5.297   3.202   4.709
 6759TIP3    H120220   5.227   3.243   4.760
 6759TIP3    H220221   5.251   3.155   4.639
 6760TIP3   OH220222   5.349   2.418   3.727
 6760TIP3    H120223   5.281   2.418   3.661
 6760TIP3    H220224   5.327   2.492   3.784
 6761TIP3   OH220225   5.224   2.086   3.679
 6761TIP3    H120226   5.177   2.128   3.608
 6761TIP3    H220227   5.202   1.993   3.671
 6762TIP3   OH220228   5.228   2.365   4.230
 6762TIP3    H120229   5.235   2.270   4.221
 6762TIP3    H220230   5.213   2.380   4.323
 6763TIP3   OH220231   3.857   2.431   4.977
 6763TIP3    H120232   3.850   2.404   4.886
 6763TIP3    H220233   3.951   2.437   4.993
 6764TIP3   OH220234   5.519   2.790   5.086
 6764TIP3    H120235   5.588   2.724   5.075
 6764TIP3    H220236   5.541   2.858   5.022
 6765TIP3   OH220237   5.702   2.589   5.096
 6765TIP3    H120238   5.626   2.545   5.134
 6765TIP3    H220239   5.775   2.529   5.112
 6766TIP3   OH220240   5.168   1.819   3.664
 6766TIP3    H120241   5.239   1.791   3.721
 6766TIP3    H220242   5.094   1.764   3.689
 6767TIP3   OH220243   5.226   2.080   4.120
 6767TIP3    H120244   5.265   1.994   4.137
 6767TIP3    H220245   5.281   2.118   4.051
 6768TIP3   OH220246   5.388   2.253   4.619
 6768TIP3    H120247   5.469   2.276   4.575
 6768TIP3    H220248   5.396   2.289   4.707
 6769TIP3   OH220249   5.455   2.402   4.848
 6769TIP3    H120250   5.379   2.432   4.898
 6769TIP3    H220251   5.487   2.480   4.804
 6770TIP3   OH220252   4.073   2.121   5.647
 6770TIP3    H120253   4.168   2.121   5.652
 6770TIP3    H220254   4.047   2.038   5.687
 6771TIP3   OH220255   5.909   1.994   5.403
 6771TIP3    H120256   5.967   1.928   5.363
 6771TIP3    H220257   5.878   2.046   5.329
 6772TIP3   OH220258   5.334   1.830   4.161
 6772TIP3    H120259   5.381   1.816   4.243
 6772TIP3    H220260   5.272   1.757   4.157
 6773TIP3   OH220261   4.036   1.817   4.980
 6773TIP3    H120262   4.095   1.742   4.990
 6773TIP3    H220263   4.094   1.893   4.973
 6774TIP3   OH220264   3.835   2.091   5.051
 6774TIP3    H120265   3.884   2.086   4.969
 6774TIP3    H220266   3.858   2.177   5.086
 6775TIP3   OH220267   5.772   2.127   5.209
 6775TIP3    H120268   5.690   2.171   5.230
 6775TIP3    H220269   5.747   2.055   5.152
 6776TIP3   OH220270   5.412   1.765   3.793
 6776TIP3    H120271   5.451   1.695   3.741
 6776TIP3    H220272   5.477   1.835   3.791
 6777TIP3   OH220273   3.818   1.592   4.550
 6777TIP3    H120274   3.728   1.589   4.582
 6777TIP3    H220275   3.814   1.650   4.475
 6778TIP3   OH220276   4.037   1.673   5.367
 6778TIP3    H120277   3.989   1.667   5.450
 6778TIP3    H220278   3.974   1.712   5.306
 6779TIP3   OH220279   4.078   3.104   5.445
 6779TIP3    H120280   3.987   3.079   5.424
 6779TIP3    H220281   4.088   3.082   5.537
 6780TIP3   OH220282   4.261   3.141   4.994
 6780TIP3    H120283   4.207   3.210   4.956
 6780TIP3    H220284   4.346   3.151   4.950
 6781TIP3   OH220285   4.702   3.377   5.133
 6781TIP3    H120286   4.742   3.379   5.220
 6781TIP3    H220287   4.762   3.428   5.078
 6782TIP3   OH220288   4.884   3.530   4.997
 6782TIP3    H120289   4.950   3.479   4.950
 6782TIP3    H220290   4.933   3.586   5.056
 6783TIP3   OH220291   5.675   1.889   5.088
 6783TIP3    H120292   5.585   1.883   5.056
 6783TIP3    H220293   5.709   1.799   5.079
 6784TIP3   OH220294   3.938   3.401   5.019
 6784TIP3    H120295   3.852   3.426   4.986
 6784TIP3    H220296   3.939   3.432   5.110
 6785TIP3   OH220297   4.171   3.372   4.874
 6785TIP3    H120298   4.087   3.384   4.920
 6785TIP3    H220299   4.152   3.399   4.784
 6786TIP3   OH220300   4.594   3.389   4.671
 6786TIP3    H120301   4.526   3.406   4.606
 6786TIP3    H220302   4.609   3.474   4.713
 6787TIP3   OH220303   4.862   3.338   4.724
 6787TIP3    H120304   4.768   3.347   4.710
 6787TIP3    H220305   4.900   3.416   4.682
 6788TIP3   OH220306   5.083   3.534   4.637
 6788TIP3    H120307   5.058   3.614   4.591
 6788TIP3    H220308   5.098   3.470   4.567
 6789TIP3   OH220309   3.842   3.196   4.776
 6789TIP3    H120310   3.876   3.168   4.861
 6789TIP3    H220311   3.899   3.153   4.712
 6790TIP3   OH220312   4.040   3.072   4.648
 6790TIP3    H120313   4.055   2.982   4.676
 6790TIP3    H220314   4.125   3.101   4.615
 6791TIP3   OH220315   4.316   3.152   4.620
 6791TIP3    H120316   4.337   3.059   4.609
 6791TIP3    H220317   4.354   3.174   4.705
 6792TIP3   OH220318   4.882   1.806   4.711
 6792TIP3    H120319   4.839   1.737   4.762
 6792TIP3    H220320   4.954   1.761   4.666
 6793TIP3   OH220321   5.400   1.688   4.610
 6793TIP3    H120322   5.438   1.739   4.538
 6793TIP3    H220323   5.307   1.708   4.607
 6794TIP3   OH220324   5.501   1.787   4.376
 6794TIP3    H120325   5.571   1.734   4.339
 6794TIP3    H220326   5.530   1.878   4.363
 6795TIP3   OH220327   4.128   1.511   4.724
 6795TIP3    H120328   4.037   1.482   4.727
 6795TIP3    H220329   4.179   1.430   4.721
 6796TIP3   OH220330   3.916   1.389   4.374
 6796TIP3    H120331   3.946   1.443   4.302
 6796TIP3    H220332   3.888   1.451   4.441
 6797TIP3   OH220333   4.576   1.548   4.606
 6797TIP3    H120334   4.632   1.595   4.544
 6797TIP3    H220335   4.598   1.585   4.692
 6798TIP3   OH220336   5.118   1.693   4.589
 6798TIP3    H120337   5.118   1.657   4.501
 6798TIP3    H220338   5.107   1.617   4.647
 6799TIP3   OH220339   5.148   1.619   4.153
 6799TIP3    H120340   5.066   1.665   4.168
 6799TIP3    H220341   5.136   1.534   4.196
 6800TIP3   OH220342   4.037   1.545   4.135
 6800TIP3    H120343   4.083   1.483   4.079
 6800TIP3    H220344   4.107   1.599   4.172
 6801TIP3   OH220345   4.547   1.724   4.236
 6801TIP3    H120346   4.604   1.674   4.295
 6801TIP3    H220347   4.564   1.815   4.258
 6802TIP3   OH220348   4.405   3.141   3.733
 6802TIP3    H120349   4.492   3.166   3.702
 6802TIP3    H220350   4.380   3.067   3.676
 6803TIP3   OH220351   5.148   3.259   3.810
 6803TIP3    H120352   5.121   3.167   3.811
 6803TIP3    H220353   5.081   3.303   3.757
 6804TIP3   OH220354   4.338   1.793   5.616
 6804TIP3    H120355   4.301   1.726   5.672
 6804TIP3    H220356   4.431   1.797   5.641
 6805TIP3   OH220357   4.587   1.790   5.733
 6805TIP3    H120358   4.672   1.768   5.695
 6805TIP3    H220359   4.572   1.723   5.800
 6806TIP3   OH220360   3.708   2.981   3.791
 6806TIP3    H120361   3.702   3.006   3.883
 6806TIP3    H220362   3.795   2.942   3.783
 6807TIP3   OH220363   5.414   1.857   5.523
 6807TIP3    H120364   5.429   1.828   5.613
 6807TIP3    H220365   5.500   1.852   5.481
 6808TIP3   OH220366   5.346   3.408   5.015
 6808TIP3    H120367   5.271   3.374   4.966
 6808TIP3    H220368   5.329   3.502   5.022
 6809TIP3   OH220369   6.616   2.783   3.777
 6809TIP3    H120370   6.588   2.873   3.758
 6809TIP3    H220371   6.543   2.729   3.747
 6810TIP3   OH220372   6.617   2.780   4.167
 6810TIP3    H120373   6.651   2.756   4.253
 6810TIP3    H220374   6.575   2.700   4.135
 6811TIP3   OH220375   5.916   2.673   4.528
 6811TIP3    H120376   5.944   2.605   4.590
 6811TIP3    H220377   5.992   2.730   4.520
 6812TIP3   OH220378   6.862   3.085   3.847
 6812TIP3    H120379   6.845   3.016   3.910
 6812TIP3    H220380   6.891   3.159   3.899
 6813TIP3   OH220381   5.891   3.085   4.251
 6813TIP3    H120382   5.878   2.990   4.252
 6813TIP3    H220383   5.986   3.096   4.245
 6814TIP3   OH220384   5.591   2.289   4.032
 6814TIP3    H120385   5.546   2.371   4.053
 6814TIP3    H220386   5.524   2.234   3.992
 6815TIP3   OH220387   5.653   2.575   4.213
 6815TIP3    H120388   5.701   2.499   4.247
 6815TIP3    H220389   5.710   2.609   4.144
 6816TIP3   OH220390   6.509   3.540   3.861
 6816TIP3    H120391   6.554   3.472   3.812
 6816TIP3    H220392   6.501   3.505   3.949
 6817TIP3   OH220393   6.417   3.006   4.210
 6817TIP3    H120394   6.451   2.929   4.165
 6817TIP3    H220395   6.495   3.055   4.236
 6818TIP3   OH220396   7.428   2.329   4.205
 6818TIP3    H120397   7.458   2.408   4.249
 6818TIP3    H220398   7.455   2.340   4.114
 6819TIP3   OH220399   6.828   2.505   4.239
 6819TIP3    H120400   6.870   2.422   4.262
 6819TIP3    H220401   6.795   2.491   4.151
 6820TIP3   OH220402   6.166   2.167   4.203
 6820TIP3    H120403   6.148   2.240   4.144
 6820TIP3    H220404   6.120   2.093   4.165
 6821TIP3   OH220405   6.864   2.259   3.828
 6821TIP3    H120406   6.931   2.244   3.895
 6821TIP3    H220407   6.912   2.294   3.753
 6822TIP3   OH220408   5.801   2.367   4.314
 6822TIP3    H120409   5.881   2.350   4.364
 6822TIP3    H220410   5.810   2.314   4.235
 6823TIP3   OH220411   6.239   2.565   4.110
 6823TIP3    H120412   6.331   2.543   4.122
 6823TIP3    H220413   6.199   2.484   4.077
 6824TIP3   OH220414   7.500   2.536   4.378
 6824TIP3    H120415   7.418   2.579   4.358
 6824TIP3    H220416   7.520   2.562   4.468
 6825TIP3   OH220417   6.160   2.152   4.643
 6825TIP3    H120418   6.104   2.187   4.573
 6825TIP3    H220419   6.110   2.167   4.723
 6826TIP3   OH220420   6.506   3.002   3.647
 6826TIP3    H120421   6.466   2.982   3.563
 6826TIP3    H220422   6.463   3.083   3.676
 6827TIP3   OH220423   6.268   2.929   4.433
 6827TIP3    H120424   6.207   2.993   4.471
 6827TIP3    H220425   6.311   2.975   4.362
 6828TIP3   OH220426   7.067   2.265   4.006
 6828TIP3    H120427   7.052   2.218   4.089
 6828TIP3    H220428   7.120   2.341   4.031
 6829TIP3   OH220429   6.037   2.266   4.424
 6829TIP3    H120430   6.095   2.338   4.449
 6829TIP3    H220431   6.082   2.224   4.350
 6830TIP3   OH220432   6.095   3.124   4.535
 6830TIP3    H120433   6.074   3.209   4.496
 6830TIP3    H220434   6.020   3.103   4.590
 6831TIP3   OH220435   5.489   2.813   3.769
 6831TIP3    H120436   5.446   2.838   3.687
 6831TIP3    H220437   5.517   2.897   3.807
 6832TIP3   OH220438   6.927   3.329   4.010
 6832TIP3    H120439   6.840   3.318   4.049
 6832TIP3    H220440   6.922   3.414   3.965
 6833TIP3   OH220441   7.223   2.227   4.372
 6833TIP3    H120442   7.136   2.254   4.343
 6833TIP3    H220443   7.282   2.258   4.304
 6834TIP3   OH220444   6.513   1.866   4.358
 6834TIP3    H120445   6.502   1.772   4.375
 6834TIP3    H220446   6.439   1.907   4.403
 6835TIP3   OH220447   6.633   3.371   3.680
 6835TIP3    H120448   6.679   3.288   3.664
 6835TIP3    H220449   6.690   3.438   3.643
 6836TIP3   OH220450   6.774   3.155   3.595
 6836TIP3    H120451   6.734   3.077   3.557
 6836TIP3    H220452   6.812   3.124   3.678
 6837TIP3   OH220453   7.155   3.238   4.352
 6837TIP3    H120454   7.143   3.161   4.296
 6837TIP3    H220455   7.137   3.313   4.295
 6838TIP3   OH220456   6.446   2.633   3.611
 6838TIP3    H120457   6.367   2.684   3.593
 6838TIP3    H220458   6.493   2.630   3.528
 6839TIP3   OH220459   6.408   2.420   3.325
 6839TIP3    H120460   6.472   2.471   3.375
 6839TIP3    H220461   6.460   2.355   3.277
 6840TIP3   OH220462   7.350   2.881   4.200
 6840TIP3    H120463   7.267   2.928   4.207
 6840TIP3    H220464   7.380   2.899   4.111
 6841TIP3   OH220465   6.796   2.716   3.585
 6841TIP3    H120466   6.740   2.740   3.659
 6841TIP3    H220467   6.879   2.690   3.625
 6842TIP3   OH220468   7.027   2.755   4.499
 6842TIP3    H120469   7.027   2.836   4.549
 6842TIP3    H220470   6.944   2.755   4.453
 6843TIP3   OH220471   6.028   2.709   3.999
 6843TIP3    H120472   5.987   2.654   3.933
 6843TIP3    H220473   6.103   2.659   4.030
 6844TIP3   OH220474   6.159   3.125   4.146
 6844TIP3    H120475   6.137   3.086   4.061
 6844TIP3    H220476   6.246   3.091   4.165
 6845TIP3   OH220477   6.165   2.684   4.354
 6845TIP3    H120478   6.196   2.660   4.267
 6845TIP3    H220479   6.205   2.769   4.372
 6846TIP3   OH220480   6.689   3.322   4.133
 6846TIP3    H120481   6.675   3.401   4.185
 6846TIP3    H220482   6.673   3.250   4.194
 6847TIP3   OH220483   6.298   3.240   4.680
 6847TIP3    H120484   6.241   3.302   4.726
 6847TIP3    H220485   6.238   3.186   4.629
 6848TIP3   OH220486   6.636   2.575   3.409
 6848TIP3    H120487   6.693   2.632   3.461
 6848TIP3    H220488   6.659   2.595   3.318
 6849TIP3   OH220489   6.054   2.795   4.784
 6849TIP3    H120490   6.062   2.882   4.825
 6849TIP3    H220491   5.961   2.773   4.793
 6850TIP3   OH220492   6.383   3.249   3.686
 6850TIP3    H120493   6.463   3.301   3.696
 6850TIP3    H220494   6.319   3.311   3.649
 6851TIP3   OH220495   6.093   3.408   4.767
 6851TIP3    H120496   6.062   3.408   4.676
 6851TIP3    H220497   6.015   3.386   4.818
 6852TIP3   OH220498   7.149   1.814   3.459
 6852TIP3    H120499   7.070   1.833   3.510
 6852TIP3    H220500   7.165   1.894   3.409
 6853TIP3   OH220501   5.893   2.556   3.801
 6853TIP3    H120502   5.826   2.601   3.749
 6853TIP3    H220503   5.856   2.469   3.818
 6854TIP3   OH220504   6.953   3.181   3.007
 6854TIP3    H120505   6.958   3.276   2.993
 6854TIP3    H220506   7.043   3.151   2.994
 6855TIP3   OH220507   5.674   2.939   4.711
 6855TIP3    H120508   5.607   2.920   4.646
 6855TIP3    H220509   5.711   2.853   4.733
 6856TIP3   OH220510   5.528   3.131   4.350
 6856TIP3    H120511   5.623   3.128   4.334
 6856TIP3    H220512   5.515   3.211   4.401
 6857TIP3   OH220513   7.391   3.584   4.404
 6857TIP3    H120514   7.393   3.489   4.416
 6857TIP3    H220515   7.310   3.611   4.447
 6858TIP3   OH220516   6.497   3.370   4.539
 6858TIP3    H120517   6.497   3.461   4.568
 6858TIP3    H220518   6.428   3.328   4.589
 6859TIP3   OH220519   6.257   3.503   3.480
 6859TIP3    H120520   6.219   3.467   3.399
 6859TIP3    H220521   6.203   3.580   3.499
 6860TIP3   OH220522   5.701   3.347   3.873
 6860TIP3    H120523   5.744   3.337   3.958
 6860TIP3    H220524   5.629   3.285   3.875
 6861TIP3   OH220525   6.462   3.398   3.129
 6861TIP3    H120526   6.517   3.330   3.091
 6861TIP3    H220527   6.495   3.409   3.218
 6862TIP3   OH220528   6.512   3.448   3.398
 6862TIP3    H120529   6.426   3.459   3.439
 6862TIP3    H220530   6.567   3.410   3.467
 6863TIP3   OH220531   7.281   2.713   4.675
 6863TIP3    H120532   7.200   2.725   4.626
 6863TIP3    H220533   7.300   2.620   4.668
 6864TIP3   OH220534   5.880   3.121   4.700
 6864TIP3    H120535   5.929   3.105   4.781
 6864TIP3    H220536   5.806   3.060   4.705
 6865TIP3   OH220537   6.275   1.947   4.487
 6865TIP3    H120538   6.190   1.913   4.458
 6865TIP3    H220539   6.254   2.027   4.536
 6866TIP3   OH220540   6.813   2.059   4.682
 6866TIP3    H120541   6.882   2.032   4.743
 6866TIP3    H220542   6.732   2.039   4.728
 6867TIP3   OH220543   7.049   2.490   4.599
 6867TIP3    H120544   7.001   2.487   4.682
 6867TIP3    H220545   7.026   2.575   4.562
 6868TIP3   OH220546   6.712   2.617   3.152
 6868TIP3    H120547   6.676   2.593   3.066
 6868TIP3    H220548   6.795   2.661   3.131
 6869TIP3   OH220549   6.421   1.991   3.458
 6869TIP3    H120550   6.391   1.992   3.549
 6869TIP3    H220551   6.385   1.911   3.422
 6870TIP3   OH220552   6.210   2.463   4.505
 6870TIP3    H120553   6.161   2.479   4.585
 6870TIP3    H220554   6.196   2.541   4.452
 6871TIP3   OH220555   6.092   2.346   4.016
 6871TIP3    H120556   6.002   2.322   4.037
 6871TIP3    H220557   6.107   2.308   3.930
 6872TIP3   OH220558   6.584   2.434   3.746
 6872TIP3    H120559   6.533   2.504   3.705
 6872TIP3    H220560   6.639   2.400   3.675
 6873TIP3   OH220561   6.760   2.708   4.834
 6873TIP3    H120562   6.735   2.636   4.892
 6873TIP3    H220563   6.853   2.723   4.852
 6874TIP3   OH220564   6.740   2.458   3.980
 6874TIP3    H120565   6.678   2.489   3.915
 6874TIP3    H220566   6.778   2.378   3.942
 6875TIP3   OH220567   6.031   2.488   4.714
 6875TIP3    H120568   6.055   2.553   4.780
 6875TIP3    H220569   6.017   2.408   4.763
 6876TIP3   OH220570   6.078   1.969   3.424
 6876TIP3    H120571   6.071   1.965   3.520
 6876TIP3    H220572   6.003   2.021   3.396
 6877TIP3   OH220573   5.624   2.010   4.294
 6877TIP3    H120574   5.696   2.043   4.348
 6877TIP3    H220575   5.666   1.980   4.213
 6878TIP3   OH220576   5.588   1.994   3.810
 6878TIP3    H120577   5.636   2.028   3.734
 6878TIP3    H220578   5.528   2.064   3.834
 6879TIP3   OH220579   6.752   2.703   4.406
 6879TIP3    H120580   6.785   2.636   4.346
 6879TIP3    H220581   6.722   2.653   4.482
 6880TIP3   OH220582   6.424   2.168   4.080
 6880TIP3    H120583   6.344   2.167   4.132
 6880TIP3    H220584   6.495   2.163   4.145
 6881TIP3   OH220585   5.855   2.226   4.085
 6881TIP3    H120586   5.763   2.234   4.059
 6881TIP3    H220587   5.879   2.136   4.063
 6882TIP3   OH220588   6.122   2.220   3.776
 6882TIP3    H120589   6.215   2.236   3.756
 6882TIP3    H220590   6.076   2.243   3.695
 6883TIP3   OH220591   6.911   2.244   4.284
 6883TIP3    H120592   6.881   2.259   4.373
 6883TIP3    H220593   6.847   2.185   4.246
 6884TIP3   OH220594   5.970   2.255   3.551
 6884TIP3    H120595   5.898   2.210   3.506
 6884TIP3    H220596   6.022   2.292   3.480
 6885TIP3   OH220597   7.087   3.935   4.501
 6885TIP3    H120598   7.082   3.957   4.408
 6885TIP3    H220599   7.165   3.982   4.533
 6886TIP3   OH220600   6.041   3.045   4.923
 6886TIP3    H120601   6.120   3.074   4.968
 6886TIP3    H220602   5.974   3.042   4.992
 6887TIP3   OH220603   6.505   2.498   4.178
 6887TIP3    H120604   6.577   2.459   4.128
 6887TIP3    H220605   6.510   2.456   4.264
 6888TIP3   OH220606   6.024   1.982   4.059
 6888TIP3    H120607   5.988   1.907   4.107
 6888TIP3    H220608   6.071   1.943   3.986
 6889TIP3   OH220609   6.480   2.398   4.465
 6889TIP3    H120610   6.391   2.431   4.480
 6889TIP3    H220611   6.536   2.457   4.515
 6890TIP3   OH220612   6.216   2.783   3.563
 6890TIP3    H120613   6.146   2.719   3.548
 6890TIP3    H220614   6.199   2.818   3.650
 6891TIP3   OH220615   7.115   3.021   4.186
 6891TIP3    H120616   7.140   3.071   4.108
 6891TIP3    H220617   7.032   2.979   4.163
 6892TIP3   OH220618   6.673   2.097   3.426
 6892TIP3    H120619   6.580   2.078   3.435
 6892TIP3    H220620   6.682   2.189   3.451
 6893TIP3   OH220621   6.616   3.104   4.559
 6893TIP3    H120622   6.643   3.084   4.648
 6893TIP3    H220623   6.578   3.192   4.565
 6894TIP3   OH220624   6.744   2.346   3.528
 6894TIP3    H120625   6.838   2.351   3.544
 6894TIP3    H220626   6.724   2.424   3.477
 6895TIP3   OH220627   5.913   2.808   4.235
 6895TIP3    H120628   5.949   2.781   4.151
 6895TIP3    H220629   5.952   2.747   4.298
 6896TIP3   OH220630   6.361   2.935   3.386
 6896TIP3    H120631   6.316   3.019   3.389
 6896TIP3    H220632   6.309   2.878   3.443
 6897TIP3   OH220633   5.791   2.724   4.851
 6897TIP3    H120634   5.807   2.711   4.944
 6897TIP3    H220635   5.721   2.662   4.829
 6898TIP3   OH220636   6.518   2.841   4.870
 6898TIP3    H120637   6.455   2.785   4.825
 6898TIP3    H220638   6.604   2.809   4.842
 6899TIP3   OH220639   6.775   3.365   4.458
 6899TIP3    H120640   6.680   3.361   4.467
 6899TIP3    H220641   6.804   3.417   4.533
 6900TIP3   OH220642   7.182   2.438   3.359
 6900TIP3    H120643   7.123   2.390   3.302
 6900TIP3    H220644   7.183   2.527   3.324
 6901TIP3   OH220645   7.404   3.295   4.440
 6901TIP3    H120646   7.309   3.290   4.436
 6901TIP3    H220647   7.433   3.265   4.354
 6902TIP3   OH220648   6.888   3.254   3.272
 6902TIP3    H120649   6.861   3.186   3.334
 6902TIP3    H220650   6.900   3.208   3.189
 6903TIP3   OH220651   6.881   2.882   4.104
 6903TIP3    H120652   6.789   2.860   4.120
 6903TIP3    H220653   6.917   2.805   4.061
 6904TIP3   OH220654   6.009   3.113   3.861
 6904TIP3    H120655   6.007   3.193   3.808
 6904TIP3    H220656   5.916   3.093   3.877
 6905TIP3   OH220657   5.575   2.417   3.570
 6905TIP3    H120658   5.621   2.500   3.588
 6905TIP3    H220659   5.498   2.419   3.627
 6906TIP3   OH220660   6.143   2.877   3.806
 6906TIP3    H120661   6.111   2.966   3.823
 6906TIP3    H220662   6.110   2.825   3.879
 6907TIP3   OH220663   6.284   3.455   4.330
 6907TIP3    H120664   6.322   3.528   4.280
 6907TIP3    H220665   6.357   3.417   4.377
 6908TIP3   OH220666   5.928   3.352   3.713
 6908TIP3    H120667   5.844   3.352   3.759
 6908TIP3    H220668   5.956   3.443   3.715
 6909TIP3   OH220669   6.668   3.090   4.292
 6909TIP3    H120670   6.656   3.089   4.387
 6909TIP3    H220671   6.745   3.036   4.277
 6910TIP3   OH220672   6.644   2.984   3.176
 6910TIP3    H120673   6.699   2.960   3.251
 6910TIP3    H220674   6.556   2.955   3.201
 6911TIP3   OH220675   6.915   3.621   4.339
 6911TIP3    H120676   6.838   3.565   4.334
 6911TIP3    H220677   6.902   3.685   4.269
 6912TIP3   OH220678   6.981   3.459   2.991
 6912TIP3    H120679   7.021   3.528   2.939
 6912TIP3    H220680   6.901   3.498   3.027
 6913TIP3   OH220681   5.998   2.233   4.857
 6913TIP3    H120682   5.903   2.238   4.867
 6913TIP3    H220683   6.027   2.175   4.928
 6914TIP3   OH220684   6.807   2.914   3.388
 6914TIP3    H120685   6.793   2.849   3.458
 6914TIP3    H220686   6.902   2.914   3.374
 6915TIP3   OH220687   5.721   3.318   4.490
 6915TIP3    H120688   5.770   3.242   4.523
 6915TIP3    H220689   5.747   3.390   4.547
 6916TIP3   OH220690   6.007   2.961   3.174
 6916TIP3    H120691   6.020   2.871   3.144
 6916TIP3    H220692   5.988   2.953   3.267
 6917TIP3   OH220693   5.954   2.971   3.445
 6917TIP3    H120694   6.023   2.939   3.504
 6917TIP3    H220695   5.957   3.066   3.452
 6918TIP3   OH220696   5.685   2.663   3.649
 6918TIP3    H120697   5.620   2.704   3.707
 6918TIP3    H220698   5.700   2.728   3.581
 6919TIP3   OH220699   6.841   2.297   4.543
 6919TIP3    H120700   6.921   2.335   4.579
 6919TIP3    H220701   6.827   2.217   4.594
 6920TIP3   OH220702   6.722   2.047   3.707
 6920TIP3    H120703   6.707   2.068   3.615
 6920TIP3    H220704   6.761   2.127   3.744
 6921TIP3   OH220705   6.219   3.166   3.393
 6921TIP3    H120706   6.134   3.190   3.430
 6921TIP3    H220707   6.235   3.231   3.326
 6922TIP3   OH220708   6.407   2.230   3.810
 6922TIP3    H120709   6.469   2.300   3.790
 6922TIP3    H220710   6.411   2.220   3.905
 6923TIP3   OH220711   6.679   2.544   4.615
 6923TIP3    H120712   6.701   2.596   4.692
 6923TIP3    H220713   6.731   2.465   4.623
 6924TIP3   OH220714   6.552   1.953   3.909
 6924TIP3    H120715   6.543   2.027   3.968
 6924TIP3    H220716   6.613   1.984   3.841
 6925TIP3   OH220717   5.966   3.245   3.462
 6925TIP3    H120718   5.934   3.313   3.402
 6925TIP3    H220719   5.949   3.280   3.549
 6926TIP3   OH220720   6.066   1.956   3.700
 6926TIP3    H120721   6.059   2.044   3.736
 6926TIP3    H220722   6.160   1.935   3.706
 6927TIP3   OH220723   7.315   2.446   4.595
 6927TIP3    H120724   7.219   2.447   4.605
 6927TIP3    H220725   7.330   2.401   4.512
 6928TIP3   OH220726   6.968   2.639   3.985
 6928TIP3    H120727   6.892   2.582   3.996
 6928TIP3    H220728   7.039   2.595   4.031
 6929TIP3   OH220729   5.685   2.865   3.452
 6929TIP3    H120730   5.748   2.936   3.464
 6929TIP3    H220731   5.725   2.808   3.387
 6930TIP3   OH220732   5.623   2.147   3.586
 6930TIP3    H120733   5.627   2.242   3.585
 6930TIP3    H220734   5.540   2.125   3.544
 6931TIP3   OH220735   6.938   3.601   3.929
 6931TIP3    H120736   6.894   3.644   3.856
 6931TIP3    H220737   7.031   3.616   3.912
 6932TIP3   OH220738   6.013   1.863   4.458
 6932TIP3    H120739   5.983   1.832   4.372
 6932TIP3    H220740   6.003   1.788   4.516
 6933TIP3   OH220741   5.541   3.078   3.839
 6933TIP3    H120742   5.484   3.114   3.906
 6933TIP3    H220743   5.513   3.119   3.758
 6934TIP3   OH220744   5.712   3.628   4.913
 6934TIP3    H120745   5.796   3.628   4.958
 6934TIP3    H220746   5.687   3.536   4.909
 6935TIP3   OH220747   6.192   3.585   4.956
 6935TIP3    H120748   6.285   3.565   4.963
 6935TIP3    H220749   6.161   3.528   4.885
 6936TIP3   OH220750   6.172   3.162   3.085
 6936TIP3    H120751   6.116   3.094   3.122
 6936TIP3    H220752   6.247   3.114   3.050
 6937TIP3   OH220753   6.827   3.498   4.694
 6937TIP3    H120754   6.821   3.429   4.759
 6937TIP3    H220755   6.904   3.549   4.720
 6938TIP3   OH220756   6.608   3.204   2.997
 6938TIP3    H120757   6.646   3.140   3.057
 6938TIP3    H220758   6.664   3.202   2.920
 6939TIP3   OH220759   5.838   3.032   5.111
 6939TIP3    H120760   5.857   2.939   5.117
 6939TIP3    H220761   5.752   3.037   5.068
 6940TIP3   OH220762   5.822   2.680   3.307
 6940TIP3    H120763   5.874   2.649   3.381
 6940TIP3    H220764   5.884   2.685   3.234
 6941TIP3   OH220765   6.446   3.118   4.885
 6941TIP3    H120766   6.404   3.138   4.801
 6941TIP3    H220767   6.477   3.028   4.876
 6942TIP3   OH220768   6.331   2.879   3.116
 6942TIP3    H120769   6.332   2.895   3.210
 6942TIP3    H220770   6.331   2.784   3.107
 6943TIP3   OH220771   6.940   3.132   4.493
 6943TIP3    H120772   7.015   3.172   4.449
 6943TIP3    H220773   6.869   3.195   4.480
 6944TIP3   OH220774   5.960   2.771   5.098
 6944TIP3    H120775   6.033   2.716   5.069
 6944TIP3    H220776   5.986   2.802   5.185
 6945TIP3   OH220777   6.023   2.586   3.526
 6945TIP3    H120778   5.996   2.550   3.610
 6945TIP3    H220779   6.060   2.512   3.478
 6946TIP3   OH220780   6.295   2.654   4.757
 6946TIP3    H120781   6.217   2.709   4.759
 6946TIP3    H220782   6.344   2.685   4.680
 6947TIP3   OH220783   6.129   2.382   3.366
 6947TIP3    H120784   6.100   2.388   3.274
 6947TIP3    H220785   6.224   2.387   3.361
 6948TIP3   OH220786   6.813   3.052   4.890
 6948TIP3    H120787   6.889   3.024   4.839
 6948TIP3    H220788   6.806   2.988   4.961
 6949TIP3   OH220789   6.944   2.712   3.031
 6949TIP3    H120790   6.926   2.664   2.951
 6949TIP3    H220791   6.914   2.801   3.014
 6950TIP3   OH220792   6.417   2.441   4.879
 6950TIP3    H120793   6.418   2.362   4.825
 6950TIP3    H220794   6.375   2.507   4.825
 6951TIP3   OH220795   6.419   2.228   4.688
 6951TIP3    H120796   6.449   2.267   4.606
 6951TIP3    H220797   6.328   2.204   4.672
 6952TIP3   OH220798   6.444   2.763   4.562
 6952TIP3    H120799   6.529   2.772   4.518
 6952TIP3    H220800   6.388   2.827   4.518
 6953TIP3   OH220801   7.030   2.727   4.942
 6953TIP3    H120802   7.073   2.642   4.951
 6953TIP3    H220803   7.097   2.784   4.906
 6954TIP3   OH220804   7.069   2.984   4.677
 6954TIP3    H120805   7.010   3.036   4.622
 6954TIP3    H220806   7.156   3.001   4.642
 6955TIP3   OH220807   6.297   2.545   5.114
 6955TIP3    H120808   6.229   2.480   5.131
 6955TIP3    H220809   6.330   2.524   5.027
 6956TIP3   OH220810   6.550   1.990   4.758
 6956TIP3    H120811   6.504   2.071   4.736
 6956TIP3    H220812   6.484   1.921   4.747
 6957TIP3   OH220813   6.674   2.491   4.975
 6957TIP3    H120814   6.664   2.479   5.069
 6957TIP3    H220815   6.589   2.468   4.938
 6958TIP3   OH220816   6.918   2.444   4.831
 6958TIP3    H120817   6.842   2.444   4.890
 6958TIP3    H220818   6.991   2.413   4.885
 6959TIP3   OH220819   7.146   2.384   4.981
 6959TIP3    H120820   7.160   2.290   4.995
 6959TIP3    H220821   7.143   2.421   5.070
 6960TIP3   OH220822   6.136   2.326   5.169
 6960TIP3    H120823   6.138   2.238   5.133
 6960TIP3    H220824   6.172   2.316   5.258
 6961TIP3   OH220825   6.646   1.998   5.015
 6961TIP3    H120826   6.712   1.929   5.013
 6961TIP3    H220827   6.605   1.995   4.928
 6962TIP3   OH220828   6.711   2.213   5.174
 6962TIP3    H120829   6.691   2.143   5.112
 6962TIP3    H220830   6.635   2.271   5.168
 6963TIP3   OH220831   5.941   3.464   3.282
 6963TIP3    H120832   6.031   3.443   3.260
 6963TIP3    H220833   5.903   3.498   3.201
 6964TIP3   OH220834   5.414   2.824   3.485
 6964TIP3    H120835   5.507   2.846   3.475
 6964TIP3    H220836   5.407   2.737   3.446
 6965TIP3   OH220837   5.357   3.422   3.879
 6965TIP3    H120838   5.272   3.386   3.853
 6965TIP3    H220839   5.378   3.376   3.960
 6966TIP3   OH220840   5.474   3.279   4.092
 6966TIP3    H120841   5.447   3.212   4.155
 6966TIP3    H220842   5.518   3.346   4.145
 6967TIP3   OH220843   7.194   3.685   3.893
 6967TIP3    H120844   7.216   3.717   3.980
 6967TIP3    H220845   7.254   3.732   3.834
 6968TIP3   OH220846   7.220   3.704   4.175
 6968TIP3    H120847   7.174   3.621   4.169
 6968TIP3    H220848   7.295   3.686   4.232
 6969TIP3   OH220849   7.266   3.387   4.747
 6969TIP3    H120850   7.195   3.393   4.811
 6969TIP3    H220851   7.309   3.472   4.750
 6970TIP3   OH220852   7.086   2.897   3.366
 6970TIP3    H120853   7.150   2.962   3.335
 6970TIP3    H220854   7.127   2.859   3.444
 6971TIP3   OH220855   7.211   2.765   3.572
 6971TIP3    H120856   7.145   2.724   3.627
 6971TIP3    H220857   7.274   2.802   3.633
 6972TIP3   OH220858   7.268   3.159   4.000
 6972TIP3    H120859   7.320   3.092   3.956
 6972TIP3    H220860   7.261   3.231   3.937
 6973TIP3   OH220861   7.093   3.457   4.195
 6973TIP3    H120862   7.024   3.499   4.247
 6973TIP3    H220863   7.046   3.411   4.125
 6974TIP3   OH220864   7.145   2.675   3.214
 6974TIP3    H120865   7.077   2.674   3.148
 6974TIP3    H220866   7.122   2.749   3.271
 6975TIP3   OH220867   7.017   2.344   3.167
 6975TIP3    H120868   6.974   2.382   3.090
 6975TIP3    H220869   6.996   2.251   3.162
 6976TIP3   OH220870   7.023   2.622   3.716
 6976TIP3    H120871   7.031   2.527   3.707
 6976TIP3    H220872   7.009   2.637   3.809
 6977TIP3   OH220873   5.651   2.691   4.462
 6977TIP3    H120874   5.645   2.661   4.372
 6977TIP3    H220875   5.746   2.695   4.480
 6978TIP3   OH220876   7.316   3.047   4.573
 6978TIP3    H120877   7.384   2.980   4.563
 6978TIP3    H220878   7.338   3.115   4.510
 6979TIP3   OH220879   7.498   2.847   4.585
 6979TIP3    H120880   7.422   2.802   4.622
 6979TIP3    H220881   7.571   2.787   4.600
 6980TIP3   OH220882   6.962   2.079   3.154
 6980TIP3    H120883   7.035   2.048   3.208
 6980TIP3    H220884   6.889   2.022   3.176
 6981TIP3   OH220885   7.023   2.337   3.606
 6981TIP3    H120886   7.061   2.251   3.624
 6981TIP3    H220887   7.078   2.373   3.536
 6982TIP3   OH220888   7.183   2.512   4.105
 6982TIP3    H120889   7.265   2.534   4.061
 6982TIP3    H220890   7.193   2.546   4.194
 6983TIP3   OH220891   7.251   2.659   4.336
 6983TIP3    H120892   7.174   2.689   4.384
 6983TIP3    H220893   7.284   2.737   4.291
 6984TIP3   OH220894   5.870   2.379   5.140
 6984TIP3    H120895   5.966   2.375   5.140
 6984TIP3    H220896   5.842   2.295   5.177
 6985TIP3   OH220897   7.705   2.249   4.889
 6985TIP3    H120898   7.760   2.183   4.849
 6985TIP3    H220899   7.674   2.302   4.815
 6986TIP3   OH220900   7.129   2.087   3.649
 6986TIP3    H120901   7.178   2.073   3.729
 6986TIP3    H220902   7.068   2.013   3.645
 6987TIP3   OH220903   5.832   2.074   4.466
 6987TIP3    H120904   5.891   1.998   4.476
 6987TIP3    H220905   5.891   2.149   4.459
 6988TIP3   OH220906   5.631   2.347   4.539
 6988TIP3    H120907   5.679   2.341   4.456
 6988TIP3    H220908   5.656   2.433   4.574
 6989TIP3   OH220909   7.568   2.384   4.695
 6989TIP3    H120910   7.485   2.427   4.712
 6989TIP3    H220911   7.546   2.310   4.638
 6990TIP3   OH220912   7.208   2.021   3.280
 6990TIP3    H120913   7.247   1.951   3.228
 6990TIP3    H220914   7.273   2.091   3.278
 6991TIP3   OH220915   5.614   1.850   4.039
 6991TIP3    H120916   5.524   1.845   4.070
 6991TIP3    H220917   5.611   1.907   3.962
 6992TIP3   OH220918   6.773   3.557   3.545
 6992TIP3    H120919   6.826   3.545   3.466
 6992TIP3    H220920   6.821   3.622   3.597
 6993TIP3   OH220921   5.834   1.932   4.856
 6993TIP3    H120922   5.785   1.925   4.938
 6993TIP3    H220923   5.771   1.969   4.794
 6994TIP3   OH220924   5.873   3.360   4.933
 6994TIP3    H120925   5.783   3.335   4.913
 6994TIP3    H220926   5.885   3.338   5.025
 6995TIP3   OH220927   6.057   3.397   4.479
 6995TIP3    H120928   6.004   3.468   4.443
 6995TIP3    H220929   6.142   3.406   4.436
 6996TIP3   OH220930   6.499   3.636   4.619
 6996TIP3    H120931   6.538   3.635   4.706
 6996TIP3    H220932   6.561   3.686   4.566
 6997TIP3   OH220933   6.678   3.789   4.479
 6997TIP3    H120934   6.745   3.738   4.434
 6997TIP3    H220935   6.727   3.846   4.538
 6998TIP3   OH220936   7.470   2.144   4.577
 6998TIP3    H120937   7.381   2.135   4.544
 6998TIP3    H220938   7.508   2.056   4.568
 6999TIP3   OH220939   5.729   3.649   4.506
 6999TIP3    H120940   5.642   3.679   4.478
 6999TIP3    H220941   5.741   3.688   4.593
 7000TIP3   OH220942   5.964   3.629   4.360
 7000TIP3    H120943   5.881   3.640   4.407
 7000TIP3    H220944   5.945   3.659   4.271
 7001TIP3   OH220945   6.391   3.656   4.160
 7001TIP3    H120946   6.320   3.671   4.097
 7001TIP3    H220947   6.405   3.741   4.201
 7002TIP3   OH220948   6.660   3.596   4.212
 7002TIP3    H120949   6.567   3.610   4.194
 7002TIP3    H220950   6.705   3.668   4.169
 7003TIP3   OH220951   6.867   3.785   4.123
 7003TIP3    H120952   6.852   3.869   4.080
 7003TIP3    H220953   6.893   3.726   4.052
 7004TIP3   OH220954   5.644   3.443   4.250
 7004TIP3    H120955   5.666   3.417   4.339
 7004TIP3    H220956   5.712   3.403   4.196
 7005TIP3   OH220957   5.838   3.314   4.109
 7005TIP3    H120958   5.849   3.231   4.157
 7005TIP3    H220959   5.926   3.351   4.104
 7006TIP3   OH220960   6.107   3.405   4.111
 7006TIP3    H120961   6.132   3.314   4.098
 7006TIP3    H220962   6.149   3.431   4.193
 7007TIP3   OH220963   6.676   2.062   4.196
 7007TIP3    H120964   6.634   1.993   4.248
 7007TIP3    H220965   6.749   2.018   4.152
 7008TIP3   OH220966   7.196   1.945   4.097
 7008TIP3    H120967   7.234   1.995   4.025
 7008TIP3    H220968   7.103   1.965   4.093
 7009TIP3   OH220969   7.297   2.045   3.862
 7009TIP3    H120970   7.368   1.991   3.827
 7009TIP3    H220971   7.327   2.135   3.850
 7010TIP3   OH220972   5.924   1.768   4.211
 7010TIP3    H120973   5.833   1.739   4.214
 7010TIP3    H220974   5.975   1.687   4.208
 7011TIP3   OH220975   5.713   1.645   3.861
 7011TIP3    H120976   5.742   1.700   3.788
 7011TIP3    H220977   5.685   1.708   3.928
 7012TIP3   OH220978   6.372   1.805   4.093
 7012TIP3    H120979   6.427   1.852   4.031
 7012TIP3    H220980   6.396   1.841   4.178
 7013TIP3   OH220981   6.912   1.950   4.076
 7013TIP3    H120982   6.914   1.913   3.988
 7013TIP3    H220983   6.902   1.874   4.134
 7014TIP3   OH220984   6.944   1.875   3.640
 7014TIP3    H120985   6.861   1.920   3.654
 7014TIP3    H220986   6.933   1.790   3.683
 7015TIP3   OH220987   5.430   3.211   3.634
 7015TIP3    H120988   5.346   3.181   3.602
 7015TIP3    H220989   5.419   3.305   3.648
 7016TIP3   OH220990   5.834   1.802   3.622
 7016TIP3    H120991   5.879   1.739   3.565
 7016TIP3    H220992   5.904   1.855   3.658
 7017TIP3   OH220993   6.343   1.980   3.723
 7017TIP3    H120994   6.400   1.930   3.781
 7017TIP3    H220995   6.360   2.072   3.746
 7018TIP3   OH220996   6.202   3.398   3.218
 7018TIP3    H120997   6.289   3.423   3.187
 7018TIP3    H220998   6.176   3.325   3.162
 7019TIP3   OH220999   6.922   3.520   3.314
 7019TIP3    H121000   6.915   3.425   3.305
 7019TIP3    H221001   6.878   3.555   3.236
 7020TIP3   OH221002   6.134   2.053   5.107
 7020TIP3    H121003   6.097   1.982   5.160
 7020TIP3    H221004   6.227   2.054   5.130
 7021TIP3   OH221005   6.384   2.050   5.223
 7021TIP3    H121006   6.467   2.026   5.181
 7021TIP3    H221007   6.369   1.982   5.288
 7022TIP3   OH221008   5.504   3.239   3.278
 7022TIP3    H121009   5.490   3.262   3.369
 7022TIP3    H221010   5.591   3.198   3.277
 7023TIP3   OH221011   7.211   2.114   5.010
 7023TIP3    H121012   7.227   2.083   5.099
 7023TIP3    H221013   7.296   2.109   4.967
 7024TIP3   OH221014   7.143   3.665   4.501
 7024TIP3    H121015   7.067   3.632   4.452
 7024TIP3    H221016   7.127   3.760   4.508
 7025TIP3   OH221017   7.710   2.928   4.015
 7025TIP3    H121018   7.733   2.859   4.078
 7025TIP3    H221019   7.786   2.987   4.015
 7026TIP3   OH221020   7.683   3.342   3.738
 7026TIP3    H121021   7.671   3.247   3.739
 7026TIP3    H221022   7.778   3.355   3.733
 7027TIP3   OH221023   7.385   2.546   3.520
 7027TIP3    H121024   7.339   2.628   3.539
 7027TIP3    H221025   7.319   2.490   3.480
 7028TIP3   OH221026   7.450   2.831   3.700
 7028TIP3    H121027   7.496   2.755   3.735
 7028TIP3    H221028   7.504   2.859   3.626
 7029TIP3   OH221029   8.315   3.766   3.330
 7029TIP3    H121030   8.407   3.741   3.329
 7029TIP3    H221031   8.294   3.776   3.423
 7030TIP3   OH221032   8.215   3.254   3.698
 7030TIP3    H121033   8.225   3.220   3.609
 7030TIP3    H221034   8.293   3.307   3.712
 7031TIP3   OH221035   7.934   2.426   3.704
 7031TIP3    H121036   7.950   2.492   3.637
 7031TIP3    H221037   7.902   2.350   3.656
 7032TIP3   OH221038   7.599   2.624   3.800
 7032TIP3    H121039   7.676   2.605   3.853
 7032TIP3    H221040   7.610   2.572   3.721
 7033TIP3   OH221041   8.022   2.823   3.593
 7033TIP3    H121042   8.113   2.795   3.607
 7033TIP3    H221043   7.977   2.744   3.563
 7034TIP3   OH221044   7.959   2.416   4.139
 7034TIP3    H121045   7.903   2.445   4.067
 7034TIP3    H221046   7.906   2.432   4.217
 7035TIP3   OH221047   8.068   3.183   3.929
 7035TIP3    H121048   8.003   3.244   3.966
 7035TIP3    H221049   8.109   3.232   3.858
 7036TIP3   OH221050   7.825   2.527   3.924
 7036TIP3    H121051   7.888   2.596   3.946
 7036TIP3    H221052   7.864   2.482   3.849
 7037TIP3   OH221053   7.892   3.379   4.021
 7037TIP3    H121054   7.870   3.464   3.984
 7037TIP3    H221055   7.817   3.356   4.076
 7038TIP3   OH221056   7.286   3.071   3.256
 7038TIP3    H121057   7.243   3.094   3.174
 7038TIP3    H221058   7.316   3.154   3.292
 7039TIP3   OH221059   7.815   2.969   3.483
 7039TIP3    H121060   7.774   2.913   3.417
 7039TIP3    H221061   7.889   2.918   3.515
 7040TIP3   OH221062   7.947   3.385   3.629
 7040TIP3    H121063   7.921   3.348   3.545
 7040TIP3    H221064   8.029   3.341   3.651
 7041TIP3   OH221065   7.960   2.941   3.840
 7041TIP3    H121066   7.986   2.916   3.751
 7041TIP3    H221067   8.000   3.027   3.853
 7042TIP3   OH221068   8.091   3.492   4.174
 7042TIP3    H121069   8.035   3.557   4.217
 7042TIP3    H221070   8.031   3.440   4.121
 7043TIP3   OH221071   7.844   3.064   4.266
 7043TIP3    H121072   7.849   3.148   4.311
 7043TIP3    H221073   7.754   3.035   4.280
 7044TIP3   OH221074   8.195   3.545   3.198
 7044TIP3    H121075   8.216   3.632   3.232
 7044TIP3    H221076   8.127   3.561   3.132
 7045TIP3   OH221077   7.889   3.663   4.253
 7045TIP3    H121078   7.856   3.664   4.163
 7045TIP3    H221079   7.812   3.642   4.306
 7046TIP3   OH221080   7.689   2.812   3.287
 7046TIP3    H121081   7.622   2.854   3.234
 7046TIP3    H221082   7.652   2.726   3.308
 7047TIP3   OH221083   7.470   3.195   4.198
 7047TIP3    H121084   7.404   3.176   4.132
 7047TIP3    H221085   7.507   3.110   4.222
 7048TIP3   OH221086   7.325   3.390   3.831
 7048TIP3    H121087   7.421   3.385   3.823
 7048TIP3    H221088   7.310   3.468   3.885
 7049TIP3   OH221089   8.281   3.612   4.016
 7049TIP3    H121090   8.289   3.702   4.047
 7049TIP3    H221091   8.214   3.573   4.072
 7050TIP3   OH221092   8.060   3.754   2.972
 7050TIP3    H121093   8.015   3.734   2.890
 7050TIP3    H221094   8.027   3.840   2.998
 7051TIP3   OH221095   7.494   3.601   3.360
 7051TIP3    H121096   7.540   3.595   3.444
 7051TIP3    H221097   7.440   3.523   3.357
 7052TIP3   OH221098   8.325   3.714   2.909
 7052TIP3    H121099   8.234   3.731   2.934
 7052TIP3    H221100   8.340   3.622   2.932
 7053TIP3   OH221101   7.676   3.377   4.185
 7053TIP3    H121102   7.724   3.363   4.267
 7053TIP3    H221103   7.603   3.316   4.190
 7054TIP3   OH221104   8.054   2.192   3.996
 7054TIP3    H121105   7.969   2.170   3.959
 7054TIP3    H221106   8.043   2.279   4.032
 7055TIP3   OH221107   8.002   2.725   3.995
 7055TIP3    H121108   7.949   2.738   4.074
 7055TIP3    H221109   7.984   2.801   3.940
 7056TIP3   OH221110   7.889   2.604   3.497
 7056TIP3    H121111   7.802   2.574   3.523
 7056TIP3    H221112   7.904   2.563   3.412
 7057TIP3   OH221113   7.816   2.743   4.203
 7057TIP3    H121114   7.867   2.797   4.263
 7057TIP3    H221115   7.804   2.660   4.248
 7058TIP3   OH221116   7.859   2.181   2.896
 7058TIP3    H121117   7.852   2.199   2.990
 7058TIP3    H221118   7.804   2.248   2.855
 7059TIP3   OH221119   7.421   2.267   3.778
 7059TIP3    H121120   7.490   2.301   3.835
 7059TIP3    H221121   7.467   2.233   3.702
 7060TIP3   OH221122   7.385   2.251   3.297
 7060TIP3    H121123   7.431   2.286   3.221
 7060TIP3    H221124   7.323   2.320   3.322
 7061TIP3   OH221125   7.651   2.485   3.568
 7061TIP3    H121126   7.558   2.489   3.543
 7061TIP3    H221127   7.676   2.394   3.553
 7062TIP3   OH221128   7.928   2.482   3.252
 7062TIP3    H121129   8.013   2.492   3.207
 7062TIP3    H221130   7.863   2.498   3.184
 7063TIP3   OH221131   7.766   2.508   3.038
 7063TIP3    H121132   7.696   2.462   2.992
 7063TIP3    H221133   7.821   2.545   2.969
 7064TIP3   OH221134   7.838   3.304   4.411
 7064TIP3    H121135   7.917   3.332   4.457
 7064TIP3    H221136   7.771   3.301   4.480
 7065TIP3   OH221137   7.811   2.238   3.541
 7065TIP3    H121138   7.779   2.168   3.598
 7065TIP3    H221139   7.864   2.193   3.476
 7066TIP3   OH221140   8.271   2.650   3.994
 7066TIP3    H121141   8.180   2.674   3.977
 7066TIP3    H221142   8.316   2.734   4.007
 7067TIP3   OH221143   7.982   3.068   3.048
 7067TIP3    H121144   7.934   2.986   3.041
 7067TIP3    H221145   7.989   3.084   3.142
 7068TIP3   OH221146   8.380   3.336   4.074
 7068TIP3    H121147   8.407   3.320   4.164
 7068TIP3    H221148   8.354   3.428   4.072
 7069TIP3   OH221149   7.711   3.069   3.723
 7069TIP3    H121150   7.742   3.037   3.639
 7069TIP3    H221151   7.742   3.004   3.786
 7070TIP3   OH221152   8.123   3.189   2.847
 7070TIP3    H121153   8.098   3.279   2.870
 7070TIP3    H221154   8.091   3.136   2.920
 7071TIP3   OH221155   7.586   2.984   4.339
 7071TIP3    H121156   7.606   2.969   4.431
 7071TIP3    H221157   7.520   2.918   4.317
 7072TIP3   OH221158   8.316   3.098   4.354
 7072TIP3    H121159   8.258   3.052   4.293
 7072TIP3    H221160   8.401   3.056   4.343
 7073TIP3   OH221161   7.807   3.369   3.350
 7073TIP3    H121162   7.807   3.449   3.296
 7073TIP3    H221163   7.714   3.348   3.360
 7074TIP3   OH221164   7.371   2.673   3.057
 7074TIP3    H121165   7.417   2.756   3.075
 7074TIP3    H221166   7.294   2.675   3.114
 7075TIP3   OH221167   7.958   3.137   3.315
 7075TIP3    H121168   7.916   3.223   3.317
 7075TIP3    H221169   7.907   3.084   3.376
 7076TIP3   OH221170   8.078   3.708   3.818
 7076TIP3    H121171   8.110   3.784   3.770
 7076TIP3    H221172   8.153   3.678   3.868
 7077TIP3   OH221173   7.726   3.608   3.203
 7077TIP3    H121174   7.641   3.614   3.247
 7077TIP3    H221175   7.759   3.698   3.203
 7078TIP3   OH221176   7.793   2.493   4.348
 7078TIP3    H121177   7.697   2.493   4.355
 7078TIP3    H221178   7.822   2.431   4.415
 7079TIP3   OH221179   7.517   3.573   3.976
 7079TIP3    H121180   7.569   3.500   4.011
 7079TIP3    H221181   7.538   3.647   4.033
 7080TIP3   OH221182   7.801   3.216   2.662
 7080TIP3    H121183   7.805   3.125   2.633
 7080TIP3    H221184   7.783   3.210   2.756
 7081TIP3   OH221185   7.754   3.222   2.933
 7081TIP3    H121186   7.832   3.189   2.978
 7081TIP3    H221187   7.759   3.317   2.945
 7082TIP3   OH221188   7.482   2.919   3.136
 7082TIP3    H121189   7.416   2.959   3.193
 7082TIP3    H221190   7.498   2.984   3.068
 7083TIP3   OH221191   8.016   3.436   2.890
 7083TIP3    H121192   7.927   3.454   2.920
 7083TIP3    H221193   8.039   3.511   2.835
 7084TIP3   OH221194   7.757   3.500   2.949
 7084TIP3    H121195   7.726   3.566   2.887
 7084TIP3    H221196   7.743   3.539   3.035
 7085TIP3   OH221197   7.868   2.218   3.178
 7085TIP3    H121198   7.850   2.297   3.229
 7085TIP3    H221199   7.953   2.234   3.137
 7086TIP3   OH221200   7.483   3.121   2.938
 7086TIP3    H121201   7.548   3.190   2.953
 7086TIP3    H221202   7.522   3.065   2.871
 7087TIP3   OH221203   7.422   2.403   3.074
 7087TIP3    H121204   7.422   2.498   3.072
 7087TIP3    H221205   7.343   2.377   3.027
 7088TIP3   OH221206   7.790   2.123   3.947
 7088TIP3    H121207   7.777   2.087   3.859
 7088TIP3    H221208   7.791   2.046   4.004
 7089TIP3   OH221209   7.345   3.342   3.324
 7089TIP3    H121210   7.283   3.371   3.391
 7089TIP3    H221211   7.313   3.383   3.244
 7090TIP3   OH221212   7.509   3.885   4.399
 7090TIP3    H121213   7.593   3.889   4.446
 7090TIP3    H221214   7.486   3.793   4.398
 7091TIP3   OH221215   7.985   3.843   4.441
 7091TIP3    H121216   8.078   3.825   4.453
 7091TIP3    H221217   7.958   3.785   4.370
 7092TIP3   OH221218   7.962   3.416   2.573
 7092TIP3    H121219   7.900   3.351   2.606
 7092TIP3    H221220   8.048   3.378   2.592
 7093TIP3   OH221221   7.634   3.288   4.598
 7093TIP3    H121222   7.653   3.195   4.604
 7093TIP3    H221223   7.549   3.293   4.555
 7094TIP3   OH221224   7.623   2.936   2.791
 7094TIP3    H121225   7.672   2.907   2.868
 7094TIP3    H221226   7.689   2.943   2.722
 7095TIP3   OH221227   8.259   3.377   4.366
 7095TIP3    H121228   8.203   3.393   4.290
 7095TIP3    H221229   8.274   3.282   4.365
 7096TIP3   OH221230   8.109   3.120   2.590
 7096TIP3    H121231   8.129   3.153   2.678
 7096TIP3    H221232   8.035   3.060   2.604
 7097TIP3   OH221233   7.758   3.027   4.583
 7097TIP3    H121234   7.830   2.969   4.557
 7097TIP3    H221235   7.783   3.058   4.670
 7098TIP3   OH221236   7.820   2.839   3.011
 7098TIP3    H121237   7.791   2.801   3.093
 7098TIP3    H221238   7.862   2.767   2.964
 7099TIP3   OH221239   8.053   2.894   4.260
 7099TIP3    H121240   7.985   2.961   4.265
 7099TIP3    H221241   8.114   2.927   4.194
 7100TIP3   OH221242   7.928   2.632   2.850
 7100TIP3    H121243   7.888   2.640   2.764
 7100TIP3    H221244   8.020   2.611   2.832
 7101TIP3   OH221245   8.223   2.702   4.364
 7101TIP3    H121246   8.223   2.617   4.321
 7101TIP3    H221247   8.159   2.754   4.315
 7102TIP3   OH221248   8.222   2.477   4.196
 7102TIP3    H121249   8.235   2.523   4.113
 7102TIP3    H221250   8.138   2.434   4.186
 7103TIP3   OH221251   8.217   3.015   4.087
 7103TIP3    H121252   8.285   2.994   4.023
 7103TIP3    H221253   8.161   3.079   4.042
 7104TIP3   OH221254   8.095   2.805   4.598
 7104TIP3    H121255   8.029   2.738   4.613
 7104TIP3    H221256   8.130   2.785   4.511
 7105TIP3   OH221257   7.932   2.586   4.655
 7105TIP3    H121258   7.935   2.499   4.617
 7105TIP3    H221259   7.967   2.575   4.744
 7106TIP3   OH221260   7.722   3.702   2.759
 7106TIP3    H121261   7.818   3.696   2.750
 7106TIP3    H221262   7.694   3.753   2.683
 7107TIP3   OH221263   7.212   3.080   2.974
 7107TIP3    H121264   7.304   3.103   2.962
 7107TIP3    H221265   7.202   2.994   2.934
 7108TIP3   OH221266   7.126   3.690   3.393
 7108TIP3    H121267   7.059   3.634   3.354
 7108TIP3    H221268   7.170   3.634   3.457
 7109TIP3   OH221269   7.262   3.539   3.580
 7109TIP3    H121270   7.246   3.469   3.643
 7109TIP3    H221271   7.311   3.605   3.630
 7110TIP3   OH221272   7.447   2.951   3.948
 7110TIP3    H121273   7.441   2.918   3.859
 7110TIP3    H221274   7.541   2.952   3.967
 7111TIP3   OH221275   7.665   2.637   4.628
 7111TIP3    H121276   7.760   2.633   4.626
 7111TIP3    H221277   7.639   2.552   4.665
 7112TIP3   OH221278   7.621   2.335   3.959
 7112TIP3    H121279   7.675   2.257   3.963
 7112TIP3    H221280   7.683   2.408   3.954
 7113TIP3   OH221281   7.425   2.606   4.023
 7113TIP3    H121282   7.474   2.595   3.942
 7113TIP3    H221283   7.460   2.687   4.061
 7114TIP3   OH221284   7.410   2.102   3.523
 7114TIP3    H121285   7.320   2.101   3.556
 7114TIP3    H221286   7.407   2.162   3.449
 7115TIP3   OH221287   7.628   2.197   4.347
 7115TIP3    H121288   7.577   2.186   4.427
 7115TIP3    H221289   7.564   2.229   4.283
 7116TIP3   OH221290   7.670   3.614   4.419
 7116TIP3    H121291   7.579   3.591   4.401
 7116TIP3    H221292   7.682   3.598   4.512
 7117TIP3   OH221293   7.852   3.650   3.964
 7117TIP3    H121294   7.799   3.721   3.930
 7117TIP3    H221295   7.937   3.660   3.921
 7118TIP3   OH221296   8.282   3.876   4.107
 7118TIP3    H121297   8.327   3.882   4.191
 7118TIP3    H221298   8.330   3.935   4.049
 7119TIP3   OH221299   8.423   4.043   3.929
 7119TIP3    H121300   8.472   4.034   3.847
 7119TIP3    H221301   8.467   4.114   3.975
 7120TIP3   OH221302   7.525   3.906   3.993
 7120TIP3    H121303   7.437   3.934   3.967
 7120TIP3    H221304   7.540   3.949   4.077
 7121TIP3   OH221305   7.758   3.882   3.848
 7121TIP3    H121306   7.675   3.893   3.894
 7121TIP3    H221307   7.741   3.914   3.760
 7122TIP3   OH221308   8.160   3.920   3.649
 7122TIP3    H121309   8.088   3.930   3.587
 7122TIP3    H221310   8.174   4.008   3.684
 7123TIP3   OH221311   8.411   3.820   3.632
 7123TIP3    H121312   8.321   3.851   3.640
 7123TIP3    H221313   8.464   3.896   3.655
 7124TIP3   OH221314   7.440   3.697   3.735
 7124TIP3    H121315   7.461   3.671   3.825
 7124TIP3    H221316   7.508   3.657   3.682
 7125TIP3   OH221317   7.633   3.570   3.594
 7125TIP3    H121318   7.644   3.488   3.642
 7125TIP3    H221319   7.721   3.607   3.590
 7126TIP3   OH221320   7.900   3.663   3.599
 7126TIP3    H121321   7.924   3.572   3.584
 7126TIP3    H221322   7.944   3.688   3.680
 7127TIP3   OH221323   7.720   2.027   3.691
 7127TIP3    H121324   7.630   1.995   3.699
 7127TIP3    H221325   7.774   1.947   3.687
 7128TIP3   OH221326   7.510   1.903   3.337
 7128TIP3    H121327   7.538   1.962   3.268
 7128TIP3    H221328   7.482   1.961   3.408
 7129TIP3   OH221329   7.223   3.474   3.122
 7129TIP3    H121330   7.139   3.438   3.092
 7129TIP3    H221331   7.218   3.568   3.102
 7130TIP3   OH221332   7.626   2.060   3.112
 7130TIP3    H121333   7.667   2.001   3.049
 7130TIP3    H221334   7.698   2.114   3.144
 7131TIP3   OH221335   7.990   3.653   2.714
 7131TIP3    H121336   8.080   3.669   2.685
 7131TIP3    H221337   7.958   3.584   2.657
 7132TIP3   OH221338   7.923   2.311   4.587
 7132TIP3    H121339   7.887   2.240   4.640
 7132TIP3    H221340   8.015   2.314   4.611
 7133TIP3   OH221341   8.164   2.306   4.716
 7133TIP3    H121342   8.240   2.273   4.670
 7133TIP3    H221343   8.145   2.240   4.783
 7134TIP3   OH221344   7.302   3.493   2.765
 7134TIP3    H121345   7.303   3.516   2.857
 7134TIP3    H221346   7.388   3.452   2.750
 7135TIP3   OH221347   0.873   3.841   4.947
 7135TIP3    H121348   0.832   3.924   4.923
 7135TIP3    H221349   0.801   3.778   4.946
 7136TIP3   OH221350   0.185   3.708   5.672
 7136TIP3    H121351   0.171   3.649   5.746
 7136TIP3    H221352   0.254   3.767   5.702
 7137TIP3   OH221353   1.106   4.174   5.051
 7137TIP3    H121354   1.129   4.081   5.056
 7137TIP3    H221355   1.037   4.185   5.116
 7138TIP3   OH221356   0.145   4.107   5.363
 7138TIP3    H121357   0.120   4.015   5.378
 7138TIP3    H221358   0.222   4.120   5.418
 7139TIP3   OH221359   8.417   3.616   5.342
 7139TIP3    H121360   8.449   3.568   5.418
 7139TIP3    H221361   8.471   3.695   5.339
 7140TIP3   OH221362   0.756   4.584   5.035
 7140TIP3    H121363   0.814   4.520   4.994
 7140TIP3    H221364   0.745   4.553   5.125
 7141TIP3   OH221365   0.661   4.048   5.386
 7141TIP3    H121366   0.679   3.955   5.380
 7141TIP3    H221367   0.746   4.088   5.403
 7142TIP3   OH221368   1.681   3.372   5.386
 7142TIP3    H121369   1.708   3.453   5.428
 7142TIP3    H221370   1.699   3.385   5.293
 7143TIP3   OH221371   0.416   3.210   5.382
 7143TIP3    H121372   0.400   3.284   5.323
 7143TIP3    H221373   0.369   3.137   5.341
 7144TIP3   OH221374   1.116   3.277   5.004
 7144TIP3    H121375   1.184   3.269   5.071
 7144TIP3    H221376   1.153   3.338   4.940
 7145TIP3   OH221377   0.051   3.413   5.494
 7145TIP3    H121378   0.129   3.406   5.549
 7145TIP3    H221379   0.077   3.374   5.411
 7146TIP3   OH221380   0.494   3.618   5.272
 7146TIP3    H121381   0.587   3.612   5.293
 7146TIP3    H221382   0.467   3.528   5.253
 7147TIP3   OH221383   1.751   3.586   5.552
 7147TIP3    H121384   1.666   3.626   5.532
 7147TIP3    H221385   1.755   3.583   5.647
 7148TIP3   OH221386   0.405   3.191   5.824
 7148TIP3    H121387   0.356   3.234   5.753
 7148TIP3    H221388   0.355   3.211   5.903
 7149TIP3   OH221389   0.758   4.058   4.822
 7149TIP3    H121390   0.716   4.025   4.743
 7149TIP3    H221391   0.711   4.138   4.843
 7150TIP3   OH221392   0.518   3.979   5.619
 7150TIP3    H121393   0.455   4.041   5.656
 7150TIP3    H221394   0.556   4.023   5.544
 7151TIP3   OH221395   1.315   3.303   5.191
 7151TIP3    H121396   1.284   3.271   5.276
 7151TIP3    H221397   1.363   3.384   5.212
 7152TIP3   OH221398   0.289   3.308   5.602
 7152TIP3    H121399   0.341   3.384   5.628
 7152TIP3    H221400   0.338   3.269   5.529
 7153TIP3   OH221401   0.326   4.157   5.732
 7153TIP3    H121402   0.268   4.208   5.675
 7153TIP3    H221403   0.267   4.110   5.791
 7154TIP3   OH221404   1.468   3.273   5.553
 7154TIP3    H121405   1.379   3.284   5.522
 7154TIP3    H221406   1.523   3.302   5.481
 7155TIP3   OH221407   0.763   2.910   5.536
 7155TIP3    H121408   0.749   2.817   5.553
 7155TIP3    H221409   0.690   2.954   5.580
 7156TIP3   OH221410   0.926   4.418   4.893
 7156TIP3    H121411   0.931   4.333   4.849
 7156TIP3    H221412   0.954   4.481   4.827
 7157TIP3   OH221413   1.030   4.201   4.775
 7157TIP3    H121414   0.995   4.133   4.717
 7157TIP3    H221415   1.055   4.154   4.855
 7158TIP3   OH221416   1.405   4.285   5.524
 7158TIP3    H121417   1.389   4.205   5.475
 7158TIP3    H221418   1.382   4.356   5.464
 7159TIP3   OH221419   0.695   3.679   4.786
 7159TIP3    H121420   0.617   3.730   4.768
 7159TIP3    H221421   0.742   3.675   4.703
 7160TIP3   OH221422   0.657   3.464   4.502
 7160TIP3    H121423   0.721   3.514   4.552
 7160TIP3    H221424   0.709   3.400   4.454
 7161TIP3   OH221425   1.597   3.931   5.381
 7161TIP3    H121426   1.513   3.975   5.388
 7161TIP3    H221427   1.619   3.935   5.287
 7162TIP3   OH221428   1.048   3.762   4.758
 7162TIP3    H121429   0.990   3.785   4.830
 7162TIP3    H221430   1.127   3.729   4.801
 7163TIP3   OH221431   1.279   3.801   5.671
 7163TIP3    H121432   1.274   3.877   5.728
 7163TIP3    H221433   1.200   3.804   5.619
 7164TIP3   OH221434   0.284   3.754   5.169
 7164TIP3    H121435   0.242   3.694   5.107
 7164TIP3    H221436   0.358   3.706   5.204
 7165TIP3   OH221437   0.430   4.190   5.310
 7165TIP3    H121438   0.385   4.131   5.250
 7165TIP3    H221439   0.511   4.144   5.333
 7166TIP3   OH221440   0.440   3.730   5.523
 7166TIP3    H121441   0.474   3.712   5.436
 7166TIP3    H221442   0.478   3.814   5.546
 7167TIP3   OH221443   0.976   4.362   5.294
 7167TIP3    H121444   0.950   4.441   5.343
 7167TIP3    H221445   0.952   4.290   5.352
 7168TIP3   OH221446   0.542   4.290   5.850
 7168TIP3    H121447   0.491   4.347   5.908
 7168TIP3    H221448   0.477   4.234   5.809
 7169TIP3   OH221449   0.885   3.621   4.585
 7169TIP3    H121450   0.943   3.676   4.637
 7169TIP3    H221451   0.908   3.640   4.494
 7170TIP3   OH221452   0.293   3.845   5.958
 7170TIP3    H121453   0.299   3.925   6.010
 7170TIP3    H221454   0.199   3.836   5.939
 7171TIP3   OH221455   0.640   4.304   4.844
 7171TIP3    H121456   0.685   4.368   4.899
 7171TIP3    H221457   0.563   4.350   4.811
 7172TIP3   OH221458   0.324   4.461   5.942
 7172TIP3    H121459   0.308   4.462   5.847
 7172TIP3    H221460   0.251   4.410   5.977
 7173TIP3   OH221461   1.398   2.859   4.636
 7173TIP3    H121462   1.319   2.878   4.686
 7173TIP3    H221463   1.414   2.938   4.585
 7174TIP3   OH221464   0.155   3.589   4.973
 7174TIP3    H121465   0.088   3.630   4.918
 7174TIP3    H221466   0.113   3.510   5.006
 7175TIP3   OH221467   1.202   4.226   4.190
 7175TIP3    H121468   1.207   4.319   4.167
 7175TIP3    H221469   1.290   4.193   4.173
 7176TIP3   OH221470   1.639   4.626   5.580
 7176TIP3    H121471   1.643   4.532   5.598
 7176TIP3    H221472   1.560   4.655   5.624
 7177TIP3   OH221473   0.738   4.419   5.707
 7177TIP3    H121474   0.743   4.508   5.741
 7177TIP3    H221475   0.672   4.376   5.761
 7178TIP3   OH221476   0.509   4.545   4.663
 7178TIP3    H121477   0.462   4.526   4.581
 7178TIP3    H221478   0.478   4.632   4.688
 7179TIP3   OH221479   0.713   4.445   4.304
 7179TIP3    H121480   0.767   4.376   4.265
 7179TIP3    H221481   0.747   4.454   4.393
 7180TIP3   OH221482   0.761   4.495   4.578
 7180TIP3    H121483   0.671   4.509   4.610
 7180TIP3    H221484   0.797   4.429   4.638
 7181TIP3   OH221485   1.533   3.759   5.847
 7181TIP3    H121486   1.445   3.767   5.809
 7181TIP3    H221487   1.551   3.665   5.846
 7182TIP3   OH221488   0.525   2.989   5.665
 7182TIP3    H121489   0.439   2.958   5.638
 7182TIP3    H221490   0.508   3.072   5.709
 7183TIP3   OH221491   1.062   3.103   5.855
 7183TIP3    H121492   1.129   3.081   5.919
 7183TIP3    H221493   0.979   3.087   5.901
 7184TIP3   OH221494   1.307   3.542   5.786
 7184TIP3    H121495   1.255   3.531   5.866
 7184TIP3    H221496   1.269   3.619   5.743
 7185TIP3   OH221497   0.961   3.666   4.329
 7185TIP3    H121498   0.923   3.640   4.245
 7185TIP3    H221499   1.046   3.704   4.305
 7186TIP3   OH221500   0.670   3.036   4.636
 7186TIP3    H121501   0.641   3.036   4.727
 7186TIP3    H221502   0.634   2.956   4.600
 7187TIP3   OH221503   0.448   3.509   5.676
 7187TIP3    H121504   0.400   3.530   5.756
 7187TIP3    H221505   0.441   3.589   5.623
 7188TIP3   OH221506   0.341   3.386   5.193
 7188TIP3    H121507   0.249   3.369   5.210
 7188TIP3    H221508   0.356   3.349   5.106
 7189TIP3   OH221509   0.821   3.468   4.913
 7189TIP3    H121510   0.774   3.542   4.875
 7189TIP3    H221511   0.883   3.441   4.845
 7190TIP3   OH221512   1.014   3.757   6.010
 7190TIP3    H121513   0.984   3.684   6.063
 7190TIP3    H221514   1.107   3.767   6.033
 7191TIP3   OH221515   1.026   3.525   5.124
 7191TIP3    H121516   0.936   3.552   5.108
 7191TIP3    H221517   1.025   3.430   5.111
 7192TIP3   OH221518   0.285   3.528   5.898
 7192TIP3    H121519   0.297   3.600   5.961
 7192TIP3    H221520   0.276   3.450   5.953
 7193TIP3   OH221521   0.327   3.012   4.599
 7193TIP3    H121522   0.320   3.012   4.695
 7193TIP3    H221523   0.250   3.061   4.569
 7194TIP3   OH221524   8.397   3.080   5.450
 7194TIP3    H121525   8.467   3.092   5.515
 7194TIP3    H221526   8.419   2.998   5.406
 7195TIP3   OH221527   8.364   3.091   5.018
 7195TIP3    H121528   8.390   3.101   4.926
 7195TIP3    H221529   8.357   3.181   5.051
 7196TIP3   OH221530   0.670   3.216   5.257
 7196TIP3    H121531   0.593   3.213   5.314
 7196TIP3    H221532   0.744   3.220   5.317
 7197TIP3   OH221533   0.101   3.258   5.259
 7197TIP3    H121534   0.012   3.228   5.275
 7197TIP3    H221535   0.151   3.177   5.244
 7198TIP3   OH221536   0.368   3.261   4.951
 7198TIP3    H121537   0.462   3.278   4.937
 7198TIP3    H221538   0.327   3.289   4.869
 7199TIP3   OH221539   1.187   3.273   5.461
 7199TIP3    H121540   1.154   3.309   5.543
 7199TIP3    H221541   1.110   3.238   5.417
 7200TIP3   OH221542   0.216   3.303   4.723
 7200TIP3    H121543   0.151   3.256   4.670
 7200TIP3    H221544   0.274   3.344   4.659
 7201TIP3   OH221545   1.336   4.980   5.679
 7201TIP3    H121546   1.333   5.002   5.586
 7201TIP3    H221547   1.414   5.025   5.712
 7202TIP3   OH221548   0.288   4.081   6.119
 7202TIP3    H121549   0.365   4.109   6.168
 7202TIP3    H221550   0.215   4.126   6.161
 7203TIP3   OH221551   0.266   3.031   5.236
 7203TIP3    H121552   0.234   2.954   5.282
 7203TIP3    H221553   0.319   2.996   5.164
 7204TIP3   OH221554   0.718   3.413   5.665
 7204TIP3    H121555   0.638   3.463   5.649
 7204TIP3    H221556   0.784   3.478   5.690
 7205TIP3   OH221557   0.462   3.829   4.736
 7205TIP3    H121558   0.394   3.763   4.723
 7205TIP3    H221559   0.448   3.862   4.825
 7206TIP3   OH221560   1.361   4.068   5.359
 7206TIP3    H121561   1.377   4.109   5.274
 7206TIP3    H221562   1.279   4.020   5.347
 7207TIP3   OH221563   0.921   3.143   4.599
 7207TIP3    H121564   0.828   3.125   4.611
 7207TIP3    H221565   0.931   3.234   4.627
 7208TIP3   OH221566   0.890   4.167   5.730
 7208TIP3    H121567   0.884   4.108   5.805
 7208TIP3    H221568   0.827   4.236   5.749
 7209TIP3   OH221569   0.995   3.390   4.704
 7209TIP3    H121570   1.090   3.395   4.720
 7209TIP3    H221571   0.976   3.468   4.652
 7210TIP3   OH221572   0.153   3.837   5.413
 7210TIP3    H121573   0.211   3.798   5.347
 7210TIP3    H221574   0.169   3.786   5.492
 7211TIP3   OH221575   0.610   3.982   4.563
 7211TIP3    H121576   0.564   4.066   4.566
 7211TIP3    H221577   0.557   3.924   4.618
 7212TIP3   OH221578   0.768   3.886   6.045
 7212TIP3    H121579   0.704   3.831   6.001
 7212TIP3    H221580   0.853   3.852   6.017
 7213TIP3   OH221581   1.026   4.434   5.620
 7213TIP3    H121582   0.936   4.404   5.634
 7213TIP3    H221583   1.053   4.468   5.705
 7214TIP3   OH221584   1.432   3.483   4.535
 7214TIP3    H121585   1.371   3.435   4.479
 7214TIP3    H221586   1.434   3.571   4.498
 7215TIP3   OH221587   1.653   4.339   5.617
 7215TIP3    H121588   1.558   4.334   5.616
 7215TIP3    H221589   1.679   4.309   5.530
 7216TIP3   OH221590   1.142   4.293   4.452
 7216TIP3    H121591   1.110   4.216   4.501
 7216TIP3    H221592   1.155   4.261   4.363
 7217TIP3   OH221593   1.130   3.916   5.297
 7217TIP3    H121594   1.044   3.884   5.323
 7217TIP3    H221595   1.168   3.844   5.247
 7218TIP3   OH221596   0.260   4.157   5.031
 7218TIP3    H121597   0.247   4.237   4.980
 7218TIP3    H221598   0.180   4.148   5.083
 7219TIP3   OH221599   8.329   3.469   4.755
 7219TIP3    H121600   8.388   3.543   4.772
 7219TIP3    H221601   8.241   3.503   4.773
 7220TIP3   OH221602   0.397   3.923   4.980
 7220TIP3    H121603   0.360   4.009   4.998
 7220TIP3    H221604   0.367   3.868   5.053
 7221TIP3   OH221605   0.538   4.503   5.509
 7221TIP3    H121606   0.582   4.570   5.456
 7221TIP3    H221607   0.609   4.461   5.557
 7222TIP3   OH221608   0.176   4.402   4.896
 7222TIP3    H121609   0.095   4.417   4.944
 7222TIP3    H221610   0.218   4.488   4.891
 7223TIP3   OH221611   0.925   4.140   5.461
 7223TIP3    H121612   0.906   4.143   5.555
 7223TIP3    H221613   0.982   4.064   5.450
 7224TIP3   OH221614   0.893   4.030   4.355
 7224TIP3    H121615   0.945   4.006   4.431
 7224TIP3    H221616   0.805   3.998   4.375
 7225TIP3   OH221617   1.166   4.668   5.518
 7225TIP3    H121618   1.096   4.603   5.524
 7225TIP3    H221619   1.139   4.724   5.445
 7226TIP3   OH221620   1.228   4.502   4.167
 7226TIP3    H121621   1.265   4.564   4.105
 7226TIP3    H221622   1.151   4.546   4.202
 7227TIP3   OH221623   0.258   3.266   6.052
 7227TIP3    H121624   0.166   3.261   6.076
 7227TIP3    H221625   0.304   3.213   6.117
 7228TIP3   OH221626   1.056   3.971   4.575
 7228TIP3    H121627   1.040   3.899   4.636
 7228TIP3    H221628   1.149   3.963   4.553
 7229TIP3   OH221629   0.257   4.002   4.348
 7229TIP3    H121630   0.270   3.912   4.320
 7229TIP3    H221631   0.237   3.997   4.441
 7230TIP3   OH221632   0.207   4.015   4.622
 7230TIP3    H121633   0.279   3.983   4.677
 7230TIP3    H221634   0.211   4.110   4.630
 7231TIP3   OH221635   8.452   3.701   4.828
 7231TIP3    H121636   8.411   3.749   4.900
 7231TIP3    H221637   8.467   3.768   4.761
 7232TIP3   OH221638   1.099   3.343   5.715
 7232TIP3    H121639   1.172   3.378   5.765
 7232TIP3    H221640   1.072   3.264   5.762
 7233TIP3   OH221641   0.969   3.081   4.879
 7233TIP3    H121642   0.954   3.109   4.789
 7233TIP3    H221643   1.013   3.155   4.921
 7234TIP3   OH221644   0.468   4.215   4.571
 7234TIP3    H121645   0.383   4.236   4.608
 7234TIP3    H221646   0.484   4.283   4.505
 7235TIP3   OH221647   0.647   3.273   4.987
 7235TIP3    H121648   0.710   3.341   4.964
 7235TIP3    H221649   0.656   3.262   5.082
 7236TIP3   OH221650   0.905   3.570   5.808
 7236TIP3    H121651   0.941   3.641   5.862
 7236TIP3    H221652   0.978   3.509   5.797
 7237TIP3   OH221653   0.800   2.994   5.086
 7237TIP3    H121654   0.801   3.063   5.152
 7237TIP3    H221655   0.858   3.027   5.017
 7238TIP3   OH221656   0.214   4.288   4.641
 7238TIP3    H121657   0.187   4.354   4.577
 7238TIP3    H221658   0.196   4.329   4.726
 7239TIP3   OH221659   0.315   3.000   4.876
 7239TIP3    H121660   0.309   3.089   4.912
 7239TIP3    H221661   0.408   2.978   4.882
 7240TIP3   OH221662   1.566   3.487   5.759
 7240TIP3    H121663   1.473   3.498   5.781
 7240TIP3    H221664   1.565   3.427   5.684
 7241TIP3   OH221665   1.229   3.696   5.164
 7241TIP3    H121666   1.151   3.640   5.160
 7241TIP3    H221667   1.294   3.642   5.210
 7242TIP3   OH221668   8.444   3.919   4.666
 7242TIP3    H121669   8.523   3.973   4.657
 7242TIP3    H221670   8.442   3.867   4.585
 7243TIP3   OH221671   8.353   3.191   4.767
 7243TIP3    H121672   8.361   3.287   4.766
 7243TIP3    H221673   8.323   3.170   4.678
 7244TIP3   OH221674   1.206   4.594   5.037
 7244TIP3    H121675   1.154   4.666   5.003
 7244TIP3    H221676   1.291   4.633   5.058
 7245TIP3   OH221677   0.263   2.905   5.634
 7245TIP3    H121678   0.234   2.873   5.549
 7245TIP3    H221679   0.252   2.830   5.693
 7246TIP3   OH221680   0.429   4.636   6.134
 7246TIP3    H121681   0.524   4.626   6.146
 7246TIP3    H221682   0.407   4.572   6.066
 7247TIP3   OH221683   0.420   4.206   4.261
 7247TIP3    H121684   0.364   4.138   4.297
 7247TIP3    H221685   0.495   4.159   4.226
 7248TIP3   OH221686   1.083   4.539   5.865
 7248TIP3    H121687   1.070   4.471   5.931
 7248TIP3    H221688   1.156   4.591   5.898
 7249TIP3   OH221689   0.855   4.249   4.175
 7249TIP3    H121690   0.896   4.183   4.231
 7249TIP3    H221691   0.906   4.247   4.094
 7250TIP3   OH221692   0.067   3.729   4.490
 7250TIP3    H121693   0.123   3.700   4.562
 7250TIP3    H221694   0.127   3.732   4.414
 7251TIP3   OH221695   0.692   4.160   6.062
 7251TIP3    H121696   0.652   4.172   5.976
 7251TIP3    H221697   0.727   4.070   6.059
 7252TIP3   OH221698   0.581   3.924   4.294
 7252TIP3    H121699   0.581   3.939   4.388
 7252TIP3    H221700   0.582   3.829   4.285
 7253TIP3   OH221701   1.191   4.165   5.667
 7253TIP3    H121702   1.254   4.225   5.627
 7253TIP3    H221703   1.107   4.211   5.663
 7254TIP3   OH221704   0.209   3.802   6.287
 7254TIP3    H121705   0.274   3.762   6.230
 7254TIP3    H221706   0.260   3.844   6.357
 7255TIP3   OH221707   0.271   3.632   4.703
 7255TIP3    H121708   0.251   3.594   4.788
 7255TIP3    H221709   0.308   3.559   4.652
 7256TIP3   OH221710   0.550   3.708   5.935
 7256TIP3    H121711   0.469   3.758   5.931
 7256TIP3    H221712   0.598   3.733   5.856
 7257TIP3   OH221713   0.379   3.429   4.543
 7257TIP3    H121714   0.350   3.432   4.452
 7257TIP3    H221715   0.474   3.432   4.538
 7258TIP3   OH221716   1.064   4.099   6.069
 7258TIP3    H121717   1.139   4.065   6.019
 7258TIP3    H221718   1.051   4.036   6.139
 7259TIP3   OH221719   1.193   3.755   4.208
 7259TIP3    H121720   1.179   3.706   4.127
 7259TIP3    H221721   1.163   3.843   4.188
 7260TIP3   OH221722   0.668   3.489   6.059
 7260TIP3    H121723   0.669   3.408   6.008
 7260TIP3    H221724   0.630   3.554   6.000
 7261TIP3   OH221725   0.664   3.263   5.883
 7261TIP3    H121726   0.695   3.310   5.805
 7261TIP3    H221727   0.573   3.242   5.863
 7262TIP3   OH221728   0.702   3.810   5.733
 7262TIP3    H121729   0.757   3.774   5.663
 7262TIP3    H221730   0.644   3.872   5.689
 7263TIP3   OH221731   1.276   3.770   6.119
 7263TIP3    H121732   1.317   3.689   6.146
 7263TIP3    H221733   1.348   3.825   6.089
 7264TIP3   OH221734   1.321   4.028   5.855
 7264TIP3    H121735   1.261   4.077   5.799
 7264TIP3    H221736   1.407   4.044   5.818
 7265TIP3   OH221737   0.545   3.604   6.288
 7265TIP3    H121738   0.487   3.529   6.301
 7265TIP3    H221739   0.581   3.592   6.201
 7266TIP3   OH221740   0.800   3.030   5.934
 7266TIP3    H121741   0.754   3.112   5.917
 7266TIP3    H221742   0.733   2.962   5.924
 7267TIP3   OH221743   0.926   3.539   6.150
 7267TIP3    H121744   0.911   3.525   6.243
 7267TIP3    H221745   0.843   3.517   6.108
 7268TIP3   OH221746   1.165   3.485   6.006
 7268TIP3    H121747   1.089   3.490   6.063
 7268TIP3    H221748   1.236   3.456   6.063
 7269TIP3   OH221749   1.398   3.426   6.153
 7269TIP3    H121750   1.410   3.333   6.172
 7269TIP3    H221751   1.390   3.467   6.240
 7270TIP3   OH221752   0.408   3.376   6.344
 7270TIP3    H121753   0.400   3.289   6.305
 7270TIP3    H221754   0.436   3.359   6.434
 7271TIP3   OH221755   0.894   3.040   6.192
 7271TIP3    H121756   0.961   2.973   6.188
 7271TIP3    H221757   0.853   3.039   6.105
 7272TIP3   OH221758   0.959   3.257   6.351
 7272TIP3    H121759   0.939   3.188   6.289
 7272TIP3    H221760   0.885   3.317   6.345
 7273TIP3   OH221761   0.188   4.485   4.450
 7273TIP3    H121762   0.281   4.481   4.429
 7273TIP3    H221763   0.149   4.536   4.379
 7274TIP3   OH221764   1.431   4.747   5.073
 7274TIP3    H121765   1.465   4.770   5.159
 7274TIP3    H221766   1.501   4.773   5.012
 7275TIP3   OH221767   1.470   4.749   5.354
 7275TIP3    H121768   1.426   4.665   5.342
 7275TIP3    H221769   1.543   4.730   5.412
 7276TIP3   OH221770   1.512   4.432   5.920
 7276TIP3    H121771   1.443   4.436   5.986
 7276TIP3    H221772   1.556   4.517   5.926
 7277TIP3   OH221773   1.333   3.943   4.545
 7277TIP3    H121774   1.398   4.004   4.510
 7277TIP3    H221775   1.376   3.903   4.620
 7278TIP3   OH221776   1.457   3.814   4.756
 7278TIP3    H121777   1.389   3.763   4.800
 7278TIP3    H221778   1.508   3.851   4.828
 7279TIP3   OH221779   1.502   4.197   5.154
 7279TIP3    H121780   1.564   4.130   5.125
 7279TIP3    H221781   1.544   4.280   5.132
 7280TIP3   OH221782   1.319   4.500   5.369
 7280TIP3    H121783   1.280   4.555   5.436
 7280TIP3    H221784   1.244   4.457   5.327
 7281TIP3   OH221785   1.394   3.721   4.391
 7281TIP3    H121786   1.327   3.716   4.323
 7281TIP3    H221787   1.365   3.795   4.446
 7282TIP3   OH221788   1.265   3.390   4.346
 7282TIP3    H121789   1.228   3.427   4.265
 7282TIP3    H221790   1.244   3.297   4.340
 7283TIP3   OH221791   1.273   3.665   4.892
 7283TIP3    H121792   1.275   3.570   4.881
 7283TIP3    H221793   1.259   3.677   4.986
 7284TIP3   OH221794   1.565   4.092   5.747
 7284TIP3    H121795   1.632   4.023   5.739
 7284TIP3    H221796   1.595   4.161   5.688
 7285TIP3   OH221797   1.748   3.893   5.757
 7285TIP3    H121798   1.672   3.847   5.793
 7285TIP3    H221799   1.822   3.834   5.774
 7286TIP3   OH221800   1.211   3.125   4.334
 7286TIP3    H121801   1.284   3.092   4.386
 7286TIP3    H221802   1.138   3.066   4.353
 7287TIP3   OH221803   1.274   3.388   4.781
 7287TIP3    H121804   1.306   3.300   4.802
 7287TIP3    H221805   1.329   3.417   4.708
 7288TIP3   OH221806   1.434   3.552   5.282
 7288TIP3    H121807   1.515   3.578   5.239
 7288TIP3    H221808   1.442   3.584   5.371
 7289TIP3   OH221809   1.500   3.701   5.510
 7289TIP3    H121810   1.427   3.727   5.566
 7289TIP3    H221811   1.532   3.783   5.472
 7290TIP3   OH221812   0.133   3.341   6.417
 7290TIP3    H121813   0.199   3.376   6.359
 7290TIP3    H221814   0.051   3.381   6.388
 7291TIP3   OH221815   1.942   3.291   6.064
 7291TIP3    H121816   2.009   3.230   6.032
 7291TIP3    H221817   1.921   3.346   5.989
 7292TIP3   OH221818   1.378   3.134   4.824
 7292TIP3    H121819   1.425   3.121   4.906
 7292TIP3    H221820   1.316   3.062   4.820
 7293TIP3   OH221821   0.092   3.117   5.646
 7293TIP3    H121822   0.152   3.043   5.653
 7293TIP3    H221823   0.149   3.193   5.632
 7294TIP3   OH221824   1.822   3.435   5.865
 7294TIP3    H121825   1.742   3.475   5.899
 7294TIP3    H221826   1.792   3.361   5.813
 7295TIP3   OH221827   1.459   3.064   4.458
 7295TIP3    H121828   1.495   2.994   4.404
 7295TIP3    H221829   1.523   3.135   4.453
 7296TIP3   OH221830   8.380   2.901   5.214
 7296TIP3    H121831   8.296   2.917   5.258
 7296TIP3    H221832   8.385   2.968   5.146
 7297TIP3   OH221833   1.054   4.588   4.735
 7297TIP3    H121834   1.087   4.573   4.647
 7297TIP3    H221835   1.075   4.680   4.752
 7298TIP3   OH221836   0.077   2.980   6.046
 7298TIP3    H121837   0.042   2.979   6.135
 7298TIP3    H221838   0.018   3.037   5.997
 7299TIP3   OH221839   0.303   4.474   5.658
 7299TIP3    H121840   0.282   4.546   5.598
 7299TIP3    H221841   0.391   4.447   5.633
 7300TIP3   OH221842   0.748   4.682   5.795
 7300TIP3    H121843   0.786   4.677   5.882
 7300TIP3    H221844   0.812   4.732   5.744
 7301TIP3   OH221845   0.929   4.834   5.654
 7301TIP3    H121846   0.997   4.776   5.620
 7301TIP3    H221847   0.974   4.892   5.715
 7302TIP3   OH221848   1.721   3.192   5.752
 7302TIP3    H121849   1.631   3.187   5.721
 7302TIP3    H221850   1.755   3.103   5.743
 7303TIP3   OH221851   0.215   4.697   5.510
 7303TIP3    H121852   0.188   4.782   5.545
 7303TIP3    H221853   0.159   4.684   5.433
 7304TIP3   OH221854   0.644   4.701   5.337
 7304TIP3    H121855   0.586   4.718   5.264
 7304TIP3    H221856   0.656   4.786   5.380
 7305TIP3   OH221857   0.911   4.639   5.374
 7305TIP3    H121858   0.817   4.652   5.367
 7305TIP3    H221859   0.949   4.724   5.349
 7306TIP3   OH221860   1.113   4.837   5.295
 7306TIP3    H121861   1.098   4.927   5.265
 7306TIP3    H221862   1.138   4.789   5.216
 7307TIP3   OH221863   0.092   4.359   5.274
 7307TIP3    H121864   0.094   4.271   5.310
 7307TIP3    H221865   0.183   4.389   5.277
 7308TIP3   OH221866   0.370   4.456   5.288
 7308TIP3    H121867   0.388   4.364   5.270
 7308TIP3    H221868   0.415   4.474   5.371
 7309TIP3   OH221869   0.920   3.100   5.358
 7309TIP3    H121870   0.882   3.037   5.420
 7309TIP3    H221871   1.002   3.060   5.330
 7310TIP3   OH221872   1.446   2.987   5.271
 7310TIP3    H121873   1.483   3.041   5.202
 7310TIP3    H221874   1.353   3.010   5.274
 7311TIP3   OH221875   1.546   3.091   5.038
 7311TIP3    H121876   1.617   3.039   5.001
 7311TIP3    H221877   1.575   3.182   5.026
 7312TIP3   OH221878   0.170   2.814   5.388
 7312TIP3    H121879   0.079   2.785   5.386
 7312TIP3    H221880   0.220   2.732   5.383
 7313TIP3   OH221881   8.486   2.685   5.048
 7313TIP3    H121882   8.504   2.738   4.970
 7313TIP3    H221883   8.442   2.745   5.108
 7314TIP3   OH221884   0.621   2.849   5.271
 7314TIP3    H121885   0.674   2.897   5.207
 7314TIP3    H221886   0.645   2.887   5.356
 7315TIP3   OH221887   1.164   2.994   5.254
 7315TIP3    H121888   1.159   2.963   5.164
 7315TIP3    H221889   1.151   2.915   5.307
 7316TIP3   OH221890   1.192   2.921   4.816
 7316TIP3    H121891   1.110   2.967   4.830
 7316TIP3    H221892   1.180   2.836   4.859
 7317TIP3   OH221893   0.084   2.842   4.809
 7317TIP3    H121894   0.127   2.781   4.749
 7317TIP3    H221895   0.156   2.897   4.842
 7318TIP3   OH221896   0.592   3.022   4.901
 7318TIP3    H121897   0.652   2.975   4.959
 7318TIP3    H221898   0.605   3.114   4.923
 7319TIP3   OH221899   0.455   4.442   4.395
 7319TIP3    H121900   0.540   4.468   4.360
 7319TIP3    H221901   0.428   4.369   4.338
 7320TIP3   OH221902   1.167   4.562   4.489
 7320TIP3    H121903   1.163   4.467   4.477
 7320TIP3    H221904   1.125   4.598   4.411
 7321TIP3   OH221905   0.383   3.101   6.272
 7321TIP3    H121906   0.343   3.031   6.324
 7321TIP3    H221907   0.475   3.103   6.301
 7322TIP3   OH221908   0.629   3.095   6.402
 7322TIP3    H121909   0.713   3.077   6.360
 7322TIP3    H221910   0.617   3.022   6.463
 7323TIP3   OH221911   1.459   3.156   6.187
 7323TIP3    H121912   1.474   3.129   6.278
 7323TIP3    H221913   1.546   3.154   6.147
 7324TIP3   OH221914   1.394   4.711   5.675
 7324TIP3    H121915   1.315   4.679   5.632
 7324TIP3    H221916   1.378   4.805   5.687
 7325TIP3   OH221917   1.986   3.986   5.185
 7325TIP3    H121918   1.998   3.904   5.233
 7325TIP3    H221919   2.026   4.052   5.241
 7326TIP3   OH221920   1.938   4.391   4.906
 7326TIP3    H121921   1.923   4.318   4.966
 7326TIP3    H221922   2.032   4.388   4.889
 7327TIP3   OH221923   1.629   3.599   4.699
 7327TIP3    H121924   1.574   3.676   4.711
 7327TIP3    H221925   1.571   3.534   4.659
 7328TIP3   OH221926   1.723   3.886   4.872
 7328TIP3    H121927   1.761   3.807   4.912
 7328TIP3    H221928   1.723   3.867   4.778
 7329TIP3   OH221929   2.565   4.834   4.519
 7329TIP3    H121930   2.606   4.766   4.464
 7329TIP3    H221931   2.562   4.795   4.607
 7330TIP3   OH221932   3.480   3.620   4.870
 7330TIP3    H121933   3.511   3.701   4.910
 7330TIP3    H221934   3.513   3.624   4.780
 7331TIP3   OH221935   2.189   3.470   4.876
 7331TIP3    H121936   2.186   3.533   4.804
 7331TIP3    H221937   2.158   3.388   4.838
 7332TIP3   OH221938   2.910   3.539   4.487
 7332TIP3    H121939   2.973   3.537   4.559
 7332TIP3    H221940   2.946   3.604   4.426
 7333TIP3   OH221941   1.850   3.670   4.976
 7333TIP3    H121942   1.926   3.643   5.028
 7333TIP3    H221943   1.852   3.612   4.900
 7334TIP3   OH221944   3.546   3.837   5.035
 7334TIP3    H121945   3.460   3.875   5.020
 7334TIP3    H221946   3.561   3.849   5.129
 7335TIP3   OH221947   2.204   3.454   5.307
 7335TIP3    H121948   2.145   3.485   5.238
 7335TIP3    H221949   2.154   3.467   5.388
 7336TIP3   OH221950   2.488   4.295   4.327
 7336TIP3    H121951   2.565   4.289   4.270
 7336TIP3    H221952   2.479   4.389   4.344
 7337TIP3   OH221953   2.296   4.223   5.107
 7337TIP3    H121954   2.234   4.284   5.146
 7337TIP3    H221955   2.343   4.275   5.042
 7338TIP3   OH221956   3.110   3.563   4.673
 7338TIP3    H121957   3.103   3.517   4.756
 7338TIP3    H221958   3.155   3.645   4.694
 7339TIP3   OH221959   2.077   3.572   5.095
 7339TIP3    H121960   2.138   3.643   5.115
 7339TIP3    H221961   2.116   3.527   5.021
 7340TIP3   OH221962   2.133   4.427   5.196
 7340TIP3    H121963   2.115   4.515   5.161
 7340TIP3    H221964   2.060   4.410   5.255
 7341TIP3   OH221965   1.530   4.110   4.432
 7341TIP3    H121966   1.492   4.126   4.345
 7341TIP3    H221967   1.555   4.197   4.463
 7342TIP3   OH221968   2.977   4.627   4.694
 7342TIP3    H121969   2.884   4.617   4.715
 7342TIP3    H221970   2.979   4.697   4.628
 7343TIP3   OH221971   3.264   3.534   5.041
 7343TIP3    H121972   3.175   3.543   5.007
 7343TIP3    H221973   3.321   3.559   4.968
 7344TIP3   OH221974   2.560   3.165   5.024
 7344TIP3    H121975   2.547   3.071   5.040
 7344TIP3    H221976   2.485   3.207   5.066
 7345TIP3   OH221977   2.690   4.654   4.336
 7345TIP3    H121978   2.751   4.580   4.329
 7345TIP3    H221979   2.738   4.728   4.299
 7346TIP3   OH221980   3.196   4.539   5.016
 7346TIP3    H121981   3.198   4.473   4.947
 7346TIP3    H221982   3.178   4.621   4.969
 7347TIP3   OH221983   2.471   3.916   4.255
 7347TIP3    H121984   2.417   3.994   4.244
 7347TIP3    H221985   2.539   3.924   4.188
 7348TIP3   OH221986   2.448   3.718   3.987
 7348TIP3    H121987   2.507   3.767   4.045
 7348TIP3    H221988   2.506   3.657   3.941
 7349TIP3   OH221989   3.390   4.175   4.859
 7349TIP3    H121990   3.318   4.238   4.862
 7349TIP3    H221991   3.405   4.160   4.766
 7350TIP3   OH221992   2.823   4.000   4.269
 7350TIP3    H121993   2.811   4.095   4.279
 7350TIP3    H221994   2.845   3.970   4.358
 7351TIP3   OH221995   3.081   4.059   5.168
 7351TIP3    H121996   3.081   4.134   5.226
 7351TIP3    H221997   2.997   4.063   5.122
 7352TIP3   OH221998   2.193   4.375   4.802
 7352TIP3    H121999   2.169   4.386   4.710
 7352TIP3    H222000   2.287   4.394   4.804
 7353TIP3   OH222001   2.721   4.626   4.788
 7353TIP3    H122002   2.716   4.707   4.839
 7353TIP3    H222003   2.717   4.556   4.854
 7354TIP3   OH222004   2.341   4.539   5.342
 7354TIP3    H122005   2.286   4.602   5.388
 7354TIP3    H222006   2.279   4.486   5.292
 7355TIP3   OH222007   2.680   3.876   4.072
 7355TIP3    H122008   2.736   3.927   4.130
 7355TIP3    H222009   2.705   3.902   3.984
 7356TIP3   OH222010   2.086   4.109   5.427
 7356TIP3    H122011   2.102   4.190   5.476
 7356TIP3    H222012   2.003   4.076   5.462
 7357TIP3   OH222013   2.414   4.579   4.362
 7357TIP3    H122014   2.505   4.610   4.356
 7357TIP3    H222015   2.366   4.635   4.302
 7358TIP3   OH222016   2.139   4.706   5.430
 7358TIP3    H122017   2.105   4.711   5.340
 7358TIP3    H222018   2.062   4.687   5.484
 7359TIP3   OH222019   3.194   3.120   4.115
 7359TIP3    H122020   3.118   3.135   4.171
 7359TIP3    H222021   3.205   3.201   4.066
 7360TIP3   OH222022   1.922   3.875   4.502
 7360TIP3    H122023   1.866   3.910   4.433
 7360TIP3    H222024   1.916   3.780   4.493
 7361TIP3   OH222025   3.071   4.480   3.661
 7361TIP3    H122026   3.038   4.555   3.712
 7361TIP3    H222027   3.099   4.519   3.578
 7362TIP3   OH222028   1.723   4.229   5.377
 7362TIP3    H122029   1.658   4.190   5.319
 7362TIP3    H222030   1.766   4.154   5.418
 7363TIP3   OH222031   3.438   4.888   5.070
 7363TIP3    H122032   3.437   4.792   5.077
 7363TIP3    H222033   3.355   4.915   5.109
 7364TIP3   OH222034   2.541   4.670   5.203
 7364TIP3    H122035   2.538   4.762   5.230
 7364TIP3    H222036   2.471   4.628   5.253
 7365TIP3   OH222037   2.306   4.795   4.154
 7365TIP3    H122038   2.264   4.776   4.071
 7365TIP3    H222039   2.276   4.883   4.176
 7366TIP3   OH222040   1.740   4.647   4.535
 7366TIP3    H122041   1.788   4.641   4.617
 7366TIP3    H222042   1.688   4.567   4.531
 7367TIP3   OH222043   2.506   4.704   3.792
 7367TIP3    H122044   2.562   4.636   3.756
 7367TIP3    H222045   2.537   4.715   3.882
 7368TIP3   OH222046   2.557   4.747   4.061
 7368TIP3    H122047   2.471   4.756   4.102
 7368TIP3    H222048   2.615   4.718   4.132
 7369TIP3   OH222049   3.321   4.009   5.338
 7369TIP3    H122050   3.242   4.014   5.284
 7369TIP3    H222051   3.347   3.917   5.335
 7370TIP3   OH222052   1.923   4.420   5.365
 7370TIP3    H122053   1.973   4.408   5.446
 7370TIP3    H222054   1.850   4.359   5.373
 7371TIP3   OH222055   2.319   3.245   5.151
 7371TIP3    H122056   2.234   3.214   5.122
 7371TIP3    H222057   2.301   3.328   5.195
 7372TIP3   OH222058   2.857   3.365   5.343
 7372TIP3    H122059   2.926   3.336   5.402
 7372TIP3    H222060   2.776   3.342   5.388
 7373TIP3   OH222061   3.099   3.792   5.271
 7373TIP3    H122062   3.049   3.784   5.352
 7373TIP3    H222063   3.067   3.873   5.231
 7374TIP3   OH222064   2.759   3.933   3.817
 7374TIP3    H122065   2.716   3.898   3.739
 7374TIP3    H222066   2.848   3.953   3.789
 7375TIP3   OH222067   2.464   3.293   4.122
 7375TIP3    H122068   2.435   3.290   4.213
 7375TIP3    H222069   2.430   3.212   4.083
 7376TIP3   OH222070   2.243   3.786   5.162
 7376TIP3    H122071   2.201   3.775   5.247
 7376TIP3    H222072   2.258   3.881   5.155
 7377TIP3   OH222073   2.119   3.625   4.665
 7377TIP3    H122074   2.033   3.591   4.690
 7377TIP3    H222075   2.137   3.586   4.580
 7378TIP3   OH222076   2.610   3.719   4.390
 7378TIP3    H122077   2.569   3.799   4.357
 7378TIP3    H222078   2.682   3.702   4.330
 7379TIP3   OH222079   2.808   4.013   5.499
 7379TIP3    H122080   2.778   3.939   5.552
 7379TIP3    H222081   2.902   4.018   5.517
 7380TIP3   OH222082   2.070   3.785   5.377
 7380TIP3    H122083   2.106   3.842   5.445
 7380TIP3    H222084   2.054   3.702   5.422
 7381TIP3   OH222085   2.124   3.270   4.087
 7381TIP3    H122086   2.115   3.265   4.182
 7381TIP3    H222087   2.047   3.319   4.058
 7382TIP3   OH222088   1.669   3.316   4.954
 7382TIP3    H122089   1.744   3.343   5.006
 7382TIP3    H222090   1.706   3.275   4.876
 7383TIP3   OH222091   1.634   3.296   4.477
 7383TIP3    H122092   1.679   3.327   4.399
 7383TIP3    H222093   1.570   3.364   4.498
 7384TIP3   OH222094   1.888   3.514   4.755
 7384TIP3    H122095   1.798   3.523   4.724
 7384TIP3    H222096   1.912   3.424   4.732
 7385TIP3   OH222097   2.165   3.514   4.426
 7385TIP3    H122098   2.258   3.529   4.409
 7385TIP3    H222099   2.122   3.541   4.345
 7386TIP3   OH222100   2.983   3.531   4.959
 7386TIP3    H122101   2.931   3.562   5.033
 7386TIP3    H222102   2.920   3.494   4.898
 7387TIP3   OH222103   2.008   3.568   4.209
 7387TIP3    H122104   1.943   3.514   4.164
 7387TIP3    H222105   2.064   3.602   4.139
 7388TIP3   OH222106   3.132   5.232   5.166
 7388TIP3    H122107   3.127   5.251   5.073
 7388TIP3    H222108   3.211   5.276   5.196
 7389TIP3   OH222109   2.087   4.347   5.586
 7389TIP3    H122110   2.167   4.375   5.631
 7389TIP3    H222111   2.021   4.341   5.655
 7390TIP3   OH222112   2.068   3.281   4.719
 7390TIP3    H122113   2.034   3.205   4.768
 7390TIP3    H222114   2.118   3.243   4.647
 7391TIP3   OH222115   2.517   3.683   5.155
 7391TIP3    H122116   2.436   3.732   5.143
 7391TIP3    H222117   2.581   3.749   5.183
 7392TIP3   OH222118   2.246   4.103   4.224
 7392TIP3    H122119   2.190   4.026   4.217
 7392TIP3    H222120   2.260   4.113   4.318
 7393TIP3   OH222121   3.179   4.342   4.823
 7393TIP3    H122122   3.193   4.337   4.729
 7393TIP3    H222123   3.089   4.313   4.836
 7394TIP3   OH222124   2.717   3.398   4.085
 7394TIP3    H122125   2.624   3.381   4.098
 7394TIP3    H222126   2.729   3.488   4.114
 7395TIP3   OH222127   2.655   4.401   5.228
 7395TIP3    H122128   2.677   4.376   5.318
 7395TIP3    H222129   2.621   4.490   5.235
 7396TIP3   OH222130   2.791   3.644   4.187
 7396TIP3    H122131   2.885   3.646   4.205
 7396TIP3    H222132   2.774   3.725   4.139
 7397TIP3   OH222133   2.404   4.237   4.039
 7397TIP3    H122134   2.367   4.325   4.050
 7397TIP3    H222135   2.364   4.185   4.109
 7398TIP3   OH222136   1.837   4.026   5.519
 7398TIP3    H122137   1.857   4.013   5.611
 7398TIP3    H222138   1.768   3.963   5.500
 7399TIP3   OH222139   2.568   4.146   5.530
 7399TIP3    H122140   2.506   4.089   5.484
 7399TIP3    H222141   2.654   4.110   5.508
 7400TIP3   OH222142   2.823   4.650   5.145
 7400TIP3    H122143   2.728   4.648   5.128
 7400TIP3    H222144   2.837   4.733   5.190
 7401TIP3   OH222145   3.229   3.717   4.011
 7401TIP3    H122146   3.161   3.682   3.954
 7401TIP3    H222147   3.256   3.799   3.969
 7402TIP3   OH222148   3.445   4.593   5.104
 7402TIP3    H122149   3.350   4.589   5.095
 7402TIP3    H222150   3.479   4.568   5.018
 7403TIP3   OH222151   2.940   4.546   3.953
 7403TIP3    H122152   2.939   4.535   4.048
 7403TIP3    H222153   2.876   4.483   3.920
 7404TIP3   OH222154   2.058   4.422   4.537
 7404TIP3    H122155   2.073   4.495   4.477
 7404TIP3    H222156   1.964   4.405   4.531
 7405TIP3   OH222157   1.624   3.718   4.237
 7405TIP3    H122158   1.669   3.800   4.255
 7405TIP3    H222159   1.545   3.721   4.291
 7406TIP3   OH222160   2.180   4.161   4.514
 7406TIP3    H122161   2.204   4.251   4.491
 7406TIP3    H222162   2.089   4.152   4.484
 7407TIP3   OH222163   2.328   4.753   4.988
 7407TIP3    H122164   2.363   4.827   4.938
 7407TIP3    H222165   2.403   4.721   5.038
 7408TIP3   OH222166   1.977   4.654   4.383
 7408TIP3    H122167   1.890   4.664   4.423
 7408TIP3    H222168   2.013   4.743   4.381
 7409TIP3   OH222169   2.726   4.411   4.966
 7409TIP3    H122170   2.701   4.408   5.058
 7409TIP3    H222171   2.777   4.331   4.953
 7410TIP3   OH222172   2.682   4.283   3.842
 7410TIP3    H122173   2.710   4.268   3.932
 7410TIP3    H222174   2.591   4.254   3.840
 7411TIP3   OH222175   2.951   4.928   4.997
 7411TIP3    H122176   2.870   4.881   4.977
 7411TIP3    H222177   2.956   4.997   4.931
 7412TIP3   OH222178   3.020   4.754   3.659
 7412TIP3    H122179   3.063   4.821   3.605
 7412TIP3    H222180   2.942   4.797   3.692
 7413TIP3   OH222181   2.042   3.536   5.519
 7413TIP3    H122182   1.947   3.541   5.533
 7413TIP3    H222183   2.074   3.481   5.591
 7414TIP3   OH222184   1.767   4.625   5.154
 7414TIP3    H122185   1.815   4.550   5.189
 7414TIP3    H222186   1.790   4.698   5.211
 7415TIP3   OH222187   2.055   4.261   3.840
 7415TIP3    H122188   2.063   4.171   3.806
 7415TIP3    H222189   2.031   4.249   3.932
 7416TIP3   OH222190   1.999   4.269   4.116
 7416TIP3    H122191   2.085   4.240   4.147
 7416TIP3    H222192   2.005   4.365   4.119
 7417TIP3   OH222193   1.736   3.965   4.314
 7417TIP3    H122194   1.666   4.006   4.366
 7417TIP3    H222195   1.751   4.027   4.242
 7418TIP3   OH222196   2.876   3.613   5.215
 7418TIP3    H122197   2.967   3.635   5.236
 7418TIP3    H222198   2.861   3.528   5.257
 7419TIP3   OH222199   2.759   3.345   4.369
 7419TIP3    H122200   2.751   3.369   4.276
 7419TIP3    H222201   2.807   3.418   4.408
 7420TIP3   OH222202   2.265   4.471   4.059
 7420TIP3    H122203   2.179   4.494   4.095
 7420TIP3    H222204   2.281   4.537   3.993
 7421TIP3   OH222205   2.443   3.525   4.453
 7421TIP3    H122206   2.499   3.593   4.414
 7421TIP3    H222207   2.477   3.512   4.541
 7422TIP3   OH222208   2.715   3.847   5.268
 7422TIP3    H122209   2.746   3.891   5.347
 7422TIP3    H222210   2.768   3.768   5.263
 7423TIP3   OH222211   2.601   3.261   4.579
 7423TIP3    H122212   2.641   3.300   4.656
 7423TIP3    H222213   2.654   3.293   4.505
 7424TIP3   OH222214   2.008   4.544   4.126
 7424TIP3    H122215   1.981   4.609   4.061
 7424TIP3    H222216   1.995   4.587   4.211
 7425TIP3   OH222217   2.110   3.253   4.363
 7425TIP3    H122218   2.106   3.343   4.397
 7425TIP3    H222219   2.202   3.229   4.368
 7426TIP3   OH222220   3.362   3.746   5.252
 7426TIP3    H122221   3.267   3.750   5.267
 7426TIP3    H222222   3.371   3.687   5.177
 7427TIP3   OH222223   1.731   4.169   4.117
 7427TIP3    H122224   1.799   4.236   4.125
 7427TIP3    H222225   1.766   4.108   4.051
 7428TIP3   OH222226   1.666   3.446   4.254
 7428TIP3    H122227   1.671   3.541   4.251
 7428TIP3    H222228   1.595   3.423   4.194
 7429TIP3   OH222229   2.984   4.901   4.596
 7429TIP3    H122230   2.940   4.939   4.521
 7429TIP3    H222231   3.077   4.916   4.581
 7430TIP3   OH222232   2.055   3.165   5.123
 7430TIP3    H122233   2.027   3.134   5.037
 7430TIP3    H222234   2.047   3.089   5.180
 7431TIP3   OH222235   1.592   4.401   4.513
 7431TIP3    H122236   1.503   4.423   4.540
 7431TIP3    H222237   1.596   4.425   4.420
 7432TIP3   OH222238   1.759   4.931   5.576
 7432TIP3    H122239   1.842   4.935   5.624
 7432TIP3    H222240   1.737   4.838   5.574
 7433TIP3   OH222241   2.232   4.888   5.620
 7433TIP3    H122242   2.326   4.873   5.631
 7433TIP3    H222243   2.207   4.829   5.548
 7434TIP3   OH222244   2.217   4.463   3.750
 7434TIP3    H122245   2.160   4.397   3.788
 7434TIP3    H222246   2.289   4.414   3.711
 7435TIP3   OH222247   2.649   4.507   3.667
 7435TIP3    H122248   2.686   4.435   3.717
 7435TIP3    H222249   2.695   4.505   3.583
 7436TIP3   OH222250   1.886   4.335   5.774
 7436TIP3    H122251   1.902   4.242   5.789
 7436TIP3    H222252   1.799   4.338   5.733
 7437TIP3   OH222253   1.868   3.983   3.975
 7437TIP3    H122254   1.924   3.950   4.046
 7437TIP3    H222255   1.926   3.989   3.900
 7438TIP3   OH222256   2.496   4.421   5.546
 7438TIP3    H122257   2.449   4.436   5.464
 7438TIP3    H222258   2.524   4.329   5.541
 7439TIP3   OH222259   2.389   4.181   3.776
 7439TIP3    H122260   2.379   4.198   3.870
 7439TIP3    H222261   2.383   4.086   3.768
 7440TIP3   OH222262   2.985   4.424   5.149
 7440TIP3    H122263   3.060   4.467   5.107
 7440TIP3    H222264   2.915   4.489   5.144
 7441TIP3   OH222265   2.012   4.070   5.756
 7441TIP3    H122266   2.076   3.999   5.743
 7441TIP3    H222267   2.032   4.104   5.843
 7442TIP3   OH222268   2.076   3.883   4.194
 7442TIP3    H122269   2.044   3.828   4.266
 7442TIP3    H222270   2.115   3.821   4.132
 7443TIP3   OH222271   2.325   3.949   5.417
 7443TIP3    H122272   2.254   4.013   5.422
 7443TIP3    H222273   2.384   3.984   5.351
 7444TIP3   OH222274   2.174   3.687   4.027
 7444TIP3    H122275   2.146   3.689   3.935
 7444TIP3    H222276   2.269   3.689   4.023
 7445TIP3   OH222277   2.869   4.355   5.552
 7445TIP3    H122278   2.927   4.302   5.497
 7445TIP3    H222279   2.843   4.297   5.623
 7446TIP3   OH222280   2.993   4.011   3.695
 7446TIP3    H122281   2.987   3.951   3.620
 7446TIP3    H222282   2.945   4.089   3.667
 7447TIP3   OH222283   2.462   3.741   5.543
 7447TIP3    H122284   2.464   3.659   5.493
 7447TIP3    H222285   2.416   3.802   5.486
 7448TIP3   OH222286   2.462   3.523   5.364
 7448TIP3    H122287   2.494   3.566   5.284
 7448TIP3    H222288   2.372   3.498   5.343
 7449TIP3   OH222289   2.479   4.061   5.233
 7449TIP3    H122290   2.558   4.043   5.182
 7449TIP3    H222291   2.428   4.120   5.178
 7450TIP3   OH222292   3.079   4.028   5.605
 7450TIP3    H122293   3.102   3.937   5.624
 7450TIP3    H222294   3.157   4.064   5.564
 7451TIP3   OH222295   3.114   4.286   5.341
 7451TIP3    H122296   3.058   4.334   5.280
 7451TIP3    H222297   3.203   4.298   5.307
 7452TIP3   OH222298   2.338   3.849   5.772
 7452TIP3    H122299   2.271   3.784   5.792
 7452TIP3    H222300   2.375   3.821   5.689
 7453TIP3   OH222301   2.597   3.288   5.422
 7453TIP3    H122302   2.550   3.370   5.403
 7453TIP3    H222303   2.531   3.220   5.411
 7454TIP3   OH222304   2.716   3.798   5.638
 7454TIP3    H122305   2.708   3.782   5.732
 7454TIP3    H222306   2.632   3.772   5.602
 7455TIP3   OH222307   2.965   3.756   5.502
 7455TIP3    H122308   2.888   3.744   5.556
 7455TIP3    H222309   3.036   3.716   5.552
 7456TIP3   OH222310   3.193   3.685   5.643
 7456TIP3    H122311   3.207   3.591   5.657
 7456TIP3    H222312   3.190   3.722   5.732
 7457TIP3   OH222313   2.183   3.629   5.828
 7457TIP3    H122314   2.183   3.539   5.795
 7457TIP3    H222315   2.221   3.622   5.916
 7458TIP3   OH222316   2.692   3.299   5.679
 7458TIP3    H122317   2.758   3.230   5.677
 7458TIP3    H222318   2.651   3.296   5.592
 7459TIP3   OH222319   2.757   3.517   5.835
 7459TIP3    H122320   2.738   3.444   5.775
 7459TIP3    H222321   2.679   3.572   5.831
 7460TIP3   OH222322   1.981   4.745   3.937
 7460TIP3    H122323   2.075   4.738   3.921
 7460TIP3    H222324   1.947   4.794   3.862
 7461TIP3   OH222325   1.460   4.119   4.159
 7461TIP3    H122326   1.551   4.143   4.139
 7461TIP3    H222327   1.448   4.035   4.114
 7462TIP3   OH222328   1.370   4.735   4.573
 7462TIP3    H122329   1.308   4.676   4.528
 7462TIP3    H222330   1.409   4.680   4.641
 7463TIP3   OH222331   1.497   4.589   4.765
 7463TIP3    H122332   1.553   4.512   4.761
 7463TIP3    H222333   1.543   4.650   4.823
 7464TIP3   OH222334   3.238   4.984   4.561
 7464TIP3    H122335   3.260   5.037   4.637
 7464TIP3    H222336   3.274   5.032   4.487
 7465TIP3   OH222337   3.261   5.013   4.845
 7465TIP3    H122338   3.224   4.926   4.831
 7465TIP3    H222339   3.343   4.998   4.890
 7466TIP3   OH222340   3.140   4.759   4.867
 7466TIP3    H122341   3.072   4.811   4.909
 7466TIP3    H222342   3.096   4.714   4.795
 7467TIP3   OH222343   3.189   4.022   3.882
 7467TIP3    H122344   3.121   4.003   3.817
 7467TIP3    H222345   3.146   4.009   3.966
 7468TIP3   OH222346   3.050   3.653   3.816
 7468TIP3    H122347   3.008   3.670   3.732
 7468TIP3    H222348   3.038   3.558   3.830
 7469TIP3   OH222349   1.708   4.015   5.117
 7469TIP3    H122350   1.702   3.973   5.030
 7469TIP3    H222351   1.801   4.009   5.139
 7470TIP3   OH222352   3.360   4.348   5.236
 7470TIP3    H122353   3.427   4.280   5.234
 7470TIP3    H222354   3.387   4.410   5.168
 7471TIP3   OH222355   3.539   4.149   5.260
 7471TIP3    H122356   3.464   4.097   5.290
 7471TIP3    H222357   3.614   4.091   5.270
 7472TIP3   OH222358   3.008   3.387   3.821
 7472TIP3    H122359   3.085   3.355   3.868
 7472TIP3    H222360   2.938   3.325   3.843
 7473TIP3   OH222361   3.062   3.631   4.253
 7473TIP3    H122362   3.096   3.546   4.281
 7473TIP3    H222363   3.130   3.666   4.195
 7474TIP3   OH222364   3.232   3.794   4.774
 7474TIP3    H122365   3.291   3.837   4.712
 7474TIP3    H222366   3.248   3.840   4.857
 7475TIP3   OH222367   3.297   3.958   4.997
 7475TIP3    H122368   3.224   3.988   5.051
 7475TIP3    H222369   3.332   4.038   4.957
 7476TIP3   OH222370   1.920   3.689   5.807
 7476TIP3    H122371   2.015   3.681   5.808
 7476TIP3    H222372   1.889   3.604   5.838
 7477TIP3   OH222373   3.748   3.550   5.552
 7477TIP3    H122374   3.806   3.484   5.514
 7477TIP3    H222375   3.720   3.603   5.478
 7478TIP3   OH222376   3.176   3.386   4.312
 7478TIP3    H122377   3.221   3.372   4.395
 7478TIP3    H222378   3.113   3.314   4.306
 7479TIP3   OH222379   1.876   3.376   5.131
 7479TIP3    H122380   1.931   3.298   5.140
 7479TIP3    H222381   1.938   3.448   5.126
 7480TIP3   OH222382   1.673   3.655   5.198
 7480TIP3    H122383   1.719   3.641   5.115
 7480TIP3    H222384   1.730   3.716   5.246
 7481TIP3   OH222385   3.614   3.685   5.356
 7481TIP3    H122386   3.528   3.725   5.370
 7481TIP3    H222387   3.596   3.609   5.301
 7482TIP3   OH222388   3.255   3.326   3.937
 7482TIP3    H122389   3.297   3.249   3.898
 7482TIP3    H222390   3.325   3.391   3.942
 7483TIP3   OH222391   1.658   3.156   4.709
 7483TIP3    H122392   1.567   3.147   4.735
 7483TIP3    H222393   1.656   3.210   4.630
 7484TIP3   OH222394   2.810   4.858   4.207
 7484TIP3    H122395   2.869   4.846   4.132
 7484TIP3    H222396   2.855   4.922   4.262
 7485TIP3   OH222397   1.879   3.232   5.519
 7485TIP3    H122398   1.832   3.225   5.603
 7485TIP3    H222399   1.814   3.269   5.459
 7486TIP3   OH222400   1.918   4.659   5.595
 7486TIP3    H122401   1.827   4.635   5.579
 7486TIP3    H222402   1.932   4.640   5.688
 7487TIP3   OH222403   2.103   4.696   5.140
 7487TIP3    H122404   2.049   4.768   5.106
 7487TIP3    H222405   2.188   4.708   5.097
 7488TIP3   OH222406   2.543   4.935   5.282
 7488TIP3    H122407   2.583   4.934   5.369
 7488TIP3    H222408   2.603   4.988   5.229
 7489TIP3   OH222409   2.724   5.088   5.146
 7489TIP3    H122410   2.789   5.052   5.085
 7489TIP3    H222411   2.775   5.146   5.203
 7490TIP3   OH222412   3.513   3.444   5.242
 7490TIP3    H122413   3.425   3.434   5.205
 7490TIP3    H222414   3.553   3.357   5.233
 7491TIP3   OH222415   1.773   4.952   5.171
 7491TIP3    H122416   1.685   4.980   5.145
 7491TIP3    H222417   1.790   4.997   5.253
 7492TIP3   OH222418   2.008   4.927   5.025
 7492TIP3    H122419   1.924   4.939   5.070
 7492TIP3    H222420   1.993   4.960   4.937
 7493TIP3   OH222421   2.434   4.955   4.826
 7493TIP3    H122422   2.370   4.973   4.757
 7493TIP3    H222423   2.451   5.040   4.866
 7494TIP3   OH222424   2.706   4.895   4.877
 7494TIP3    H122425   2.614   4.911   4.858
 7494TIP3    H222426   2.753   4.962   4.828
 7495TIP3   OH222427   2.904   5.086   4.783
 7495TIP3    H122428   2.897   5.172   4.743
 7495TIP3    H222429   2.936   5.029   4.713
 7496TIP3   OH222430   1.681   4.737   4.915
 7496TIP3    H122431   1.705   4.710   5.004
 7496TIP3    H222432   1.752   4.703   4.860
 7497TIP3   OH222433   1.878   4.618   4.769
 7497TIP3    H122434   1.893   4.536   4.815
 7497TIP3    H222435   1.964   4.660   4.766
 7498TIP3   OH222436   2.141   4.716   4.776
 7498TIP3    H122437   2.190   4.646   4.734
 7498TIP3    H222438   2.188   4.734   4.858
 7499TIP3   OH222439   2.711   3.341   4.824
 7499TIP3    H122440   2.679   3.288   4.896
 7499TIP3    H222441   2.801   3.311   4.809
 7500TIP3   OH222442   3.242   3.258   4.770
 7500TIP3    H122443   3.280   3.302   4.694
 7500TIP3    H222444   3.148   3.270   4.760
 7501TIP3   OH222445   3.345   3.344   4.528
 7501TIP3    H122446   3.414   3.290   4.488
 7501TIP3    H222447   3.375   3.434   4.515
 7502TIP3   OH222448   1.969   3.070   4.875
 7502TIP3    H122449   1.878   3.040   4.877
 7502TIP3    H222450   2.021   2.990   4.871
 7503TIP3   OH222451   1.760   2.946   4.525
 7503TIP3    H122452   1.789   2.999   4.451
 7503TIP3    H222453   1.732   3.010   4.591
 7504TIP3   OH222454   2.417   3.110   4.757
 7504TIP3    H122455   2.471   3.155   4.692
 7504TIP3    H222456   2.447   3.144   4.841
 7505TIP3   OH222457   2.961   3.249   4.742
 7505TIP3    H122458   2.970   3.217   4.653
 7505TIP3    H222459   2.949   3.170   4.795
 7506TIP3   OH222460   2.989   3.178   4.301
 7506TIP3    H122461   2.905   3.220   4.314
 7506TIP3    H222462   2.981   3.093   4.344
 7507TIP3   OH222463   1.466   4.521   4.304
 7507TIP3    H122464   1.384   4.484   4.271
 7507TIP3    H222465   1.465   4.612   4.275
 7508TIP3   OH222466   1.878   3.100   4.287
 7508TIP3    H122467   1.922   3.038   4.229
 7508TIP3    H222468   1.949   3.154   4.322
 7509TIP3   OH222469   2.385   3.270   4.387
 7509TIP3    H122470   2.446   3.225   4.445
 7509TIP3    H222471   2.401   3.363   4.402
 7510TIP3   OH222472   2.248   4.699   3.885
 7510TIP3    H122473   2.332   4.728   3.851
 7510TIP3    H222474   2.221   4.627   3.828
 7511TIP3   OH222475   2.966   4.824   3.979
 7511TIP3    H122476   2.966   4.729   3.968
 7511TIP3    H222477   2.921   4.857   3.902
 7512TIP3   OH222478   2.179   3.355   5.768
 7512TIP3    H122479   2.141   3.285   5.821
 7512TIP3    H222480   2.272   3.356   5.793
 7513TIP3   OH222481   2.429   3.349   5.887
 7513TIP3    H122482   2.512   3.323   5.846
 7513TIP3    H222483   2.411   3.281   5.951
 7514TIP3   OH222484   1.552   4.534   3.941
 7514TIP3    H122485   1.560   4.565   4.031
 7514TIP3    H222486   1.636   4.492   3.922
 7515TIP3   OH222487   3.256   3.415   5.673
 7515TIP3    H122488   3.272   3.384   5.762
 7515TIP3    H222489   3.342   3.410   5.630
 7516TIP3   OH222490   3.185   4.956   5.156
 7516TIP3    H122491   3.107   4.935   5.106
 7516TIP3    H222492   3.175   5.049   5.179
 7517TIP3   OH222493   4.353   5.100   4.011
 7517TIP3    H122494   4.396   5.029   3.964
 7517TIP3    H222495   4.348   5.069   4.101
 7518TIP3   OH222496   5.277   3.883   4.359
 7518TIP3    H122497   5.300   3.967   4.399
 7518TIP3    H222498   5.310   3.889   4.269
 7519TIP3   OH222499   4.002   3.728   4.358
 7519TIP3    H122500   3.990   3.801   4.297
 7519TIP3    H222501   3.958   3.654   4.315
 7520TIP3   OH222502   4.692   3.805   3.974
 7520TIP3    H122503   4.743   3.774   4.049
 7520TIP3    H222504   4.749   3.868   3.930
 7521TIP3   OH222505   5.337   4.100   4.530
 7521TIP3    H122506   5.256   4.150   4.516
 7521TIP3    H222507   5.363   4.122   4.620
 7522TIP3   OH222508   4.001   3.708   4.795
 7522TIP3    H122509   3.949   3.743   4.722
 7522TIP3    H222510   3.948   3.727   4.873
 7523TIP3   OH222511   4.374   4.587   3.777
 7523TIP3    H122512   4.316   4.521   3.740
 7523TIP3    H222513   4.315   4.655   3.810
 7524TIP3   OH222514   4.926   3.829   4.231
 7524TIP3    H122515   4.917   3.738   4.203
 7524TIP3    H222516   4.986   3.868   4.167
 7525TIP3   OH222517   3.876   3.818   4.581
 7525TIP3    H122518   3.927   3.897   4.598
 7525TIP3    H222519   3.915   3.780   4.502
 7526TIP3   OH222520   3.941   4.675   4.700
 7526TIP3    H122521   3.920   4.739   4.631
 7526TIP3    H222522   3.861   4.670   4.753
 7527TIP3   OH222523   4.777   4.896   4.170
 7527TIP3    H122524   4.688   4.878   4.201
 7527TIP3    H222525   4.769   4.979   4.122
 7528TIP3   OH222526   5.066   3.794   4.521
 7528TIP3    H122527   4.986   3.788   4.468
 7528TIP3    H222528   5.134   3.817   4.457
 7529TIP3   OH222529   4.355   3.419   4.515
 7529TIP3    H122530   4.341   3.325   4.529
 7529TIP3    H222531   4.279   3.460   4.556
 7530TIP3   OH222532   4.472   4.928   3.824
 7530TIP3    H122533   4.522   4.848   3.805
 7530TIP3    H222534   4.527   4.999   3.791
 7531TIP3   OH222535   4.617   4.708   3.740
 7531TIP3    H122536   4.543   4.658   3.706
 7531TIP3    H222537   4.635   4.670   3.825
 7532TIP3   OH222538   5.010   4.799   4.494
 7532TIP3    H122539   4.977   4.733   4.434
 7532TIP3    H222540   4.985   4.883   4.454
 7533TIP3   OH222541   4.292   4.195   3.752
 7533TIP3    H122542   4.211   4.244   3.734
 7533TIP3    H222543   4.335   4.188   3.667
 7534TIP3   OH222544   4.247   3.979   3.473
 7534TIP3    H122545   4.311   4.022   3.530
 7534TIP3    H222546   4.299   3.914   3.425
 7535TIP3   OH222547   4.622   4.284   3.754
 7535TIP3    H122548   4.553   4.309   3.815
 7535TIP3    H222549   4.680   4.228   3.806
 7536TIP3   OH222550   4.527   4.889   4.271
 7536TIP3    H122551   4.520   4.968   4.323
 7536TIP3    H222552   4.506   4.818   4.332
 7537TIP3   OH222553   4.143   4.796   4.833
 7537TIP3    H122554   4.085   4.860   4.875
 7537TIP3    H222555   4.084   4.740   4.782
 7538TIP3   OH222556   4.483   4.135   3.557
 7538TIP3    H122557   4.535   4.196   3.608
 7538TIP3    H222558   4.504   4.155   3.466
 7539TIP3   OH222559   3.895   4.353   4.937
 7539TIP3    H122560   3.902   4.442   4.974
 7539TIP3    H222561   3.803   4.331   4.945
 7540TIP3   OH222562   4.217   4.812   3.839
 7540TIP3    H122563   4.298   4.862   3.849
 7540TIP3    H222564   4.158   4.872   3.794
 7541TIP3   OH222565   3.935   4.963   4.914
 7541TIP3    H122566   3.905   4.964   4.823
 7541TIP3    H222567   3.857   4.941   4.965
 7542TIP3   OH222568   4.986   3.372   3.608
 7542TIP3    H122569   4.906   3.386   3.658
 7542TIP3    H222570   5.002   3.455   3.564
 7543TIP3   OH222571   3.744   4.110   3.913
 7543TIP3    H122572   3.657   4.134   3.881
 7543TIP3    H222573   3.727   4.047   3.984
 7544TIP3   OH222574   4.795   4.741   3.156
 7544TIP3    H122575   4.801   4.835   3.140
 7544TIP3    H222576   4.884   4.709   3.144
 7545TIP3   OH222577   3.515   4.494   4.865
 7545TIP3    H122578   3.472   4.469   4.783
 7545TIP3    H222579   3.552   4.412   4.899
 7546TIP3   OH222580   3.363   4.709   4.493
 7546TIP3    H122581   3.457   4.696   4.501
 7546TIP3    H222582   3.344   4.784   4.548
 7547TIP3   OH222583   5.233   5.143   4.555
 7547TIP3    H122584   5.234   5.048   4.566
 7547TIP3    H222585   5.152   5.171   4.597
 7548TIP3   OH222586   4.340   4.923   4.690
 7548TIP3    H122587   4.341   5.015   4.717
 7548TIP3    H222588   4.271   4.883   4.742
 7549TIP3   OH222589   4.103   5.057   3.637
 7549TIP3    H122590   4.054   5.038   3.558
 7549TIP3    H222591   4.069   5.141   3.667
 7550TIP3   OH222592   3.542   4.909   4.022
 7550TIP3    H122593   3.582   4.906   4.108
 7550TIP3    H222594   3.490   4.828   4.016
 7551TIP3   OH222595   4.304   4.958   3.276
 7551TIP3    H122596   4.359   4.888   3.240
 7551TIP3    H222597   4.334   4.968   3.366
 7552TIP3   OH222598   4.353   5.006   3.547
 7552TIP3    H122599   4.265   5.017   3.584
 7552TIP3    H222600   4.405   4.968   3.618
 7553TIP3   OH222601   5.129   4.271   4.839
 7553TIP3    H122602   5.049   4.297   4.792
 7553TIP3    H222603   5.139   4.178   4.821
 7554TIP3   OH222604   3.715   4.683   4.852
 7554TIP3    H122605   3.768   4.670   4.931
 7554TIP3    H222606   3.644   4.619   4.860
 7555TIP3   OH222607   4.114   3.501   4.637
 7555TIP3    H122608   4.029   3.468   4.607
 7555TIP3    H222609   4.094   3.582   4.682
 7556TIP3   OH222610   4.656   3.602   4.826
 7556TIP3    H122611   4.720   3.591   4.896
 7556TIP3    H222612   4.571   3.599   4.871
 7557TIP3   OH222613   4.553   4.179   3.300
 7557TIP3    H122614   4.516   4.151   3.216
 7557TIP3    H222615   4.637   4.220   3.277
 7558TIP3   OH222616   4.263   3.550   3.609
 7558TIP3    H122617   4.237   3.552   3.701
 7558TIP3    H222618   4.227   3.468   3.575
 7559TIP3   OH222619   4.048   4.030   4.639
 7559TIP3    H122620   3.993   4.054   4.713
 7559TIP3    H222621   4.046   4.107   4.581
 7560TIP3   OH222622   3.930   3.900   4.163
 7560TIP3    H122623   3.839   3.879   4.182
 7560TIP3    H222624   3.948   3.859   4.079
 7561TIP3   OH222625   4.410   3.986   3.887
 7561TIP3    H122626   4.369   4.062   3.846
 7561TIP3    H222627   4.473   3.954   3.823
 7562TIP3   OH222628   4.600   4.285   5.006
 7562TIP3    H122629   4.571   4.201   5.041
 7562TIP3    H222630   4.695   4.276   4.996
 7563TIP3   OH222631   3.871   4.041   4.861
 7563TIP3    H122632   3.909   4.105   4.922
 7563TIP3    H222633   3.866   3.960   4.912
 7564TIP3   OH222634   3.918   3.526   3.574
 7564TIP3    H122635   3.916   3.522   3.669
 7564TIP3    H222636   3.840   3.577   3.550
 7565TIP3   OH222637   3.464   3.577   4.447
 7565TIP3    H122638   3.544   3.596   4.496
 7565TIP3    H222639   3.494   3.533   4.368
 7566TIP3   OH222640   3.439   3.542   3.968
 7566TIP3    H122641   3.483   3.579   3.891
 7566TIP3    H222642   3.373   3.607   3.991
 7567TIP3   OH222643   4.257   3.749   4.231
 7567TIP3    H122644   4.184   3.737   4.291
 7567TIP3    H222645   4.332   3.711   4.276
 7568TIP3   OH222646   3.695   3.766   4.205
 7568TIP3    H122647   3.609   3.736   4.232
 7568TIP3    H222648   3.748   3.686   4.201
 7569TIP3   OH222649   3.961   3.772   3.924
 7569TIP3    H122650   4.054   3.791   3.912
 7569TIP3    H222651   3.920   3.803   3.844
 7570TIP3   OH222652   3.805   3.817   3.697
 7570TIP3    H122653   3.737   3.769   3.650
 7570TIP3    H222654   3.860   3.853   3.627
 7571TIP3   OH222655   4.929   5.492   4.652
 7571TIP3    H122656   4.922   5.516   4.560
 7571TIP3    H222657   5.004   5.542   4.684
 7572TIP3   OH222658   3.876   4.604   5.076
 7572TIP3    H122659   3.961   4.631   5.111
 7572TIP3    H222660   3.816   4.607   5.151
 7573TIP3   OH222661   3.861   3.539   4.213
 7573TIP3    H122662   3.837   3.461   4.264
 7573TIP3    H222663   3.916   3.505   4.142
 7574TIP3   OH222664   4.313   3.936   4.644
 7574TIP3    H122665   4.227   3.973   4.625
 7574TIP3    H222666   4.374   4.010   4.635
 7575TIP3   OH222667   4.053   4.349   3.717
 7575TIP3    H122668   3.988   4.281   3.700
 7575TIP3    H222669   4.039   4.372   3.809
 7576TIP3   OH222670   4.505   3.668   3.552
 7576TIP3    H122671   4.418   3.640   3.580
 7576TIP3    H222672   4.520   3.750   3.598
 7577TIP3   OH222673   4.461   4.658   4.712
 7577TIP3    H122674   4.480   4.640   4.804
 7577TIP3    H222675   4.421   4.745   4.712
 7578TIP3   OH222676   4.584   3.901   3.676
 7578TIP3    H122677   4.678   3.902   3.697
 7578TIP3    H222678   4.570   3.981   3.626
 7579TIP3   OH222679   4.195   4.489   3.528
 7579TIP3    H122680   4.157   4.576   3.536
 7579TIP3    H222681   4.146   4.436   3.590
 7580TIP3   OH222682   3.628   4.289   5.006
 7580TIP3    H122683   3.658   4.275   5.096
 7580TIP3    H222684   3.574   4.212   4.987
 7581TIP3   OH222685   4.354   4.402   5.020
 7581TIP3    H122686   4.296   4.340   4.976
 7581TIP3    H222687   4.442   4.370   5.002
 7582TIP3   OH222688   4.613   4.962   4.590
 7582TIP3    H122689   4.524   4.930   4.603
 7582TIP3    H222690   4.642   4.989   4.677
 7583TIP3   OH222691   5.022   3.992   3.502
 7583TIP3    H122692   4.961   3.948   3.443
 7583TIP3    H222693   5.025   4.083   3.471
 7584TIP3   OH222694   5.251   4.852   4.593
 7584TIP3    H122695   5.156   4.847   4.586
 7584TIP3    H222696   5.283   4.823   4.507
 7585TIP3   OH222697   4.727   4.813   3.422
 7585TIP3    H122698   4.700   4.746   3.485
 7585TIP3    H222699   4.740   4.765   3.340
 7586TIP3   OH222700   3.833   4.668   4.017
 7586TIP3    H122701   3.853   4.748   3.968
 7586TIP3    H222702   3.739   4.657   4.009
 7587TIP3   OH222703   3.412   3.978   3.721
 7587TIP3    H122704   3.468   4.054   3.733
 7587TIP3    H222705   3.338   3.992   3.780
 7588TIP3   OH222706   3.983   4.430   3.978
 7588TIP3    H122707   3.955   4.521   3.989
 7588TIP3    H222708   3.903   4.379   3.992
 7589TIP3   OH222709   4.124   5.010   4.477
 7589TIP3    H122710   4.162   5.084   4.430
 7589TIP3    H222711   4.197   4.972   4.525
 7590TIP3   OH222712   3.771   4.909   3.867
 7590TIP3    H122713   3.686   4.916   3.910
 7590TIP3    H222714   3.805   4.999   3.867
 7591TIP3   OH222715   4.490   4.676   4.439
 7591TIP3    H122716   4.477   4.663   4.533
 7591TIP3    H222717   4.523   4.592   4.408
 7592TIP3   OH222718   4.484   4.544   3.325
 7592TIP3    H122719   4.539   4.517   3.399
 7592TIP3    H222720   4.396   4.514   3.349
 7593TIP3   OH222721   4.759   5.182   4.493
 7593TIP3    H122722   4.689   5.116   4.500
 7593TIP3    H222723   4.732   5.237   4.420
 7594TIP3   OH222724   4.822   5.025   3.135
 7594TIP3    H122725   4.873   5.102   3.110
 7594TIP3    H222726   4.741   5.061   3.170
 7595TIP3   OH222727   3.842   3.793   5.012
 7595TIP3    H122728   3.746   3.790   5.015
 7595TIP3    H222729   3.869   3.727   5.075
 7596TIP3   OH222730   4.647   4.463   3.532
 7596TIP3    H122731   4.632   4.411   3.611
 7596TIP3    H222732   4.743   4.465   3.523
 7597TIP3   OH222733   3.570   4.872   4.646
 7597TIP3    H122734   3.621   4.810   4.698
 7597TIP3    H222735   3.593   4.958   4.681
 7598TIP3   OH222736   3.848   4.518   3.324
 7598TIP3    H122737   3.862   4.428   3.295
 7598TIP3    H222738   3.828   4.511   3.417
 7599TIP3   OH222739   3.796   4.527   3.595
 7599TIP3    H122740   3.872   4.496   3.644
 7599TIP3    H222741   3.797   4.622   3.604
 7600TIP3   OH222742   3.515   4.227   3.796
 7600TIP3    H122743   3.503   4.286   3.870
 7600TIP3    H222744   3.520   4.286   3.720
 7601TIP3   OH222745   4.559   3.602   3.855
 7601TIP3    H122746   4.552   3.631   3.764
 7601TIP3    H222747   4.600   3.676   3.900
 7602TIP3   OH222748   4.060   4.726   3.545
 7602TIP3    H122749   3.974   4.747   3.582
 7602TIP3    H222750   4.078   4.798   3.484
 7603TIP3   OH222751   4.239   3.788   3.960
 7603TIP3    H122752   4.303   3.855   3.939
 7603TIP3    H222753   4.246   3.777   4.055
 7604TIP3   OH222754   4.395   3.505   4.058
 7604TIP3    H122755   4.416   3.560   4.134
 7604TIP3    H222756   4.452   3.539   3.989
 7605TIP3   OH222757   3.805   4.801   3.614
 7605TIP3    H122758   3.775   4.867   3.551
 7605TIP3    H222759   3.789   4.840   3.699
 7606TIP3   OH222760   3.910   3.513   3.847
 7606TIP3    H122761   3.903   3.601   3.885
 7606TIP3    H222762   4.003   3.490   3.857
 7607TIP3   OH222763   5.134   4.007   4.745
 7607TIP3    H122764   5.061   3.963   4.787
 7607TIP3    H222765   5.146   3.961   4.662
 7608TIP3   OH222766   3.526   4.423   3.602
 7608TIP3    H122767   3.589   4.494   3.614
 7608TIP3    H222768   3.566   4.366   3.537
 7609TIP3   OH222769   3.461   3.700   3.743
 7609TIP3    H122770   3.465   3.795   3.735
 7609TIP3    H222771   3.389   3.674   3.686
 7610TIP3   OH222772   4.780   5.160   4.078
 7610TIP3    H122773   4.735   5.204   4.006
 7610TIP3    H222774   4.873   5.177   4.061
 7611TIP3   OH222775   3.845   3.424   4.612
 7611TIP3    H122776   3.826   3.386   4.526
 7611TIP3    H222777   3.840   3.349   4.672
 7612TIP3   OH222778   3.409   4.668   3.995
 7612TIP3    H122779   3.340   4.669   4.061
 7612TIP3    H222780   3.365   4.689   3.913
 7613TIP3   OH222781   3.555   5.188   5.066
 7613TIP3    H122782   3.638   5.192   5.112
 7613TIP3    H222783   3.535   5.094   5.060
 7614TIP3   OH222784   4.028   5.142   5.108
 7614TIP3    H122785   4.123   5.133   5.115
 7614TIP3    H222786   4.004   5.084   5.035
 7615TIP3   OH222787   4.012   4.719   3.234
 7615TIP3    H122788   3.954   4.654   3.273
 7615TIP3    H222789   4.088   4.669   3.203
 7616TIP3   OH222790   4.669   5.054   4.844
 7616TIP3    H122791   4.662   4.985   4.910
 7616TIP3    H222792   4.745   5.105   4.872
 7617TIP3   OH222793   4.451   4.761   3.150
 7617TIP3    H122794   4.483   4.695   3.210
 7617TIP3    H222795   4.509   4.755   3.074
 7618TIP3   OH222796   3.668   4.579   5.272
 7618TIP3    H122797   3.699   4.489   5.262
 7618TIP3    H222798   3.594   4.585   5.212
 7619TIP3   OH222799   3.662   4.235   3.457
 7619TIP3    H122800   3.714   4.206   3.532
 7619TIP3    H222801   3.724   4.241   3.385
 7620TIP3   OH222802   4.287   4.676   5.037
 7620TIP3    H122803   4.247   4.698   4.953
 7620TIP3    H222804   4.315   4.585   5.027
 7621TIP3   OH222805   4.171   4.436   3.262
 7621TIP3    H122806   4.171   4.453   3.356
 7621TIP3    H222807   4.172   4.341   3.255
 7622TIP3   OH222808   3.799   4.328   5.245
 7622TIP3    H122809   3.875   4.281   5.211
 7622TIP3    H222810   3.826   4.357   5.332
 7623TIP3   OH222811   3.867   4.150   3.673
 7623TIP3    H122812   3.833   4.122   3.758
 7623TIP3    H222813   3.900   4.069   3.632
 7624TIP3   OH222814   4.136   4.215   4.904
 7624TIP3    H122815   4.057   4.268   4.908
 7624TIP3    H222816   4.181   4.244   4.825
 7625TIP3   OH222817   3.969   3.940   3.514
 7625TIP3    H122818   3.942   3.946   3.423
 7625TIP3    H222819   4.064   3.944   3.512
 7626TIP3   OH222820   4.656   4.608   5.039
 7626TIP3    H122821   4.737   4.579   4.998
 7626TIP3    H222822   4.635   4.540   5.102
 7627TIP3   OH222823   4.784   4.271   3.180
 7627TIP3    H122824   4.767   4.221   3.100
 7627TIP3    H222825   4.754   4.359   3.161
 7628TIP3   OH222826   4.253   3.998   5.032
 7628TIP3    H122827   4.256   3.918   4.980
 7628TIP3    H222828   4.213   4.063   4.974
 7629TIP3   OH222829   4.256   3.781   4.855
 7629TIP3    H122830   4.288   3.825   4.776
 7629TIP3    H222831   4.167   3.755   4.833
 7630TIP3   OH222832   4.280   4.325   4.703
 7630TIP3    H122833   4.358   4.294   4.656
 7630TIP3    H222834   4.253   4.403   4.656
 7631TIP3   OH222835   4.880   4.290   5.106
 7631TIP3    H122836   4.893   4.199   5.082
 7631TIP3    H222837   4.950   4.337   5.060
 7632TIP3   OH222838   4.913   4.553   4.837
 7632TIP3    H122839   4.847   4.590   4.779
 7632TIP3    H222840   4.996   4.567   4.792
 7633TIP3   OH222841   4.136   4.104   5.264
 7633TIP3    H122842   4.069   4.037   5.280
 7633TIP3    H222843   4.171   4.084   5.178
 7634TIP3   OH222844   4.390   3.548   4.913
 7634TIP3    H122845   4.344   3.629   4.891
 7634TIP3    H222846   4.325   3.479   4.898
 7635TIP3   OH222847   4.515   4.048   5.116
 7635TIP3    H122848   4.506   4.037   5.211
 7635TIP3    H222849   4.429   4.024   5.082
 7636TIP3   OH222850   4.783   4.037   4.990
 7636TIP3    H122851   4.695   4.014   5.018
 7636TIP3    H222852   4.840   3.974   5.034
 7637TIP3   OH222853   5.015   3.942   5.137
 7637TIP3    H122854   5.013   3.848   5.152
 7637TIP3    H222855   4.994   3.981   5.222
 7638TIP3   OH222856   3.975   3.886   5.322
 7638TIP3    H122857   3.976   3.799   5.282
 7638TIP3    H222858   4.013   3.873   5.409
 7639TIP3   OH222859   4.486   3.553   5.167
 7639TIP3    H122860   4.551   3.483   5.161
 7639TIP3    H222861   4.445   3.555   5.081
 7640TIP3   OH222862   4.550   3.770   5.326
 7640TIP3    H122863   4.532   3.700   5.263
 7640TIP3    H222864   4.476   3.830   5.317
 7641TIP3   OH222865   3.777   5.001   3.421
 7641TIP3    H122866   3.871   4.992   3.404
 7641TIP3    H222867   3.744   5.052   3.347
 7642TIP3   OH222868   3.175   4.992   4.055
 7642TIP3    H122869   3.103   4.938   4.021
 7642TIP3    H222870   3.218   4.936   4.120
 7643TIP3   OH222871   3.302   4.841   4.246
 7643TIP3    H122872   3.285   4.770   4.309
 7643TIP3    H222873   3.356   4.903   4.295
 7644TIP3   OH222874   5.036   5.244   4.043
 7644TIP3    H122875   5.058   5.275   4.131
 7644TIP3    H222876   5.099   5.287   3.986
 7645TIP3   OH222877   5.063   5.263   4.324
 7645TIP3    H122878   5.014   5.181   4.321
 7645TIP3    H222879   5.137   5.245   4.382
 7646TIP3   OH222880   5.109   4.943   4.899
 7646TIP3    H122881   5.037   4.949   4.961
 7646TIP3    H222882   5.150   5.029   4.901
 7647TIP3   OH222883   4.930   4.457   3.522
 7647TIP3    H122884   4.988   4.521   3.480
 7647TIP3    H222885   4.973   4.437   3.605
 7648TIP3   OH222886   5.129   4.717   4.159
 7648TIP3    H122887   5.134   4.639   4.104
 7648TIP3    H222888   5.111   4.789   4.098
 7649TIP3   OH222889   4.935   5.021   4.352
 7649TIP3    H122890   4.866   5.063   4.404
 7649TIP3    H222891   4.888   4.973   4.284
 7650TIP3   OH222892   4.986   4.237   3.364
 7650TIP3    H122893   4.918   4.231   3.296
 7650TIP3    H222894   4.959   4.311   3.418
 7651TIP3   OH222895   4.854   3.902   3.310
 7651TIP3    H122896   4.807   3.934   3.233
 7651TIP3    H222897   4.837   3.807   3.310
 7652TIP3   OH222898   5.155   4.603   4.718
 7652TIP3    H122899   5.225   4.538   4.709
 7652TIP3    H222900   5.178   4.673   4.657
 7653TIP3   OH222901   5.339   4.403   4.735
 7653TIP3    H122902   5.265   4.360   4.777
 7653TIP3    H222903   5.413   4.344   4.749
 7654TIP3   OH222904   4.805   3.634   3.297
 7654TIP3    H122905   4.878   3.608   3.353
 7654TIP3    H222906   4.732   3.581   3.328
 7655TIP3   OH222907   4.860   3.896   3.747
 7655TIP3    H122908   4.893   3.814   3.782
 7655TIP3    H222909   4.926   3.923   3.683
 7656TIP3   OH222910   5.098   4.243   4.492
 7656TIP3    H122911   5.008   4.216   4.512
 7656TIP3    H222912   5.093   4.279   4.404
 7657TIP3   OH222913   3.710   3.941   5.297
 7657TIP3    H122914   3.805   3.936   5.291
 7657TIP3    H222915   3.684   3.855   5.329
 7658TIP3   OH222916   5.548   3.810   5.038
 7658TIP3    H122917   5.604   3.743   4.999
 7658TIP3    H222918   5.516   3.861   4.964
 7659TIP3   OH222919   3.670   3.637   4.630
 7659TIP3    H122920   3.727   3.560   4.632
 7659TIP3    H222921   3.729   3.710   4.613
 7660TIP3   OH222922   5.408   3.944   4.846
 7660TIP3    H122923   5.331   3.985   4.884
 7660TIP3    H222924   5.373   3.874   4.790
 7661TIP3   OH222925   5.047   3.584   3.425
 7661TIP3    H122926   5.087   3.509   3.380
 7661TIP3    H222927   5.118   3.648   3.433
 7662TIP3   OH222928   3.456   3.422   4.214
 7662TIP3    H122929   3.362   3.406   4.227
 7662TIP3    H222930   3.461   3.461   4.126
 7663TIP3   OH222931   4.618   5.113   3.695
 7663TIP3    H122932   4.671   5.104   3.617
 7663TIP3    H222933   4.663   5.178   3.748
 7664TIP3   OH222934   3.680   3.499   5.017
 7664TIP3    H122935   3.626   3.483   5.095
 7664TIP3    H222936   3.617   3.523   4.949
 7665TIP3   OH222937   3.716   4.911   5.082
 7665TIP3    H122938   3.623   4.894   5.069
 7665TIP3    H222939   3.728   4.911   5.177
 7666TIP3   OH222940   3.895   4.958   4.629
 7666TIP3    H122941   3.847   5.031   4.592
 7666TIP3    H222942   3.981   4.961   4.587
 7667TIP3   OH222943   4.338   5.193   4.767
 7667TIP3    H122944   4.377   5.192   4.854
 7667TIP3    H222945   4.400   5.243   4.714
 7668TIP3   OH222946   4.518   5.346   4.629
 7668TIP3    H122947   4.585   5.293   4.586
 7668TIP3    H222948   4.566   5.403   4.688
 7669TIP3   OH222949   5.309   3.701   4.728
 7669TIP3    H122950   5.221   3.688   4.694
 7669TIP3    H222951   5.351   3.615   4.720
 7670TIP3   OH222952   3.566   5.202   4.661
 7670TIP3    H122953   3.479   5.229   4.631
 7670TIP3    H222954   3.584   5.257   4.736
 7671TIP3   OH222955   3.802   5.186   4.511
 7671TIP3    H122956   3.718   5.196   4.556
 7671TIP3    H222957   3.787   5.222   4.423
 7672TIP3   OH222958   4.229   5.214   4.310
 7672TIP3    H122959   4.160   5.233   4.246
 7672TIP3    H222960   4.244   5.298   4.354
 7673TIP3   OH222961   4.499   5.156   4.354
 7673TIP3    H122962   4.406   5.173   4.340
 7673TIP3    H222963   4.543   5.233   4.319
 7674TIP3   OH222964   4.706   5.344   4.274
 7674TIP3    H122965   4.694   5.427   4.229
 7674TIP3    H222966   4.733   5.283   4.204
 7675TIP3   OH222967   3.479   4.995   4.400
 7675TIP3    H122968   3.502   4.970   4.489
 7675TIP3    H222969   3.552   4.965   4.346
 7676TIP3   OH222970   3.685   4.881   4.258
 7676TIP3    H122971   3.709   4.805   4.311
 7676TIP3    H222972   3.767   4.930   4.249
 7677TIP3   OH222973   3.946   4.973   4.261
 7677TIP3    H122974   3.997   4.901   4.226
 7677TIP3    H222975   3.986   4.992   4.346
 7678TIP3   OH222976   4.474   3.609   4.320
 7678TIP3    H122977   4.457   3.547   4.392
 7678TIP3    H222978   4.564   3.592   4.295
 7679TIP3   OH222979   3.774   3.318   4.366
 7679TIP3    H122980   3.685   3.305   4.334
 7679TIP3    H222981   3.815   3.232   4.359
 7680TIP3   OH222982   3.526   3.199   3.976
 7680TIP3    H122983   3.573   3.262   3.922
 7680TIP3    H222984   3.543   3.228   4.066
 7681TIP3   OH222985   4.209   3.365   4.242
 7681TIP3    H122986   4.266   3.409   4.179
 7681TIP3    H222987   4.238   3.399   4.327
 7682TIP3   OH222988   4.715   3.519   4.241
 7682TIP3    H122989   4.792   3.526   4.184
 7682TIP3    H222990   4.718   3.428   4.273
 7683TIP3   OH222991   4.765   3.417   3.763
 7683TIP3    H122992   4.708   3.483   3.803
 7683TIP3    H222993   4.768   3.346   3.828
 7684TIP3   OH222994   3.264   4.767   3.787
 7684TIP3    H122995   3.177   4.744   3.755
 7684TIP3    H222996   3.269   4.862   3.778
 7685TIP3   OH222997   3.677   3.366   3.767
 7685TIP3    H122998   3.723   3.299   3.716
 7685TIP3    H222999   3.748   3.418   3.806
 7686TIP3   OH223000   4.187   3.536   3.874
 7686TIP3    H123001   4.246   3.491   3.933
 7686TIP3    H223002   4.198   3.629   3.895
 7687TIP3   OH223003   4.044   4.955   3.369
 7687TIP3    H123004   4.130   4.980   3.335
 7687TIP3    H223005   4.018   4.881   3.313
 7688TIP3   OH223006   4.763   5.079   3.460
 7688TIP3    H123007   4.755   4.984   3.454
 7688TIP3    H223008   4.716   5.113   3.384
 7689TIP3   OH223009   3.972   3.614   5.262
 7689TIP3    H123010   3.939   3.539   5.313
 7689TIP3    H223011   4.066   3.615   5.280
 7690TIP3   OH223012   4.226   3.609   5.373
 7690TIP3    H123013   4.307   3.587   5.327
 7690TIP3    H223014   4.213   3.538   5.436
 7691TIP3   OH223015   3.345   4.793   3.427
 7691TIP3    H123016   3.345   4.822   3.519
 7691TIP3    H223017   3.431   4.751   3.416
 7692TIP3   OH223018   5.053   3.668   5.162
 7692TIP3    H123019   5.068   3.639   5.252
 7692TIP3    H223020   5.139   3.665   5.120
 7693TIP3   OH223021   4.985   5.224   4.651
 7693TIP3    H123022   4.909   5.191   4.603
 7693TIP3    H223023   4.969   5.318   4.659
 7694TIP3   OH223024   6.499   4.879   3.491
 7694TIP3    H123025   6.466   4.836   3.570
 7694TIP3    H223026   6.530   4.964   3.521
 7695TIP3   OH223027   5.510   4.899   3.889
 7695TIP3    H123028   5.482   4.817   3.847
 7695TIP3    H223029   5.605   4.898   3.880
 7696TIP3   OH223030   6.151   5.358   3.499
 7696TIP3    H123031   6.200   5.292   3.450
 7696TIP3    H223032   6.138   5.319   3.585
 7697TIP3   OH223033   7.071   4.141   3.847
 7697TIP3    H123034   7.097   4.223   3.889
 7697TIP3    H223035   7.081   4.158   3.753
 7698TIP3   OH223036   5.788   3.982   3.837
 7698TIP3    H123037   5.768   4.046   3.769
 7698TIP3    H223038   5.754   3.899   3.804
 7699TIP3   OH223039   6.503   4.048   3.459
 7699TIP3    H123040   6.564   4.047   3.533
 7699TIP3    H223041   6.542   4.110   3.397
 7700TIP3   OH223042   7.140   4.353   4.014
 7700TIP3    H123043   7.055   4.393   3.993
 7700TIP3    H223044   7.154   4.375   4.106
 7701TIP3   OH223045   5.802   3.955   4.295
 7701TIP3    H123046   5.753   3.990   4.221
 7701TIP3    H223047   5.749   3.977   4.372
 7702TIP3   OH223048   6.178   4.839   3.258
 7702TIP3    H123049   6.119   4.769   3.227
 7702TIP3    H223050   6.119   4.912   3.277
 7703TIP3   OH223051   5.897   4.742   4.088
 7703TIP3    H123052   5.836   4.807   4.123
 7703TIP3    H223053   5.942   4.787   4.017
 7704TIP3   OH223054   6.701   4.076   3.651
 7704TIP3    H123055   6.681   4.046   3.740
 7704TIP3    H223056   6.745   4.160   3.663
 7705TIP3   OH223057   5.693   4.066   4.079
 7705TIP3    H123058   5.743   4.147   4.093
 7705TIP3    H223059   5.727   4.031   3.997
 7706TIP3   OH223060   5.727   4.943   4.168
 7706TIP3    H123061   5.708   5.031   4.135
 7706TIP3    H223062   5.654   4.921   4.225
 7707TIP3   OH223063   5.119   4.628   3.412
 7707TIP3    H123064   5.088   4.656   3.326
 7707TIP3    H223065   5.155   4.708   3.452
 7708TIP3   OH223066   6.565   5.142   3.644
 7708TIP3    H123067   6.479   5.131   3.685
 7708TIP3    H223068   6.559   5.228   3.601
 7709TIP3   OH223069   6.859   4.040   4.012
 7709TIP3    H123070   6.769   4.054   3.982
 7709TIP3    H223071   6.914   4.072   3.941
 7710TIP3   OH223072   6.151   3.680   3.999
 7710TIP3    H123073   6.140   3.586   4.016
 7710TIP3    H223074   6.076   3.721   4.042
 7711TIP3   OH223075   6.288   5.191   3.333
 7711TIP3    H123076   6.328   5.108   3.309
 7711TIP3    H223077   6.336   5.257   3.282
 7712TIP3   OH223078   6.412   4.963   3.237
 7712TIP3    H123079   6.328   4.917   3.229
 7712TIP3    H223080   6.453   4.926   3.315
 7713TIP3   OH223081   6.792   5.053   3.988
 7713TIP3    H123082   6.779   4.976   3.933
 7713TIP3    H223083   6.774   5.127   3.930
 7714TIP3   OH223084   6.109   4.497   3.214
 7714TIP3    H123085   6.019   4.529   3.211
 7714TIP3    H223086   6.119   4.447   3.133
 7715TIP3   OH223087   6.051   4.230   2.968
 7715TIP3    H123088   6.122   4.274   3.015
 7715TIP3    H223089   6.096   4.166   2.912
 7716TIP3   OH223090   6.987   4.695   3.835
 7716TIP3    H123091   6.904   4.743   3.843
 7716TIP3    H223092   7.018   4.714   3.747
 7717TIP3   OH223093   6.676   4.570   4.138
 7717TIP3    H123094   6.670   4.652   4.186
 7717TIP3    H223095   6.590   4.559   4.098
 7718TIP3   OH223096   6.329   5.138   3.768
 7718TIP3    H123097   6.314   5.216   3.821
 7718TIP3    H223098   6.321   5.065   3.830
 7719TIP3   OH223099   5.935   5.053   4.317
 7719TIP3    H123100   5.879   5.116   4.363
 7719TIP3    H223101   5.873   5.002   4.265
 7720TIP3   OH223102   6.287   4.375   3.032
 7720TIP3    H123103   6.304   4.459   3.076
 7720TIP3    H223104   6.313   4.389   2.941
 7721TIP3   OH223105   5.691   4.607   4.422
 7721TIP3    H123106   5.698   4.694   4.463
 7721TIP3    H223107   5.597   4.588   4.423
 7722TIP3   OH223108   6.029   5.059   3.303
 7722TIP3    H123109   6.083   5.124   3.348
 7722TIP3    H223110   5.942   5.099   3.297
 7723TIP3   OH223111   5.731   5.220   4.403
 7723TIP3    H123112   5.698   5.224   4.314
 7723TIP3    H223113   5.653   5.199   4.456
 7724TIP3   OH223114   6.788   3.628   3.096
 7724TIP3    H123115   6.709   3.648   3.147
 7724TIP3    H223116   6.804   3.708   3.045
 7725TIP3   OH223117   5.543   4.338   3.409
 7725TIP3    H123118   5.493   4.414   3.381
 7725TIP3    H223119   5.480   4.284   3.456
 7726TIP3   OH223120   5.317   4.752   4.352
 7726TIP3    H123121   5.248   4.739   4.286
 7726TIP3    H223122   5.344   4.663   4.375
 7727TIP3   OH223123   5.166   4.951   3.979
 7727TIP3    H123124   5.262   4.949   3.975
 7727TIP3    H223125   5.146   5.028   4.032
 7728TIP3   OH223126   7.027   5.398   4.040
 7728TIP3    H123127   7.030   5.303   4.054
 7728TIP3    H223128   6.947   5.426   4.084
 7729TIP3   OH223129   6.133   5.183   4.176
 7729TIP3    H123130   6.134   5.275   4.204
 7729TIP3    H223131   6.064   5.142   4.228
 7730TIP3   OH223132   5.898   5.321   3.118
 7730TIP3    H123133   5.844   5.295   3.043
 7730TIP3    H223134   5.859   5.403   3.148
 7731TIP3   OH223135   5.328   5.156   3.515
 7731TIP3    H123136   5.384   5.154   3.592
 7731TIP3    H223137   5.285   5.071   3.514
 7732TIP3   OH223138   6.109   5.202   2.767
 7732TIP3    H123139   6.160   5.123   2.749
 7732TIP3    H223140   6.131   5.225   2.857
 7733TIP3   OH223141   6.147   5.262   3.034
 7733TIP3    H123142   6.059   5.275   3.072
 7733TIP3    H223143   6.193   5.210   3.099
 7734TIP3   OH223144   6.918   4.527   4.311
 7734TIP3    H123145   6.836   4.541   4.262
 7734TIP3    H223146   6.935   4.434   4.303
 7735TIP3   OH223147   5.517   4.936   4.336
 7735TIP3    H123148   5.565   4.922   4.418
 7735TIP3    H223149   5.443   4.875   4.341
 7736TIP3   OH223150   5.909   3.759   4.121
 7736TIP3    H123151   5.822   3.728   4.095
 7736TIP3    H223152   5.892   3.837   4.173
 7737TIP3   OH223153   6.450   3.875   4.317
 7737TIP3    H123154   6.517   3.849   4.379
 7737TIP3    H223155   6.367   3.855   4.361
 7738TIP3   OH223156   6.688   4.304   4.240
 7738TIP3    H123157   6.639   4.301   4.322
 7738TIP3    H223158   6.665   4.389   4.202
 7739TIP3   OH223159   6.353   4.429   2.779
 7739TIP3    H123160   6.318   4.409   2.692
 7739TIP3    H223161   6.421   4.495   2.763
 7740TIP3   OH223162   6.059   3.805   3.082
 7740TIP3    H123163   6.076   3.773   3.171
 7740TIP3    H223164   6.009   3.735   3.040
 7741TIP3   OH223165   5.846   4.288   4.129
 7741TIP3    H123166   5.797   4.302   4.210
 7741TIP3    H223167   5.843   4.372   4.084
 7742TIP3   OH223168   5.716   4.131   3.618
 7742TIP3    H123169   5.639   4.163   3.665
 7742TIP3    H223170   5.725   4.189   3.543
 7743TIP3   OH223171   6.398   4.522   4.471
 7743TIP3    H123172   6.373   4.451   4.529
 7743TIP3    H223173   6.491   4.537   4.490
 7744TIP3   OH223174   5.676   4.295   4.343
 7744TIP3    H123175   5.684   4.369   4.403
 7744TIP3    H223176   5.662   4.219   4.400
 7745TIP3   OH223177   5.715   3.785   3.054
 7745TIP3    H123178   5.704   3.780   3.149
 7745TIP3    H223179   5.642   3.839   3.025
 7746TIP3   OH223180   5.232   3.817   3.450
 7746TIP3    H123181   5.272   3.853   3.371
 7746TIP3    H223182   5.168   3.883   3.476
 7747TIP3   OH223183   6.422   4.515   4.042
 7747TIP3    H123184   6.380   4.475   3.966
 7747TIP3    H223185   6.384   4.470   4.117
 7748TIP3   OH223186   6.031   3.986   3.723
 7748TIP3    H123187   5.954   3.990   3.781
 7748TIP3    H223188   6.105   3.993   3.783
 7749TIP3   OH223189   6.580   4.044   3.927
 7749TIP3    H123190   6.540   4.076   4.008
 7749TIP3    H223191   6.507   4.023   3.870
 7750TIP3   OH223192   5.610   4.040   3.195
 7750TIP3    H123193   5.534   4.012   3.144
 7750TIP3    H223194   5.663   4.090   3.133
 7751TIP3   OH223195   6.725   5.749   4.138
 7751TIP3    H123196   6.720   5.772   4.045
 7751TIP3    H223197   6.802   5.795   4.171
 7752TIP3   OH223198   5.678   4.857   4.561
 7752TIP3    H123199   5.758   4.888   4.604
 7752TIP3    H223200   5.611   4.858   4.630
 7753TIP3   OH223201   5.695   3.771   3.694
 7753TIP3    H123202   5.628   3.734   3.752
 7753TIP3    H223203   5.727   3.696   3.643
 7754TIP3   OH223204   6.113   4.192   4.130
 7754TIP3    H123205   6.029   4.237   4.114
 7754TIP3    H223206   6.174   4.262   4.152
 7755TIP3   OH223207   5.848   4.599   3.207
 7755TIP3    H123208   5.784   4.532   3.183
 7755TIP3    H223209   5.816   4.636   3.289
 7756TIP3   OH223210   6.751   4.836   3.820
 7756TIP3    H123211   6.782   4.887   3.745
 7756TIP3    H223212   6.665   4.804   3.793
 7757TIP3   OH223213   6.315   3.904   3.055
 7757TIP3    H123214   6.219   3.901   3.054
 7757TIP3    H223215   6.336   3.996   3.076
 7758TIP3   OH223216   6.256   4.922   4.193
 7758TIP3    H123217   6.276   4.898   4.283
 7758TIP3    H223218   6.213   5.008   4.201
 7759TIP3   OH223219   6.392   4.145   3.147
 7759TIP3    H123220   6.482   4.159   3.175
 7759TIP3    H223221   6.363   4.230   3.113
 7760TIP3   OH223222   5.993   4.742   3.011
 7760TIP3    H123223   5.956   4.830   3.018
 7760TIP3    H223224   5.943   4.690   3.073
 7761TIP3   OH223225   5.427   4.535   4.495
 7761TIP3    H123226   5.463   4.549   4.583
 7761TIP3    H223227   5.372   4.457   4.504
 7762TIP3   OH223228   6.156   4.655   4.508
 7762TIP3    H123229   6.093   4.602   4.460
 7762TIP3    H223230   6.242   4.623   4.481
 7763TIP3   OH223231   6.414   5.197   4.087
 7763TIP3    H123232   6.321   5.180   4.098
 7763TIP3    H223233   6.441   5.239   4.169
 7764TIP3   OH223234   6.822   4.256   2.993
 7764TIP3    H123235   6.762   4.205   2.939
 7764TIP3    H223236   6.818   4.344   2.956
 7765TIP3   OH223237   7.041   5.109   4.077
 7765TIP3    H123238   6.946   5.104   4.074
 7765TIP3    H223239   7.070   5.079   3.991
 7766TIP3   OH223240   6.529   5.063   2.886
 7766TIP3    H123241   6.494   4.997   2.946
 7766TIP3    H223242   6.531   5.020   2.801
 7767TIP3   OH223243   6.489   4.657   3.708
 7767TIP3    H123244   6.398   4.662   3.738
 7767TIP3    H223245   6.531   4.596   3.768
 7768TIP3   OH223246   5.211   4.233   3.206
 7768TIP3    H123247   5.260   4.313   3.226
 7768TIP3    H223248   5.136   4.235   3.264
 7769TIP3   OH223249   5.923   5.261   3.964
 7769TIP3    H123250   5.956   5.336   3.915
 7769TIP3    H223251   5.998   5.230   4.015
 7770TIP3   OH223252   5.543   5.188   3.316
 7770TIP3    H123253   5.485   5.161   3.388
 7770TIP3    H223254   5.578   5.272   3.344
 7771TIP3   OH223255   6.337   4.915   3.934
 7771TIP3    H123256   6.303   4.914   4.023
 7771TIP3    H223257   6.379   4.830   3.923
 7772TIP3   OH223258   6.222   4.798   2.840
 7772TIP3    H123259   6.305   4.768   2.875
 7772TIP3    H223260   6.156   4.769   2.903
 7773TIP3   OH223261   6.555   5.435   3.977
 7773TIP3    H123262   6.481   5.374   3.981
 7773TIP3    H223263   6.533   5.495   3.906
 7774TIP3   OH223264   6.628   5.286   2.631
 7774TIP3    H123265   6.647   5.356   2.568
 7774TIP3    H223266   6.541   5.309   2.665
 7775TIP3   OH223267   5.637   4.046   4.500
 7775TIP3    H123268   5.541   4.050   4.505
 7775TIP3    H223269   5.663   3.986   4.570
 7776TIP3   OH223270   6.439   4.710   3.006
 7776TIP3    H123271   6.427   4.729   3.099
 7776TIP3    H223272   6.534   4.714   2.992
 7777TIP3   OH223273   5.358   5.132   4.126
 7777TIP3    H123274   5.409   5.058   4.160
 7777TIP3    H223275   5.378   5.204   4.185
 7778TIP3   OH223276   5.639   4.778   2.811
 7778TIP3    H123277   5.664   4.691   2.782
 7778TIP3    H223278   5.625   4.769   2.906
 7779TIP3   OH223279   5.587   4.784   3.084
 7779TIP3    H123280   5.642   4.758   3.158
 7779TIP3    H223281   5.589   4.880   3.086
 7780TIP3   OH223282   5.320   4.478   3.287
 7780TIP3    H123283   5.260   4.521   3.348
 7780TIP3    H223284   5.340   4.546   3.222
 7781TIP3   OH223285   6.478   4.116   4.177
 7781TIP3    H123286   6.559   4.152   4.214
 7781TIP3    H223287   6.463   4.036   4.227
 7782TIP3   OH223288   6.343   3.868   3.333
 7782TIP3    H123289   6.343   3.889   3.239
 7782TIP3    H223290   6.397   3.937   3.372
 7783TIP3   OH223291   5.857   4.978   3.028
 7783TIP3    H123292   5.771   4.997   3.066
 7783TIP3    H223293   5.875   5.052   2.970
 7784TIP3   OH223294   6.319   4.364   4.243
 7784TIP3    H123295   6.336   4.412   4.324
 7784TIP3    H223296   6.366   4.281   4.254
 7785TIP3   OH223297   6.187   3.812   3.543
 7785TIP3    H123298   6.237   3.821   3.624
 7785TIP3    H223299   6.253   3.818   3.473
 7786TIP3   OH223300   5.600   5.056   3.089
 7786TIP3    H123301   5.572   5.125   3.028
 7786TIP3    H223302   5.583   5.092   3.176
 7787TIP3   OH223303   5.682   3.756   3.325
 7787TIP3    H123304   5.663   3.842   3.364
 7787TIP3    H223305   5.748   3.719   3.383
 7788TIP3   OH223306   6.951   4.259   4.229
 7788TIP3    H123307   6.857   4.262   4.243
 7788TIP3    H223308   6.962   4.213   4.146
 7789TIP3   OH223309   5.321   4.685   3.087
 7789TIP3    H123310   5.389   4.751   3.104
 7789TIP3    H223311   5.361   4.626   3.023
 7790TIP3   OH223312   5.262   3.961   3.218
 7790TIP3    H123313   5.264   4.057   3.217
 7790TIP3    H223314   5.175   3.938   3.184
 7791TIP3   OH223315   6.577   5.416   3.567
 7791TIP3    H123316   6.531   5.460   3.495
 7791TIP3    H223317   6.670   5.429   3.548
 7792TIP3   OH223318   5.644   3.683   4.095
 7792TIP3    H123319   5.613   3.654   4.010
 7792TIP3    H223320   5.633   3.607   4.152
 7793TIP3   OH223321   5.179   4.895   3.480
 7793TIP3    H123322   5.105   4.934   3.527
 7793TIP3    H223323   5.173   4.931   3.391
 7794TIP3   OH223324   5.350   5.443   4.548
 7794TIP3    H123325   5.433   5.446   4.595
 7794TIP3    H223326   5.326   5.351   4.548
 7795TIP3   OH223327   5.827   5.400   4.593
 7795TIP3    H123328   5.921   5.384   4.601
 7795TIP3    H223329   5.799   5.341   4.522
 7796TIP3   OH223330   5.810   4.976   2.717
 7796TIP3    H123331   5.755   4.908   2.758
 7796TIP3    H223332   5.888   4.930   2.689
 7797TIP3   OH223333   6.466   5.312   4.332
 7797TIP3    H123334   6.458   5.243   4.397
 7797TIP3    H223335   6.542   5.363   4.359
 7798TIP3   OH223336   5.477   4.848   4.751
 7798TIP3    H123337   5.494   4.754   4.757
 7798TIP3    H223338   5.392   4.855   4.708
 7799TIP3   OH223339   5.457   4.495   2.945
 7799TIP3    H123340   5.509   4.464   3.019
 7799TIP3    H223341   5.519   4.501   2.873
 7800TIP3   OH223342   6.084   4.932   4.522
 7800TIP3    H123343   6.042   4.952   4.438
 7800TIP3    H223344   6.114   4.841   4.513
 7801TIP3   OH223345   5.938   4.686   2.745
 7801TIP3    H123346   5.960   4.709   2.835
 7801TIP3    H223347   5.953   4.591   2.741
 7802TIP3   OH223348   6.580   4.943   4.132
 7802TIP3    H123349   6.653   4.992   4.092
 7802TIP3    H223350   6.502   4.993   4.109
 7803TIP3   OH223351   5.595   4.585   4.730
 7803TIP3    H123352   5.670   4.534   4.700
 7803TIP3    H223353   5.620   4.615   4.818
 7804TIP3   OH223354   5.662   4.399   3.165
 7804TIP3    H123355   5.628   4.364   3.247
 7804TIP3    H223356   5.694   4.322   3.118
 7805TIP3   OH223357   5.933   4.468   4.396
 7805TIP3    H123358   5.853   4.521   4.397
 7805TIP3    H223359   5.981   4.499   4.320
 7806TIP3   OH223360   5.763   4.191   3.008
 7806TIP3    H123361   5.732   4.198   2.918
 7806TIP3    H223362   5.859   4.198   3.001
 7807TIP3   OH223363   6.450   4.866   4.526
 7807TIP3    H123364   6.526   4.839   4.476
 7807TIP3    H223365   6.443   4.802   4.597
 7808TIP3   OH223366   6.577   4.560   2.663
 7808TIP3    H123367   6.552   4.513   2.583
 7808TIP3    H223368   6.565   4.653   2.640
 7809TIP3   OH223369   6.056   4.256   4.518
 7809TIP3    H123370   6.055   4.176   4.465
 7809TIP3    H223371   6.013   4.321   4.463
 7810TIP3   OH223372   6.058   4.036   4.343
 7810TIP3    H123373   6.085   4.082   4.263
 7810TIP3    H223374   5.967   4.010   4.326
 7811TIP3   OH223375   6.077   4.575   4.200
 7811TIP3    H123376   6.150   4.570   4.138
 7811TIP3    H223377   6.015   4.635   4.159
 7812TIP3   OH223378   6.667   4.543   4.580
 7812TIP3    H123379   6.712   4.458   4.585
 7812TIP3    H223380   6.732   4.603   4.545
 7813TIP3   OH223381   6.708   4.799   4.318
 7813TIP3    H123382   6.649   4.851   4.263
 7813TIP3    H223383   6.795   4.815   4.282
 7814TIP3   OH223384   5.936   4.360   4.753
 7814TIP3    H123385   5.867   4.295   4.768
 7814TIP3    H223386   5.967   4.342   4.664
 7815TIP3   OH223387   6.189   3.801   4.396
 7815TIP3    H123388   6.143   3.883   4.377
 7815TIP3    H223389   6.122   3.733   4.384
 7816TIP3   OH223390   6.311   4.304   4.612
 7816TIP3    H123391   6.298   4.292   4.706
 7816TIP3    H223392   6.227   4.283   4.572
 7817TIP3   OH223393   6.555   4.260   4.469
 7817TIP3    H123394   6.479   4.259   4.527
 7817TIP3    H223395   6.627   4.228   4.523
 7818TIP3   OH223396   6.784   4.198   4.618
 7818TIP3    H123397   6.797   4.104   4.632
 7818TIP3    H223398   6.781   4.235   4.707
 7819TIP3   OH223399   5.773   4.142   4.807
 7819TIP3    H123400   5.775   4.054   4.768
 7819TIP3    H223401   5.808   4.129   4.896
 7820TIP3   OH223402   6.283   3.811   4.652
 7820TIP3    H123403   6.349   3.742   4.649
 7820TIP3    H223404   6.242   3.809   4.566
 7821TIP3   OH223405   6.347   4.026   4.811
 7821TIP3    H123406   6.328   3.956   4.749
 7821TIP3    H223407   6.272   4.085   4.804
 7822TIP3   OH223408   5.575   5.266   2.905
 7822TIP3    H123409   5.668   5.249   2.890
 7822TIP3    H223410   5.546   5.313   2.827
 7823TIP3   OH223411   5.053   4.639   3.124
 7823TIP3    H123412   5.145   4.662   3.112
 7823TIP3    H223413   5.045   4.552   3.085
 7824TIP3   OH223414   4.967   5.248   3.540
 7824TIP3    H123415   4.899   5.190   3.505
 7824TIP3    H223416   5.011   5.196   3.607
 7825TIP3   OH223417   5.096   5.104   3.733
 7825TIP3    H123418   5.090   5.027   3.791
 7825TIP3    H223419   5.150   5.166   3.782
 7826TIP3   OH223420   6.836   5.498   3.530
 7826TIP3    H123421   6.851   5.524   3.621
 7826TIP3    H223422   6.877   5.568   3.478
 7827TIP3   OH223423   6.858   5.517   3.810
 7827TIP3    H123424   6.810   5.434   3.807
 7827TIP3    H223425   6.931   5.501   3.870
 7828TIP3   OH223426   6.903   5.202   4.383
 7828TIP3    H123427   6.832   5.207   4.447
 7828TIP3    H223428   6.946   5.287   4.387
 7829TIP3   OH223429   6.721   4.707   3.013
 7829TIP3    H123430   6.782   4.773   2.980
 7829TIP3    H223431   6.762   4.673   3.092
 7830TIP3   OH223432   6.852   4.580   3.226
 7830TIP3    H123433   6.823   4.523   3.297
 7830TIP3    H223434   6.927   4.628   3.263
 7831TIP3   OH223435   6.903   4.971   3.636
 7831TIP3    H123436   6.957   4.906   3.592
 7831TIP3    H223437   6.894   5.042   3.573
 7832TIP3   OH223438   6.729   5.272   3.831
 7832TIP3    H123439   6.662   5.314   3.885
 7832TIP3    H223440   6.680   5.226   3.762
 7833TIP3   OH223441   6.775   4.493   2.848
 7833TIP3    H123442   6.709   4.498   2.779
 7833TIP3    H223443   6.754   4.566   2.907
 7834TIP3   OH223444   6.659   4.157   2.803
 7834TIP3    H123445   6.610   4.200   2.732
 7834TIP3    H223446   6.634   4.065   2.796
 7835TIP3   OH223447   6.952   4.861   4.209
 7835TIP3    H123448   7.021   4.795   4.199
 7835TIP3    H223449   6.977   4.930   4.147
 7836TIP3   OH223450   7.134   4.660   4.219
 7836TIP3    H123451   7.059   4.615   4.258
 7836TIP3    H223452   7.208   4.601   4.235
 7837TIP3   OH223453   6.600   3.892   2.791
 7837TIP3    H123454   6.672   3.863   2.846
 7837TIP3    H223455   6.527   3.835   2.813
 7838TIP3   OH223456   6.658   4.152   3.233
 7838TIP3    H123457   6.698   4.068   3.256
 7838TIP3    H223458   6.718   4.190   3.169
 7839TIP3   OH223459   6.826   4.315   3.738
 7839TIP3    H123460   6.906   4.346   3.696
 7839TIP3    H223461   6.828   4.357   3.825
 7840TIP3   OH223462   6.890   4.472   3.970
 7840TIP3    H123463   6.817   4.503   4.024
 7840TIP3    H223464   6.923   4.550   3.926
 7841TIP3   OH223465   5.507   4.193   4.774
 7841TIP3    H123466   5.602   4.189   4.775
 7841TIP3    H223467   5.479   4.110   4.812
 7842TIP3   OH223468   7.340   4.063   4.526
 7842TIP3    H123469   7.398   3.999   4.486
 7842TIP3    H223470   7.310   4.117   4.453
 7843TIP3   OH223471   6.769   3.903   3.284
 7843TIP3    H123472   6.813   3.893   3.368
 7843TIP3    H223473   6.705   3.832   3.282
 7844TIP3   OH223474   5.466   3.913   4.134
 7844TIP3    H123475   5.504   3.826   4.124
 7844TIP3    H223476   5.540   3.973   4.123
 7845TIP3   OH223477   7.206   4.199   4.332
 7845TIP3    H123478   7.124   4.243   4.354
 7845TIP3    H223479   7.180   4.127   4.275
 7846TIP3   OH223480   6.847   3.834   2.918
 7846TIP3    H123481   6.884   3.765   2.864
 7846TIP3    H223482   6.910   3.906   2.914
 7847TIP3   OH223483   5.260   3.635   3.652
 7847TIP3    H123484   5.205   3.654   3.728
 7847TIP3    H223485   5.253   3.713   3.598
 7848TIP3   OH223486   6.413   5.374   3.178
 7848TIP3    H123487   6.461   5.355   3.098
 7848TIP3    H223488   6.468   5.436   3.225
 7849TIP3   OH223489   5.472   3.747   4.496
 7849TIP3    H123490   5.422   3.739   4.578
 7849TIP3    H223491   5.410   3.784   4.433
 7850TIP3   OH223492   5.511   5.170   4.569
 7850TIP3    H123493   5.420   5.150   4.551
 7850TIP3    H223494   5.521   5.157   4.663
 7851TIP3   OH223495   5.695   5.212   4.114
 7851TIP3    H123496   5.641   5.283   4.080
 7851TIP3    H223497   5.779   5.222   4.070
 7852TIP3   OH223498   6.135   5.450   4.254
 7852TIP3    H123499   6.173   5.448   4.342
 7852TIP3    H223500   6.198   5.501   4.202
 7853TIP3   OH223501   6.314   5.604   4.116
 7853TIP3    H123502   6.380   5.550   4.073
 7853TIP3    H223503   6.364   5.660   4.175
 7854TIP3   OH223504   7.108   3.960   4.213
 7854TIP3    H123505   7.019   3.957   4.177
 7854TIP3    H223506   7.142   3.871   4.203
 7855TIP3   OH223507   5.365   5.465   4.142
 7855TIP3    H123508   5.277   5.493   4.118
 7855TIP3    H223509   5.379   5.504   4.228
 7856TIP3   OH223510   5.601   5.445   4.000
 7856TIP3    H123511   5.517   5.455   4.045
 7856TIP3    H223512   5.584   5.473   3.910
 7857TIP3   OH223513   6.027   5.470   3.797
 7857TIP3    H123514   5.957   5.485   3.733
 7857TIP3    H223515   6.039   5.555   3.840
 7858TIP3   OH223516   6.296   5.412   3.848
 7858TIP3    H123517   6.203   5.424   3.830
 7858TIP3    H223518   6.339   5.487   3.805
 7859TIP3   OH223519   6.506   5.602   3.761
 7859TIP3    H123520   6.491   5.684   3.715
 7859TIP3    H223521   6.530   5.540   3.691
 7860TIP3   OH223522   5.280   5.255   3.887
 7860TIP3    H123523   5.302   5.229   3.976
 7860TIP3    H223524   5.349   5.217   3.832
 7861TIP3   OH223525   5.476   5.137   3.742
 7861TIP3    H123526   5.488   5.048   3.776
 7861TIP3    H223527   5.565   5.169   3.727
 7862TIP3   OH223528   5.744   5.221   3.720
 7862TIP3    H123529   5.763   5.141   3.671
 7862TIP3    H223530   5.796   5.213   3.800
 7863TIP3   OH223531   6.291   3.845   3.791
 7863TIP3    H123532   6.266   3.798   3.870
 7863TIP3    H223533   6.384   3.826   3.781
 7864TIP3   OH223534   6.834   3.758   3.733
 7864TIP3    H123535   6.872   3.810   3.662
 7864TIP3    H223536   6.742   3.786   3.736
 7865TIP3   OH223537   6.935   3.860   3.500
 7865TIP3    H123538   7.005   3.807   3.461
 7865TIP3    H223539   6.964   3.951   3.487
 7866TIP3   OH223540   5.566   3.588   3.848
 7866TIP3    H123541   5.475   3.559   3.847
 7866TIP3    H223542   5.616   3.506   3.844
 7867TIP3   OH223543   5.346   3.449   3.478
 7867TIP3    H123544   5.373   3.511   3.410
 7867TIP3    H223545   5.316   3.503   3.550
 7868TIP3   OH223546   6.002   3.627   3.723
 7868TIP3    H123547   6.082   3.670   3.692
 7868TIP3    H223548   5.997   3.651   3.816
 7869TIP3   OH223549   6.547   3.763   3.715
 7869TIP3    H123550   6.567   3.728   3.628
 7869TIP3    H223551   6.538   3.685   3.771
 7870TIP3   OH223552   6.584   3.689   3.277
 7870TIP3    H123553   6.496   3.728   3.281
 7870TIP3    H223554   6.574   3.605   3.322
 7871TIP3   OH223555   5.066   5.026   3.269
 7871TIP3    H123556   4.982   4.994   3.239
 7871TIP3    H223557   5.056   5.122   3.272
 7872TIP3   OH223558   5.459   3.611   3.251
 7872TIP3    H123559   5.505   3.547   3.196
 7872TIP3    H223560   5.528   3.668   3.284
 7873TIP3   OH223561   5.841   5.211   2.851
 7873TIP3    H123562   5.928   5.234   2.820
 7873TIP3    H223563   5.816   5.135   2.798
 7874TIP3   OH223564   6.560   5.329   2.948
 7874TIP3    H123565   6.559   5.234   2.933
 7874TIP3    H223566   6.518   5.365   2.870
 7875TIP3   OH223567   5.771   3.867   4.745
 7875TIP3    H123568   5.735   3.796   4.798
 7875TIP3    H223569   5.864   3.869   4.768
 7876TIP3   OH223570   6.022   3.865   4.861
 7876TIP3    H123571   6.103   3.841   4.817
 7876TIP3    H223572   6.007   3.796   4.926
 7877TIP3   OH223573   5.147   5.054   2.918
 7877TIP3    H123574   5.150   5.063   3.013
 7877TIP3    H223575   5.230   5.011   2.895
 7878TIP3   OH223576   6.848   3.928   4.647
 7878TIP3    H123577   6.865   3.897   4.736
 7878TIP3    H223578   6.934   3.924   4.604
 7879TIP3   OH223579   6.781   5.480   4.137
 7879TIP3    H123580   6.705   5.447   4.090
 7879TIP3    H223581   6.764   5.574   4.147
 7880TIP3   OH223582   8.048   4.855   2.900
 7880TIP3    H123583   8.020   4.945   2.883
 7880TIP3    H223584   7.974   4.801   2.873
 7881TIP3   OH223585   8.042   4.843   3.285
 7881TIP3    H123586   8.074   4.842   3.375
 7881TIP3    H223587   8.004   4.756   3.272
 7882TIP3   OH223588   7.348   4.745   3.653
 7882TIP3    H123589   7.373   4.675   3.715
 7882TIP3    H223590   7.425   4.801   3.649
 7883TIP3   OH223591   8.287   5.141   2.972
 7883TIP3    H123592   8.277   5.076   3.040
 7883TIP3    H223593   8.279   5.225   3.017
 7884TIP3   OH223594   7.335   5.156   3.363
 7884TIP3    H123595   7.308   5.064   3.359
 7884TIP3    H223596   7.405   5.157   3.428
 7885TIP3   OH223597   7.024   4.358   3.155
 7885TIP3    H123598   6.980   4.443   3.165
 7885TIP3    H223599   6.958   4.302   3.115
 7886TIP3   OH223600   7.094   4.649   3.331
 7886TIP3    H123601   7.136   4.571   3.366
 7886TIP3    H223602   7.155   4.683   3.266
 7887TIP3   OH223603   7.953   5.612   3.002
 7887TIP3    H123604   7.986   5.541   2.947
 7887TIP3    H223605   7.985   5.592   3.089
 7888TIP3   OH223606   7.851   5.074   3.331
 7888TIP3    H123607   7.887   4.995   3.290
 7888TIP3    H223608   7.928   5.121   3.363
 7889TIP3   OH223609   8.259   4.596   3.358
 7889TIP3    H123610   8.271   4.507   3.390
 7889TIP3    H223611   8.210   4.586   3.277
 7890TIP3   OH223612   7.595   4.238   3.330
 7890TIP3    H123613   7.582   4.311   3.269
 7890TIP3    H223614   7.551   4.164   3.289
 7891TIP3   OH223615   8.288   4.329   2.966
 7891TIP3    H123616   8.349   4.271   3.011
 7891TIP3    H223617   8.342   4.379   2.904
 7892TIP3   OH223618   7.235   4.440   3.436
 7892TIP3    H123619   7.314   4.422   3.487
 7892TIP3    H223620   7.244   4.386   3.358
 7893TIP3   OH223621   7.673   4.636   3.233
 7893TIP3    H123622   7.765   4.614   3.246
 7893TIP3    H223623   7.634   4.554   3.201
 7894TIP3   OH223624   7.592   4.223   3.767
 7894TIP3    H123625   7.536   4.258   3.697
 7894TIP3    H223626   7.543   4.238   3.847
 7895TIP3   OH223627   7.941   5.079   2.767
 7895TIP3    H123628   7.899   5.056   2.684
 7895TIP3    H223629   7.893   5.156   2.799
 7896TIP3   OH223630   7.699   4.999   3.557
 7896TIP3    H123631   7.642   5.065   3.596
 7896TIP3    H223632   7.753   5.048   3.494
 7897TIP3   OH223633   7.469   4.339   3.549
 7897TIP3    H123634   7.528   4.410   3.574
 7897TIP3    H223635   7.513   4.296   3.475
 7898TIP3   OH223636   7.521   5.196   3.647
 7898TIP3    H123637   7.508   5.288   3.624
 7898TIP3    H223638   7.450   5.177   3.709
 7899TIP3   OH223639   6.921   4.877   2.911
 7899TIP3    H123640   6.886   4.880   2.822
 7899TIP3    H223641   6.947   4.967   2.930
 7900TIP3   OH223642   7.938   3.931   3.484
 7900TIP3    H123643   7.923   3.838   3.500
 7900TIP3    H223644   7.863   3.975   3.526
 7901TIP3   OH223645   8.057   5.440   2.795
 7901TIP3    H123646   8.107   5.360   2.777
 7901TIP3    H223647   8.113   5.511   2.764
 7902TIP3   OH223648   8.202   5.218   2.717
 7902TIP3    H123649   8.136   5.150   2.704
 7902TIP3    H223650   8.249   5.191   2.796
 7903TIP3   OH223651   0.092   5.306   3.474
 7903TIP3    H123652   0.089   5.230   3.416
 7903TIP3    H223653   0.068   5.380   3.418
 7904TIP3   OH223654   7.878   4.705   2.734
 7904TIP3    H123655   7.797   4.754   2.717
 7904TIP3    H223656   7.922   4.700   2.649
 7905TIP3   OH223657   7.840   4.489   2.451
 7905TIP3    H123658   7.905   4.543   2.496
 7905TIP3    H223659   7.893   4.425   2.401
 7906TIP3   OH223660   8.222   4.783   2.708
 7906TIP3    H123661   8.166   4.813   2.779
 7906TIP3    H223662   8.295   4.740   2.752
 7907TIP3   OH223663   8.447   4.805   3.616
 7907TIP3    H123664   8.477   4.888   3.655
 7907TIP3    H223665   8.359   4.825   3.584
 7908TIP3   OH223666   7.465   4.785   3.121
 7908TIP3    H123667   7.420   4.728   3.059
 7908TIP3    H223668   7.538   4.731   3.154
 7909TIP3   OH223669   7.618   5.176   3.253
 7909TIP3    H123670   7.600   5.083   3.240
 7909TIP3    H223671   7.706   5.178   3.292
 7910TIP3   OH223672   7.594   4.757   3.475
 7910TIP3    H123673   7.631   4.730   3.391
 7910TIP3    H223674   7.640   4.838   3.497
 7911TIP3   OH223675   7.727   5.307   3.813
 7911TIP3    H123676   7.669   5.371   3.854
 7911TIP3    H223677   7.669   5.256   3.757
 7912TIP3   OH223678   8.068   4.640   2.531
 7912TIP3    H123679   8.121   4.700   2.582
 7912TIP3    H223680   8.091   4.659   2.440
 7913TIP3   OH223681   7.487   4.868   3.905
 7913TIP3    H123682   7.496   4.954   3.948
 7913TIP3    H223683   7.395   4.845   3.918
 7914TIP3   OH223684   7.805   5.329   2.817
 7914TIP3    H123685   7.890   5.372   2.824
 7914TIP3    H223686   7.751   5.388   2.765
 7915TIP3   OH223687   7.524   5.478   3.890
 7915TIP3    H123688   7.492   5.481   3.800
 7915TIP3    H223689   7.446   5.458   3.942
 7916TIP3   OH223690   7.323   4.631   2.932
 7916TIP3    H123691   7.258   4.674   2.877
 7916TIP3    H223692   7.293   4.540   2.938
 7917TIP3   OH223693   8.381   5.256   2.134
 7917TIP3    H123694   8.378   5.349   2.110
 7917TIP3    H223695   8.463   5.224   2.095
 7918TIP3   OH223696   7.108   5.009   3.835
 7918TIP3    H123697   7.041   4.988   3.771
 7918TIP3    H223698   7.145   4.925   3.861
 7919TIP3   OH223699   6.961   5.206   3.468
 7919TIP3    H123700   7.057   5.201   3.467
 7919TIP3    H223701   6.941   5.282   3.523
 7920TIP3   OH223702   7.906   5.446   3.654
 7920TIP3    H123703   7.919   5.533   3.692
 7920TIP3    H223704   7.852   5.400   3.718
 7921TIP3   OH223705   7.691   5.564   2.614
 7921TIP3    H123706   7.650   5.546   2.529
 7921TIP3    H223707   7.661   5.652   2.636
 7922TIP3   OH223708   7.126   5.410   2.996
 7922TIP3    H123709   7.119   5.390   3.089
 7922TIP3    H223710   7.077   5.341   2.952
 7923TIP3   OH223711   7.895   5.471   2.253
 7923TIP3    H123712   7.950   5.404   2.213
 7923TIP3    H223713   7.930   5.481   2.341
 7924TIP3   OH223714   7.944   5.520   2.524
 7924TIP3    H123715   7.858   5.526   2.565
 7924TIP3    H223716   8.001   5.486   2.593
 7925TIP3   OH223717   7.313   5.192   3.821
 7925TIP3    H123718   7.362   5.180   3.902
 7925TIP3    H223719   7.239   5.131   3.829
 7926TIP3   OH223720   7.707   4.017   3.612
 7926TIP3    H123721   7.622   3.984   3.583
 7926TIP3    H223722   7.686   4.099   3.659
 7927TIP3   OH223723   8.213   4.149   3.792
 7927TIP3    H123724   8.277   4.110   3.851
 7927TIP3    H223725   8.128   4.129   3.832
 7928TIP3   OH223726   8.518   4.560   3.732
 7928TIP3    H123727   8.459   4.561   3.807
 7928TIP3    H223728   8.497   4.639   3.683
 7929TIP3   OH223729   8.147   4.689   2.276
 7929TIP3    H123730   8.115   4.661   2.190
 7929TIP3    H223731   8.213   4.755   2.258
 7930TIP3   OH223732   7.868   4.060   2.584
 7930TIP3    H123733   7.832   4.063   2.673
 7930TIP3    H223734   7.826   3.984   2.544
 7931TIP3   OH223735   7.641   4.536   3.628
 7931TIP3    H123736   7.593   4.553   3.709
 7931TIP3    H223737   7.626   4.615   3.575
 7932TIP3   OH223738   7.524   4.418   3.141
 7932TIP3    H123739   7.435   4.392   3.162
 7932TIP3    H223740   7.541   4.379   3.055
 7933TIP3   OH223741   8.018   4.507   2.867
 7933TIP3    H123742   7.963   4.575   2.828
 7933TIP3    H223743   8.073   4.476   2.795
 7934TIP3   OH223744   8.191   4.779   3.957
 7934TIP3    H123745   8.167   4.708   4.017
 7934TIP3    H223746   8.284   4.794   3.973
 7935TIP3   OH223747   8.161   4.535   3.105
 7935TIP3    H123748   8.101   4.556   3.034
 7935TIP3    H223749   8.198   4.450   3.081
 7936TIP3   OH223750   7.461   4.561   3.838
 7936TIP3    H123751   7.491   4.623   3.903
 7936TIP3    H223752   7.449   4.479   3.886
 7937TIP3   OH223753   7.514   4.042   2.548
 7937TIP3    H123754   7.505   4.037   2.644
 7937TIP3    H223755   7.437   4.091   2.519
 7938TIP3   OH223756   7.058   4.082   3.415
 7938TIP3    H123757   7.131   4.113   3.469
 7938TIP3    H223758   7.099   4.049   3.336
 7939TIP3   OH223759   7.022   4.066   2.934
 7939TIP3    H123760   7.068   4.099   2.857
 7939TIP3    H223761   6.960   4.135   2.957
 7940TIP3   OH223762   8.165   4.782   3.532
 7940TIP3    H123763   8.206   4.721   3.471
 7940TIP3    H223764   8.142   4.729   3.608
 7941TIP3   OH223765   7.850   4.261   3.204
 7941TIP3    H123766   7.776   4.246   3.263
 7941TIP3    H223767   7.925   4.221   3.248
 7942TIP3   OH223768   7.287   4.295   3.210
 7942TIP3    H123769   7.196   4.301   3.184
 7942TIP3    H223770   7.313   4.205   3.188
 7943TIP3   OH223771   7.554   4.291   2.901
 7943TIP3    H123772   7.647   4.306   2.882
 7943TIP3    H223773   7.509   4.314   2.819
 7944TIP3   OH223774   8.270   4.332   3.401
 7944TIP3    H123775   8.257   4.341   3.495
 7944TIP3    H223776   8.346   4.274   3.392
 7945TIP3   OH223777   7.403   4.329   2.675
 7945TIP3    H123778   7.331   4.282   2.631
 7945TIP3    H223779   7.455   4.365   2.603
 7946TIP3   OH223780   0.012   6.013   3.620
 7946TIP3    H123781   0.007   6.022   3.525
 7946TIP3    H223782   0.083   6.071   3.646
 7947TIP3   OH223783   7.473   5.117   4.046
 7947TIP3    H123784   7.554   5.145   4.089
 7947TIP3    H223785   7.408   5.114   4.116
 7948TIP3   OH223786   7.940   4.572   3.305
 7948TIP3    H123787   8.000   4.522   3.250
 7948TIP3    H223788   7.940   4.525   3.389
 7949TIP3   OH223789   7.456   4.053   3.183
 7949TIP3    H123790   7.421   3.978   3.231
 7949TIP3    H223791   7.504   4.015   3.110
 7950TIP3   OH223792   7.912   4.468   3.595
 7950TIP3    H123793   7.824   4.504   3.606
 7950TIP3    H223794   7.969   4.529   3.641
 7951TIP3   OH223795   7.647   4.855   2.686
 7951TIP3    H123796   7.579   4.790   2.669
 7951TIP3    H223797   7.626   4.890   2.772
 7952TIP3   OH223798   0.052   5.088   3.299
 7952TIP3    H123799   0.064   5.104   3.206
 7952TIP3    H223800  -0.035   5.048   3.306
 7953TIP3   OH223801   8.118   4.164   2.548
 7953TIP3    H123802   8.027   4.137   2.556
 7953TIP3    H223803   8.116   4.259   2.558
 7954TIP3   OH223804   8.029   5.174   3.689
 7954TIP3    H123805   8.080   5.167   3.770
 7954TIP3    H223806   8.026   5.268   3.672
 7955TIP3   OH223807   8.204   4.426   2.633
 7955TIP3    H123808   8.289   4.468   2.642
 7955TIP3    H223809   8.150   4.491   2.588
 7956TIP3   OH223810   7.346   4.877   3.358
 7956TIP3    H123811   7.382   4.846   3.275
 7956TIP3    H223812   7.386   4.821   3.424
 7957TIP3   OH223813   7.797   5.007   2.512
 7957TIP3    H123814   7.750   5.090   2.513
 7957TIP3    H223815   7.744   4.949   2.567
 7958TIP3   OH223816   7.224   4.797   3.976
 7958TIP3    H123817   7.244   4.785   4.069
 7958TIP3    H223818   7.156   4.733   3.957
 7959TIP3   OH223819   7.950   4.911   3.994
 7959TIP3    H123820   7.887   4.856   3.946
 7959TIP3    H223821   8.036   4.880   3.965
 7960TIP3   OH223822   8.211   5.398   3.605
 7960TIP3    H123823   8.170   5.434   3.526
 7960TIP3    H223824   8.217   5.472   3.665
 7961TIP3   OH223825   8.306   5.334   2.396
 7961TIP3    H123826   8.308   5.274   2.471
 7961TIP3    H223827   8.335   5.280   2.322
 7962TIP3   OH223828   8.311   4.957   3.227
 7962TIP3    H123829   8.219   4.946   3.251
 7962TIP3    H223830   8.339   4.870   3.200
 7963TIP3   OH223831   7.426   5.226   3.011
 7963TIP3    H123832   7.419   5.281   2.933
 7963TIP3    H223833   7.361   5.157   2.996
 7964TIP3   OH223834   7.007   4.488   2.694
 7964TIP3    H123835   7.051   4.572   2.709
 7964TIP3    H223836   6.928   4.492   2.747
 7965TIP3   OH223837   7.570   4.954   2.926
 7965TIP3    H123838   7.569   5.042   2.964
 7965TIP3    H223839   7.538   4.897   2.996
 7966TIP3   OH223840   7.719   5.513   3.458
 7966TIP3    H123841   7.748   5.583   3.399
 7966TIP3    H223842   7.798   5.488   3.506
 7967TIP3   OH223843   7.363   5.433   2.843
 7967TIP3    H123844   7.277   5.440   2.884
 7967TIP3    H223845   7.396   5.522   2.840
 7968TIP3   OH223846   8.094   5.127   3.423
 7968TIP3    H123847   8.081   5.143   3.516
 7968TIP3    H223848   8.185   5.150   3.406
 7969TIP3   OH223849   8.059   5.055   2.311
 7969TIP3    H123850   8.117   5.030   2.383
 7969TIP3    H223851   7.972   5.030   2.341
 7970TIP3   OH223852   8.342   5.704   3.468
 7970TIP3    H123853   8.279   5.641   3.435
 7970TIP3    H223854   8.345   5.772   3.401
 7971TIP3   OH223855   7.432   4.304   3.981
 7971TIP3    H123856   7.337   4.309   3.991
 7971TIP3    H223857   7.461   4.248   4.053
 7972TIP3   OH223858   8.232   4.978   2.514
 7972TIP3    H123859   8.220   4.910   2.580
 7972TIP3    H223860   8.306   5.030   2.544
 7973TIP3   OH223861   7.156   5.384   3.619
 7973TIP3    H123862   7.207   5.314   3.660
 7973TIP3    H223863   7.175   5.461   3.672
 7974TIP3   OH223864   7.440   5.032   2.296
 7974TIP3    H123865   7.453   4.942   2.266
 7974TIP3    H223866   7.420   5.023   2.390
 7975TIP3   OH223867   7.391   5.042   2.569
 7975TIP3    H123868   7.466   5.011   2.621
 7975TIP3    H223869   7.394   5.137   2.577
 7976TIP3   OH223870   7.122   4.737   2.774
 7976TIP3    H123871   7.052   4.773   2.829
 7976TIP3    H223872   7.131   4.801   2.703
 7977TIP3   OH223873   8.272   4.388   3.672
 7977TIP3    H123874   8.359   4.410   3.707
 7977TIP3    H223875   8.249   4.306   3.716
 7978TIP3   OH223876   8.132   4.132   2.837
 7978TIP3    H123877   8.132   4.144   2.742
 7978TIP3    H223878   8.179   4.208   2.871
 7979TIP3   OH223879   7.653   5.236   2.520
 7979TIP3    H123880   7.568   5.262   2.554
 7979TIP3    H223881   7.674   5.302   2.454
 7980TIP3   OH223882   7.837   4.304   2.933
 7980TIP3    H123883   7.902   4.371   2.916
 7980TIP3    H223884   7.840   4.290   3.028
 7981TIP3   OH223885   8.109   4.614   3.739
 7981TIP3    H123886   8.136   4.665   3.815
 7981TIP3    H223887   8.168   4.539   3.738
 7982TIP3   OH223888   7.980   4.015   3.031
 7982TIP3    H123889   8.005   4.064   3.109
 7982TIP3    H223890   8.032   4.055   2.961
 7983TIP3   OH223891   7.399   5.316   2.588
 7983TIP3    H123892   7.370   5.378   2.521
 7983TIP3    H223893   7.383   5.362   2.671
 7984TIP3   OH223894   7.499   4.027   2.824
 7984TIP3    H123895   7.491   4.115   2.861
 7984TIP3    H223896   7.593   4.007   2.829
 7985TIP3   OH223897   8.394   4.693   3.141
 7985TIP3    H123898   8.311   4.657   3.110
 7985TIP3    H223899   8.405   4.657   3.229
 7986TIP3   OH223900   7.128   4.942   2.568
 7986TIP3    H123901   7.197   5.007   2.578
 7986TIP3    H223902   7.162   4.879   2.504
 7987TIP3   OH223903   7.057   4.217   2.710
 7987TIP3    H123904   7.058   4.312   2.711
 7987TIP3    H223905   6.977   4.194   2.663
 7988TIP3   OH223906   8.412   5.678   3.035
 7988TIP3    H123907   8.350   5.720   2.976
 7988TIP3    H223908   8.494   5.726   3.022
 7989TIP3   OH223909   7.447   3.934   3.582
 7989TIP3    H123910   7.416   3.903   3.496
 7989TIP3    H223911   7.436   3.858   3.640
 7990TIP3   OH223912   6.988   5.165   2.961
 7990TIP3    H123913   6.919   5.180   3.026
 7990TIP3    H223914   6.951   5.197   2.879
 7991TIP3   OH223915   7.147   5.700   4.036
 7991TIP3    H123916   7.230   5.704   4.083
 7991TIP3    H223917   7.125   5.607   4.034
 7992TIP3   OH223918   7.622   5.656   4.080
 7992TIP3    H123919   7.717   5.644   4.088
 7992TIP3    H223920   7.597   5.599   4.008
 7993TIP3   OH223921   7.606   5.234   2.209
 7993TIP3    H123922   7.551   5.165   2.245
 7993TIP3    H223923   7.680   5.188   2.171
 7994TIP3   OH223924   8.250   5.579   3.824
 7994TIP3    H123925   8.250   5.504   3.884
 7994TIP3    H223926   8.331   5.626   3.846
 7995TIP3   OH223927   8.034   5.278   2.117
 7995TIP3    H123928   8.078   5.218   2.177
 7995TIP3    H223929   8.087   5.274   2.037
 7996TIP3   OH223930   7.272   5.104   4.235
 7996TIP3    H123931   7.290   5.010   4.243
 7996TIP3    H223932   7.186   5.107   4.193
 7997TIP3   OH223933   7.256   4.750   2.429
 7997TIP3    H123934   7.307   4.718   2.503
 7997TIP3    H223935   7.319   4.754   2.357
 7998TIP3   OH223936   7.881   5.189   4.011
 7998TIP3    H123937   7.843   5.212   3.926
 7998TIP3    H223938   7.913   5.099   3.999
 7999TIP3   OH223939   7.761   4.951   2.242
 7999TIP3    H123940   7.763   4.964   2.336
 7999TIP3    H223941   7.765   4.856   2.231
 8000TIP3   OH223942   8.385   5.190   3.614
 8000TIP3    H123943   8.460   5.234   3.574
 8000TIP3    H223944   8.316   5.257   3.615
 8001TIP3   OH223945   7.394   4.841   4.221
 8001TIP3    H123946   7.467   4.785   4.195
 8001TIP3    H223947   7.418   4.873   4.308
 8002TIP3   OH223948   7.461   4.656   2.652
 8002TIP3    H123949   7.429   4.616   2.732
 8002TIP3    H223950   7.495   4.583   2.600
 8003TIP3   OH223951   7.727   4.723   3.876
 8003TIP3    H123952   7.651   4.781   3.880
 8003TIP3    H223953   7.778   4.754   3.801
 8004TIP3   OH223954   7.561   4.454   2.488
 8004TIP3    H123955   7.532   4.458   2.397
 8004TIP3    H223956   7.657   4.457   2.483
 8005TIP3   OH223957   8.246   5.123   4.014
 8005TIP3    H123958   8.319   5.096   3.959
 8005TIP3    H223959   8.241   5.056   4.082
 8006TIP3   OH223960   7.852   4.512   4.002
 8006TIP3    H123961   7.852   4.433   3.947
 8006TIP3    H223962   7.810   4.579   3.948
 8007TIP3   OH223963   7.852   4.298   3.812
 8007TIP3    H123964   7.881   4.341   3.731
 8007TIP3    H223965   7.760   4.276   3.795
 8008TIP3   OH223966   7.879   4.831   3.682
 8008TIP3    H123967   7.967   4.844   3.646
 8008TIP3    H223968   7.826   4.899   3.641
 8009TIP3   OH223969   8.465   4.803   4.069
 8009TIP3    H123970   8.506   4.718   4.054
 8009TIP3    H223971   8.524   4.865   4.027
 8010TIP3   OH223972   0.011   5.049   3.806
 8010TIP3    H123973  -0.043   5.102   3.747
 8010TIP3    H223974   0.092   5.033   3.758
 8011TIP3   OH223975   7.730   4.616   4.237
 8011TIP3    H123976   7.662   4.551   4.254
 8011TIP3    H223977   7.764   4.594   4.150
 8012TIP3   OH223978   7.972   4.060   3.885
 8012TIP3    H123979   7.925   4.140   3.863
 8012TIP3    H223980   7.907   3.990   3.874
 8013TIP3   OH223981   8.109   4.559   4.097
 8013TIP3    H123982   8.095   4.549   4.191
 8013TIP3    H223983   8.024   4.539   4.058
 8014TIP3   OH223984   8.355   4.518   3.953
 8014TIP3    H123985   8.274   4.520   4.005
 8014TIP3    H223986   8.419   4.476   4.010
 8015TIP3   OH223987   0.055   4.422   4.114
 8015TIP3    H123988   0.101   4.343   4.142
 8015TIP3    H223989   0.062   4.481   4.190
 8016TIP3   OH223990   7.569   4.397   4.293
 8016TIP3    H123991   7.572   4.308   4.258
 8016TIP3    H223992   7.605   4.389   4.382
 8017TIP3   OH223993   8.079   4.070   4.138
 8017TIP3    H123994   8.135   3.992   4.138
 8017TIP3    H223995   8.036   4.068   4.053
 8018TIP3   OH223996   8.146   4.287   4.295
 8018TIP3    H123997   8.125   4.217   4.234
 8018TIP3    H223998   8.071   4.346   4.291
 8019TIP3   OH223999   7.371   5.516   2.398
 8019TIP3    H124000   7.464   5.507   2.381
 8019TIP3    H224001   7.337   5.563   2.322
 8020TIP3   OH224002   6.874   4.869   2.649
 8020TIP3    H124003   6.952   4.899   2.602
 8020TIP3    H224004   6.831   4.809   2.588
 8021TIP3   OH224005   6.760   5.503   3.032
 8021TIP3    H124006   6.697   5.445   2.989
 8021TIP3    H224007   6.806   5.447   3.094
 8022TIP3   OH224008   6.904   5.358   3.220
 8022TIP3    H124009   6.884   5.283   3.276
 8022TIP3    H224010   6.944   5.422   3.279
 8023TIP3   OH224011   0.195   5.744   3.296
 8023TIP3    H124012   0.135   5.672   3.276
 8023TIP3    H224013   0.175   5.767   3.387
 8024TIP3   OH224014   0.172   5.474   3.875
 8024TIP3    H124015   0.103   5.473   3.941
 8024TIP3    H224016   0.209   5.562   3.881
 8025TIP3   OH224017   8.504   5.532   3.312
 8025TIP3    H124018   8.455   5.569   3.385
 8025TIP3    H224019   8.439   5.520   3.242
 8026TIP3   OH224020   8.435   4.659   2.835
 8026TIP3    H124021   8.521   4.617   2.841
 8026TIP3    H224022   8.426   4.707   2.918
 8027TIP3   OH224023   7.085   4.767   3.581
 8027TIP3    H124024   7.081   4.734   3.492
 8027TIP3    H224025   7.178   4.767   3.603
 8028TIP3   OH224026   7.303   4.451   4.263
 8028TIP3    H124027   7.399   4.448   4.264
 8028TIP3    H224028   7.277   4.367   4.301
 8029TIP3   OH224029   7.267   4.145   3.587
 8029TIP3    H124030   7.325   4.069   3.598
 8029TIP3    H224031   7.326   4.220   3.582
 8030TIP3   OH224032   7.067   4.422   3.662
 8030TIP3    H124033   7.115   4.415   3.579
 8030TIP3    H224034   7.100   4.503   3.702
 8031TIP3   OH224035   7.047   3.921   3.163
 8031TIP3    H124036   6.957   3.917   3.194
 8031TIP3    H224037   7.044   3.979   3.087
 8032TIP3   OH224038   8.202   5.630   2.673
 8032TIP3    H124039   8.250   5.618   2.591
 8032TIP3    H224040   8.258   5.687   2.725
 8033TIP3   OH224041   7.268   4.000   3.979
 8033TIP3    H124042   7.220   3.995   4.062
 8033TIP3    H224043   7.205   4.039   3.918
 8034TIP3   OH224044   7.305   5.430   4.054
 8034TIP3    H124045   7.213   5.405   4.040
 8034TIP3    H224046   7.321   5.411   4.147
 8035TIP3   OH224047   7.492   5.465   3.597
 8035TIP3    H124048   7.444   5.540   3.563
 8035TIP3    H224049   7.579   5.472   3.558
 8036TIP3   OH224050   7.930   5.712   3.745
 8036TIP3    H124051   7.972   5.709   3.831
 8036TIP3    H224052   7.995   5.755   3.688
 8037TIP3   OH224053   8.112   5.854   3.597
 8037TIP3    H124054   8.178   5.801   3.553
 8037TIP3    H224055   8.163   5.910   3.656
 8038TIP3   OH224056   7.158   5.719   3.631
 8038TIP3    H124057   7.070   5.751   3.609
 8038TIP3    H224058   7.179   5.763   3.713
 8039TIP3   OH224059   7.390   5.691   3.482
 8039TIP3    H124060   7.308   5.706   3.530
 8039TIP3    H224061   7.377   5.734   3.398
 8040TIP3   OH224062   7.783   5.733   3.276
 8040TIP3    H124063   7.808   5.780   3.197
 8040TIP3    H224064   7.842   5.766   3.344
 8041TIP3   OH224065   8.327   5.861   3.249
 8041TIP3    H124066   8.292   5.934   3.198
 8041TIP3    H224067   8.305   5.783   3.198
 8042TIP3   OH224068   7.089   5.510   3.376
 8042TIP3    H124069   7.084   5.496   3.471
 8042TIP3    H224070   7.170   5.466   3.350
 8043TIP3   OH224071   8.065   4.101   3.281
 8043TIP3    H124072   8.049   4.049   3.360
 8043TIP3    H224073   8.160   4.096   3.269
 8044TIP3   OH224074   7.357   3.839   3.335
 8044TIP3    H124075   7.266   3.810   3.337
 8044TIP3    H224076   7.408   3.758   3.331
 8045TIP3   OH224077   7.148   3.716   2.986
 8045TIP3    H124078   7.176   3.770   2.912
 8045TIP3    H224079   7.118   3.779   3.052
 8046TIP3   OH224080   7.805   3.876   3.216
 8046TIP3    H124081   7.857   3.921   3.150
 8046TIP3    H224082   7.832   3.915   3.299
 8047TIP3   OH224083   8.319   4.005   3.197
 8047TIP3    H124084   8.337   3.983   3.106
 8047TIP3    H224085   8.315   3.920   3.242
 8048TIP3   OH224086   6.866   5.292   2.758
 8048TIP3    H124087   6.788   5.245   2.728
 8048TIP3    H224088   6.853   5.382   2.727
 8049TIP3   OH224089   7.267   3.872   2.747
 8049TIP3    H124090   7.312   3.809   2.690
 8049TIP3    H224091   7.337   3.926   2.783
 8050TIP3   OH224092   7.776   4.053   2.846
 8050TIP3    H124093   7.834   4.004   2.905
 8050TIP3    H224094   7.792   4.145   2.867
 8051TIP3   OH224095   7.638   5.469   2.344
 8051TIP3    H124096   7.724   5.495   2.311
 8051TIP3    H224097   7.611   5.396   2.288
 8052TIP3   OH224098   8.338   5.597   2.440
 8052TIP3    H124099   8.336   5.502   2.431
 8052TIP3    H224100   8.314   5.629   2.353
 8053TIP3   OH224101   7.568   4.122   4.229
 8053TIP3    H124102   7.530   4.053   4.283
 8053TIP3    H224103   7.660   4.125   4.254
 8054TIP3   OH224104   7.816   4.119   4.347
 8054TIP3    H124105   7.901   4.096   4.309
 8054TIP3    H224106   7.800   4.052   4.414
 8055TIP3   OH224107   6.942   5.313   2.400
 8055TIP3    H124108   6.931   5.323   2.495
 8055TIP3    H224109   7.026   5.268   2.391
 8056TIP3   OH224110   0.066   5.744   3.629
 8056TIP3    H124111  -0.009   5.708   3.582
 8056TIP3    H224112   0.049   5.839   3.632
 8057TIP3   OH224113   0.502   5.643   4.591
 8057TIP3    H124114   0.468   5.733   4.592
 8057TIP3    H224115   0.434   5.593   4.545
 8058TIP3   OH224116   0.521   5.623   4.966
 8058TIP3    H124117   0.543   5.600   5.056
 8058TIP3    H224118   0.469   5.550   4.934
 8059TIP3   OH224119   0.749   5.942   4.660
 8059TIP3    H124120   0.734   5.874   4.725
 8059TIP3    H224121   0.774   6.019   4.712
 8060TIP3   OH224122   0.445   6.425   4.662
 8060TIP3    H124123   0.491   6.344   4.638
 8060TIP3    H224124   0.376   6.397   4.722
 8061TIP3   OH224125   0.330   5.830   5.042
 8061TIP3    H124126   0.356   5.761   4.981
 8061TIP3    H224127   0.409   5.882   5.054
 8062TIP3   OH224128   1.315   5.186   5.021
 8062TIP3    H124129   1.344   5.266   5.064
 8062TIP3    H224130   1.339   5.198   4.929
 8063TIP3   OH224131   0.712   5.364   5.056
 8063TIP3    H124132   0.754   5.280   5.076
 8063TIP3    H224133   0.680   5.353   4.966
 8064TIP3   OH224134   0.750   5.122   4.643
 8064TIP3    H124135   0.819   5.106   4.708
 8064TIP3    H224136   0.797   5.154   4.566
 8065TIP3   OH224137   1.387   5.395   5.193
 8065TIP3    H124138   1.304   5.438   5.173
 8065TIP3    H224139   1.408   5.423   5.282
 8066TIP3   OH224140   0.369   5.871   4.474
 8066TIP3    H124141   0.352   5.826   4.391
 8066TIP3    H224142   0.440   5.932   4.454
 8067TIP3   OH224143   0.954   5.123   4.821
 8067TIP3    H124144   0.939   5.076   4.903
 8067TIP3    H224145   1.007   5.199   4.846
 8068TIP3   OH224146   0.813   6.186   4.820
 8068TIP3    H124147   0.727   6.175   4.861
 8068TIP3    H224148   0.808   6.273   4.780
 8069TIP3   OH224149   1.106   5.090   5.188
 8069TIP3    H124150   1.019   5.114   5.154
 8069TIP3    H224151   1.167   5.118   5.119
 8070TIP3   OH224152   0.409   4.714   5.163
 8070TIP3    H124153   0.402   4.620   5.180
 8070TIP3    H224154   0.359   4.754   5.234
 8071TIP3   OH224155   0.514   6.211   4.483
 8071TIP3    H124156   0.559   6.129   4.464
 8071TIP3    H224157   0.574   6.279   4.451
 8072TIP3   OH224158   0.636   5.982   4.410
 8072TIP3    H124159   0.665   5.917   4.345
 8072TIP3    H224160   0.688   5.963   4.488
 8073TIP3   OH224161   1.040   6.097   5.167
 8073TIP3    H124162   1.028   6.020   5.111
 8073TIP3    H224163   1.021   6.172   5.110
 8074TIP3   OH224164   0.332   5.510   4.426
 8074TIP3    H124165   0.254   5.460   4.447
 8074TIP3    H224166   0.355   5.483   4.337
 8075TIP3   OH224167   0.312   5.282   4.140
 8075TIP3    H124168   0.383   5.333   4.179
 8075TIP3    H224169   0.357   5.214   4.090
 8076TIP3   OH224170   1.235   5.739   5.012
 8076TIP3    H124171   1.152   5.787   5.019
 8076TIP3    H224172   1.266   5.757   4.924
 8077TIP3   OH224173   0.683   5.575   4.398
 8077TIP3    H124174   0.628   5.597   4.474
 8077TIP3    H224175   0.766   5.546   4.437
 8078TIP3   OH224176   0.914   5.614   5.313
 8078TIP3    H124177   0.913   5.695   5.363
 8078TIP3    H224178   0.831   5.615   5.266
 8079TIP3   OH224179   0.575   6.182   4.941
 8079TIP3    H124180   0.554   6.263   4.988
 8079TIP3    H224181   0.560   6.113   5.006
 8080TIP3   OH224182   0.524   5.433   4.222
 8080TIP3    H124183   0.577   5.491   4.277
 8080TIP3    H224184   0.549   5.455   4.132
 8081TIP3   OH224185   1.036   4.675   4.274
 8081TIP3    H124186   0.956   4.694   4.322
 8081TIP3    H224187   1.051   4.752   4.220
 8082TIP3   OH224188   0.841   6.042   3.825
 8082TIP3    H124189   0.845   6.135   3.805
 8082TIP3    H224190   0.929   6.009   3.809
 8083TIP3   OH224191   1.275   6.442   5.219
 8083TIP3    H124192   1.277   6.347   5.231
 8083TIP3    H224193   1.194   6.469   5.261
 8084TIP3   OH224194   0.352   6.263   3.939
 8084TIP3    H124195   0.408   6.192   3.907
 8084TIP3    H224196   0.368   6.266   4.033
 8085TIP3   OH224197   0.395   6.309   4.220
 8085TIP3    H124198   0.328   6.313   4.289
 8085TIP3    H224199   0.476   6.287   4.267
 8086TIP3   OH224200   1.166   5.571   5.490
 8086TIP3    H124201   1.085   5.583   5.439
 8086TIP3    H224202   1.185   5.478   5.483
 8087TIP3   OH224203   0.707   4.919   5.494
 8087TIP3    H124204   0.774   4.893   5.556
 8087TIP3    H224205   0.624   4.901   5.539
 8088TIP3   OH224206   0.933   5.349   5.412
 8088TIP3    H124207   0.888   5.344   5.496
 8088TIP3    H224208   0.911   5.435   5.378
 8089TIP3   OH224209   0.597   5.483   3.967
 8089TIP3    H124210   0.559   5.455   3.884
 8089TIP3    H224211   0.683   5.519   3.943
 8090TIP3   OH224212   0.295   4.859   4.247
 8090TIP3    H124213   0.288   4.862   4.342
 8090TIP3    H224214   0.269   4.770   4.224
 8091TIP3   OH224215   0.475   5.301   4.561
 8091TIP3    H124216   0.421   5.370   4.523
 8091TIP3    H224217   0.525   5.265   4.488
 8092TIP3   OH224218   0.669   5.558   5.640
 8092TIP3    H124219   0.640   5.487   5.697
 8092TIP3    H224220   0.762   5.570   5.662
 8093TIP3   OH224221   0.625   5.317   4.795
 8093TIP3    H124222   0.564   5.348   4.728
 8093TIP3    H224223   0.665   5.239   4.757
 8094TIP3   OH224224   0.636   5.562   5.222
 8094TIP3    H124225   0.671   5.498   5.160
 8094TIP3    H224226   0.609   5.510   5.298
 8095TIP3   OH224227   0.316   5.023   4.884
 8095TIP3    H124228   0.226   5.046   4.905
 8095TIP3    H224229   0.364   5.036   4.966
 8096TIP3   OH224230   0.795   5.102   5.100
 8096TIP3    H124231   0.764   5.118   5.190
 8096TIP3    H224232   0.732   5.039   5.065
 8097TIP3   OH224233   0.977   6.789   5.315
 8097TIP3    H124234   0.966   6.816   5.224
 8097TIP3    H224235   1.048   6.844   5.347
 8098TIP3   OH224236   0.402   5.346   4.991
 8098TIP3    H124237   0.472   5.314   4.934
 8098TIP3    H224238   0.420   5.305   5.076
 8099TIP3   OH224239   0.393   5.242   5.278
 8099TIP3    H124240   0.326   5.310   5.272
 8099TIP3    H224241   0.465   5.283   5.326
 8100TIP3   OH224242   1.000   5.880   5.002
 8100TIP3    H124243   1.026   5.930   4.924
 8100TIP3    H224244   0.918   5.837   4.977
 8101TIP3   OH224245   0.555   4.953   4.247
 8101TIP3    H124246   0.461   4.939   4.245
 8101TIP3    H224247   0.566   5.046   4.268
 8102TIP3   OH224248   0.496   5.970   5.369
 8102TIP3    H124249   0.523   5.958   5.460
 8102TIP3    H224250   0.442   6.049   5.369
 8103TIP3   OH224251   0.630   5.205   4.344
 8103TIP3    H124252   0.725   5.207   4.357
 8103TIP3    H224253   0.612   5.281   4.289
 8104TIP3   OH224254   0.238   5.797   4.214
 8104TIP3    H124255   0.172   5.866   4.208
 8104TIP3    H224256   0.193   5.724   4.257
 8105TIP3   OH224257   0.455   5.690   5.738
 8105TIP3    H124258   0.394   5.624   5.704
 8105TIP3    H224259   0.539   5.666   5.699
 8106TIP3   OH224260   0.666   6.219   5.264
 8106TIP3    H124261   0.571   6.222   5.273
 8106TIP3    H224262   0.700   6.269   5.338
 8107TIP3   OH224263   1.067   5.298   4.174
 8107TIP3    H124264   1.007   5.250   4.118
 8107TIP3    H224265   1.071   5.386   4.136
 8108TIP3   OH224266   1.289   6.154   5.254
 8108TIP3    H124267   1.194   6.148   5.249
 8108TIP3    H224268   1.319   6.124   5.168
 8109TIP3   OH224269   0.780   6.110   4.088
 8109TIP3    H124270   0.742   6.036   4.137
 8109TIP3    H224271   0.789   6.077   3.999
 8110TIP3   OH224272   0.773   5.740   4.915
 8110TIP3    H124273   0.681   5.717   4.932
 8110TIP3    H224274   0.809   5.663   4.872
 8111TIP3   OH224275   0.569   5.947   5.106
 8111TIP3    H124276   0.554   5.955   5.200
 8111TIP3    H224277   0.652   5.899   5.099
 8112TIP3   OH224278   0.535   5.844   3.987
 8112TIP3    H124279   0.577   5.819   4.069
 8112TIP3    H224280   0.447   5.807   3.993
 8113TIP3   OH224281   0.805   6.476   5.148
 8113TIP3    H124282   0.726   6.422   5.147
 8113TIP3    H224283   0.788   6.544   5.083
 8114TIP3   OH224284   0.869   6.316   3.806
 8114TIP3    H124285   0.905   6.380   3.744
 8114TIP3    H224286   0.792   6.358   3.842
 8115TIP3   OH224287   0.695   5.784   4.219
 8115TIP3    H124288   0.680   5.710   4.277
 8115TIP3    H224289   0.787   5.776   4.193
 8116TIP3   OH224290   0.723   5.160   5.361
 8116TIP3    H124291   0.806   5.196   5.391
 8116TIP3    H224292   0.714   5.078   5.409
 8117TIP3   OH224293   0.614   4.903   4.522
 8117TIP3    H124294   0.588   4.922   4.432
 8117TIP3    H224295   0.647   4.986   4.556
 8118TIP3   OH224296   0.291   5.101   4.621
 8118TIP3    H124297   0.359   5.167   4.607
 8118TIP3    H224298   0.292   5.085   4.715
 8119TIP3   OH224299   0.575   5.399   5.428
 8119TIP3    H124300   0.601   5.453   5.503
 8119TIP3    H224301   0.628   5.320   5.437
 8120TIP3   OH224302   0.454   4.816   4.743
 8120TIP3    H124303   0.419   4.896   4.782
 8120TIP3    H224304   0.497   4.845   4.662
 8121TIP3   OH224305   1.199   5.306   5.409
 8121TIP3    H124306   1.104   5.305   5.418
 8121TIP3    H224307   1.215   5.264   5.324
 8122TIP3   OH224308   0.854   5.497   4.797
 8122TIP3    H124309   0.777   5.442   4.808
 8122TIP3    H224310   0.924   5.451   4.844
 8123TIP3   OH224311   0.831   6.454   4.745
 8123TIP3    H124312   0.784   6.499   4.675
 8123TIP3    H224313   0.923   6.469   4.725
 8124TIP3   OH224314   0.736   6.346   5.492
 8124TIP3    H124315   0.714   6.291   5.567
 8124TIP3    H224316   0.788   6.417   5.529
 8125TIP3   OH224317   0.497   6.066   3.812
 8125TIP3    H124318   0.533   5.996   3.867
 8125TIP3    H224319   0.547   6.061   3.731
 8126TIP3   OH224320   0.239   5.744   3.935
 8126TIP3    H124321   0.225   5.756   4.029
 8126TIP3    H224322   0.231   5.650   3.921
 8127TIP3   OH224323   0.824   5.989   5.306
 8127TIP3    H124324   0.901   6.030   5.264
 8127TIP3    H224325   0.754   6.053   5.295
 8128TIP3   OH224326   0.048   5.258   4.228
 8128TIP3    H124327   0.021   5.253   4.137
 8128TIP3    H224328   0.144   5.257   4.225
 8129TIP3   OH224329   0.694   5.912   5.712
 8129TIP3    H124330   0.762   5.881   5.652
 8129TIP3    H224331   0.691   5.848   5.782
 8130TIP3   OH224332   0.830   5.569   3.847
 8130TIP3    H124333   0.815   5.520   3.766
 8130TIP3    H224334   0.800   5.658   3.827
 8131TIP3   OH224335   0.269   5.037   5.422
 8131TIP3    H124336   0.320   5.100   5.371
 8131TIP3    H224337   0.230   5.089   5.492
 8132TIP3   OH224338   0.387   5.682   5.326
 8132TIP3    H124339   0.477   5.661   5.302
 8132TIP3    H224340   0.367   5.761   5.276
 8133TIP3   OH224341   0.923   5.581   5.754
 8133TIP3    H124342   0.967   5.499   5.777
 8133TIP3    H224343   0.992   5.635   5.715
 8134TIP3   OH224344   0.956   5.845   5.493
 8134TIP3    H124345   0.897   5.896   5.437
 8134TIP3    H224346   1.043   5.861   5.458
 8135TIP3   OH224347   0.445   4.850   5.557
 8135TIP3    H124348   0.387   4.921   5.529
 8135TIP3    H224349   0.392   4.771   5.547
 8136TIP3   OH224350   0.569   5.356   5.797
 8136TIP3    H124351   0.604   5.352   5.886
 8136TIP3    H224352   0.486   5.308   5.801
 8137TIP3   OH224353   0.806   5.295   5.645
 8137TIP3    H124354   0.733   5.292   5.706
 8137TIP3    H224355   0.882   5.267   5.697
 8138TIP3   OH224356   1.034   5.242   5.794
 8138TIP3    H124357   1.047   5.148   5.809
 8138TIP3    H224358   1.028   5.280   5.882
 8139TIP3   OH224359   0.541   4.863   5.817
 8139TIP3    H124360   0.602   4.789   5.821
 8139TIP3    H224361   0.499   4.855   5.732
 8140TIP3   OH224362   0.612   5.072   5.973
 8140TIP3    H124363   0.595   4.995   5.918
 8140TIP3    H224364   0.527   5.116   5.980
 8141TIP3   OH224365   1.095   6.537   4.705
 8141TIP3    H124366   1.103   6.563   4.797
 8141TIP3    H224367   1.106   6.618   4.656
 8142TIP3   OH224368   1.106   6.561   4.984
 8142TIP3    H124369   1.059   6.478   4.984
 8142TIP3    H224370   1.180   6.547   5.044
 8143TIP3   OH224371   1.158   6.251   5.565
 8143TIP3    H124372   1.081   6.255   5.622
 8143TIP3    H224373   1.199   6.337   5.573
 8144TIP3   OH224374   0.968   5.757   4.182
 8144TIP3    H124375   1.033   5.819   4.148
 8144TIP3    H224376   1.011   5.717   4.258
 8145TIP3   OH224377   1.096   5.628   4.387
 8145TIP3    H124378   1.031   5.583   4.441
 8145TIP3    H224379   1.161   5.660   4.448
 8146TIP3   OH224380   1.153   6.015   4.814
 8146TIP3    H124381   1.207   5.948   4.772
 8146TIP3    H224382   1.139   6.081   4.747
 8147TIP3   OH224383   0.979   6.315   5.008
 8147TIP3    H124384   0.912   6.360   5.060
 8147TIP3    H224385   0.929   6.269   4.940
 8148TIP3   OH224386   1.032   5.536   4.028
 8148TIP3    H124387   0.964   5.531   3.961
 8148TIP3    H224388   1.005   5.609   4.084
 8149TIP3   OH224389   0.898   5.207   3.985
 8149TIP3    H124390   0.867   5.241   3.901
 8149TIP3    H224391   0.878   5.113   3.983
 8150TIP3   OH224392   0.909   5.480   4.528
 8150TIP3    H124393   0.917   5.385   4.517
 8150TIP3    H224394   0.896   5.492   4.622
 8151TIP3   OH224395   1.202   5.906   5.387
 8151TIP3    H124396   1.270   5.839   5.378
 8151TIP3    H224397   1.224   5.973   5.323
 8152TIP3   OH224398   1.382   5.705   5.399
 8152TIP3    H124399   1.307   5.659   5.437
 8152TIP3    H224400   1.456   5.646   5.413
 8153TIP3   OH224401   0.845   4.943   3.978
 8153TIP3    H124402   0.921   4.906   4.024
 8153TIP3    H224403   0.776   4.878   3.990
 8154TIP3   OH224404   0.910   5.198   4.419
 8154TIP3    H124405   0.946   5.112   4.437
 8154TIP3    H224406   0.963   5.232   4.347
 8155TIP3   OH224407   1.069   5.369   4.921
 8155TIP3    H124408   1.150   5.392   4.876
 8155TIP3    H224409   1.079   5.405   5.009
 8156TIP3   OH224410   1.137   5.517   5.150
 8156TIP3    H124411   1.061   5.548   5.199
 8156TIP3    H224412   1.170   5.595   5.104
 8157TIP3   OH224413   1.587   5.108   5.703
 8157TIP3    H124414   1.647   5.043   5.665
 8157TIP3    H224415   1.559   5.162   5.629
 8158TIP3   OH224416   1.014   4.948   4.465
 8158TIP3    H124417   1.061   4.932   4.546
 8158TIP3    H224418   0.953   4.874   4.458
 8159TIP3   OH224419   1.455   5.244   5.508
 8159TIP3    H124420   1.372   5.287   5.531
 8159TIP3    H224421   1.430   5.171   5.453
 8160TIP3   OH224422   1.097   4.877   4.095
 8160TIP3    H124423   1.132   4.809   4.038
 8160TIP3    H224424   1.160   4.949   4.088
 8161TIP3   OH224425   0.663   6.398   4.362
 8161TIP3    H124426   0.714   6.397   4.281
 8161TIP3    H224427   0.693   6.477   4.408
 8162TIP3   OH224428   0.558   6.635   5.301
 8162TIP3    H124429   0.620   6.579   5.256
 8162TIP3    H224430   0.613   6.695   5.352
 8163TIP3   OH224431   1.359   5.006   5.390
 8163TIP3    H124432   1.269   5.000   5.358
 8163TIP3    H224433   1.393   4.916   5.381
 8164TIP3   OH224434   0.540   6.458   5.031
 8164TIP3    H124435   0.453   6.478   5.066
 8164TIP3    H224436   0.565   6.538   4.984
 8165TIP3   OH224437   0.766   6.649   4.938
 8165TIP3    H124438   0.742   6.730   4.892
 8165TIP3    H224439   0.779   6.585   4.868
 8166TIP3   OH224440   0.578   4.922   5.029
 8166TIP3    H124441   0.523   4.852   5.062
 8166TIP3    H224442   0.627   4.883   4.957
 8167TIP3   OH224443   1.085   4.812   4.929
 8167TIP3    H124444   1.124   4.858   4.855
 8167TIP3    H224445   0.990   4.822   4.917
 8168TIP3   OH224446   1.180   4.898   4.682
 8168TIP3    H124447   1.250   4.846   4.643
 8168TIP3    H224448   1.208   4.989   4.670
 8169TIP3   OH224449   0.276   4.659   4.910
 8169TIP3    H124450   0.322   4.710   4.843
 8169TIP3    H224451   0.313   4.689   4.993
 8170TIP3   OH224452   0.810   4.805   4.885
 8170TIP3    H124453   0.782   4.778   4.798
 8170TIP3    H224454   0.789   4.731   4.942
 8171TIP3   OH224455   0.831   4.735   4.457
 8171TIP3    H124456   0.749   4.783   4.470
 8171TIP3    H224457   0.815   4.649   4.496
 8172TIP3   OH224458   0.277   4.846   4.514
 8172TIP3    H124459   0.253   4.790   4.587
 8172TIP3    H224460   0.264   4.935   4.546
 8173TIP3   OH224461   0.806   6.380   4.128
 8173TIP3    H124462   0.801   6.285   4.117
 8173TIP3    H224463   0.764   6.415   4.050
 8174TIP3   OH224464   1.096   4.972   5.824
 8174TIP3    H124465   1.111   4.942   5.914
 8174TIP3    H224466   1.182   4.967   5.783
 8175TIP3   OH224467   1.027   6.521   5.318
 8175TIP3    H124468   0.952   6.489   5.268
 8175TIP3    H224469   1.013   6.616   5.322
 8176TIP3   OH224470   2.300   5.882   4.089
 8176TIP3    H124471   2.277   5.972   4.065
 8176TIP3    H224472   2.232   5.828   4.049
 8177TIP3   OH224473   2.283   5.900   4.473
 8177TIP3    H124474   2.327   5.875   4.554
 8177TIP3    H224475   2.257   5.818   4.433
 8178TIP3   OH224476   1.597   5.790   4.830
 8178TIP3    H124477   1.621   5.722   4.893
 8178TIP3    H224478   1.678   5.840   4.817
 8179TIP3   OH224479   2.533   6.208   4.149
 8179TIP3    H124480   2.535   6.131   4.206
 8179TIP3    H224481   2.576   6.276   4.200
 8180TIP3   OH224482   1.549   6.186   4.497
 8180TIP3    H124483   1.548   6.093   4.520
 8180TIP3    H224484   1.632   6.218   4.530
 8181TIP3   OH224485   1.270   5.405   4.335
 8181TIP3    H124486   1.222   5.487   4.350
 8181TIP3    H224487   1.207   5.348   4.292
 8182TIP3   OH224488   1.338   5.689   4.512
 8182TIP3    H124489   1.381   5.612   4.551
 8182TIP3    H224490   1.390   5.709   4.435
 8183TIP3   OH224491   2.185   6.646   4.151
 8183TIP3    H124492   2.244   6.573   4.132
 8183TIP3    H224493   2.175   6.645   4.246
 8184TIP3   OH224494   2.101   6.122   4.511
 8184TIP3    H124495   2.137   6.040   4.477
 8184TIP3    H224496   2.178   6.174   4.535
 8185TIP3   OH224497   2.504   5.619   4.542
 8185TIP3    H124498   2.555   5.542   4.564
 8185TIP3    H224499   2.476   5.604   4.451
 8186TIP3   OH224500   1.845   5.283   4.506
 8186TIP3    H124501   1.831   5.356   4.445
 8186TIP3    H224502   1.802   5.209   4.465
 8187TIP3   OH224503   2.545   5.378   4.131
 8187TIP3    H124504   2.613   5.365   4.197
 8187TIP3    H224505   2.592   5.410   4.054
 8188TIP3   OH224506   1.482   5.481   4.616
 8188TIP3    H124507   1.563   5.464   4.664
 8188TIP3    H224508   1.491   5.429   4.536
 8189TIP3   OH224509   1.920   5.681   4.413
 8189TIP3    H124510   2.013   5.660   4.423
 8189TIP3    H224511   1.881   5.600   4.380
 8190TIP3   OH224512   3.202   5.640   4.694
 8190TIP3    H124513   3.125   5.671   4.646
 8190TIP3    H224514   3.203   5.693   4.774
 8191TIP3   OH224515   1.841   5.268   4.943
 8191TIP3    H124516   1.785   5.303   4.873
 8191TIP3    H224517   1.791   5.284   5.023
 8192TIP3   OH224518   2.188   6.089   3.950
 8192TIP3    H124519   2.158   6.073   3.861
 8192TIP3    H224520   2.125   6.152   3.986
 8193TIP3   OH224521   1.949   6.044   4.733
 8193TIP3    H124522   1.891   6.110   4.770
 8193TIP3    H224523   1.998   6.090   4.664
 8194TIP3   OH224524   2.751   5.380   4.305
 8194TIP3    H124525   2.755   5.325   4.382
 8194TIP3    H224526   2.832   5.431   4.307
 8195TIP3   OH224527   1.718   5.382   4.725
 8195TIP3    H124528   1.776   5.454   4.750
 8195TIP3    H224529   1.762   5.340   4.651
 8196TIP3   OH224530   1.774   6.241   4.832
 8196TIP3    H124531   1.757   6.330   4.800
 8196TIP3    H224532   1.700   6.220   4.888
 8197TIP3   OH224533   1.158   5.929   4.059
 8197TIP3    H124534   1.124   5.926   3.970
 8197TIP3    H224535   1.151   6.022   4.084
 8198TIP3   OH224536   2.605   6.445   4.312
 8198TIP3    H124537   2.517   6.435   4.348
 8198TIP3    H224538   2.605   6.530   4.269
 8199TIP3   OH224539   2.905   5.340   4.676
 8199TIP3    H124540   2.821   5.373   4.645
 8199TIP3    H224541   2.961   5.340   4.599
 8200TIP3   OH224542   2.196   4.984   4.660
 8200TIP3    H124543   2.180   4.891   4.673
 8200TIP3    H224544   2.122   5.027   4.703
 8201TIP3   OH224545   2.305   6.475   3.948
 8201TIP3    H124546   2.361   6.397   3.948
 8201TIP3    H224547   2.365   6.547   3.928
 8202TIP3   OH224548   2.442   6.257   3.893
 8202TIP3    H124549   2.456   6.183   3.834
 8202TIP3    H224550   2.479   6.228   3.976
 8203TIP3   OH224551   2.835   6.353   4.653
 8203TIP3    H124552   2.826   6.276   4.596
 8203TIP3    H224553   2.822   6.428   4.595
 8204TIP3   OH224554   2.131   5.751   3.911
 8204TIP3    H124555   2.049   5.791   3.881
 8204TIP3    H224556   2.182   5.737   3.831
 8205TIP3   OH224557   2.089   5.533   3.625
 8205TIP3    H124558   2.159   5.583   3.668
 8205TIP3    H224559   2.136   5.464   3.577
 8206TIP3   OH224560   3.031   5.998   4.511
 8206TIP3    H124561   2.948   6.047   4.512
 8206TIP3    H224562   3.060   6.003   4.420
 8207TIP3   OH224563   2.478   5.832   3.887
 8207TIP3    H124564   2.425   5.849   3.965
 8207TIP3    H224565   2.562   5.803   3.921
 8208TIP3   OH224566   2.709   5.868   4.802
 8208TIP3    H124567   2.710   5.950   4.852
 8208TIP3    H224568   2.627   5.873   4.752
 8209TIP3   OH224569   1.715   5.829   4.298
 8209TIP3    H124570   1.667   5.771   4.238
 8209TIP3    H224571   1.786   5.775   4.331
 8210TIP3   OH224572   1.843   6.243   4.442
 8210TIP3    H124573   1.824   6.175   4.377
 8210TIP3    H224574   1.929   6.220   4.476
 8211TIP3   OH224575   1.840   5.803   4.654
 8211TIP3    H124576   1.875   5.773   4.570
 8211TIP3    H224577   1.887   5.884   4.673
 8212TIP3   OH224578   2.360   6.438   4.428
 8212TIP3    H124579   2.356   6.517   4.482
 8212TIP3    H224580   2.353   6.366   4.490
 8213TIP3   OH224581   1.981   6.357   4.979
 8213TIP3    H124582   1.925   6.418   5.026
 8213TIP3    H224583   1.920   6.302   4.930
 8214TIP3   OH224584   2.310   5.700   3.709
 8214TIP3    H124585   2.375   5.748   3.760
 8214TIP3    H224586   2.337   5.714   3.618
 8215TIP3   OH224587   1.737   5.915   5.084
 8215TIP3    H124588   1.744   6.001   5.126
 8215TIP3    H224589   1.645   5.891   5.093
 8216TIP3   OH224590   1.774   6.522   5.066
 8216TIP3    H124591   1.742   6.525   4.976
 8216TIP3    H224592   1.697   6.502   5.119
 8217TIP3   OH224593   2.830   4.928   3.758
 8217TIP3    H124594   2.751   4.949   3.809
 8217TIP3    H224595   2.849   5.008   3.710
 8218TIP3   OH224596   1.567   5.675   4.117
 8218TIP3    H124597   1.504   5.714   4.056
 8218TIP3    H224598   1.547   5.581   4.116
 8219TIP3   OH224599   2.637   6.300   3.313
 8219TIP3    H124600   2.645   6.393   3.293
 8219TIP3    H224601   2.725   6.265   3.298
 8220TIP3   OH224602   1.356   6.054   5.013
 8220TIP3    H124603   1.289   6.032   4.948
 8220TIP3    H224604   1.394   5.970   5.038
 8221TIP3   OH224605   1.221   6.256   4.641
 8221TIP3    H124606   1.309   6.259   4.677
 8221TIP3    H224607   1.175   6.328   4.685
 8222TIP3   OH224608   3.071   6.699   4.703
 8222TIP3    H124609   3.075   6.604   4.715
 8222TIP3    H224610   2.991   6.725   4.748
 8223TIP3   OH224611   2.177   6.489   4.836
 8223TIP3    H124612   2.178   6.579   4.868
 8223TIP3    H224613   2.111   6.445   4.889
 8224TIP3   OH224614   1.387   6.391   4.227
 8224TIP3    H124615   1.377   6.482   4.255
 8224TIP3    H224616   1.305   6.370   4.183
 8225TIP3   OH224617   2.164   6.503   3.435
 8225TIP3    H124618   2.188   6.431   3.377
 8225TIP3    H224619   2.245   6.525   3.482
 8226TIP3   OH224620   2.959   5.825   4.978
 8226TIP3    H124621   2.886   5.838   4.917
 8226TIP3    H224622   2.981   5.732   4.970
 8227TIP3   OH224623   1.558   6.240   4.998
 8227TIP3    H124624   1.609   6.227   5.078
 8227TIP3    H224625   1.487   6.176   5.004
 8228TIP3   OH224626   1.957   5.061   4.789
 8228TIP3    H124627   1.872   5.028   4.760
 8228TIP3    H224628   1.937   5.143   4.834
 8229TIP3   OH224629   2.495   5.173   4.982
 8229TIP3    H124630   2.562   5.150   5.046
 8229TIP3    H224631   2.412   5.157   5.026
 8230TIP3   OH224632   2.725   5.600   4.894
 8230TIP3    H124633   2.683   5.601   4.980
 8230TIP3    H224634   2.712   5.688   4.860
 8231TIP3   OH224635   2.395   5.746   3.457
 8231TIP3    H124636   2.356   5.716   3.375
 8231TIP3    H224637   2.481   5.778   3.431
 8232TIP3   OH224638   2.107   5.103   3.760
 8232TIP3    H124639   2.070   5.104   3.849
 8232TIP3    H224640   2.065   5.029   3.717
 8233TIP3   OH224641   1.888   5.581   4.804
 8233TIP3    H124642   1.842   5.599   4.886
 8233TIP3    H224643   1.874   5.659   4.751
 8234TIP3   OH224644   1.773   5.464   4.317
 8234TIP3    H124645   1.683   5.436   4.338
 8234TIP3    H224646   1.790   5.426   4.231
 8235TIP3   OH224647   2.265   5.548   4.046
 8235TIP3    H124648   2.216   5.618   4.002
 8235TIP3    H224649   2.324   5.514   3.978
 8236TIP3   OH224650   2.443   5.825   5.136
 8236TIP3    H124651   2.420   5.752   5.193
 8236TIP3    H224652   2.536   5.839   5.151
 8237TIP3   OH224653   2.417   5.572   4.281
 8237TIP3    H124654   2.359   5.601   4.211
 8237TIP3    H224655   2.461   5.494   4.246
 8238TIP3   OH224656   1.708   5.606   5.015
 8238TIP3    H124657   1.748   5.666   5.079
 8238TIP3    H224658   1.698   5.524   5.063
 8239TIP3   OH224659   1.750   5.065   3.729
 8239TIP3    H124660   1.737   5.081   3.823
 8239TIP3    H224661   1.690   5.126   3.687
 8240TIP3   OH224662   1.302   5.123   4.601
 8240TIP3    H124663   1.378   5.156   4.649
 8240TIP3    H224664   1.337   5.094   4.517
 8241TIP3   OH224665   1.271   5.109   4.116
 8241TIP3    H124666   1.316   5.140   4.038
 8241TIP3    H224667   1.208   5.178   4.137
 8242TIP3   OH224668   2.425   5.818   4.704
 8242TIP3    H124669   2.461   5.752   4.645
 8242TIP3    H224670   2.400   5.769   4.783
 8243TIP3   OH224671   2.106   5.286   4.381
 8243TIP3    H124672   2.029   5.284   4.438
 8243TIP3    H224673   2.180   5.278   4.441
 8244TIP3   OH224674   1.535   5.340   4.387
 8244TIP3    H124675   1.444   5.346   4.358
 8244TIP3    H224676   1.562   5.251   4.363
 8245TIP3   OH224677   1.803   5.342   4.075
 8245TIP3    H124678   1.896   5.350   4.057
 8245TIP3    H224679   1.760   5.361   3.992
 8246TIP3   OH224680   2.593   5.362   4.592
 8246TIP3    H124681   2.553   5.374   4.678
 8246TIP3    H224682   2.535   5.302   4.546
 8247TIP3   OH224683   1.650   5.378   3.847
 8247TIP3    H124684   1.584   5.326   3.801
 8247TIP3    H224685   1.706   5.413   3.777
 8248TIP3   OH224686   2.762   7.049   4.799
 8248TIP3    H124687   2.761   7.072   4.706
 8248TIP3    H224688   2.844   7.086   4.832
 8249TIP3   OH224689   1.721   6.163   5.223
 8249TIP3    H124690   1.802   6.190   5.266
 8249TIP3    H224691   1.656   6.160   5.293
 8250TIP3   OH224692   2.187   5.613   4.472
 8250TIP3    H124693   2.259   5.580   4.418
 8250TIP3    H224694   2.199   5.569   4.557
 8251TIP3   OH224695   1.707   5.101   4.356
 8251TIP3    H124696   1.674   5.024   4.402
 8251TIP3    H224697   1.747   5.066   4.276
 8252TIP3   OH224698   2.161   5.508   4.775
 8252TIP3    H124699   2.074   5.549   4.783
 8252TIP3    H224700   2.220   5.570   4.818
 8253TIP3   OH224701   1.886   5.908   3.861
 8253TIP3    H124702   1.824   5.837   3.848
 8253TIP3    H224703   1.874   5.934   3.952
 8254TIP3   OH224704   2.796   6.140   4.487
 8254TIP3    H124705   2.826   6.186   4.408
 8254TIP3    H224706   2.715   6.096   4.459
 8255TIP3   OH224707   2.359   5.205   3.744
 8255TIP3    H124708   2.265   5.184   3.741
 8255TIP3    H224709   2.362   5.301   3.740
 8256TIP3   OH224710   2.289   6.216   4.861
 8256TIP3    H124711   2.334   6.200   4.944
 8256TIP3    H224712   2.261   6.307   4.866
 8257TIP3   OH224713   2.426   5.469   3.835
 8257TIP3    H124714   2.521   5.467   3.846
 8257TIP3    H224715   2.411   5.534   3.768
 8258TIP3   OH224716   1.594   5.922   4.533
 8258TIP3    H124717   1.633   5.890   4.452
 8258TIP3    H224718   1.631   5.867   4.601
 8259TIP3   OH224719   2.036   6.070   3.705
 8259TIP3    H124720   1.965   6.121   3.667
 8259TIP3    H224721   1.992   6.000   3.753
 8260TIP3   OH224722   1.472   5.844   5.153
 8260TIP3    H124723   1.493   5.831   5.246
 8260TIP3    H224724   1.406   5.777   5.134
 8261TIP3   OH224725   2.202   5.957   5.170
 8261TIP3    H124726   2.142   5.901   5.119
 8261TIP3    H224727   2.289   5.926   5.146
 8262TIP3   OH224728   2.454   6.479   4.759
 8262TIP3    H124729   2.359   6.480   4.768
 8262TIP3    H224730   2.486   6.530   4.833
 8263TIP3   OH224731   2.863   5.555   3.660
 8263TIP3    H124732   2.805   5.506   3.601
 8263TIP3    H224733   2.863   5.644   3.624
 8264TIP3   OH224734   3.085   6.411   4.740
 8264TIP3    H124735   2.989   6.404   4.737
 8264TIP3    H224736   3.114   6.381   4.654
 8265TIP3   OH224737   2.544   6.366   3.566
 8265TIP3    H124738   2.566   6.295   3.625
 8265TIP3    H224739   2.575   6.336   3.480
 8266TIP3   OH224740   2.562   6.000   4.402
 8266TIP3    H124741   2.471   5.976   4.417
 8266TIP3    H224742   2.601   5.922   4.362
 8267TIP3   OH224743   1.643   6.230   4.169
 8267TIP3    H124744   1.689   6.312   4.151
 8267TIP3    H224745   1.604   6.206   4.085
 8268TIP3   OH224746   1.258   5.533   3.869
 8268TIP3    H124747   1.304   5.614   3.889
 8268TIP3    H224748   1.182   5.533   3.926
 8269TIP3   OH224749   1.823   6.006   4.111
 8269TIP3    H124750   1.772   6.082   4.141
 8269TIP3    H224751   1.803   5.938   4.175
 8270TIP3   OH224752   1.967   6.571   4.632
 8270TIP3    H124753   2.006   6.642   4.581
 8270TIP3    H224754   2.040   6.534   4.681
 8271TIP3   OH224755   1.626   6.470   4.020
 8271TIP3    H124756   1.539   6.475   4.061
 8271TIP3    H224757   1.657   6.561   4.019
 8272TIP3   OH224758   2.350   6.208   4.592
 8272TIP3    H124759   2.337   6.203   4.686
 8272TIP3    H224760   2.428   6.156   4.575
 8273TIP3   OH224761   2.330   6.102   3.479
 8273TIP3    H124762   2.382   6.083   3.556
 8273TIP3    H224763   2.249   6.052   3.491
 8274TIP3   OH224764   2.594   6.739   4.641
 8274TIP3    H124765   2.518   6.682   4.634
 8274TIP3    H224766   2.584   6.802   4.570
 8275TIP3   OH224767   2.660   6.577   3.291
 8275TIP3    H124768   2.712   6.646   3.249
 8275TIP3    H224769   2.579   6.620   3.319
 8276TIP3   OH224770   1.682   5.350   5.158
 8276TIP3    H124771   1.587   5.353   5.168
 8276TIP3    H224772   1.712   5.292   5.228
 8277TIP3   OH224773   2.487   6.043   3.707
 8277TIP3    H124774   2.472   5.970   3.767
 8277TIP3    H224775   2.579   6.035   3.682
 8278TIP3   OH224776   1.412   6.421   4.797
 8278TIP3    H124777   1.462   6.362   4.853
 8278TIP3    H224778   1.419   6.506   4.839
 8279TIP3   OH224779   1.696   6.071   3.475
 8279TIP3    H124780   1.701   5.982   3.441
 8279TIP3    H224781   1.664   6.060   3.565
 8280TIP3   OH224782   1.636   6.081   3.747
 8280TIP3    H124783   1.708   6.049   3.801
 8280TIP3    H224784   1.641   6.176   3.752
 8281TIP3   OH224785   1.370   5.780   3.950
 8281TIP3    H124786   1.304   5.823   4.005
 8281TIP3    H224787   1.385   5.842   3.878
 8282TIP3   OH224788   2.512   5.420   4.851
 8282TIP3    H124789   2.598   5.457   4.871
 8282TIP3    H224790   2.510   5.338   4.900
 8283TIP3   OH224791   2.401   5.164   4.013
 8283TIP3    H124792   2.388   5.181   3.920
 8283TIP3    H224793   2.443   5.243   4.046
 8284TIP3   OH224794   2.085   5.348   4.111
 8284TIP3    H124795   2.151   5.414   4.088
 8284TIP3    H224796   2.094   5.336   4.205
 8285TIP3   OH224797   2.360   5.660   4.915
 8285TIP3    H124798   2.388   5.708   4.993
 8285TIP3    H224799   2.413   5.580   4.916
 8286TIP3   OH224800   2.234   5.067   4.208
 8286TIP3    H124801   2.230   5.139   4.270
 8286TIP3    H224802   2.294   5.096   4.139
 8287TIP3   OH224803   1.637   6.351   3.765
 8287TIP3    H124804   1.621   6.413   3.695
 8287TIP3    H224805   1.634   6.403   3.846
 8288TIP3   OH224806   1.743   5.073   4.011
 8288TIP3    H124807   1.742   5.164   4.042
 8288TIP3    H224808   1.836   5.050   4.008
 8289TIP3   OH224809   2.996   5.563   4.898
 8289TIP3    H124810   2.900   5.556   4.897
 8289TIP3    H224811   3.023   5.536   4.810
 8290TIP3   OH224812   2.646   5.759   4.287
 8290TIP3    H124813   2.576   5.694   4.296
 8290TIP3    H224814   2.720   5.720   4.332
 8291TIP3   OH224815   1.366   5.982   3.750
 8291TIP3    H124816   1.429   6.054   3.754
 8291TIP3    H224817   1.404   5.921   3.687
 8292TIP3   OH224818   1.301   5.261   3.896
 8292TIP3    H124819   1.305   5.356   3.887
 8292TIP3    H224820   1.241   5.232   3.827
 8293TIP3   OH224821   2.619   6.715   4.229
 8293TIP3    H124822   2.578   6.759   4.155
 8293TIP3    H224823   2.713   6.731   4.217
 8294TIP3   OH224824   1.693   4.979   4.760
 8294TIP3    H124825   1.664   4.950   4.674
 8294TIP3    H224826   1.681   4.903   4.817
 8295TIP3   OH224827   1.395   6.743   5.214
 8295TIP3    H124828   1.479   6.748   5.260
 8295TIP3    H224829   1.375   6.650   5.211
 8296TIP3   OH224830   1.870   6.701   5.258
 8296TIP3    H124831   1.964   6.689   5.267
 8296TIP3    H224832   1.846   6.643   5.185
 8297TIP3   OH224833   1.859   6.275   3.392
 8297TIP3    H124834   1.802   6.203   3.420
 8297TIP3    H224835   1.930   6.231   3.343
 8298TIP3   OH224836   2.508   6.613   4.995
 8298TIP3    H124837   2.503   6.544   5.060
 8298TIP3    H224838   2.586   6.663   5.019
 8299TIP3   OH224839   2.290   6.316   3.291
 8299TIP3    H124840   2.334   6.257   3.352
 8299TIP3    H224841   2.345   6.316   3.213
 8300TIP3   OH224842   1.520   6.147   5.413
 8300TIP3    H124843   1.539   6.054   5.418
 8300TIP3    H224844   1.435   6.152   5.369
 8301TIP3   OH224845   1.502   5.795   3.607
 8301TIP3    H124846   1.554   5.757   3.678
 8301TIP3    H224847   1.562   5.800   3.533
 8302TIP3   OH224848   2.127   6.232   5.187
 8302TIP3    H124849   2.091   6.252   5.100
 8302TIP3    H224850   2.161   6.143   5.178
 8303TIP3   OH224851   2.020   5.991   3.421
 8303TIP3    H124852   2.020   5.997   3.517
 8303TIP3    H224853   2.022   5.898   3.402
 8304TIP3   OH224854   2.619   6.250   4.793
 8304TIP3    H124855   2.698   6.284   4.750
 8304TIP3    H224856   2.553   6.318   4.777
 8305TIP3   OH224857   1.642   5.885   5.397
 8305TIP3    H124858   1.717   5.833   5.368
 8305TIP3    H224859   1.668   5.917   5.484
 8306TIP3   OH224860   1.712   5.698   3.829
 8306TIP3    H124861   1.683   5.648   3.905
 8306TIP3    H224862   1.749   5.633   3.770
 8307TIP3   OH224863   1.971   5.764   5.053
 8307TIP3    H124864   1.898   5.826   5.058
 8307TIP3    H224865   2.024   5.796   4.980
 8308TIP3   OH224866   1.812   5.503   3.662
 8308TIP3    H124867   1.785   5.495   3.571
 8308TIP3    H224868   1.908   5.500   3.660
 8309TIP3   OH224869   2.495   6.167   5.189
 8309TIP3    H124870   2.573   6.143   5.139
 8309TIP3    H224871   2.490   6.103   5.259
 8310TIP3   OH224872   2.625   5.829   3.332
 8310TIP3    H124873   2.608   5.780   3.252
 8310TIP3    H224874   2.596   5.918   3.312
 8311TIP3   OH224875   2.097   5.555   5.181
 8311TIP3    H124876   2.101   5.477   5.127
 8311TIP3    H224877   2.056   5.621   5.125
 8312TIP3   OH224878   2.101   5.341   4.991
 8312TIP3    H124879   2.132   5.384   4.911
 8312TIP3    H224880   2.010   5.319   4.973
 8313TIP3   OH224881   2.125   5.876   4.864
 8313TIP3    H124882   2.212   5.880   4.824
 8313TIP3    H224883   2.074   5.942   4.818
 8314TIP3   OH224884   2.714   5.844   5.243
 8314TIP3    H124885   2.757   5.759   5.249
 8314TIP3    H224886   2.779   5.902   5.204
 8315TIP3   OH224887   2.749   6.102   4.978
 8315TIP3    H124888   2.692   6.154   4.921
 8315TIP3    H224889   2.837   6.117   4.943
 8316TIP3   OH224890   1.976   5.662   5.414
 8316TIP3    H124891   1.910   5.596   5.430
 8316TIP3    H224892   2.012   5.640   5.328
 8317TIP3   OH224893   2.231   5.106   5.060
 8317TIP3    H124894   2.187   5.187   5.036
 8317TIP3    H224895   2.165   5.038   5.047
 8318TIP3   OH224896   2.356   5.607   5.276
 8318TIP3    H124897   2.347   5.595   5.371
 8318TIP3    H224898   2.271   5.584   5.240
 8319TIP3   OH224899   2.599   5.564   5.133
 8319TIP3    H124900   2.525   5.562   5.192
 8319TIP3    H224901   2.673   5.533   5.185
 8320TIP3   OH224902   2.819   5.497   5.284
 8320TIP3    H124903   2.838   5.404   5.300
 8320TIP3    H224904   2.822   5.537   5.371
 8321TIP3   OH224905   1.817   5.442   5.471
 8321TIP3    H124906   1.821   5.354   5.434
 8321TIP3    H224907   1.854   5.433   5.559
 8322TIP3   OH224908   2.327   5.111   5.316
 8322TIP3    H124909   2.393   5.043   5.311
 8322TIP3    H224910   2.286   5.112   5.229
 8323TIP3   OH224911   2.391   5.328   5.475
 8323TIP3    H124912   2.372   5.259   5.412
 8323TIP3    H224913   2.316   5.387   5.469
 8324TIP3   OH224914   1.626   6.553   3.576
 8324TIP3    H124915   1.721   6.550   3.566
 8324TIP3    H224916   1.595   6.603   3.501
 8325TIP3   OH224917   1.098   5.931   3.792
 8325TIP3    H124918   1.189   5.956   3.774
 8325TIP3    H224919   1.087   5.847   3.748
 8326TIP3   OH224920   1.014   6.542   4.208
 8326TIP3    H124921   0.946   6.490   4.166
 8326TIP3    H224922   1.056   6.482   4.270
 8327TIP3   OH224923   1.156   6.397   4.397
 8327TIP3    H124924   1.126   6.329   4.458
 8327TIP3    H224925   1.208   6.456   4.452
 8328TIP3   OH224926   2.869   6.813   4.194
 8328TIP3    H124927   2.903   6.841   4.279
 8328TIP3    H224928   2.937   6.837   4.132
 8329TIP3   OH224929   2.903   6.821   4.479
 8329TIP3    H124930   2.859   6.737   4.470
 8329TIP3    H224931   2.981   6.803   4.531
 8330TIP3   OH224932   2.946   6.505   5.047
 8330TIP3    H124933   2.876   6.511   5.112
 8330TIP3    H224934   2.991   6.589   5.052
 8331TIP3   OH224935   2.759   6.014   3.669
 8331TIP3    H124936   2.820   6.078   3.634
 8331TIP3    H224937   2.805   5.975   3.743
 8332TIP3   OH224938   2.892   5.882   3.871
 8332TIP3    H124939   2.830   5.839   3.930
 8332TIP3    H224940   2.960   5.916   3.928
 8333TIP3   OH224941   2.942   6.271   4.295
 8333TIP3    H124942   2.999   6.205   4.257
 8333TIP3    H224943   2.948   6.345   4.235
 8334TIP3   OH224944   2.776   6.573   4.496
 8334TIP3    H124945   2.705   6.612   4.547
 8334TIP3    H224946   2.731   6.524   4.426
 8335TIP3   OH224947   2.826   5.791   3.517
 8335TIP3    H124948   2.758   5.791   3.450
 8335TIP3    H224949   2.804   5.865   3.573
 8336TIP3   OH224950   2.700   5.459   3.467
 8336TIP3    H124951   2.655   5.497   3.391
 8336TIP3    H224952   2.680   5.365   3.462
 8337TIP3   OH224953   2.702   5.737   4.017
 8337TIP3    H124954   2.713   5.643   4.008
 8337TIP3    H224955   2.691   5.751   4.111
 8338TIP3   OH224956   1.334   5.813   4.759
 8338TIP3    H124957   1.329   5.778   4.670
 8338TIP3    H224958   1.427   5.815   4.780
 8339TIP3   OH224959   2.996   6.163   4.873
 8339TIP3    H124960   3.063   6.095   4.866
 8339TIP3    H224961   3.021   6.229   4.809
 8340TIP3   OH224962   3.176   5.963   4.892
 8340TIP3    H124963   3.101   5.914   4.926
 8340TIP3    H224964   3.251   5.906   4.907
 8341TIP3   OH224965   2.647   5.194   3.447
 8341TIP3    H124966   2.715   5.163   3.506
 8341TIP3    H224967   2.569   5.143   3.472
 8342TIP3   OH224968   2.705   5.455   3.906
 8342TIP3    H124969   2.739   5.367   3.922
 8342TIP3    H224970   2.759   5.490   3.835
 8343TIP3   OH224971   2.862   5.649   4.410
 8343TIP3    H124972   2.945   5.666   4.366
 8343TIP3    H224973   2.881   5.665   4.503
 8344TIP3   OH224974   2.942   5.773   4.648
 8344TIP3    H124975   2.860   5.806   4.685
 8344TIP3    H224976   2.977   5.846   4.598
 8345TIP3   OH224977   1.551   5.495   5.439
 8345TIP3    H124978   1.647   5.493   5.440
 8345TIP3    H224979   1.524   5.411   5.476
 8346TIP3   OH224980   3.380   5.360   5.190
 8346TIP3    H124981   3.442   5.299   5.149
 8346TIP3    H224982   3.351   5.417   5.118
 8347TIP3   OH224983   2.808   5.207   3.948
 8347TIP3    H124984   2.865   5.197   4.025
 8347TIP3    H224985   2.753   5.129   3.948
 8348TIP3   OH224986   1.514   5.191   4.772
 8348TIP3    H124987   1.572   5.115   4.779
 8348TIP3    H224988   1.573   5.265   4.761
 8349TIP3   OH224989   1.312   5.464   4.839
 8349TIP3    H124990   1.359   5.453   4.756
 8349TIP3    H224991   1.347   5.544   4.877
 8350TIP3   OH224992   3.250   5.502   4.998
 8350TIP3    H124993   3.166   5.545   5.012
 8350TIP3    H224994   3.230   5.429   4.939
 8351TIP3   OH224995   2.888   5.136   3.579
 8351TIP3    H124996   2.930   5.067   3.529
 8351TIP3    H224997   2.954   5.205   3.584
 8352TIP3   OH224998   1.295   4.973   4.349
 8352TIP3    H124999   1.203   4.962   4.370
 8352TIP3    H225000   1.296   5.025   4.268
 8353TIP3   OH225001   2.441   6.678   3.839
 8353TIP3    H125002   2.499   6.662   3.765
 8353TIP3    H225003   2.491   6.735   3.898
 8354TIP3   OH225004   1.517   5.049   5.157
 8354TIP3    H125005   1.468   5.041   5.239
 8354TIP3    H225006   1.453   5.083   5.094
 8355TIP3   OH225007   1.554   6.474   5.229
 8355TIP3    H125008   1.462   6.449   5.217
 8355TIP3    H225009   1.571   6.458   5.322
 8356TIP3   OH225010   1.739   6.510   4.776
 8356TIP3    H125011   1.689   6.584   4.742
 8356TIP3    H225012   1.826   6.519   4.736
 8357TIP3   OH225013   2.180   6.754   4.918
 8357TIP3    H125014   2.219   6.751   5.006
 8357TIP3    H225015   2.244   6.802   4.866
 8358TIP3   OH225016   2.363   6.904   4.779
 8358TIP3    H125017   2.432   6.853   4.737
 8358TIP3    H225018   2.408   6.962   4.839
 8359TIP3   OH225019   3.149   5.266   4.882
 8359TIP3    H125020   3.067   5.268   4.833
 8359TIP3    H225021   3.185   5.179   4.865
 8360TIP3   OH225022   1.407   6.761   4.807
 8360TIP3    H125023   1.318   6.789   4.785
 8360TIP3    H225024   1.428   6.810   4.886
 8361TIP3   OH225025   1.639   6.737   4.660
 8361TIP3    H125026   1.558   6.755   4.707
 8361TIP3    H225027   1.628   6.779   4.575
 8362TIP3   OH225028   2.073   6.773   4.454
 8362TIP3    H125029   2.001   6.792   4.395
 8362TIP3    H225030   2.088   6.856   4.501
 8363TIP3   OH225031   2.343   6.709   4.509
 8363TIP3    H125032   2.251   6.729   4.492
 8363TIP3    H225033   2.390   6.783   4.471
 8364TIP3   OH225034   2.543   6.900   4.422
 8364TIP3    H125035   2.534   6.984   4.379
 8364TIP3    H225036   2.575   6.841   4.353
 8365TIP3   OH225037   1.355   6.547   4.541
 8365TIP3    H125038   1.330   6.520   4.630
 8365TIP3    H225039   1.449   6.560   4.546
 8366TIP3   OH225040   1.791   6.527   4.407
 8366TIP3    H125041   1.807   6.433   4.402
 8366TIP3    H225042   1.831   6.554   4.490
 8367TIP3   OH225043   2.353   5.178   4.492
 8367TIP3    H125044   2.317   5.106   4.544
 8367TIP3    H225045   2.429   5.141   4.448
 8368TIP3   OH225046   2.878   5.048   4.394
 8368TIP3    H125047   2.935   5.120   4.368
 8368TIP3    H225048   2.790   5.086   4.393
 8369TIP3   OH225049   2.987   5.177   4.149
 8369TIP3    H125050   3.063   5.126   4.120
 8369TIP3    H225051   3.020   5.234   4.218
 8370TIP3   OH225052   1.604   4.887   4.513
 8370TIP3    H125053   1.513   4.858   4.513
 8370TIP3    H225054   1.655   4.806   4.507
 8371TIP3   OH225055   1.406   4.760   4.166
 8371TIP3    H125056   1.432   4.810   4.088
 8371TIP3    H225057   1.373   4.826   4.227
 8372TIP3   OH225058   2.057   4.919   4.395
 8372TIP3    H125059   2.107   4.963   4.326
 8372TIP3    H225060   2.085   4.962   4.476
 8373TIP3   OH225061   2.584   5.066   4.380
 8373TIP3    H125062   2.603   5.037   4.291
 8373TIP3    H225063   2.581   4.985   4.431
 8374TIP3   OH225064   2.627   4.989   3.939
 8374TIP3    H125065   2.544   5.035   3.950
 8374TIP3    H225066   2.615   4.906   3.985
 8375TIP3   OH225067   1.112   6.343   3.955
 8375TIP3    H125068   1.036   6.291   3.930
 8375TIP3    H225069   1.097   6.429   3.917
 8376TIP3   OH225070   1.515   4.912   3.928
 8376TIP3    H125071   1.558   4.852   3.867
 8376TIP3    H225072   1.586   4.967   3.961
 8377TIP3   OH225073   2.020   5.097   4.026
 8377TIP3    H125074   2.082   5.046   4.079
 8377TIP3    H225075   2.040   5.188   4.046
 8378TIP3   OH225076   1.896   6.509   3.531
 8378TIP3    H125077   1.979   6.535   3.490
 8378TIP3    H225078   1.871   6.429   3.484
 8379TIP3   OH225079   2.589   6.632   3.614
 8379TIP3    H125080   2.586   6.538   3.601
 8379TIP3    H225081   2.559   6.669   3.531
 8380TIP3   OH225082   1.816   5.166   5.405
 8380TIP3    H125083   1.779   5.097   5.460
 8380TIP3    H225084   1.908   5.169   5.429
 8381TIP3   OH225085   2.065   5.165   5.524
 8381TIP3    H125086   2.149   5.143   5.483
 8381TIP3    H225087   2.051   5.097   5.589
 8382TIP3   OH225088   1.188   6.351   3.576
 8382TIP3    H125089   1.192   6.379   3.668
 8382TIP3    H225090   1.273   6.309   3.561
 8383TIP3   OH225091   2.896   5.227   5.314
 8383TIP3    H125092   2.918   5.198   5.402
 8383TIP3    H225093   2.980   5.228   5.267
 8384TIP3   OH225094   2.823   6.782   4.804
 8384TIP3    H125095   2.749   6.749   4.753
 8384TIP3    H225096   2.808   6.876   4.809
 8385TIP3   OH225097   4.095   6.154   3.564
 8385TIP3    H125098   4.068   6.244   3.545
 8385TIP3    H225099   4.019   6.101   3.540
 8386TIP3   OH225100   4.098   6.151   3.954
 8386TIP3    H125101   4.131   6.129   4.041
 8386TIP3    H225102   4.052   6.072   3.925
 8387TIP3   OH225103   3.390   6.046   4.321
 8387TIP3    H125104   3.421   5.978   4.380
 8387TIP3    H225105   3.469   6.095   4.297
 8388TIP3   OH225106   4.343   6.450   3.636
 8388TIP3    H125107   4.323   6.384   3.702
 8388TIP3    H225108   4.369   6.527   3.687
 8389TIP3   OH225109   3.366   6.457   4.045
 8389TIP3    H125110   3.353   6.362   4.041
 8389TIP3    H225111   3.460   6.469   4.030
 8390TIP3   OH225112   3.066   5.656   3.824
 8390TIP3    H125113   3.025   5.741   3.842
 8390TIP3    H225114   2.999   5.607   3.777
 8391TIP3   OH225115   3.130   5.945   4.001
 8391TIP3    H125116   3.180   5.871   4.035
 8391TIP3    H225117   3.189   5.988   3.940
 8392TIP3   OH225118   3.991   6.920   3.653
 8392TIP3    H125119   4.033   6.852   3.599
 8392TIP3    H225120   3.977   6.877   3.737
 8393TIP3   OH225121   3.894   6.380   3.998
 8393TIP3    H125122   3.926   6.303   3.950
 8393TIP3    H225123   3.974   6.426   4.024
 8394TIP3   OH225124   4.910   5.702   3.996
 8394TIP3    H125125   4.936   5.781   4.042
 8394TIP3    H225126   4.927   5.721   3.903
 8395TIP3   OH225127   4.308   5.878   4.026
 8395TIP3    H125128   4.348   5.795   4.051
 8395TIP3    H225129   4.274   5.863   3.938
 8396TIP3   OH225130   3.649   5.538   3.989
 8396TIP3    H125131   3.626   5.612   3.933
 8396TIP3    H225132   3.599   5.465   3.953
 8397TIP3   OH225133   4.342   5.628   3.617
 8397TIP3    H125134   4.408   5.614   3.684
 8397TIP3    H225135   4.391   5.666   3.543
 8398TIP3   OH225136   3.285   5.739   4.101
 8398TIP3    H125137   3.360   5.714   4.155
 8398TIP3    H225138   3.296   5.688   4.021
 8399TIP3   OH225139   3.718   5.935   3.900
 8399TIP3    H125140   3.810   5.912   3.912
 8399TIP3    H225141   3.678   5.855   3.866
 8400TIP3   OH225142   4.977   5.911   4.165
 8400TIP3    H125143   4.894   5.953   4.144
 8400TIP3    H225144   4.991   5.930   4.258
 8401TIP3   OH225145   3.633   5.525   4.429
 8401TIP3    H125146   3.575   5.551   4.358
 8401TIP3    H225147   3.583   5.543   4.509
 8402TIP3   OH225148   3.977   6.371   3.440
 8402TIP3    H125149   3.942   6.354   3.353
 8402TIP3    H225150   3.939   6.454   3.466
 8403TIP3   OH225151   3.746   6.301   4.221
 8403TIP3    H125152   3.686   6.365   4.258
 8403TIP3    H225153   3.788   6.346   4.148
 8404TIP3   OH225154   4.546   5.636   3.796
 8404TIP3    H125155   4.521   5.596   3.879
 8404TIP3    H225156   4.596   5.714   3.820
 8405TIP3   OH225157   3.519   5.643   4.209
 8405TIP3    H125158   3.583   5.711   4.233
 8405TIP3    H225159   3.561   5.595   4.138
 8406TIP3   OH225160   3.573   6.496   4.324
 8406TIP3    H125161   3.550   6.578   4.281
 8406TIP3    H225162   3.498   6.475   4.379
 8407TIP3   OH225163   2.949   6.186   3.565
 8407TIP3    H125164   2.930   6.217   3.477
 8407TIP3    H225165   3.025   6.238   3.592
 8408TIP3   OH225166   4.406   6.702   3.799
 8408TIP3    H125167   4.320   6.689   3.838
 8408TIP3    H225168   4.398   6.786   3.753
 8409TIP3   OH225169   4.702   5.597   4.159
 8409TIP3    H125170   4.615   5.627   4.134
 8409TIP3    H225171   4.760   5.629   4.090
 8410TIP3   OH225172   3.995   5.245   4.147
 8410TIP3    H125173   3.980   5.152   4.162
 8410TIP3    H225174   3.922   5.289   4.191
 8411TIP3   OH225175   4.110   6.752   3.471
 8411TIP3    H125176   4.152   6.667   3.456
 8411TIP3    H225177   4.168   6.815   3.429
 8412TIP3   OH225178   4.245   6.533   3.390
 8412TIP3    H125179   4.230   6.460   3.330
 8412TIP3    H225180   4.282   6.493   3.469
 8413TIP3   OH225181   4.634   6.612   4.138
 8413TIP3    H125182   4.621   6.533   4.085
 8413TIP3    H225183   4.617   6.684   4.078
 8414TIP3   OH225184   3.923   6.001   3.400
 8414TIP3    H125185   3.844   6.053   3.388
 8414TIP3    H225186   3.968   6.008   3.316
 8415TIP3   OH225187   3.882   5.795   3.112
 8415TIP3    H125188   3.946   5.843   3.164
 8415TIP3    H225189   3.933   5.728   3.067
 8416TIP3   OH225190   4.829   6.254   3.987
 8416TIP3    H125191   4.745   6.299   3.996
 8416TIP3    H225192   4.858   6.274   3.898
 8417TIP3   OH225193   4.275   6.084   3.374
 8417TIP3    H125194   4.218   6.111   3.446
 8417TIP3    H225195   4.358   6.062   3.416
 8418TIP3   OH225196   4.504   6.125   4.284
 8418TIP3    H125197   4.508   6.200   4.343
 8418TIP3    H225198   4.418   6.133   4.241
 8419TIP3   OH225199   3.506   6.082   3.789
 8419TIP3    H125200   3.465   6.031   3.720
 8419TIP3    H225201   3.581   6.030   3.817
 8420TIP3   OH225202   3.630   6.500   3.932
 8420TIP3    H125203   3.603   6.467   3.846
 8420TIP3    H225204   3.715   6.460   3.947
 8421TIP3   OH225205   3.636   6.058   4.142
 8421TIP3    H125206   3.669   6.032   4.056
 8421TIP3    H225207   3.680   6.141   4.161
 8422TIP3   OH225208   4.168   6.694   3.922
 8422TIP3    H125209   4.154   6.770   3.978
 8422TIP3    H225210   4.152   6.619   3.980
 8423TIP3   OH225211   3.777   6.614   4.465
 8423TIP3    H125212   3.721   6.675   4.512
 8423TIP3    H225213   3.716   6.560   4.415
 8424TIP3   OH225214   4.119   5.941   3.197
 8424TIP3    H125215   4.172   6.001   3.251
 8424TIP3    H225216   4.141   5.964   3.107
 8425TIP3   OH225217   3.535   6.169   4.574
 8425TIP3    H125218   3.540   6.256   4.615
 8425TIP3    H225219   3.442   6.147   4.577
 8426TIP3   OH225220   3.863   6.622   3.470
 8426TIP3    H125221   3.940   6.678   3.482
 8426TIP3    H225222   3.796   6.680   3.434
 8427TIP3   OH225223   3.571   6.780   4.552
 8427TIP3    H125224   3.540   6.779   4.462
 8427TIP3    H225225   3.493   6.759   4.605
 8428TIP3   OH225226   4.624   5.193   3.240
 8428TIP3    H125227   4.547   5.199   3.297
 8428TIP3    H225228   4.626   5.277   3.194
 8429TIP3   OH225229   3.379   5.929   3.582
 8429TIP3    H125230   3.314   5.984   3.538
 8429TIP3    H225231   3.333   5.849   3.603
 8430TIP3   OH225232   3.151   6.310   4.499
 8430TIP3    H125233   3.091   6.286   4.429
 8430TIP3    H225234   3.192   6.227   4.525
 8431TIP3   OH225235   3.012   6.499   4.141
 8431TIP3    H125236   3.103   6.485   4.114
 8431TIP3    H225237   3.015   6.579   4.193
 8432TIP3   OH225238   4.868   6.956   4.189
 8432TIP3    H125239   4.872   6.862   4.202
 8432TIP3    H225240   4.788   6.983   4.234
 8433TIP3   OH225241   3.974   6.744   4.324
 8433TIP3    H125242   3.973   6.835   4.355
 8433TIP3    H225243   3.906   6.700   4.375
 8434TIP3   OH225244   3.741   6.874   3.272
 8434TIP3    H125245   3.689   6.851   3.196
 8434TIP3    H225246   3.705   6.959   3.301
 8435TIP3   OH225247   3.173   6.713   3.651
 8435TIP3    H125248   3.214   6.695   3.736
 8435TIP3    H225249   3.134   6.630   3.625
 8436TIP3   OH225250   3.941   6.770   2.914
 8436TIP3    H125251   3.997   6.701   2.880
 8436TIP3    H225252   3.971   6.782   3.004
 8437TIP3   OH225253   3.990   6.819   3.183
 8437TIP3    H125254   3.903   6.830   3.222
 8437TIP3    H225255   4.041   6.774   3.250
 8438TIP3   OH225256   4.770   6.088   4.454
 8438TIP3    H125257   4.676   6.107   4.453
 8438TIP3    H225258   4.776   5.992   4.454
 8439TIP3   OH225259   3.356   6.494   4.490
 8439TIP3    H125260   3.407   6.477   4.569
 8439TIP3    H225261   3.284   6.432   4.493
 8440TIP3   OH225262   3.762   5.325   4.275
 8440TIP3    H125263   3.681   5.284   4.245
 8440TIP3    H225264   3.734   5.404   4.320
 8441TIP3   OH225265   4.290   5.429   4.468
 8441TIP3    H125266   4.359   5.406   4.531
 8441TIP3    H225267   4.208   5.413   4.515
 8442TIP3   OH225268   4.531   5.867   4.390
 8442TIP3    H125269   4.483   5.862   4.472
 8442TIP3    H225270   4.509   5.953   4.355
 8443TIP3   OH225271   4.190   5.978   2.937
 8443TIP3    H125272   4.157   5.958   2.850
 8443TIP3    H225273   4.264   6.037   2.922
 8444TIP3   OH225274   3.910   5.360   3.249
 8444TIP3    H125275   3.875   5.364   3.338
 8444TIP3    H225276   3.868   5.283   3.210
 8445TIP3   OH225277   3.694   5.839   4.293
 8445TIP3    H125278   3.641   5.850   4.372
 8445TIP3    H225279   3.675   5.916   4.240
 8446TIP3   OH225280   3.571   5.717   3.803
 8446TIP3    H125281   3.481   5.696   3.825
 8446TIP3    H225282   3.584   5.678   3.717
 8447TIP3   OH225283   4.063   5.807   3.534
 8447TIP3    H125284   4.009   5.876   3.495
 8447TIP3    H225285   4.116   5.774   3.462
 8448TIP3   OH225286   4.240   6.081   4.619
 8448TIP3    H125287   4.220   6.011   4.682
 8448TIP3    H225288   4.333   6.100   4.633
 8449TIP3   OH225289   4.220   5.830   3.768
 8449TIP3    H125290   4.156   5.863   3.704
 8449TIP3    H225291   4.254   5.750   3.729
 8450TIP3   OH225292   3.509   5.861   4.499
 8450TIP3    H125293   3.541   5.920   4.568
 8450TIP3    H225294   3.493   5.779   4.545
 8451TIP3   OH225295   3.558   5.343   3.210
 8451TIP3    H125296   3.551   5.338   3.306
 8451TIP3    H225297   3.482   5.394   3.183
 8452TIP3   OH225298   3.068   5.370   3.598
 8452TIP3    H125299   3.115   5.405   3.521
 8452TIP3    H225300   3.008   5.440   3.623
 8453TIP3   OH225301   4.226   6.075   4.192
 8453TIP3    H125302   4.263   6.008   4.135
 8453TIP3    H225303   4.200   6.027   4.271
 8454TIP3   OH225304   3.902   5.536   3.866
 8454TIP3    H125305   3.819   5.538   3.914
 8454TIP3    H225306   3.969   5.538   3.935
 8455TIP3   OH225307   3.333   5.600   3.869
 8455TIP3    H125308   3.240   5.605   3.847
 8455TIP3    H225309   3.356   5.508   3.856
 8456TIP3   OH225310   3.601   5.590   3.563
 8456TIP3    H125311   3.692   5.611   3.541
 8456TIP3    H225312   3.552   5.614   3.484
 8457TIP3   OH225313   4.389   5.615   4.065
 8457TIP3    H125314   4.367   5.630   4.157
 8457TIP3    H225315   4.320   5.557   4.033
 8458TIP3   OH225316   3.449   5.623   3.339
 8458TIP3    H125317   3.374   5.582   3.295
 8458TIP3    H225318   3.499   5.662   3.267
 8459TIP3   OH225319   4.566   7.308   4.289
 8459TIP3    H125320   4.564   7.327   4.195
 8459TIP3    H225321   4.644   7.352   4.321
 8460TIP3   OH225322   3.518   6.419   4.712
 8460TIP3    H125323   3.599   6.446   4.756
 8460TIP3    H225324   3.453   6.415   4.782
 8461TIP3   OH225325   3.983   5.869   3.967
 8461TIP3    H125326   4.056   5.829   3.921
 8461TIP3    H225327   3.986   5.830   4.055
 8462TIP3   OH225328   3.503   5.355   3.846
 8462TIP3    H125329   3.462   5.284   3.896
 8462TIP3    H225330   3.546   5.311   3.773
 8463TIP3   OH225331   3.961   5.773   4.250
 8463TIP3    H125332   3.872   5.804   4.267
 8463TIP3    H225333   4.016   5.830   4.303
 8464TIP3   OH225334   3.698   6.153   3.355
 8464TIP3    H125335   3.624   6.094   3.338
 8464TIP3    H225336   3.679   6.191   3.440
 8465TIP3   OH225337   4.594   6.393   3.974
 8465TIP3    H125338   4.617   6.443   3.896
 8465TIP3    H225339   4.510   6.351   3.953
 8466TIP3   OH225340   4.139   5.490   3.167
 8466TIP3    H125341   4.059   5.453   3.203
 8466TIP3    H225342   4.159   5.564   3.225
 8467TIP3   OH225343   4.099   6.478   4.345
 8467TIP3    H125344   4.127   6.452   4.433
 8467TIP3    H225345   4.055   6.563   4.359
 8468TIP3   OH225346   4.224   5.711   3.315
 8468TIP3    H125347   4.317   5.720   3.335
 8468TIP3    H225348   4.201   5.793   3.270
 8469TIP3   OH225349   3.389   6.179   4.022
 8469TIP3    H125350   3.420   6.159   3.934
 8469TIP3    H225351   3.435   6.119   4.079
 8470TIP3   OH225352   3.835   6.305   3.170
 8470TIP3    H125353   3.791   6.391   3.174
 8470TIP3    H225354   3.785   6.250   3.230
 8471TIP3   OH225355   3.268   6.102   4.640
 8471TIP3    H125356   3.289   6.085   4.732
 8471TIP3    H225357   3.200   6.038   4.619
 8472TIP3   OH225358   3.998   6.215   4.655
 8472TIP3    H125359   3.938   6.156   4.610
 8472TIP3    H225360   4.086   6.184   4.632
 8473TIP3   OH225361   4.252   6.747   4.240
 8473TIP3    H125362   4.158   6.734   4.252
 8473TIP3    H225363   4.281   6.792   4.319
 8474TIP3   OH225364   4.666   5.812   3.152
 8474TIP3    H125365   4.600   5.765   3.101
 8474TIP3    H225366   4.666   5.901   3.115
 8475TIP3   OH225367   4.882   6.669   4.227
 8475TIP3    H125368   4.787   6.662   4.224
 8475TIP3    H225369   4.911   6.638   4.141
 8476TIP3   OH225370   4.358   6.255   3.889
 8476TIP3    H125371   4.267   6.233   3.908
 8476TIP3    H225372   4.395   6.177   3.849
 8477TIP3   OH225373   3.483   6.480   3.661
 8477TIP3    H125374   3.471   6.555   3.604
 8477TIP3    H225375   3.405   6.427   3.648
 8478TIP3   OH225376   3.052   5.792   3.358
 8478TIP3    H125377   3.098   5.874   3.375
 8478TIP3    H225378   2.976   5.794   3.416
 8479TIP3   OH225379   3.624   6.251   3.597
 8479TIP3    H125380   3.591   6.339   3.612
 8479TIP3    H225381   3.582   6.198   3.665
 8480TIP3   OH225382   3.761   6.827   4.120
 8480TIP3    H125383   3.801   6.897   4.068
 8480TIP3    H225384   3.835   6.787   4.166
 8481TIP3   OH225385   3.405   6.725   3.498
 8481TIP3    H125386   3.321   6.722   3.544
 8481TIP3    H225387   3.433   6.816   3.503
 8482TIP3   OH225388   4.147   6.462   4.079
 8482TIP3    H125389   4.134   6.463   4.174
 8482TIP3    H225390   4.224   6.406   4.066
 8483TIP3   OH225391   4.117   6.352   2.962
 8483TIP3    H125392   4.174   6.336   3.037
 8483TIP3    H225393   4.030   6.325   2.992
 8484TIP3   OH225394   4.393   6.994   4.129
 8484TIP3    H125395   4.319   6.934   4.129
 8484TIP3    H225396   4.375   7.055   4.057
 8485TIP3   OH225397   4.464   6.855   2.736
 8485TIP3    H125398   4.516   6.934   2.744
 8485TIP3    H225399   4.387   6.870   2.792
 8486TIP3   OH225400   3.472   5.607   4.643
 8486TIP3    H125401   3.377   5.610   4.649
 8486TIP3    H225402   3.499   5.547   4.713
 8487TIP3   OH225403   4.273   6.282   3.176
 8487TIP3    H125404   4.272   6.217   3.247
 8487TIP3    H225405   4.366   6.294   3.156
 8488TIP3   OH225406   3.194   6.690   4.280
 8488TIP3    H125407   3.247   6.613   4.300
 8488TIP3    H225408   3.228   6.758   4.338
 8489TIP3   OH225409   3.486   6.333   2.959
 8489TIP3    H125410   3.500   6.242   2.933
 8489TIP3    H225411   3.470   6.328   3.053
 8490TIP3   OH225412   3.437   6.339   3.227
 8490TIP3    H125413   3.471   6.306   3.311
 8490TIP3    H225414   3.432   6.433   3.239
 8491TIP3   OH225415   3.165   6.034   3.438
 8491TIP3    H125416   3.124   6.082   3.511
 8491TIP3    H225417   3.190   6.103   3.376
 8492TIP3   OH225418   4.328   5.662   4.325
 8492TIP3    H125419   4.395   5.709   4.374
 8492TIP3    H225420   4.308   5.585   4.378
 8493TIP3   OH225421   4.206   5.420   3.494
 8493TIP3    H125422   4.181   5.454   3.408
 8493TIP3    H225423   4.245   5.496   3.538
 8494TIP3   OH225424   3.700   6.542   3.178
 8494TIP3    H125425   3.613   6.554   3.217
 8494TIP3    H225426   3.712   6.619   3.122
 8495TIP3   OH225427   3.889   5.601   3.597
 8495TIP3    H125428   3.948   5.674   3.580
 8495TIP3    H225429   3.890   5.591   3.692
 8496TIP3   OH225430   4.160   5.919   4.406
 8496TIP3    H125431   4.179   5.976   4.480
 8496TIP3    H225432   4.212   5.840   4.422
 8497TIP3   OH225433   4.030   5.326   3.697
 8497TIP3    H125434   4.016   5.400   3.756
 8497TIP3    H225435   4.092   5.359   3.631
 8498TIP3   OH225436   3.444   6.613   3.248
 8498TIP3    H125437   3.413   6.682   3.189
 8498TIP3    H225438   3.427   6.647   3.336
 8499TIP3   OH225439   3.545   5.327   3.486
 8499TIP3    H125440   3.535   5.414   3.524
 8499TIP3    H225441   3.639   5.308   3.493
 8500TIP3   OH225442   4.793   5.810   4.381
 8500TIP3    H125443   4.699   5.819   4.396
 8500TIP3    H225444   4.799   5.768   4.295
 8501TIP3   OH225445   4.447   6.010   3.772
 8501TIP3    H125446   4.369   5.957   3.786
 8501TIP3    H225447   4.516   5.966   3.821
 8502TIP3   OH225448   3.150   6.247   3.229
 8502TIP3    H125449   3.205   6.308   3.279
 8502TIP3    H225450   3.211   6.202   3.171
 8503TIP3   OH225451   3.103   5.520   3.371
 8503TIP3    H125452   3.105   5.616   3.371
 8503TIP3    H225453   3.018   5.498   3.332
 8504TIP3   OH225454   4.415   6.976   3.719
 8504TIP3    H125455   4.371   7.021   3.647
 8504TIP3    H225456   4.509   6.990   3.701
 8505TIP3   OH225457   3.517   5.224   4.236
 8505TIP3    H125458   3.462   5.217   4.158
 8505TIP3    H225459   3.478   5.164   4.299
 8506TIP3   OH225460   3.198   6.998   4.695
 8506TIP3    H125461   3.281   6.999   4.743
 8506TIP3    H225462   3.173   6.906   4.691
 8507TIP3   OH225463   3.665   6.960   4.741
 8507TIP3    H125464   3.758   6.942   4.754
 8507TIP3    H225465   3.639   6.902   4.670
 8508TIP3   OH225466   3.648   6.533   2.869
 8508TIP3    H125467   3.589   6.470   2.909
 8508TIP3    H225468   3.726   6.482   2.845
 8509TIP3   OH225469   4.306   6.868   4.480
 8509TIP3    H125470   4.298   6.798   4.544
 8509TIP3    H225471   4.382   6.919   4.508
 8510TIP3   OH225472   4.094   6.573   2.789
 8510TIP3    H125473   4.118   6.510   2.857
 8510TIP3    H225474   4.173   6.582   2.735
 8511TIP3   OH225475   3.315   6.403   4.899
 8511TIP3    H125476   3.335   6.310   4.906
 8511TIP3    H225477   3.231   6.407   4.854
 8512TIP3   OH225478   3.302   6.053   3.093
 8512TIP3    H125479   3.350   6.024   3.171
 8512TIP3    H225480   3.369   6.058   3.024
 8513TIP3   OH225481   3.924   6.491   4.673
 8513TIP3    H125482   3.884   6.507   4.588
 8513TIP3    H225483   3.958   6.401   4.667
 8514TIP3   OH225484   3.807   6.253   2.901
 8514TIP3    H125485   3.806   6.269   2.995
 8514TIP3    H225486   3.804   6.158   2.893
 8515TIP3   OH225487   4.415   6.505   4.276
 8515TIP3    H125488   4.491   6.548   4.236
 8515TIP3    H225489   4.344   6.567   4.264
 8516TIP3   OH225490   3.438   6.142   4.885
 8516TIP3    H125491   3.512   6.090   4.854
 8516TIP3    H225492   3.463   6.171   4.972
 8517TIP3   OH225493   3.499   5.961   3.314
 8517TIP3    H125494   3.471   5.930   3.401
 8517TIP3    H225495   3.534   5.882   3.271
 8518TIP3   OH225496   3.773   6.025   4.544
 8518TIP3    H125497   3.696   6.082   4.548
 8518TIP3    H225498   3.822   6.056   4.468
 8519TIP3   OH225499   3.604   5.752   3.152
 8519TIP3    H125500   3.575   5.760   3.062
 8519TIP3    H225501   3.699   5.762   3.148
 8520TIP3   OH225502   4.302   6.426   4.683
 8520TIP3    H125503   4.374   6.399   4.625
 8520TIP3    H225504   4.324   6.388   4.768
 8521TIP3   OH225505   4.420   6.091   2.814
 8521TIP3    H125506   4.392   6.048   2.733
 8521TIP3    H225507   4.401   6.183   2.800
 8522TIP3   OH225508   3.895   5.812   4.667
 8522TIP3    H125509   3.895   5.734   4.612
 8522TIP3    H225510   3.853   5.879   4.614
 8523TIP3   OH225511   3.895   5.599   4.474
 8523TIP3    H125512   3.924   5.639   4.392
 8523TIP3    H225513   3.803   5.577   4.458
 8524TIP3   OH225514   3.922   6.134   4.350
 8524TIP3    H125515   4.007   6.143   4.306
 8524TIP3    H225516   3.866   6.198   4.305
 8525TIP3   OH225517   4.517   6.090   4.689
 8525TIP3    H125518   4.561   6.023   4.741
 8525TIP3    H225519   4.505   6.163   4.749
 8526TIP3   OH225520   4.549   6.349   4.452
 8526TIP3    H125521   4.490   6.404   4.401
 8526TIP3    H225522   4.636   6.372   4.421
 8527TIP3   OH225523   3.773   5.919   4.900
 8527TIP3    H125524   3.706   5.853   4.917
 8527TIP3    H225525   3.808   5.896   4.814
 8528TIP3   OH225526   4.026   5.362   4.546
 8528TIP3    H125527   3.981   5.444   4.522
 8528TIP3    H225528   3.959   5.295   4.533
 8529TIP3   OH225529   4.156   5.861   4.761
 8529TIP3    H125530   4.149   5.851   4.856
 8529TIP3    H225531   4.069   5.839   4.728
 8530TIP3   OH225532   4.390   5.797   4.611
 8530TIP3    H125533   4.317   5.810   4.672
 8530TIP3    H225534   4.466   5.782   4.667
 8531TIP3   OH225535   4.633   5.759   4.766
 8531TIP3    H125536   4.640   5.665   4.785
 8531TIP3    H225537   4.620   5.799   4.852
 8532TIP3   OH225538   3.613   5.698   4.955
 8532TIP3    H125539   3.617   5.610   4.918
 8532TIP3    H225540   3.648   5.688   5.044
 8533TIP3   OH225541   4.121   5.368   4.803
 8533TIP3    H125542   4.189   5.300   4.798
 8533TIP3    H225543   4.081   5.367   4.716
 8534TIP3   OH225544   4.185   5.583   4.964
 8534TIP3    H125545   4.167   5.514   4.900
 8534TIP3    H225546   4.111   5.643   4.956
 8535TIP3   OH225547   3.415   6.822   3.061
 8535TIP3    H125548   3.508   6.808   3.044
 8535TIP3    H225549   3.383   6.869   2.984
 8536TIP3   OH225550   2.887   6.197   3.264
 8536TIP3    H125551   2.979   6.224   3.258
 8536TIP3    H225552   2.886   6.108   3.230
 8537TIP3   OH225553   2.800   6.805   3.693
 8537TIP3    H125554   2.741   6.741   3.654
 8537TIP3    H225555   2.851   6.756   3.757
 8538TIP3   OH225556   2.932   6.671   3.887
 8538TIP3    H125557   2.934   6.584   3.926
 8538TIP3    H225558   2.993   6.723   3.940
 8539TIP3   OH225559   4.671   7.062   3.680
 8539TIP3    H125560   4.697   7.091   3.768
 8539TIP3    H225561   4.736   7.101   3.622
 8540TIP3   OH225562   4.701   7.077   3.964
 8540TIP3    H125563   4.652   6.995   3.956
 8540TIP3    H225564   4.774   7.056   4.022
 8541TIP3   OH225565   4.748   6.759   4.530
 8541TIP3    H125566   4.673   6.761   4.590
 8541TIP3    H225567   4.787   6.846   4.539
 8542TIP3   OH225568   4.552   6.253   3.151
 8542TIP3    H125569   4.583   6.339   3.125
 8542TIP3    H225570   4.606   6.230   3.227
 8543TIP3   OH225571   4.695   6.134   3.362
 8543TIP3    H125572   4.626   6.095   3.416
 8543TIP3    H225573   4.755   6.174   3.425
 8544TIP3   OH225574   4.747   6.532   3.788
 8544TIP3    H125575   4.798   6.465   3.743
 8544TIP3    H225576   4.738   6.603   3.724
 8545TIP3   OH225577   4.571   6.832   3.981
 8545TIP3    H125578   4.502   6.870   4.035
 8545TIP3    H225579   4.524   6.784   3.912
 8546TIP3   OH225580   4.621   6.040   2.996
 8546TIP3    H125581   4.553   6.047   2.929
 8546TIP3    H225582   4.602   6.111   3.057
 8547TIP3   OH225583   4.496   5.720   2.968
 8547TIP3    H125584   4.477   5.773   2.890
 8547TIP3    H225585   4.489   5.629   2.938
 8548TIP3   OH225586   4.504   5.994   3.506
 8548TIP3    H125587   4.509   5.899   3.500
 8548TIP3    H225588   4.488   6.012   3.599
 8549TIP3   OH225589   3.127   6.071   4.249
 8549TIP3    H125590   3.122   6.036   4.160
 8549TIP3    H225591   3.221   6.074   4.268
 8550TIP3   OH225592   4.797   6.420   4.358
 8550TIP3    H125593   4.865   6.354   4.348
 8550TIP3    H225594   4.822   6.489   4.296
 8551TIP3   OH225595   4.983   6.222   4.366
 8551TIP3    H125596   4.906   6.179   4.400
 8551TIP3    H225597   5.055   6.161   4.384
 8552TIP3   OH225598   4.500   5.708   3.396
 8552TIP3    H125599   4.537   5.622   3.412
 8552TIP3    H225600   4.558   5.748   3.332
 8553TIP3   OH225601   4.662   5.881   3.892
 8553TIP3    H125602   4.744   5.904   3.850
 8553TIP3    H225603   4.668   5.917   3.980
 8554TIP3   OH225604   4.727   6.028   4.120
 8554TIP3    H125605   4.656   6.056   4.177
 8554TIP3    H225606   4.759   6.110   4.081
 8555TIP3   OH225607   3.347   5.757   4.937
 8555TIP3    H125608   3.442   5.753   4.932
 8555TIP3    H225609   3.320   5.670   4.967
 8556TIP3   OH225610   5.183   5.623   4.676
 8556TIP3    H125611   5.240   5.558   4.635
 8556TIP3    H225612   5.151   5.676   4.603
 8557TIP3   OH225613   4.609   5.458   3.433
 8557TIP3    H125614   4.657   5.446   3.515
 8557TIP3    H225615   4.547   5.385   3.431
 8558TIP3   OH225616   3.104   5.742   4.324
 8558TIP3    H125617   3.145   5.690   4.255
 8558TIP3    H225618   3.160   5.819   4.332
 8559TIP3   OH225619   5.047   5.757   4.483
 8559TIP3    H125620   4.966   5.801   4.508
 8559TIP3    H225621   5.019   5.686   4.426
 8560TIP3   OH225622   4.695   5.409   3.033
 8560TIP3    H125623   4.749   5.331   3.039
 8560TIP3    H225624   4.755   5.481   3.056
 8561TIP3   OH225625   3.085   5.196   3.808
 8561TIP3    H125626   3.005   5.210   3.858
 8561TIP3    H225627   3.089   5.269   3.746
 8562TIP3   OH225628   4.257   6.929   3.326
 8562TIP3    H125629   4.304   6.902   3.248
 8562TIP3    H225630   4.317   6.990   3.370
 8563TIP3   OH225631   3.309   5.300   4.628
 8563TIP3    H125632   3.254   5.321   4.704
 8563TIP3    H225633   3.255   5.323   4.553
 8564TIP3   OH225634   3.351   6.737   4.721
 8564TIP3    H125635   3.262   6.708   4.702
 8564TIP3    H225636   3.367   6.708   4.811
 8565TIP3   OH225637   3.532   6.770   4.266
 8565TIP3    H125638   3.483   6.843   4.230
 8565TIP3    H225639   3.619   6.776   4.225
 8566TIP3   OH225640   3.976   7.011   4.406
 8566TIP3    H125641   4.015   7.006   4.493
 8566TIP3    H225642   4.039   7.060   4.354
 8567TIP3   OH225643   4.155   7.163   4.265
 8567TIP3    H125644   4.220   7.106   4.223
 8567TIP3    H225645   4.206   7.217   4.325
 8568TIP3   OH225646   4.950   5.518   4.362
 8568TIP3    H125647   4.859   5.514   4.332
 8568TIP3    H225648   4.982   5.428   4.353
 8569TIP3   OH225649   3.206   7.025   4.292
 8569TIP3    H125650   3.119   7.054   4.267
 8569TIP3    H225651   3.221   7.066   4.377
 8570TIP3   OH225652   3.443   7.004   4.150
 8570TIP3    H125653   3.359   7.013   4.195
 8570TIP3    H225654   3.425   7.031   4.060
 8571TIP3   OH225655   3.869   7.027   3.947
 8571TIP3    H125656   3.800   7.041   3.882
 8571TIP3    H225657   3.880   7.112   3.989
 8572TIP3   OH225658   4.138   6.970   4.000
 8572TIP3    H125659   4.044   6.980   3.981
 8572TIP3    H225660   4.180   7.042   3.952
 8573TIP3   OH225661   4.350   7.163   3.910
 8573TIP3    H125662   4.331   7.243   3.862
 8573TIP3    H225663   4.374   7.099   3.843
 8574TIP3   OH225664   3.120   6.811   4.041
 8574TIP3    H125665   3.146   6.787   4.130
 8574TIP3    H225666   3.187   6.772   3.985
 8575TIP3   OH225667   3.311   6.686   3.896
 8575TIP3    H125668   3.324   6.600   3.936
 8575TIP3    H225669   3.399   6.721   3.884
 8576TIP3   OH225670   3.586   6.781   3.896
 8576TIP3    H125671   3.606   6.690   3.877
 8576TIP3    H225672   3.628   6.799   3.980
 8577TIP3   OH225673   4.158   5.435   3.985
 8577TIP3    H125674   4.112   5.369   4.037
 8577TIP3    H225675   4.229   5.388   3.942
 8578TIP3   OH225676   4.674   5.315   3.881
 8578TIP3    H125677   4.711   5.369   3.811
 8578TIP3    H225678   4.581   5.337   3.882
 8579TIP3   OH225679   4.775   5.418   3.647
 8579TIP3    H125680   4.847   5.364   3.612
 8579TIP3    H225681   4.806   5.508   3.637
 8580TIP3   OH225682   3.399   5.145   3.988
 8580TIP3    H125683   3.308   5.115   3.995
 8580TIP3    H225684   3.451   5.064   3.992
 8581TIP3   OH225685   3.191   5.008   3.640
 8581TIP3    H125686   3.220   5.068   3.572
 8581TIP3    H225687   3.156   5.065   3.709
 8582TIP3   OH225688   3.853   5.173   3.878
 8582TIP3    H125689   3.909   5.224   3.820
 8582TIP3    H225690   3.859   5.218   3.963
 8583TIP3   OH225691   4.392   5.321   3.863
 8583TIP3    H125692   4.390   5.283   3.775
 8583TIP3    H225693   4.381   5.245   3.922
 8584TIP3   OH225694   4.423   5.246   3.427
 8584TIP3    H125695   4.342   5.294   3.443
 8584TIP3    H225696   4.411   5.162   3.471
 8585TIP3   OH225697   2.905   6.590   3.424
 8585TIP3    H125698   2.822   6.552   3.394
 8585TIP3    H225699   2.893   6.685   3.413
 8586TIP3   OH225700   3.311   5.175   3.407
 8586TIP3    H125701   3.358   5.112   3.352
 8586TIP3    H225702   3.380   5.228   3.446
 8587TIP3   OH225703   3.822   5.351   3.510
 8587TIP3    H125704   3.877   5.302   3.571
 8587TIP3    H225705   3.837   5.443   3.533
 8588TIP3   OH225706   3.680   6.769   3.005
 8588TIP3    H125707   3.767   6.793   2.973
 8588TIP3    H225708   3.655   6.694   2.950
 8589TIP3   OH225709   4.406   6.868   3.092
 8589TIP3    H125710   4.423   6.776   3.070
 8589TIP3    H225711   4.355   6.901   3.018
 8590TIP3   OH225712   3.612   5.420   4.892
 8590TIP3    H125713   3.577   5.351   4.948
 8590TIP3    H225714   3.705   5.425   4.916
 8591TIP3   OH225715   3.862   5.421   5.008
 8591TIP3    H125716   3.946   5.403   4.966
 8591TIP3    H225717   3.852   5.350   5.072
 8592TIP3   OH225718   2.986   6.610   3.069
 8592TIP3    H125719   2.985   6.619   3.165
 8592TIP3    H225720   3.070   6.568   3.051
 8593TIP3   OH225721   4.687   5.483   4.797
 8593TIP3    H125722   4.703   5.455   4.887
 8593TIP3    H225723   4.773   5.480   4.756
 8594TIP3   OH225724   4.621   7.038   4.289
 8594TIP3    H125725   4.546   7.004   4.241
 8594TIP3    H225726   4.604   7.132   4.297
 8595TIP3   OH225727   5.927   6.408   2.999
 8595TIP3    H125728   5.896   6.499   3.006
 8595TIP3    H225729   5.848   6.355   3.013
 8596TIP3   OH225730   5.893   6.401   3.439
 8596TIP3    H125731   5.928   6.389   3.528
 8596TIP3    H225732   5.846   6.320   3.421
 8597TIP3   OH225733   5.191   6.301   3.800
 8597TIP3    H125734   5.216   6.232   3.862
 8597TIP3    H225735   5.264   6.363   3.803
 8598TIP3   OH225736   6.136   6.714   3.122
 8598TIP3    H125737   6.122   6.648   3.190
 8598TIP3    H225738   6.164   6.792   3.170
 8599TIP3   OH225739   5.164   6.714   3.524
 8599TIP3    H125740   5.151   6.619   3.525
 8599TIP3    H225741   5.259   6.726   3.523
 8600TIP3   OH225742   4.869   5.920   3.308
 8600TIP3    H125743   4.824   6.001   3.331
 8600TIP3    H225744   4.801   5.865   3.269
 8601TIP3   OH225745   4.931   6.205   3.489
 8601TIP3    H125746   4.978   6.129   3.523
 8601TIP3    H225747   4.984   6.235   3.415
 8602TIP3   OH225748   5.788   7.172   3.133
 8602TIP3    H125749   5.833   7.101   3.088
 8602TIP3    H225750   5.772   7.138   3.221
 8603TIP3   OH225751   5.692   6.635   3.483
 8603TIP3    H125752   5.726   6.556   3.441
 8603TIP3    H225753   5.770   6.684   3.510
 8604TIP3   OH225754   6.705   5.958   3.481
 8604TIP3    H125755   6.732   6.038   3.527
 8604TIP3    H225756   6.725   5.975   3.389
 8605TIP3   OH225757   6.108   6.137   3.511
 8605TIP3    H125758   6.146   6.053   3.537
 8605TIP3    H225759   6.070   6.120   3.425
 8606TIP3   OH225760   5.441   5.796   3.477
 8606TIP3    H125761   5.420   5.868   3.418
 8606TIP3    H225762   5.394   5.721   3.440
 8607TIP3   OH225763   6.138   5.889   3.098
 8607TIP3    H125764   6.200   5.871   3.169
 8607TIP3    H225765   6.193   5.920   3.026
 8608TIP3   OH225766   5.077   5.996   3.588
 8608TIP3    H125767   5.156   5.978   3.639
 8608TIP3    H225768   5.086   5.942   3.510
 8609TIP3   OH225769   5.515   6.194   3.379
 8609TIP3    H125770   5.606   6.170   3.397
 8609TIP3    H225771   5.474   6.112   3.351
 8610TIP3   OH225772   6.775   6.166   3.651
 8610TIP3    H125773   6.691   6.208   3.633
 8610TIP3    H225774   6.792   6.186   3.743
 8611TIP3   OH225775   5.434   5.781   3.918
 8611TIP3    H125776   5.377   5.815   3.849
 8611TIP3    H225777   5.384   5.795   3.999
 8612TIP3   OH225778   5.794   6.647   2.909
 8612TIP3    H125779   5.743   6.615   2.835
 8612TIP3    H225780   5.745   6.723   2.941
 8613TIP3   OH225781   5.541   6.558   3.708
 8613TIP3    H125782   5.480   6.621   3.746
 8613TIP3    H225783   5.583   6.606   3.636
 8614TIP3   OH225784   6.339   5.895   3.280
 8614TIP3    H125785   6.325   5.843   3.359
 8614TIP3    H225786   6.391   5.970   3.308
 8615TIP3   OH225787   5.311   5.894   3.698
 8615TIP3    H125788   5.369   5.966   3.724
 8615TIP3    H225789   5.358   5.852   3.625
 8616TIP3   OH225790   5.368   6.753   3.808
 8616TIP3    H125791   5.347   6.838   3.771
 8616TIP3    H225792   5.294   6.731   3.864
 8617TIP3   OH225793   4.763   6.446   3.034
 8617TIP3    H125794   4.679   6.477   2.999
 8617TIP3    H225795   4.800   6.523   3.077
 8618TIP3   OH225796   6.200   6.957   3.280
 8618TIP3    H125797   6.115   6.946   3.323
 8618TIP3    H225798   6.196   7.043   3.239
 8619TIP3   OH225799   6.497   5.857   3.647
 8619TIP3    H125800   6.409   5.883   3.618
 8619TIP3    H225801   6.555   5.888   3.577
 8620TIP3   OH225802   5.786   5.495   3.633
 8620TIP3    H125803   5.775   5.401   3.650
 8620TIP3    H225804   5.712   5.536   3.677
 8621TIP3   OH225805   5.913   6.997   2.956
 8621TIP3    H125806   5.963   6.917   2.939
 8621TIP3    H225807   5.967   7.067   2.917
 8622TIP3   OH225808   6.043   6.759   2.866
 8622TIP3    H125809   5.958   6.715   2.876
 8622TIP3    H225810   6.089   6.742   2.947
 8623TIP3   OH225811   6.430   6.868   3.626
 8623TIP3    H125812   6.417   6.790   3.571
 8623TIP3    H225813   6.412   6.942   3.568
 8624TIP3   OH225814   5.718   6.249   2.850
 8624TIP3    H125815   5.639   6.296   2.877
 8624TIP3    H225816   5.731   6.274   2.759
 8625TIP3   OH225817   5.679   6.041   2.600
 8625TIP3    H125818   5.719   6.055   2.685
 8625TIP3    H225819   5.743   5.990   2.551
 8626TIP3   OH225820   6.624   6.508   3.472
 8626TIP3    H125821   6.541   6.556   3.480
 8626TIP3    H225822   6.655   6.528   3.384
 8627TIP3   OH225823   6.301   6.384   3.772
 8627TIP3    H125824   6.302   6.464   3.824
 8627TIP3    H225825   6.217   6.385   3.728
 8628TIP3   OH225826   5.303   6.339   3.272
 8628TIP3    H125827   5.261   6.284   3.205
 8628TIP3    H225828   5.377   6.287   3.303
 8629TIP3   OH225829   5.435   6.756   3.419
 8629TIP3    H125830   5.410   6.715   3.337
 8629TIP3    H225831   5.522   6.720   3.438
 8630TIP3   OH225832   5.444   6.311   3.628
 8630TIP3    H125833   5.473   6.291   3.539
 8630TIP3    H225834   5.481   6.397   3.647
 8631TIP3   OH225835   5.966   6.950   3.408
 8631TIP3    H125836   5.950   7.029   3.459
 8631TIP3    H225837   5.948   6.878   3.469
 8632TIP3   OH225838   5.573   6.869   3.952
 8632TIP3    H125839   5.517   6.930   4.000
 8632TIP3    H225840   5.512   6.814   3.903
 8633TIP3   OH225841   5.327   6.426   4.055
 8633TIP3    H125842   5.337   6.511   4.097
 8633TIP3    H225843   5.235   6.402   4.070
 8634TIP3   OH225844   5.657   6.877   2.961
 8634TIP3    H125845   5.730   6.937   2.975
 8634TIP3    H225846   5.591   6.930   2.916
 8635TIP3   OH225847   5.368   7.035   4.041
 8635TIP3    H125848   5.335   7.035   3.951
 8635TIP3    H225849   5.291   7.014   4.095
 8636TIP3   OH225850   6.421   5.447   2.736
 8636TIP3    H125851   6.341   5.463   2.786
 8636TIP3    H225852   6.434   5.525   2.683
 8637TIP3   OH225853   5.168   6.186   3.071
 8637TIP3    H125854   5.099   6.231   3.022
 8637TIP3    H225855   5.129   6.102   3.095
 8638TIP3   OH225856   6.228   6.809   2.283
 8638TIP3    H125857   6.231   6.904   2.268
 8638TIP3    H225858   6.318   6.780   2.269
 8639TIP3   OH225859   4.949   6.567   3.986
 8639TIP3    H125860   4.881   6.548   3.921
 8639TIP3    H225861   4.984   6.481   4.009
 8640TIP3   OH225862   4.805   6.762   3.617
 8640TIP3    H125863   4.900   6.756   3.609
 8640TIP3    H225864   4.790   6.838   3.674
 8641TIP3   OH225865   6.663   7.212   3.677
 8641TIP3    H125866   6.666   7.117   3.689
 8641TIP3    H225867   6.582   7.238   3.721
 8642TIP3   OH225868   5.771   6.998   3.812
 8642TIP3    H125869   5.770   7.089   3.841
 8642TIP3    H225870   5.702   6.956   3.863
 8643TIP3   OH225871   5.537   7.128   2.760
 8643TIP3    H125872   5.491   7.106   2.680
 8643TIP3    H225873   5.501   7.213   2.786
 8644TIP3   OH225874   4.974   6.973   3.147
 8644TIP3    H125875   5.016   6.965   3.232
 8644TIP3    H225876   4.922   6.893   3.138
 8645TIP3   OH225877   5.739   7.032   2.402
 8645TIP3    H125878   5.795   6.964   2.365
 8645TIP3    H225879   5.768   7.039   2.493
 8646TIP3   OH225880   5.787   7.078   2.673
 8646TIP3    H125881   5.699   7.088   2.707
 8646TIP3    H225882   5.836   7.038   2.745
 8647TIP3   OH225883   6.556   6.342   3.949
 8647TIP3    H125884   6.473   6.354   3.903
 8647TIP3    H225885   6.574   6.248   3.942
 8648TIP3   OH225886   5.153   6.750   3.973
 8648TIP3    H125887   5.203   6.735   4.054
 8648TIP3    H225888   5.080   6.689   3.979
 8649TIP3   OH225889   5.549   5.577   3.762
 8649TIP3    H125890   5.466   5.542   3.732
 8649TIP3    H225891   5.526   5.655   3.812
 8650TIP3   OH225892   6.087   5.688   3.956
 8650TIP3    H125893   6.154   5.661   4.018
 8650TIP3    H225894   6.004   5.669   4.001
 8651TIP3   OH225895   6.324   6.121   3.876
 8651TIP3    H125896   6.276   6.115   3.958
 8651TIP3    H225897   6.298   6.206   3.839
 8652TIP3   OH225898   6.006   6.249   2.448
 8652TIP3    H125899   5.953   6.226   2.372
 8652TIP3    H225900   6.084   6.290   2.411
 8653TIP3   OH225901   5.701   5.618   2.731
 8653TIP3    H125902   5.668   5.620   2.821
 8653TIP3    H225903   5.662   5.540   2.693
 8654TIP3   OH225904   5.485   6.091   3.780
 8654TIP3    H125905   5.435   6.107   3.860
 8654TIP3    H225906   5.471   6.170   3.727
 8655TIP3   OH225907   5.366   5.976   3.290
 8655TIP3    H125908   5.277   5.951   3.313
 8655TIP3    H225909   5.381   5.936   3.204
 8656TIP3   OH225910   5.862   6.072   3.010
 8656TIP3    H125911   5.803   6.133   2.966
 8656TIP3    H225912   5.921   6.041   2.941
 8657TIP3   OH225913   6.035   6.337   4.107
 8657TIP3    H125914   6.008   6.266   4.166
 8657TIP3    H225915   6.127   6.352   4.128
 8658TIP3   OH225916   6.016   6.087   3.252
 8658TIP3    H125917   5.951   6.114   3.187
 8658TIP3    H225918   6.054   6.007   3.217
 8659TIP3   OH225919   5.305   6.116   3.988
 8659TIP3    H125920   5.325   6.181   4.055
 8659TIP3    H225921   5.290   6.035   4.036
 8660TIP3   OH225922   5.352   5.600   2.697
 8660TIP3    H125923   5.347   5.594   2.793
 8660TIP3    H225924   5.276   5.652   2.672
 8661TIP3   OH225925   4.901   5.639   3.563
 8661TIP3    H125926   4.969   5.672   3.622
 8661TIP3    H225927   4.949   5.606   3.487
 8662TIP3   OH225928   4.865   5.626   3.085
 8662TIP3    H125929   4.914   5.660   3.010
 8662TIP3    H225930   4.806   5.697   3.110
 8663TIP3   OH225931   6.026   6.333   3.678
 8663TIP3    H125932   6.060   6.265   3.619
 8663TIP3    H225933   5.997   6.286   3.755
 8664TIP3   OH225934   5.700   5.805   3.356
 8664TIP3    H125935   5.618   5.797   3.404
 8664TIP3    H225936   5.768   5.790   3.421
 8665TIP3   OH225937   5.132   5.854   3.359
 8665TIP3    H125938   5.040   5.862   3.333
 8665TIP3    H225939   5.155   5.763   3.338
 8666TIP3   OH225940   5.395   5.849   3.051
 8666TIP3    H125941   5.488   5.862   3.029
 8666TIP3    H225942   5.349   5.870   2.970
 8667TIP3   OH225943   6.184   5.873   3.556
 8667TIP3    H125944   6.157   5.887   3.647
 8667TIP3    H225945   6.120   5.812   3.521
 8668TIP3   OH225946   5.244   5.884   2.825
 8668TIP3    H125947   5.171   5.839   2.782
 8668TIP3    H225948   5.295   5.920   2.753
 8669TIP3   OH225949   6.355   7.561   3.771
 8669TIP3    H125950   6.346   7.582   3.678
 8669TIP3    H225951   6.436   7.603   3.798
 8670TIP3   OH225952   5.317   6.675   4.196
 8670TIP3    H125953   5.396   6.703   4.242
 8670TIP3    H225954   5.250   6.669   4.264
 8671TIP3   OH225955   5.780   6.130   3.456
 8671TIP3    H125956   5.846   6.080   3.408
 8671TIP3    H225957   5.776   6.090   3.543
 8672TIP3   OH225958   5.298   5.608   3.334
 8672TIP3    H125959   5.261   5.535   3.384
 8672TIP3    H225960   5.358   5.566   3.272
 8673TIP3   OH225961   5.754   6.033   3.731
 8673TIP3    H125962   5.665   6.060   3.752
 8673TIP3    H225963   5.810   6.088   3.787
 8674TIP3   OH225964   5.495   6.407   2.846
 8674TIP3    H125965   5.422   6.347   2.827
 8674TIP3    H225966   5.473   6.445   2.931
 8675TIP3   OH225967   6.390   6.650   3.460
 8675TIP3    H125968   6.415   6.701   3.383
 8675TIP3    H225969   6.306   6.610   3.437
 8676TIP3   OH225970   5.944   5.735   2.717
 8676TIP3    H125971   5.857   5.695   2.717
 8676TIP3    H225972   5.927   5.829   2.712
 8677TIP3   OH225973   5.894   6.736   3.833
 8677TIP3    H125974   5.915   6.711   3.923
 8677TIP3    H225975   5.851   6.821   3.841
 8678TIP3   OH225976   6.034   6.021   2.778
 8678TIP3    H125977   6.115   5.987   2.817
 8678TIP3    H225978   6.049   6.016   2.684
 8679TIP3   OH225979   5.190   6.440   3.510
 8679TIP3    H125980   5.225   6.408   3.427
 8679TIP3    H225981   5.221   6.377   3.575
 8680TIP3   OH225982   5.641   6.564   2.674
 8680TIP3    H125983   5.596   6.648   2.670
 8680TIP3    H225984   5.583   6.507   2.725
 8681TIP3   OH225985   5.066   6.350   4.124
 8681TIP3    H125986   5.078   6.337   4.218
 8681TIP3    H225987   4.994   6.291   4.100
 8682TIP3   OH225988   5.792   6.472   4.142
 8682TIP3    H125989   5.728   6.412   4.102
 8682TIP3    H225990   5.877   6.437   4.116
 8683TIP3   OH225991   6.049   6.997   3.728
 8683TIP3    H125992   5.954   6.990   3.740
 8683TIP3    H225993   6.079   7.046   3.805
 8684TIP3   OH225994   6.453   6.067   2.636
 8684TIP3    H125995   6.393   6.018   2.580
 8684TIP3    H225996   6.459   6.153   2.595
 8685TIP3   OH225997   6.678   6.924   3.714
 8685TIP3    H125998   6.583   6.918   3.711
 8685TIP3    H225999   6.707   6.894   3.628
 8686TIP3   OH226000   6.167   6.887   2.549
 8686TIP3    H126001   6.144   6.819   2.613
 8686TIP3    H226002   6.175   6.839   2.466
 8687TIP3   OH226003   6.155   6.511   3.372
 8687TIP3    H126004   6.065   6.487   3.393
 8687TIP3    H226005   6.192   6.432   3.334
 8688TIP3   OH226006   5.282   6.740   3.131
 8688TIP3    H126007   5.280   6.822   3.081
 8688TIP3    H226008   5.190   6.722   3.151
 8689TIP3   OH226009   4.848   6.047   2.838
 8689TIP3    H126010   4.894   6.129   2.857
 8689TIP3    H226011   4.772   6.049   2.896
 8690TIP3   OH226012   5.422   6.508   3.085
 8690TIP3    H126013   5.386   6.596   3.098
 8690TIP3    H226014   5.385   6.455   3.155
 8691TIP3   OH226015   5.558   7.084   3.605
 8691TIP3    H126016   5.596   7.156   3.555
 8691TIP3    H226017   5.631   7.047   3.654
 8692TIP3   OH226018   5.204   6.980   2.990
 8692TIP3    H126019   5.119   6.985   3.033
 8692TIP3    H226020   5.236   7.071   2.990
 8693TIP3   OH226021   5.942   6.716   3.566
 8693TIP3    H126022   5.928   6.720   3.661
 8693TIP3    H226023   6.023   6.666   3.556
 8694TIP3   OH226024   5.905   6.612   2.439
 8694TIP3    H126025   5.919   6.611   2.534
 8694TIP3    H226026   5.818   6.575   2.427
 8695TIP3   OH226027   6.190   7.249   3.613
 8695TIP3    H126028   6.114   7.191   3.612
 8695TIP3    H226029   6.174   7.312   3.543
 8696TIP3   OH226030   6.254   7.087   2.265
 8696TIP3    H126031   6.290   7.157   2.210
 8696TIP3    H226032   6.176   7.125   2.304
 8697TIP3   OH226033   5.272   5.861   4.131
 8697TIP3    H126034   5.177   5.868   4.143
 8697TIP3    H226035   5.301   5.805   4.203
 8698TIP3   OH226036   4.995   6.945   3.765
 8698TIP3    H126037   5.045   6.870   3.798
 8698TIP3    H226038   5.017   7.017   3.824
 8699TIP3   OH226039   5.282   6.589   2.443
 8699TIP3    H126040   5.293   6.499   2.414
 8699TIP3    H226041   5.267   6.582   2.538
 8700TIP3   OH226042   5.240   6.601   2.715
 8700TIP3    H126043   5.295   6.571   2.788
 8700TIP3    H226044   5.240   6.696   2.721
 8701TIP3   OH226045   4.957   6.291   2.922
 8701TIP3    H126046   4.888   6.331   2.974
 8701TIP3    H226047   4.979   6.358   2.856
 8702TIP3   OH226048   6.118   5.922   3.815
 8702TIP3    H126049   6.194   5.963   3.856
 8702TIP3    H226050   6.101   5.844   3.867
 8703TIP3   OH226051   5.993   5.676   2.986
 8703TIP3    H126052   5.981   5.697   2.893
 8703TIP3    H226053   6.037   5.754   3.022
 8704TIP3   OH226054   5.498   6.792   2.671
 8704TIP3    H126055   5.415   6.823   2.706
 8704TIP3    H226056   5.502   6.830   2.583
 8705TIP3   OH226057   5.682   5.862   3.085
 8705TIP3    H126058   5.746   5.931   3.069
 8705TIP3    H226059   5.685   5.849   3.180
 8706TIP3   OH226060   5.956   6.175   3.887
 8706TIP3    H126061   5.974   6.228   3.965
 8706TIP3    H226062   6.005   6.094   3.901
 8707TIP3   OH226063   5.824   5.585   3.186
 8707TIP3    H126064   5.818   5.660   3.245
 8707TIP3    H226065   5.884   5.613   3.117
 8708TIP3   OH226066   5.242   6.872   2.737
 8708TIP3    H126067   5.212   6.938   2.674
 8708TIP3    H226068   5.224   6.911   2.822
 8709TIP3   OH226069   5.339   5.584   2.971
 8709TIP3    H126070   5.332   5.670   3.013
 8709TIP3    H226071   5.432   5.561   2.979
 8710TIP3   OH226072   6.588   6.074   3.866
 8710TIP3    H126073   6.493   6.077   3.880
 8710TIP3    H226074   6.599   6.024   3.786
 8711TIP3   OH226075   6.245   6.264   3.242
 8711TIP3    H126076   6.168   6.212   3.264
 8711TIP3    H226077   6.316   6.226   3.293
 8712TIP3   OH226078   4.979   6.496   2.741
 8712TIP3    H126079   5.040   6.570   2.746
 8712TIP3    H226080   5.012   6.443   2.668
 8713TIP3   OH226081   4.902   5.779   2.861
 8713TIP3    H126082   4.909   5.874   2.860
 8713TIP3    H226083   4.816   5.761   2.823
 8714TIP3   OH226084   6.213   7.228   3.203
 8714TIP3    H126085   6.168   7.272   3.131
 8714TIP3    H226086   6.306   7.245   3.186
 8715TIP3   OH226087   5.287   5.492   3.732
 8715TIP3    H126088   5.259   5.459   3.647
 8715TIP3    H226089   5.278   5.417   3.791
 8716TIP3   OH226090   4.830   6.730   3.116
 8716TIP3    H126091   4.752   6.735   3.171
 8716TIP3    H226092   4.800   6.758   3.029
 8717TIP3   OH226093   4.987   7.257   4.186
 8717TIP3    H126094   5.071   7.260   4.233
 8717TIP3    H226095   4.964   7.164   4.184
 8718TIP3   OH226096   5.465   7.217   4.228
 8718TIP3    H126097   5.558   7.197   4.239
 8718TIP3    H226098   5.436   7.158   4.158
 8719TIP3   OH226099   5.454   6.795   2.375
 8719TIP3    H126100   5.393   6.723   2.391
 8719TIP3    H226101   5.507   6.765   2.301
 8720TIP3   OH226102   6.108   7.123   3.964
 8720TIP3    H126103   6.096   7.055   4.030
 8720TIP3    H226104   6.181   7.176   3.996
 8721TIP3   OH226105   5.895   6.844   2.275
 8721TIP3    H126106   5.932   6.775   2.330
 8721TIP3    H226107   5.941   6.836   2.192
 8722TIP3   OH226108   5.116   6.660   4.382
 8722TIP3    H126109   5.133   6.566   4.388
 8722TIP3    H226110   5.028   6.666   4.344
 8723TIP3   OH226111   5.095   6.309   2.576
 8723TIP3    H126112   5.143   6.279   2.653
 8723TIP3    H226113   5.161   6.314   2.507
 8724TIP3   OH226114   5.723   6.748   4.158
 8724TIP3    H126115   5.679   6.766   4.075
 8724TIP3    H226116   5.752   6.657   4.151
 8725TIP3   OH226117   5.631   6.510   2.390
 8725TIP3    H126118   5.604   6.528   2.481
 8725TIP3    H226119   5.618   6.416   2.380
 8726TIP3   OH226120   6.214   6.759   3.765
 8726TIP3    H126121   6.288   6.803   3.724
 8726TIP3    H226122   6.141   6.820   3.755
 8727TIP3   OH226123   5.240   6.402   4.371
 8727TIP3    H126124   5.310   6.340   4.348
 8727TIP3    H226125   5.260   6.429   4.460
 8728TIP3   OH226126   5.302   6.215   2.805
 8728TIP3    H126127   5.267   6.180   2.887
 8728TIP3    H226128   5.332   6.139   2.756
 8729TIP3   OH226129   5.570   6.284   4.032
 8729TIP3    H126130   5.491   6.338   4.034
 8729TIP3    H226131   5.618   6.315   3.955
 8730TIP3   OH226132   5.398   6.011   2.637
 8730TIP3    H126133   5.367   6.016   2.547
 8730TIP3    H226134   5.494   6.017   2.629
 8731TIP3   OH226135   6.087   6.682   4.164
 8731TIP3    H126136   6.165   6.652   4.117
 8731TIP3    H226137   6.077   6.620   4.236
 8732TIP3   OH226138   6.224   6.343   2.303
 8732TIP3    H126139   6.203   6.293   2.224
 8732TIP3    H226140   6.192   6.431   2.285
 8733TIP3   OH226141   5.693   6.070   4.153
 8733TIP3    H126142   5.692   5.991   4.099
 8733TIP3    H226143   5.649   6.136   4.100
 8734TIP3   OH226144   5.694   5.857   3.961
 8734TIP3    H126145   5.721   5.894   3.877
 8734TIP3    H226146   5.602   5.833   3.947
 8735TIP3   OH226147   5.719   6.391   3.835
 8735TIP3    H126148   5.803   6.401   3.791
 8735TIP3    H226149   5.662   6.455   3.792
 8736TIP3   OH226150   6.302   6.355   4.215
 8736TIP3    H126151   6.346   6.272   4.233
 8736TIP3    H226152   6.372   6.412   4.182
 8737TIP3   OH226153   6.345   6.612   3.950
 8737TIP3    H126154   6.285   6.664   3.895
 8737TIP3    H226155   6.432   6.630   3.914
 8738TIP3   OH226156   5.570   6.175   4.386
 8738TIP3    H126157   5.503   6.109   4.405
 8738TIP3    H226158   5.604   6.151   4.300
 8739TIP3   OH226159   5.824   5.619   4.031
 8739TIP3    H126160   5.778   5.700   4.010
 8739TIP3    H226161   5.757   5.550   4.022
 8740TIP3   OH226162   5.949   6.120   4.249
 8740TIP3    H126163   5.940   6.108   4.343
 8740TIP3    H226164   5.863   6.097   4.213
 8741TIP3   OH226165   6.190   6.070   4.104
 8741TIP3    H126166   6.115   6.072   4.163
 8741TIP3    H226167   6.263   6.040   4.158
 8742TIP3   OH226168   6.423   6.013   4.253
 8742TIP3    H126169   6.434   5.919   4.268
 8742TIP3    H226170   6.416   6.051   4.341
 8743TIP3   OH226171   5.412   5.955   4.444
 8743TIP3    H126172   5.413   5.866   4.408
 8743TIP3    H226173   5.447   5.945   4.532
 8744TIP3   OH226174   5.920   5.627   4.289
 8744TIP3    H126175   5.986   5.557   4.285
 8744TIP3    H226176   5.878   5.624   4.203
 8745TIP3   OH226177   5.985   5.843   4.447
 8745TIP3    H126178   5.965   5.772   4.386
 8745TIP3    H226179   5.909   5.901   4.442
 8746TIP3   OH226180   5.211   7.074   2.547
 8746TIP3    H126181   5.305   7.065   2.531
 8746TIP3    H226182   5.178   7.124   2.472
 8747TIP3   OH226183   4.711   6.467   2.677
 8747TIP3    H126184   4.788   6.489   2.730
 8747TIP3    H226185   4.691   6.376   2.698
 8748TIP3   OH226186   4.596   7.057   3.177
 8748TIP3    H126187   4.534   6.994   3.140
 8748TIP3    H226188   4.644   7.007   3.243
 8749TIP3   OH226189   4.733   6.921   3.371
 8749TIP3    H126190   4.722   6.843   3.427
 8749TIP3    H226191   4.787   6.980   3.424
 8750TIP3   OH226192   6.468   7.315   3.167
 8750TIP3    H126193   6.490   7.344   3.255
 8750TIP3    H226194   6.529   7.363   3.110
 8751TIP3   OH226195   6.495   7.332   3.449
 8751TIP3    H126196   6.448   7.249   3.443
 8751TIP3    H226197   6.570   7.313   3.506
 8752TIP3   OH226198   6.540   7.017   4.021
 8752TIP3    H126199   6.469   7.021   4.085
 8752TIP3    H226200   6.583   7.102   4.027
 8753TIP3   OH226201   6.361   6.516   2.644
 8753TIP3    H126202   6.412   6.588   2.608
 8753TIP3    H226203   6.411   6.486   2.720
 8754TIP3   OH226204   6.486   6.393   2.854
 8754TIP3    H126205   6.431   6.353   2.921
 8754TIP3    H226206   6.560   6.430   2.902
 8755TIP3   OH226207   6.540   6.786   3.272
 8755TIP3    H126208   6.596   6.721   3.229
 8755TIP3    H226209   6.535   6.859   3.210
 8756TIP3   OH226210   6.366   7.086   3.468
 8756TIP3    H126211   6.298   7.128   3.520
 8756TIP3    H226212   6.319   7.039   3.399
 8757TIP3   OH226213   6.420   6.301   2.488
 8757TIP3    H126214   6.353   6.300   2.420
 8757TIP3    H226215   6.398   6.377   2.542
 8758TIP3   OH226216   6.278   5.976   2.450
 8758TIP3    H126217   6.249   6.009   2.365
 8758TIP3    H226218   6.262   5.882   2.446
 8759TIP3   OH226219   6.258   6.252   2.970
 8759TIP3    H126220   6.292   6.162   2.964
 8759TIP3    H226221   6.255   6.270   3.064
 8760TIP3   OH226222   4.926   6.324   3.736
 8760TIP3    H126223   4.920   6.291   3.647
 8760TIP3    H226224   5.020   6.325   3.755
 8761TIP3   OH226225   6.591   6.675   3.846
 8761TIP3    H126226   6.659   6.609   3.836
 8761TIP3    H226227   6.615   6.744   3.784
 8762TIP3   OH226228   6.772   6.475   3.856
 8762TIP3    H126229   6.697   6.430   3.895
 8762TIP3    H226230   6.846   6.416   3.872
 8763TIP3   OH226231   6.235   5.711   2.436
 8763TIP3    H126232   6.311   5.676   2.482
 8763TIP3    H226233   6.167   5.645   2.448
 8764TIP3   OH226234   6.295   5.963   2.873
 8764TIP3    H126235   6.327   5.875   2.895
 8764TIP3    H226236   6.354   5.993   2.804
 8765TIP3   OH226237   6.456   6.143   3.378
 8765TIP3    H126238   6.540   6.164   3.336
 8765TIP3    H226239   6.465   6.175   3.468
 8766TIP3   OH226240   6.524   6.286   3.608
 8766TIP3    H126241   6.450   6.316   3.660
 8766TIP3    H226242   6.558   6.365   3.566
 8767TIP3   OH226243   5.147   6.009   4.413
 8767TIP3    H126244   5.242   6.003   4.416
 8767TIP3    H226245   5.116   5.927   4.452
 8768TIP3   OH226246   6.976   5.878   4.163
 8768TIP3    H126247   7.036   5.813   4.125
 8768TIP3    H226248   6.948   5.931   4.089
 8769TIP3   OH226249   6.397   5.716   2.926
 8769TIP3    H126250   6.448   5.701   3.005
 8769TIP3    H226251   6.340   5.640   2.920
 8770TIP3   OH226252   5.106   5.702   3.737
 8770TIP3    H126253   5.164   5.626   3.749
 8770TIP3    H226254   5.165   5.777   3.733
 8771TIP3   OH226255   4.905   5.975   3.812
 8771TIP3    H126256   4.954   5.973   3.730
 8771TIP3    H226257   4.929   6.059   3.852
 8772TIP3   OH226258   6.844   6.014   3.967
 8772TIP3    H126259   6.762   6.057   3.993
 8772TIP3    H226260   6.817   5.941   3.913
 8773TIP3   OH226261   6.484   5.650   2.552
 8773TIP3    H126262   6.519   5.578   2.501
 8773TIP3    H226263   6.551   5.718   2.548
 8774TIP3   OH226264   4.886   5.471   3.308
 8774TIP3    H126265   4.799   5.476   3.348
 8774TIP3    H226266   4.883   5.536   3.238
 8775TIP3   OH226267   6.055   7.182   2.822
 8775TIP3    H126268   6.104   7.174   2.740
 8775TIP3    H226269   6.098   7.252   2.871
 8776TIP3   OH226270   5.108   5.560   4.129
 8776TIP3    H126271   5.061   5.553   4.213
 8776TIP3    H226272   5.044   5.598   4.069
 8777TIP3   OH226273   5.148   6.988   4.208
 8777TIP3    H126274   5.058   6.963   4.190
 8777TIP3    H226275   5.161   6.968   4.301
 8778TIP3   OH226276   5.331   7.024   3.752
 8778TIP3    H126277   5.278   7.095   3.717
 8778TIP3    H226278   5.416   7.034   3.709
 8779TIP3   OH226279   5.772   7.264   3.891
 8779TIP3    H126280   5.810   7.261   3.979
 8779TIP3    H226281   5.835   7.315   3.840
 8780TIP3   OH226282   5.951   7.418   3.753
 8780TIP3    H126283   6.019   7.365   3.710
 8780TIP3    H226284   5.999   7.475   3.812
 8781TIP3   OH226285   6.746   5.774   3.849
 8781TIP3    H126286   6.655   5.766   3.819
 8781TIP3    H226287   6.781   5.685   3.841
 8782TIP3   OH226288   5.003   7.280   3.779
 8782TIP3    H126289   4.915   7.309   3.755
 8782TIP3    H226290   5.018   7.319   3.865
 8783TIP3   OH226291   5.239   7.258   3.636
 8783TIP3    H126292   5.155   7.268   3.682
 8783TIP3    H226293   5.221   7.288   3.547
 8784TIP3   OH226294   5.666   7.285   3.433
 8784TIP3    H126295   5.595   7.300   3.370
 8784TIP3    H226296   5.678   7.370   3.476
 8785TIP3   OH226297   5.934   7.223   3.483
 8785TIP3    H126298   5.840   7.238   3.467
 8785TIP3    H226299   5.977   7.299   3.443
 8786TIP3   OH226300   6.143   7.415   3.398
 8786TIP3    H126301   6.128   7.498   3.353
 8786TIP3    H226302   6.167   7.354   3.327
 8787TIP3   OH226303   4.919   7.069   3.525
 8787TIP3    H126304   4.941   7.043   3.614
 8787TIP3    H226305   4.986   7.029   3.470
 8788TIP3   OH226306   5.112   6.943   3.383
 8788TIP3    H126307   5.123   6.861   3.431
 8788TIP3    H226308   5.200   6.980   3.378
 8789TIP3   OH226309   5.381   7.034   3.386
 8789TIP3    H126310   5.406   6.942   3.374
 8789TIP3    H226311   5.423   7.060   3.468
 8790TIP3   OH226312   5.949   5.689   3.469
 8790TIP3    H126313   5.907   5.622   3.523
 8790TIP3    H226314   6.022   5.643   3.426
 8791TIP3   OH226315   6.473   5.578   3.373
 8791TIP3    H126316   6.508   5.626   3.298
 8791TIP3    H226317   6.379   5.590   3.367
 8792TIP3   OH226318   6.570   5.676   3.136
 8792TIP3    H126319   6.640   5.620   3.100
 8792TIP3    H226320   6.602   5.765   3.123
 8793TIP3   OH226321   5.198   5.396   3.485
 8793TIP3    H126322   5.108   5.365   3.490
 8793TIP3    H226323   5.251   5.316   3.483
 8794TIP3   OH226324   4.955   5.278   3.120
 8794TIP3    H126325   5.011   5.328   3.061
 8794TIP3    H226326   4.945   5.335   3.197
 8795TIP3   OH226327   5.640   5.453   3.370
 8795TIP3    H126328   5.703   5.491   3.309
 8795TIP3    H226329   5.675   5.474   3.457
 8796TIP3   OH226330   6.191   5.576   3.348
 8796TIP3    H126331   6.190   5.536   3.261
 8796TIP3    H226332   6.178   5.503   3.408
 8797TIP3   OH226333   6.216   5.504   2.917
 8797TIP3    H126334   6.131   5.544   2.933
 8797TIP3    H226335   6.210   5.418   2.960
 8798TIP3   OH226336   4.707   6.827   2.898
 8798TIP3    H126337   4.635   6.764   2.888
 8798TIP3    H226338   4.667   6.912   2.882
 8799TIP3   OH226339   5.107   5.433   2.891
 8799TIP3    H126340   5.153   5.367   2.838
 8799TIP3    H226341   5.178   5.485   2.929
 8800TIP3   OH226342   5.617   5.610   2.995
 8800TIP3    H126343   5.667   5.554   3.054
 8800TIP3    H226344   5.638   5.699   3.022
 8801TIP3   OH226345   5.477   7.038   2.490
 8801TIP3    H126346   5.564   7.061   2.459
 8801TIP3    H226347   5.453   6.960   2.440
 8802TIP3   OH226348   6.197   7.153   2.587
 8802TIP3    H126349   6.190   7.058   2.578
 8802TIP3    H226350   6.151   7.188   2.511
 8803TIP3   OH226351   5.409   5.682   4.379
 8803TIP3    H126352   5.370   5.613   4.433
 8803TIP3    H226353   5.501   5.683   4.405
 8804TIP3   OH226354   5.658   5.677   4.497
 8804TIP3    H126355   5.742   5.653   4.457
 8804TIP3    H226356   5.642   5.610   4.563
 8805TIP3   OH226357   4.791   6.886   2.557
 8805TIP3    H126358   4.770   6.874   2.650
 8805TIP3    H226359   4.871   6.836   2.545
 8806TIP3   OH226360   6.485   5.742   4.284
 8806TIP3    H126361   6.500   5.712   4.374
 8806TIP3    H226362   6.571   5.737   4.243
 8807TIP3   OH226363   6.415   7.293   3.777
 8807TIP3    H126364   6.341   7.257   3.728
 8807TIP3    H226365   6.398   7.387   3.782
 8808TIP3   OH226366   7.680   6.663   2.548
 8808TIP3    H126367   7.652   6.752   2.529
 8808TIP3    H226368   7.611   6.607   2.513
 8809TIP3   OH226369   7.675   6.662   2.932
 8809TIP3    H126370   7.716   6.640   3.016
 8809TIP3    H226371   7.638   6.580   2.901
 8810TIP3   OH226372   6.984   6.558   3.291
 8810TIP3    H126373   7.011   6.489   3.353
 8810TIP3    H226374   7.061   6.615   3.284
 8811TIP3   OH226375   7.911   6.957   2.614
 8811TIP3    H126376   7.910   6.883   2.675
 8811TIP3    H226377   7.923   7.034   2.670
 8812TIP3   OH226378   6.959   6.968   3.009
 8812TIP3    H126379   6.947   6.873   3.011
 8812TIP3    H226380   7.054   6.980   3.010
 8813TIP3   OH226381   6.662   6.172   2.793
 8813TIP3    H126382   6.618   6.256   2.809
 8813TIP3    H226383   6.594   6.117   2.754
 8814TIP3   OH226384   6.724   6.457   2.969
 8814TIP3    H126385   6.771   6.383   3.007
 8814TIP3    H226386   6.787   6.499   2.911
 8815TIP3   OH226387   7.596   7.398   2.624
 8815TIP3    H126388   7.667   7.334   2.619
 8815TIP3    H226389   7.560   7.386   2.712
 8816TIP3   OH226390   7.487   6.892   2.971
 8816TIP3    H126391   7.523   6.813   2.930
 8816TIP3    H226392   7.565   6.943   2.995
 8817TIP3   OH226393  -0.017   6.227   2.963
 8817TIP3    H126394   0.021   6.286   3.028
 8817TIP3    H226395   0.032   6.245   2.883
 8818TIP3   OH226396   7.896   6.394   2.999
 8818TIP3    H126397   7.938   6.312   3.025
 8818TIP3    H226398   7.865   6.377   2.910
 8819TIP3   OH226399   7.235   6.053   2.966
 8819TIP3    H126400   7.219   6.126   2.906
 8819TIP3    H226401   7.190   5.978   2.926
 8820TIP3   OH226402   7.936   6.144   2.594
 8820TIP3    H126403   8.005   6.126   2.658
 8820TIP3    H226404   7.982   6.178   2.517
 8821TIP3   OH226405   6.871   6.253   3.075
 8821TIP3    H126406   6.951   6.237   3.125
 8821TIP3    H226407   6.881   6.200   2.996
 8822TIP3   OH226408   7.310   6.450   2.871
 8822TIP3    H126409   7.402   6.429   2.884
 8822TIP3    H226410   7.271   6.369   2.839
 8823TIP3   OH226411   7.228   6.037   3.403
 8823TIP3    H126412   7.172   6.074   3.334
 8823TIP3    H226413   7.180   6.052   3.484
 8824TIP3   OH226414   7.568   6.881   2.412
 8824TIP3    H126415   7.525   6.864   2.328
 8824TIP3    H226416   7.535   6.966   2.440
 8825TIP3   OH226417   7.338   6.814   3.194
 8825TIP3    H126418   7.278   6.879   3.232
 8825TIP3    H226419   7.382   6.861   3.124
 8826TIP3   OH226420   8.144   6.146   2.772
 8826TIP3    H126421   8.119   6.103   2.853
 8826TIP3    H226422   8.187   6.227   2.799
 8827TIP3   OH226423   7.106   6.153   3.185
 8827TIP3    H126424   7.164   6.225   3.211
 8827TIP3    H226425   7.152   6.110   3.112
 8828TIP3   OH226426   7.164   7.010   3.295
 8828TIP3    H126427   7.144   7.096   3.259
 8828TIP3    H226428   7.089   6.989   3.351
 8829TIP3   OH226429   6.554   6.698   2.530
 8829TIP3    H126430   6.517   6.722   2.445
 8829TIP3    H226431   6.586   6.781   2.566
 8830TIP3   OH226432   8.285   6.110   3.128
 8830TIP3    H126433   8.199   6.146   3.107
 8830TIP3    H226434   8.343   6.148   3.063
 8831TIP3   OH226435   7.569   5.765   3.094
 8831TIP3    H126436   7.629   5.725   3.158
 8831TIP3    H226437   7.496   5.797   3.147
 8832TIP3   OH226438   7.818   7.030   2.367
 8832TIP3    H126439   7.763   6.957   2.338
 8832TIP3    H226440   7.846   7.006   2.455
 8833TIP3   OH226441   7.516   6.520   2.373
 8833TIP3    H126442   7.439   6.570   2.351
 8833TIP3    H226443   7.564   6.510   2.291
 8834TIP3   OH226444   7.479   6.304   2.085
 8834TIP3    H126445   7.543   6.356   2.133
 8834TIP3    H226446   7.531   6.239   2.037
 8835TIP3   OH226447   8.453   6.744   2.995
 8835TIP3    H126448   8.361   6.770   3.002
 8835TIP3    H226449   8.482   6.783   2.912
 8836TIP3   OH226450   7.858   6.582   2.358
 8836TIP3    H126451   7.807   6.608   2.435
 8836TIP3    H226452   7.944   6.559   2.393
 8837TIP3   OH226453   8.096   6.638   3.265
 8837TIP3    H126454   8.096   6.716   3.319
 8837TIP3    H226455   8.013   6.640   3.219
 8838TIP3   OH226456   7.099   6.595   2.761
 8838TIP3    H126457   7.058   6.539   2.696
 8838TIP3    H226458   7.174   6.545   2.793
 8839TIP3   OH226459   7.232   7.011   2.906
 8839TIP3    H126460   7.211   6.966   2.824
 8839TIP3    H226461   7.319   6.980   2.929
 8840TIP3   OH226462   7.231   6.572   3.113
 8840TIP3    H126463   7.267   6.546   3.028
 8840TIP3    H226464   7.275   6.654   3.134
 8841TIP3   OH226465   7.725   7.194   2.865
 8841TIP3    H126466   7.751   7.272   2.913
 8841TIP3    H226467   7.731   7.123   2.929
 8842TIP3   OH226468   7.368   7.125   3.441
 8842TIP3    H126469   7.313   7.186   3.488
 8842TIP3    H226470   7.307   7.071   3.390
 8843TIP3   OH226471   7.699   6.460   2.169
 8843TIP3    H126472   7.759   6.508   2.225
 8843TIP3    H226473   7.727   6.482   2.080
 8844TIP3   OH226474   7.124   6.684   3.543
 8844TIP3    H126475   7.132   6.770   3.584
 8844TIP3    H226476   7.032   6.660   3.554
 8845TIP3   OH226477   7.465   7.139   2.451
 8845TIP3    H126478   7.498   7.211   2.504
 8845TIP3    H226479   7.390   7.176   2.405
 8846TIP3   OH226480   7.163   7.291   3.526
 8846TIP3    H126481   7.131   7.292   3.436
 8846TIP3    H226482   7.085   7.272   3.578
 8847TIP3   OH226483   8.212   5.703   2.214
 8847TIP3    H126484   8.135   5.709   2.271
 8847TIP3    H226485   8.238   5.794   2.199
 8848TIP3   OH226486   6.962   6.442   2.565
 8848TIP3    H126487   6.895   6.483   2.511
 8848TIP3    H226488   6.932   6.352   2.577
 8849TIP3   OH226489   6.745   6.824   3.473
 8849TIP3    H126490   6.679   6.802   3.407
 8849TIP3    H226491   6.782   6.739   3.498
 8850TIP3   OH226492   6.600   7.019   3.104
 8850TIP3    H126493   6.695   7.012   3.097
 8850TIP3    H226494   6.585   7.096   3.159
 8851TIP3   OH226495   7.557   7.262   3.293
 8851TIP3    H126496   7.560   7.352   3.324
 8851TIP3    H226497   7.493   7.219   3.350
 8852TIP3   OH226498   6.771   7.230   2.634
 8852TIP3    H126499   6.817   7.224   2.718
 8852TIP3    H226500   6.715   7.152   2.632
 8853TIP3   OH226501   8.361   6.611   3.441
 8853TIP3    H126502   8.289   6.623   3.378
 8853TIP3    H226503   8.393   6.523   3.423
 8854TIP3   OH226504   6.949   7.008   3.462
 8854TIP3    H126505   7.000   6.993   3.541
 8854TIP3    H226506   6.877   6.945   3.467
 8855TIP3   OH226507   7.343   5.833   3.251
 8855TIP3    H126508   7.257   5.802   3.220
 8855TIP3    H226509   7.324   5.914   3.297
 8856TIP3   OH226510   7.889   5.944   3.442
 8856TIP3    H126511   7.957   5.913   3.501
 8856TIP3    H226512   7.807   5.920   3.486
 8857TIP3   OH226513   8.111   6.369   3.355
 8857TIP3    H126514   8.072   6.368   3.442
 8857TIP3    H226515   8.101   6.460   3.326
 8858TIP3   OH226516   7.784   6.514   1.917
 8858TIP3    H126517   7.742   6.483   1.837
 8858TIP3    H226518   7.866   6.552   1.888
 8859TIP3   OH226519   7.489   5.878   2.218
 8859TIP3    H126520   7.460   5.879   2.309
 8859TIP3    H226521   7.455   5.796   2.182
 8860TIP3   OH226522   7.278   6.350   3.265
 8860TIP3    H126523   7.232   6.368   3.347
 8860TIP3    H226524   7.264   6.428   3.212
 8861TIP3   OH226525   7.162   6.232   2.777
 8861TIP3    H126526   7.073   6.206   2.799
 8861TIP3    H226527   7.178   6.193   2.692
 8862TIP3   OH226528   7.655   6.319   2.506
 8862TIP3    H126529   7.603   6.388   2.465
 8862TIP3    H226530   7.711   6.285   2.436
 8863TIP3   OH226531   7.831   6.594   3.594
 8863TIP3    H126532   7.807   6.523   3.653
 8863TIP3    H226533   7.923   6.610   3.611
 8864TIP3   OH226534   7.811   6.344   2.740
 8864TIP3    H126535   7.748   6.372   2.673
 8864TIP3    H226536   7.850   6.264   2.703
 8865TIP3   OH226537   7.098   6.374   3.476
 8865TIP3    H126538   7.133   6.436   3.540
 8865TIP3    H226539   7.087   6.293   3.524
 8866TIP3   OH226540   7.147   5.854   2.185
 8866TIP3    H126541   7.142   5.849   2.281
 8866TIP3    H226542   7.070   5.904   2.159
 8867TIP3   OH226543   6.692   5.901   3.054
 8867TIP3    H126544   6.768   5.929   3.105
 8867TIP3    H226545   6.729   5.864   2.974
 8868TIP3   OH226546   6.661   5.878   2.573
 8868TIP3    H126547   6.708   5.910   2.496
 8868TIP3    H226548   6.600   5.949   2.595
 8869TIP3   OH226549   7.820   6.590   3.167
 8869TIP3    H126550   7.855   6.524   3.107
 8869TIP3    H226551   7.793   6.540   3.244
 8870TIP3   OH226552   7.494   6.057   2.842
 8870TIP3    H126553   7.415   6.052   2.895
 8870TIP3    H226554   7.566   6.050   2.904
 8871TIP3   OH226555   6.926   6.111   2.846
 8871TIP3    H126556   6.834   6.116   2.819
 8871TIP3    H226557   6.952   6.021   2.826
 8872TIP3   OH226558   7.192   6.107   2.536
 8872TIP3    H126559   7.285   6.120   2.518
 8872TIP3    H226560   7.148   6.129   2.454
 8873TIP3   OH226561   7.978   6.133   3.040
 8873TIP3    H126562   7.953   6.145   3.131
 8873TIP3    H226563   7.914   6.071   3.005
 8874TIP3   OH226564   7.038   6.144   2.311
 8874TIP3    H126565   6.969   6.096   2.265
 8874TIP3    H226566   7.092   6.180   2.240
 8875TIP3   OH226567   7.111   6.931   3.684
 8875TIP3    H126568   7.192   6.959   3.728
 8875TIP3    H226569   7.046   6.927   3.754
 8876TIP3   OH226570   7.575   6.384   2.939
 8876TIP3    H126571   7.646   6.342   2.890
 8876TIP3    H226572   7.579   6.343   3.025
 8877TIP3   OH226573   7.092   5.869   2.819
 8877TIP3    H126574   7.057   5.794   2.866
 8877TIP3    H226575   7.140   5.831   2.745
 8878TIP3   OH226576   7.550   6.286   3.224
 8878TIP3    H126577   7.462   6.320   3.242
 8878TIP3    H226578   7.608   6.342   3.276
 8879TIP3   OH226579   7.283   6.674   2.318
 8879TIP3    H126580   7.217   6.606   2.306
 8879TIP3    H226581   7.269   6.705   2.408
 8880TIP3   OH226582   8.194   6.814   2.929
 8880TIP3    H126583   8.187   6.909   2.917
 8880TIP3    H226584   8.103   6.784   2.927
 8881TIP3   OH226585   7.744   5.978   2.193
 8881TIP3    H126586   7.649   5.962   2.197
 8881TIP3    H226587   7.753   6.072   2.211
 8882TIP3   OH226588   7.685   6.979   3.323
 8882TIP3    H126589   7.712   6.956   3.412
 8882TIP3    H226590   7.649   7.067   3.331
 8883TIP3   OH226591   7.813   6.232   2.291
 8883TIP3    H126592   7.907   6.234   2.305
 8883TIP3    H226593   7.796   6.304   2.230
 8884TIP3   OH226594   6.980   6.689   2.995
 8884TIP3    H126595   7.019   6.664   2.912
 8884TIP3    H226596   7.025   6.636   3.061
 8885TIP3   OH226597   7.432   6.825   2.140
 8885TIP3    H126598   7.391   6.911   2.147
 8885TIP3    H226599   7.380   6.769   2.198
 8886TIP3   OH226600   6.861   6.613   3.613
 8886TIP3    H126601   6.883   6.600   3.706
 8886TIP3    H226602   6.794   6.547   3.595
 8887TIP3   OH226603   7.590   6.727   3.629
 8887TIP3    H126604   7.529   6.669   3.584
 8887TIP3    H226605   7.677   6.694   3.605
 8888TIP3   OH226606   7.831   7.230   3.244
 8888TIP3    H126607   7.737   7.236   3.229
 8888TIP3    H226608   7.846   7.279   3.324
 8889TIP3   OH226609   7.929   6.760   2.859
 8889TIP3    H126610   7.837   6.738   2.875
 8889TIP3    H226611   7.965   6.682   2.816
 8890TIP3   OH226612   7.079   6.998   2.619
 8890TIP3    H126613   7.075   7.079   2.568
 8890TIP3    H226614   6.987   6.979   2.641
 8891TIP3   OH226615   6.645   6.302   2.328
 8891TIP3    H126616   6.692   6.384   2.348
 8891TIP3    H226617   6.569   6.303   2.386
 8892TIP3   OH226618   7.213   6.761   2.565
 8892TIP3    H126619   7.179   6.848   2.583
 8892TIP3    H226620   7.183   6.708   2.638
 8893TIP3   OH226621   7.351   7.330   3.096
 8893TIP3    H126622   7.387   7.395   3.035
 8893TIP3    H226623   7.427   7.298   3.144
 8894TIP3   OH226624   6.998   7.241   2.471
 8894TIP3    H126625   6.915   7.243   2.519
 8894TIP3    H226626   7.031   7.330   2.475
 8895TIP3   OH226627   7.739   6.972   3.052
 8895TIP3    H126628   7.724   6.970   3.146
 8895TIP3    H226629   7.812   6.911   3.037
 8896TIP3   OH226630   7.628   6.864   1.919
 8896TIP3    H126631   7.716   6.849   1.954
 8896TIP3    H226632   7.570   6.838   1.990
 8897TIP3   OH226633   7.070   6.117   3.618
 8897TIP3    H126634   6.976   6.123   3.631
 8897TIP3    H226635   7.101   6.064   3.691
 8898TIP3   OH226636   7.892   6.778   2.172
 8898TIP3    H126637   7.851   6.724   2.240
 8898TIP3    H226638   7.973   6.732   2.151
 8899TIP3   OH226639   6.791   7.201   3.251
 8899TIP3    H126640   6.843   7.127   3.285
 8899TIP3    H226641   6.814   7.274   3.308
 8900TIP3   OH226642   7.067   6.852   1.936
 8900TIP3    H126643   7.097   6.768   1.902
 8900TIP3    H226644   7.052   6.836   2.029
 8901TIP3   OH226645   7.024   6.856   2.212
 8901TIP3    H126646   7.094   6.817   2.265
 8901TIP3    H226647   7.037   6.951   2.220
 8902TIP3   OH226648   6.754   6.547   2.411
 8902TIP3    H126649   6.689   6.588   2.468
 8902TIP3    H226650   6.772   6.612   2.343
 8903TIP3   OH226651   7.910   6.180   3.299
 8903TIP3    H126652   7.989   6.223   3.332
 8903TIP3    H226653   7.902   6.101   3.353
 8904TIP3   OH226654   7.788   5.934   2.470
 8904TIP3    H126655   7.777   5.952   2.377
 8904TIP3    H226656   7.831   6.012   2.505
 8905TIP3   OH226657   7.293   7.060   2.140
 8905TIP3    H126658   7.211   7.095   2.174
 8905TIP3    H226659   7.286   7.071   2.045
 8906TIP3   OH226660   7.475   6.117   2.571
 8906TIP3    H126661   7.539   6.185   2.551
 8906TIP3    H226662   7.481   6.105   2.666
 8907TIP3   OH226663   7.750   6.429   3.376
 8907TIP3    H126664   7.773   6.481   3.453
 8907TIP3    H226665   7.804   6.351   3.382
 8908TIP3   OH226666   7.623   5.836   2.668
 8908TIP3    H126667   7.618   5.908   2.731
 8908TIP3    H226668   7.682   5.867   2.600
 8909TIP3   OH226669   7.040   7.133   2.221
 8909TIP3    H126670   6.967   7.169   2.170
 8909TIP3    H226671   7.028   7.169   2.309
 8910TIP3   OH226672   7.137   5.842   2.461
 8910TIP3    H126673   7.131   5.930   2.498
 8910TIP3    H226674   7.230   5.820   2.467
 8911TIP3   OH226675   8.385   6.354   3.340
 8911TIP3    H126676   8.289   6.347   3.346
 8911TIP3    H226677   8.411   6.278   3.288
 8912TIP3   OH226678   8.032   6.527   2.744
 8912TIP3    H126679   7.958   6.468   2.755
 8912TIP3    H226680   8.104   6.484   2.790
 8913TIP3   OH226681   6.758   6.752   2.213
 8913TIP3    H126682   6.827   6.817   2.224
 8913TIP3    H226683   6.793   6.691   2.148
 8914TIP3   OH226684   6.694   6.031   2.351
 8914TIP3    H126685   6.694   6.127   2.345
 8914TIP3    H226686   6.620   6.005   2.295
 8915TIP3   OH226687   7.081   5.748   3.219
 8915TIP3    H126688   7.050   5.718   3.134
 8915TIP3    H226689   7.073   5.672   3.277
 8916TIP3   OH226690   6.617   6.969   2.598
 8916TIP3    H126691   6.557   7.000   2.667
 8916TIP3    H226692   6.585   7.011   2.518
 8917TIP3   OH226693   6.783   7.515   3.678
 8917TIP3    H126694   6.868   7.517   3.722
 8917TIP3    H226695   6.763   7.421   3.670
 8918TIP3   OH226696   7.256   7.471   3.716
 8918TIP3    H126697   7.350   7.459   3.729
 8918TIP3    H226698   7.233   7.411   3.646
 8919TIP3   OH226699   7.246   7.050   1.865
 8919TIP3    H126700   7.188   6.977   1.885
 8919TIP3    H226701   7.320   7.010   1.819
 8920TIP3   OH226702   7.897   7.373   3.464
 8920TIP3    H126703   7.892   7.306   3.532
 8920TIP3    H226704   7.978   7.422   3.484
 8921TIP3   OH226705   6.909   6.918   3.872
 8921TIP3    H126706   6.928   6.825   3.881
 8921TIP3    H226707   6.824   6.922   3.829
 8922TIP3   OH226708   6.891   6.564   2.070
 8922TIP3    H126709   6.944   6.531   2.142
 8922TIP3    H226710   6.952   6.571   1.996
 8923TIP3   OH226711   7.516   7.001   3.648
 8923TIP3    H126712   7.476   7.022   3.563
 8923TIP3    H226713   7.548   6.911   3.638
 8924TIP3   OH226714   7.356   6.749   1.879
 8924TIP3    H126715   7.378   6.769   1.970
 8924TIP3    H226716   7.381   6.657   1.868
 8925TIP3   OH226717   8.005   7.012   3.247
 8925TIP3    H126718   8.068   7.077   3.216
 8925TIP3    H226719   7.921   7.058   3.249
 8926TIP3   OH226720   7.032   6.655   3.857
 8926TIP3    H126721   7.105   6.599   3.831
 8926TIP3    H226722   7.056   6.686   3.944
 8927TIP3   OH226723   7.094   6.473   2.286
 8927TIP3    H126724   7.069   6.434   2.370
 8927TIP3    H226725   7.131   6.400   2.236
 8928TIP3   OH226726   7.361   6.536   3.514
 8928TIP3    H126727   7.286   6.596   3.519
 8928TIP3    H226728   7.413   6.568   3.440
 8929TIP3   OH226729   7.200   6.269   2.127
 8929TIP3    H126730   7.172   6.273   2.035
 8929TIP3    H226731   7.295   6.271   2.122
 8930TIP3   OH226732   7.887   6.934   3.646
 8930TIP3    H126733   7.964   6.906   3.597
 8930TIP3    H226734   7.881   6.872   3.719
 8931TIP3   OH226735   7.485   6.325   3.642
 8931TIP3    H126736   7.489   6.246   3.587
 8931TIP3    H226737   7.444   6.391   3.586
 8932TIP3   OH226738   7.488   6.115   3.448
 8932TIP3    H126739   7.519   6.152   3.366
 8932TIP3    H226740   7.397   6.091   3.431
 8933TIP3   OH226741   7.514   6.646   3.323
 8933TIP3    H126742   7.600   6.655   3.282
 8933TIP3    H226743   7.460   6.711   3.278
 8934TIP3   OH226744   8.104   6.613   3.704
 8934TIP3    H126745   8.143   6.526   3.713
 8934TIP3    H226746   8.173   6.667   3.667
 8935TIP3   OH226747   8.114   6.871   3.452
 8935TIP3    H126748   8.060   6.919   3.389
 8935TIP3    H226749   8.202   6.874   3.415
 8936TIP3   OH226750   7.364   6.432   3.874
 8936TIP3    H126751   7.297   6.366   3.891
 8936TIP3    H226752   7.401   6.408   3.788
 8937TIP3   OH226753   7.620   5.878   3.525
 8937TIP3    H126754   7.575   5.958   3.499
 8937TIP3    H226755   7.559   5.807   3.505
 8938TIP3   OH226756   7.745   6.378   3.736
 8938TIP3    H126757   7.739   6.365   3.831
 8938TIP3    H226758   7.658   6.354   3.703
 8939TIP3   OH226759   7.989   6.332   3.594
 8939TIP3    H126760   7.914   6.329   3.653
 8939TIP3    H226761   8.063   6.300   3.646
 8940TIP3   OH226762   8.218   6.271   3.741
 8940TIP3    H126763   8.229   6.177   3.754
 8940TIP3    H226764   8.215   6.307   3.830
 8941TIP3   OH226765   7.206   6.211   3.931
 8941TIP3    H126766   7.211   6.122   3.895
 8941TIP3    H226767   7.243   6.204   4.019
 8942TIP3   OH226768   7.714   5.882   3.781
 8942TIP3    H126769   7.783   5.816   3.777
 8942TIP3    H226770   7.676   5.882   3.693
 8943TIP3   OH226771   7.780   6.099   3.935
 8943TIP3    H126772   7.762   6.028   3.874
 8943TIP3    H226773   7.704   6.157   3.928
 8944TIP3   OH226774   6.487   6.709   2.248
 8944TIP3    H126775   6.579   6.731   2.235
 8944TIP3    H226776   6.478   6.622   2.209
 8945TIP3   OH226777   6.402   7.319   2.667
 8945TIP3    H126778   6.335   7.263   2.627
 8945TIP3    H226779   6.446   7.263   2.731
 8946TIP3   OH226780   6.537   7.168   2.855
 8946TIP3    H126781   6.522   7.097   2.918
 8946TIP3    H226782   6.587   7.233   2.904
 8947TIP3   OH226783   8.052   6.244   1.940
 8947TIP3    H126784   8.043   6.264   1.847
 8947TIP3    H226785   8.044   6.148   1.944
 8948TIP3   OH226786   8.090   6.502   2.475
 8948TIP3    H126787   8.100   6.408   2.467
 8948TIP3    H226788   8.079   6.517   2.569
 8949TIP3   OH226789   6.722   6.582   3.220
 8949TIP3    H126790   6.718   6.549   3.130
 8949TIP3    H226791   6.815   6.583   3.241
 8950TIP3   OH226792   8.341   6.911   3.312
 8950TIP3    H126793   8.423   6.870   3.339
 8950TIP3    H226794   8.367   6.973   3.244
 8951TIP3   OH226795   8.023   5.970   1.942
 8951TIP3    H126796   8.090   5.907   1.969
 8951TIP3    H226797   7.945   5.918   1.927
 8952TIP3   OH226798   8.089   6.223   2.375
 8952TIP3    H126799   8.122   6.135   2.392
 8952TIP3    H226800   8.137   6.251   2.297
 8953TIP3   OH226801   8.249   6.398   2.853
 8953TIP3    H126802   8.339   6.410   2.823
 8953TIP3    H226803   8.249   6.432   2.943
 8954TIP3   OH226804   8.291   6.530   3.082
 8954TIP3    H126805   8.228   6.566   3.144
 8954TIP3    H226806   8.360   6.596   3.077
 8955TIP3   OH226807   6.941   6.265   3.899
 8955TIP3    H126808   7.037   6.263   3.902
 8955TIP3    H226809   6.913   6.181   3.937
 8956TIP3   OH226810   8.179   5.973   2.422
 8956TIP3    H126811   8.243   5.951   2.490
 8956TIP3    H226812   8.124   5.895   2.416
 8957TIP3   OH226813   6.903   5.960   3.227
 8957TIP3    H126814   6.961   5.884   3.236
 8957TIP3    H226815   6.962   6.035   3.219
 8958TIP3   OH226816   6.700   6.234   3.297
 8958TIP3    H126817   6.751   6.228   3.216
 8958TIP3    H226818   6.732   6.313   3.340
 8959TIP3   OH226819   6.686   5.744   2.808
 8959TIP3    H126820   6.594   5.730   2.830
 8959TIP3    H226821   6.683   5.795   2.727
 8960TIP3   OH226822   6.900   5.812   3.613
 8960TIP3    H126823   6.856   5.809   3.698
 8960TIP3    H226824   6.838   5.855   3.554
 8961TIP3   OH226825   6.942   7.248   3.692
 8961TIP3    H126826   6.852   7.220   3.677
 8961TIP3    H226827   6.959   7.224   3.783
 8962TIP3   OH226828   7.124   7.280   3.240
 8962TIP3    H126829   7.074   7.352   3.202
 8962TIP3    H226830   7.211   7.287   3.199
 8963TIP3   OH226831   7.584   7.535   3.375
 8963TIP3    H126832   7.613   7.524   3.466
 8963TIP3    H226833   7.654   7.586   3.334
 8964TIP3   OH226834   0.030   6.023   3.348
 8964TIP3    H126835  -0.058   6.008   3.312
 8964TIP3    H226836   0.086   5.961   3.301
 8965TIP3   OH226837   6.796   7.536   3.266
 8965TIP3    H126838   6.708   7.566   3.243
 8965TIP3    H226839   6.813   7.576   3.351
 8966TIP3   OH226840   7.026   7.508   3.120
 8966TIP3    H126841   6.942   7.518   3.166
 8966TIP3    H226842   7.008   7.539   3.031
 8967TIP3   OH226843   7.445   7.518   2.923
 8967TIP3    H126844   7.431   7.570   2.844
 8967TIP3    H226845   7.477   7.581   2.988
 8968TIP3   OH226846   6.716   7.325   3.009
 8968TIP3    H126847   6.736   7.300   3.099
 8968TIP3    H226848   6.785   7.284   2.957
 8969TIP3   OH226849   6.910   7.197   2.868
 8969TIP3    H126850   6.920   7.115   2.915
 8969TIP3    H226851   6.999   7.234   2.867
 8970TIP3   OH226852   7.176   7.287   2.878
 8970TIP3    H126853   7.202   7.196   2.867
 8970TIP3    H226854   7.222   7.317   2.956
 8971TIP3   OH226855   7.747   5.947   2.948
 8971TIP3    H126856   7.698   5.878   2.991
 8971TIP3    H226857   7.822   5.903   2.909
 8972TIP3   OH226858   8.272   5.833   2.853
 8972TIP3    H126859   8.301   5.884   2.777
 8972TIP3    H226860   8.178   5.849   2.859
 8973TIP3   OH226861   8.379   5.927   2.612
 8973TIP3    H126862   8.446   5.865   2.583
 8973TIP3    H226863   8.424   6.012   2.613
 8974TIP3   OH226864   6.992   5.654   2.973
 8974TIP3    H126865   6.900   5.626   2.973
 8974TIP3    H226866   7.042   5.573   2.966
 8975TIP3   OH226867   6.800   5.538   2.626
 8975TIP3    H126868   6.821   5.592   2.549
 8975TIP3    H226869   6.765   5.600   2.690
 8976TIP3   OH226870   7.444   5.694   2.855
 8976TIP3    H126871   7.495   5.740   2.788
 8976TIP3    H226872   7.482   5.722   2.938
 8977TIP3   OH226873   7.982   5.829   2.841
 8977TIP3    H126874   7.992   5.788   2.755
 8977TIP3    H226875   7.974   5.755   2.902
 8978TIP3   OH226876   8.011   5.756   2.401
 8978TIP3    H126877   7.927   5.800   2.413
 8978TIP3    H226878   8.001   5.671   2.444
 8979TIP3   OH226879   6.498   7.104   2.394
 8979TIP3    H126880   6.414   7.068   2.364
 8979TIP3    H226881   6.491   7.198   2.375
 8980TIP3   OH226882   6.904   5.692   2.381
 8980TIP3    H126883   6.947   5.624   2.327
 8980TIP3    H226884   6.977   5.742   2.418
 8981TIP3   OH226885   7.414   5.867   2.484
 8981TIP3    H126886   7.473   5.817   2.541
 8981TIP3    H226887   7.431   5.958   2.507
 8982TIP3   OH226888   7.205   5.935   3.864
 8982TIP3    H126889   7.168   5.868   3.920
 8982TIP3    H226890   7.298   5.939   3.889
 8983TIP3   OH226891   7.454   5.934   3.982
 8983TIP3    H126892   7.538   5.913   3.941
 8983TIP3    H226893   7.441   5.866   4.048
 8984TIP3   OH226894   6.579   7.122   2.037
 8984TIP3    H126895   6.568   7.143   2.129
 8984TIP3    H226896   6.663   7.076   2.033
 8985TIP3   OH226897   8.277   5.999   3.770
 8985TIP3    H126898   8.295   5.968   3.859
 8985TIP3    H226899   8.362   5.995   3.726
 8986TIP3   OH226900   0.957   7.002   4.659
 8986TIP3    H126901   0.979   7.083   4.705
 8986TIP3    H226902   0.971   7.022   4.567
 8987TIP3   OH226903   0.386   6.891   4.271
 8987TIP3    H126904   0.447   6.907   4.343
 8987TIP3    H226905   0.415   6.949   4.201
 8988TIP3   OH226906   1.017   7.209   4.838
 8988TIP3    H126907   0.937   7.257   4.818
 8988TIP3    H226908   1.051   7.249   4.918
 8989TIP3   OH226909   0.584   6.947   4.451
 8989TIP3    H126910   0.599   6.871   4.508
 8989TIP3    H226911   0.642   7.015   4.487
 8990TIP3   OH226912   0.750   6.905   4.823
 8990TIP3    H126913   0.670   6.950   4.797
 8990TIP3    H226914   0.815   6.931   4.757
 8991TIP3   OH226915   0.669   7.926   4.809
 8991TIP3    H126916   0.654   7.841   4.769
 8991TIP3    H226917   0.704   7.981   4.738
 8992TIP3   OH226918   0.875   7.548   4.649
 8992TIP3    H126919   0.795   7.600   4.660
 8992TIP3    H226920   0.907   7.571   4.562
 8993TIP3   OH226921   0.679   6.487   3.908
 8993TIP3    H126922   0.600   6.504   3.958
 8993TIP3    H226923   0.693   6.567   3.857
 8994TIP3   OH226924   0.819   7.387   5.131
 8994TIP3    H126925   0.739   7.414   5.085
 8994TIP3    H226926   0.820   7.291   5.123
 8995TIP3   OH226927   0.647   7.701   4.648
 8995TIP3    H126928   0.679   7.747   4.570
 8995TIP3    H226929   0.560   7.669   4.622
 8996TIP3   OH226930   0.711   7.111   3.805
 8996TIP3    H126931   0.648   7.065   3.749
 8996TIP3    H226932   0.710   7.201   3.773
 8997TIP3   OH226933   0.920   7.955   4.901
 8997TIP3    H126934   0.825   7.961   4.890
 8997TIP3    H226935   0.953   7.935   4.813
 8998TIP3   OH226936   0.819   7.120   5.054
 8998TIP3    H126937   0.734   7.079   5.072
 8998TIP3    H226938   0.840   7.096   4.964
 8999TIP3   OH226939   0.486   7.296   4.435
 8999TIP3    H126940   0.417   7.233   4.458
 8999TIP3    H226941   0.565   7.260   4.476
 9000TIP3   OH226942   0.482   7.382   3.475
 9000TIP3    H126943   0.435   7.335   3.406
 9000TIP3    H226944   0.468   7.475   3.455
 9001TIP3   OH226945   0.748   7.037   5.476
 9001TIP3    H126946   0.740   6.943   5.463
 9001TIP3    H226947   0.657   7.067   5.482
 9002TIP3   OH226948   0.612   7.561   3.815
 9002TIP3    H126949   0.682   7.621   3.789
 9002TIP3    H226950   0.645   7.520   3.895
 9003TIP3   OH226951   0.739   7.435   4.019
 9003TIP3    H126952   0.678   7.389   4.077
 9003TIP3    H226953   0.805   7.471   4.079
 9004TIP3   OH226954   0.775   7.825   4.446
 9004TIP3    H126955   0.837   7.765   4.404
 9004TIP3    H226956   0.782   7.906   4.396
 9005TIP3   OH226957   0.671   7.344   3.665
 9005TIP3    H126958   0.603   7.343   3.597
 9005TIP3    H226959   0.647   7.417   3.722
 9006TIP3   OH226960   0.539   7.020   3.616
 9006TIP3    H126961   0.491   7.061   3.544
 9006TIP3    H226962   0.524   6.926   3.603
 9007TIP3   OH226963   0.572   7.287   4.172
 9007TIP3    H126964   0.553   7.196   4.149
 9007TIP3    H226965   0.538   7.296   4.261
 9008TIP3   OH226966   0.832   7.714   5.025
 9008TIP3    H126967   0.904   7.651   5.016
 9008TIP3    H226968   0.855   7.785   4.965
 9009TIP3   OH226969   1.026   7.521   5.030
 9009TIP3    H126970   0.952   7.479   5.074
 9009TIP3    H226971   1.100   7.462   5.044
 9010TIP3   OH226972   0.502   6.750   3.604
 9010TIP3    H126973   0.576   6.729   3.660
 9010TIP3    H226974   0.431   6.694   3.634
 9011TIP3   OH226975   0.553   7.017   4.076
 9011TIP3    H126976   0.590   6.929   4.087
 9011TIP3    H226977   0.587   7.047   3.992
 9012TIP3   OH226978   0.709   7.184   4.562
 9012TIP3    H126979   0.789   7.207   4.515
 9012TIP3    H226980   0.718   7.227   4.647
 9013TIP3   OH226981   0.764   7.332   4.790
 9013TIP3    H126982   0.683   7.359   4.832
 9013TIP3    H226983   0.798   7.412   4.749
 9014TIP3   OH226984   1.230   6.923   5.340
 9014TIP3    H126985   1.286   6.857   5.298
 9014TIP3    H226986   1.195   6.975   5.267
 9015TIP3   OH226987   0.662   6.757   4.095
 9015TIP3    H126988   0.702   6.749   4.182
 9015TIP3    H226989   0.595   6.689   4.093
 9016TIP3   OH226990   1.088   7.058   5.150
 9016TIP3    H126991   1.010   7.103   5.184
 9016TIP3    H226992   1.053   6.990   5.092
 9017TIP3   OH226993   0.740   6.694   3.733
 9017TIP3    H126994   0.776   6.627   3.675
 9017TIP3    H226995   0.802   6.766   3.727
 9018TIP3   OH226996   0.993   6.818   5.025
 9018TIP3    H126997   0.903   6.811   4.994
 9018TIP3    H226998   1.029   6.730   5.017
 9019TIP3   OH226999   0.742   6.615   4.550
 9019TIP3    H127000   0.778   6.661   4.474
 9019TIP3    H227001   0.649   6.633   4.547
 9020TIP3   OH227002   0.824   6.714   4.315
 9020TIP3    H127003   0.892   6.661   4.273
 9020TIP3    H227004   0.853   6.805   4.300
 9021TIP3   OH227005   0.481   6.655   4.520
 9021TIP3    H127006   0.409   6.666   4.458
 9021TIP3    H227007   0.459   6.575   4.569
 9022TIP3   OH227008   0.476   6.542   4.087
 9022TIP3    H127009   0.390   6.574   4.058
 9022TIP3    H227010   0.456   6.461   4.135
 9023TIP3   OH227011   0.735   6.767   5.458
 9023TIP3    H127012   0.745   6.744   5.551
 9023TIP3    H227013   0.824   6.765   5.423
 9024TIP3   OH227014   1.934   7.694   3.724
 9024TIP3    H127015   1.904   7.782   3.701
 9024TIP3    H227016   1.866   7.636   3.691
 9025TIP3   OH227017   1.942   7.708   4.100
 9025TIP3    H127018   1.972   7.686   4.188
 9025TIP3    H227019   1.896   7.630   4.069
 9026TIP3   OH227020   1.232   7.607   4.468
 9026TIP3    H127021   1.265   7.540   4.529
 9026TIP3    H227022   1.306   7.667   4.457
 9027TIP3   OH227023   2.157   8.012   3.791
 9027TIP3    H127024   2.154   7.942   3.856
 9027TIP3    H227025   2.207   8.082   3.832
 9028TIP3   OH227026   1.275   7.933   4.284
 9028TIP3    H127027   1.221   7.874   4.231
 9028TIP3    H227028   1.348   7.957   4.227
 9029TIP3   OH227029   0.910   7.215   3.972
 9029TIP3    H127030   0.870   7.300   3.991
 9029TIP3    H227031   0.840   7.164   3.931
 9030TIP3   OH227032   0.972   7.507   4.153
 9030TIP3    H127033   1.018   7.429   4.184
 9030TIP3    H227034   1.041   7.565   4.122
 9031TIP3   OH227035   1.754   7.925   4.144
 9031TIP3    H127036   1.797   7.849   4.104
 9031TIP3    H227037   1.826   7.981   4.173
 9032TIP3   OH227038   2.748   7.260   4.145
 9032TIP3    H127039   2.777   7.341   4.187
 9032TIP3    H227040   2.772   7.270   4.053
 9033TIP3   OH227041   2.144   7.433   4.178
 9033TIP3    H127042   2.189   7.352   4.200
 9033TIP3    H227043   2.114   7.421   4.089
 9034TIP3   OH227044   1.485   7.098   4.142
 9034TIP3    H127045   1.468   7.173   4.085
 9034TIP3    H227046   1.439   7.025   4.101
 9035TIP3   OH227047   2.184   7.188   3.766
 9035TIP3    H127048   2.252   7.176   3.832
 9035TIP3    H227049   2.230   7.224   3.690
 9036TIP3   OH227050   1.118   7.296   4.255
 9036TIP3    H127051   1.200   7.282   4.302
 9036TIP3    H227052   1.128   7.246   4.174
 9037TIP3   OH227053   1.558   7.495   4.048
 9037TIP3    H127054   1.650   7.473   4.059
 9037TIP3    H227055   1.518   7.414   4.015
 9038TIP3   OH227056   2.821   7.465   4.322
 9038TIP3    H127057   2.747   7.518   4.293
 9038TIP3    H227058   2.802   7.446   4.414
 9039TIP3   OH227059   1.476   7.081   4.581
 9039TIP3    H127060   1.423   7.120   4.511
 9039TIP3    H227061   1.427   7.099   4.661
 9040TIP3   OH227062   1.819   7.898   3.585
 9040TIP3    H127063   1.774   7.896   3.500
 9040TIP3    H227064   1.844   7.989   3.597
 9041TIP3   OH227065   1.583   7.863   4.373
 9041TIP3    H127066   1.515   7.923   4.403
 9041TIP3    H227067   1.619   7.905   4.295
 9042TIP3   OH227068   2.386   7.194   3.947
 9042TIP3    H127069   2.367   7.157   4.034
 9042TIP3    H227070   2.440   7.270   3.965
 9043TIP3   OH227071   1.357   7.197   4.363
 9043TIP3    H127072   1.412   7.272   4.387
 9043TIP3    H227073   1.402   7.157   4.288
 9044TIP3   OH227074   4.243   0.065   4.484
 9044TIP3    H127075   4.207   0.059   4.396
 9044TIP3    H227076   4.166   0.061   4.541
 9045TIP3   OH227077   0.816   7.714   3.715
 9045TIP3    H127078   0.775   7.719   3.629
 9045TIP3    H227079   0.829   7.805   3.741
 9046TIP3   OH227080   2.544   7.158   4.311
 9046TIP3    H127081   2.457   7.186   4.282
 9046TIP3    H227082   2.604   7.188   4.243
 9047TIP3   OH227083   1.832   6.795   4.295
 9047TIP3    H127084   1.820   6.702   4.315
 9047TIP3    H227085   1.759   6.838   4.339
 9048TIP3   OH227086   2.185   8.027   3.509
 9048TIP3    H127087   2.151   7.949   3.463
 9048TIP3    H227088   2.192   7.999   3.600
 9049TIP3   OH227089   5.301   0.151   4.293
 9049TIP3    H127090   5.289   0.075   4.237
 9049TIP3    H227091   5.326   0.221   4.233
 9050TIP3   OH227092   1.767   7.556   3.554
 9050TIP3    H127093   1.687   7.606   3.540
 9050TIP3    H227094   1.811   7.558   3.469
 9051TIP3   OH227095   1.728   7.348   3.264
 9051TIP3    H127096   1.790   7.400   3.314
 9051TIP3    H227097   1.782   7.285   3.216
 9052TIP3   OH227098   2.671   7.808   4.136
 9052TIP3    H127099   2.589   7.856   4.145
 9052TIP3    H227100   2.702   7.830   4.048
 9053TIP3   OH227101   2.115   7.636   3.529
 9053TIP3    H127102   2.059   7.658   3.603
 9053TIP3    H227103   2.199   7.612   3.569
 9054TIP3   OH227104   2.347   7.684   4.438
 9054TIP3    H127105   2.349   7.766   4.487
 9054TIP3    H227106   2.264   7.687   4.391
 9055TIP3   OH227107   1.353   7.641   3.928
 9055TIP3    H127108   1.311   7.583   3.865
 9055TIP3    H227109   1.427   7.591   3.961
 9056TIP3   OH227110   1.484   8.007   4.137
 9056TIP3    H127111   1.446   8.010   4.049
 9056TIP3    H227112   1.578   8.016   4.122
 9057TIP3   OH227113   1.480   7.619   4.290
 9057TIP3    H127114   1.513   7.596   4.203
 9057TIP3    H227115   1.520   7.704   4.310
 9058TIP3   OH227116   4.492   0.062   4.615
 9058TIP3    H127117   4.461   0.150   4.638
 9058TIP3    H227118   4.421   0.026   4.562
 9059TIP3   OH227119   1.954   7.501   3.348
 9059TIP3    H127120   2.010   7.559   3.399
 9059TIP3    H227121   1.979   7.516   3.257
 9060TIP3   OH227122   1.375   7.722   4.723
 9060TIP3    H127123   1.385   7.809   4.760
 9060TIP3    H227124   1.282   7.702   4.733
 9061TIP3   OH227125   2.466   6.748   3.393
 9061TIP3    H127126   2.388   6.775   3.441
 9061TIP3    H227127   2.489   6.824   3.340
 9062TIP3   OH227128   1.214   7.481   3.739
 9062TIP3    H127129   1.153   7.529   3.683
 9062TIP3    H227130   1.168   7.400   3.761
 9063TIP3   OH227131   1.007   7.868   4.659
 9063TIP3    H127132   0.946   7.850   4.587
 9063TIP3    H227133   1.043   7.782   4.681
 9064TIP3   OH227134   2.602   7.640   4.615
 9064TIP3    H127135   2.520   7.657   4.568
 9064TIP3    H227136   2.617   7.547   4.602
 9065TIP3   OH227137   4.027   0.059   4.663
 9065TIP3    H127138   4.087   0.020   4.726
 9065TIP3    H227139   3.960  -0.008   4.650
 9066TIP3   OH227140   1.595   6.878   4.427
 9066TIP3    H127141   1.509   6.848   4.397
 9066TIP3    H227142   1.578   6.961   4.471
 9067TIP3   OH227143   2.134   6.985   4.619
 9067TIP3    H127144   2.203   6.963   4.681
 9067TIP3    H227145   2.053   6.970   4.666
 9068TIP3   OH227146   2.368   7.420   4.537
 9068TIP3    H127147   2.320   7.417   4.620
 9068TIP3    H227148   2.346   7.506   4.501
 9069TIP3   OH227149   2.027   7.530   3.089
 9069TIP3    H127150   2.000   7.508   3.000
 9069TIP3    H227151   2.074   7.613   3.079
 9070TIP3   OH227152   1.739   6.920   3.396
 9070TIP3    H127153   1.708   6.922   3.486
 9070TIP3    H227154   1.703   6.839   3.359
 9071TIP3   OH227155   1.528   7.396   4.439
 9071TIP3    H127156   1.481   7.414   4.521
 9071TIP3    H227157   1.513   7.475   4.386
 9072TIP3   OH227158   1.412   7.275   3.955
 9072TIP3    H127159   1.321   7.255   3.975
 9072TIP3    H227160   1.426   7.238   3.867
 9073TIP3   OH227161   1.905   7.359   3.682
 9073TIP3    H127162   1.852   7.428   3.642
 9073TIP3    H227163   1.960   7.326   3.611
 9074TIP3   OH227164   2.082   7.634   4.767
 9074TIP3    H127165   2.058   7.565   4.828
 9074TIP3    H227166   2.174   7.654   4.788
 9075TIP3   OH227167   2.059   7.388   3.919
 9075TIP3    H127168   1.999   7.423   3.853
 9075TIP3    H227169   2.094   7.308   3.879
 9076TIP3   OH227170   1.351   7.420   4.651
 9076TIP3    H127171   1.374   7.488   4.714
 9076TIP3    H227172   1.339   7.341   4.704
 9077TIP3   OH227173   1.397   6.898   3.364
 9077TIP3    H127174   1.388   6.896   3.459
 9077TIP3    H227175   1.323   6.951   3.334
 9078TIP3   OH227176   0.946   6.935   4.238
 9078TIP3    H127177   1.018   6.976   4.287
 9078TIP3    H227178   0.978   6.928   4.148
 9079TIP3   OH227179   0.912   6.925   3.749
 9079TIP3    H127180   0.955   6.960   3.672
 9079TIP3    H227181   0.848   6.992   3.775
 9080TIP3   OH227182   2.069   7.633   4.344
 9080TIP3    H127183   2.103   7.566   4.285
 9080TIP3    H227184   2.040   7.584   4.421
 9081TIP3   OH227185   1.744   7.097   4.020
 9081TIP3    H127186   1.662   7.098   4.069
 9081TIP3    H227187   1.812   7.101   4.086
 9082TIP3   OH227188   1.172   7.157   4.024
 9082TIP3    H127189   1.081   7.170   3.997
 9082TIP3    H227190   1.194   7.069   3.995
 9083TIP3   OH227191   1.442   7.148   3.713
 9083TIP3    H127192   1.534   7.166   3.692
 9083TIP3    H227193   1.395   7.173   3.633
 9084TIP3   OH227194   2.232   7.173   4.220
 9084TIP3    H127195   2.204   7.189   4.310
 9084TIP3    H227196   2.164   7.116   4.184
 9085TIP3   OH227197   1.290   7.180   3.488
 9085TIP3    H127198   1.218   7.139   3.441
 9085TIP3    H227199   1.343   7.221   3.420
 9086TIP3   OH227200   1.365   7.969   4.859
 9086TIP3    H127201   1.443   7.999   4.906
 9086TIP3    H227202   1.299   7.960   4.927
 9087TIP3   OH227203   1.824   7.426   4.113
 9087TIP3    H127204   1.899   7.393   4.062
 9087TIP3    H227205   1.833   7.386   4.199
 9088TIP3   OH227206   1.347   6.917   3.990
 9088TIP3    H127207   1.315   6.836   4.029
 9088TIP3    H227208   1.385   6.890   3.907
 9089TIP3   OH227209   1.797   7.325   4.410
 9089TIP3    H127210   1.710   7.363   4.419
 9089TIP3    H227211   1.855   7.386   4.455
 9090TIP3   OH227212   1.535   7.696   3.510
 9090TIP3    H127213   1.458   7.642   3.492
 9090TIP3    H227214   1.514   7.742   3.591
 9091TIP3   OH227215   2.435   7.946   4.127
 9091TIP3    H127216   2.465   7.995   4.050
 9091TIP3    H227217   2.352   7.907   4.100
 9092TIP3   OH227218   1.993   7.023   3.371
 9092TIP3    H127219   1.899   7.007   3.373
 9092TIP3    H227220   2.003   7.117   3.388
 9093TIP3   OH227221   4.779   0.041   4.498
 9093TIP3    H127222   4.810  -0.005   4.575
 9093TIP3    H227223   4.695   0.079   4.524
 9094TIP3   OH227224   2.064   7.275   3.466
 9094TIP3    H127225   2.159   7.282   3.480
 9094TIP3    H227226   2.042   7.353   3.415
 9095TIP3   OH227227   1.202   7.678   4.156
 9095TIP3    H127228   1.256   7.678   4.078
 9095TIP3    H227229   1.262   7.655   4.227
 9096TIP3   OH227230   1.646   7.889   3.354
 9096TIP3    H127231   1.604   7.958   3.405
 9096TIP3    H227232   1.610   7.808   3.391
 9097TIP3   OH227233   1.113   7.647   4.790
 9097TIP3    H127234   1.127   7.636   4.884
 9097TIP3    H227235   1.041   7.588   4.769
 9098TIP3   OH227236   1.842   7.760   4.812
 9098TIP3    H127237   1.778   7.714   4.758
 9098TIP3    H227238   1.927   7.729   4.781
 9099TIP3   OH227239   2.500   7.370   3.298
 9099TIP3    H127240   2.443   7.321   3.240
 9099TIP3    H227241   2.501   7.459   3.262
 9100TIP3   OH227242   5.555   0.189   4.382
 9100TIP3    H127243   5.460   0.203   4.376
 9100TIP3    H227244   5.583   0.177   4.292
 9101TIP3   OH227245   2.200   7.817   4.032
 9101TIP3    H127246   2.109   7.794   4.054
 9101TIP3    H227247   2.236   7.736   3.995
 9102TIP3   OH227248   0.896   7.345   3.507
 9102TIP3    H127249   0.943   7.427   3.524
 9102TIP3    H227250   0.819   7.349   3.564
 9103TIP3   OH227251   1.463   7.818   3.746
 9103TIP3    H127252   1.430   7.903   3.776
 9103TIP3    H227253   1.435   7.757   3.814
 9104TIP3   OH227254   1.994   8.017   4.227
 9104TIP3    H127255   1.980   8.030   4.321
 9104TIP3    H227256   2.079   7.974   4.221
 9105TIP3   OH227257   1.995   7.837   3.083
 9105TIP3    H127258   2.029   7.836   3.173
 9105TIP3    H227259   1.915   7.890   3.089
 9106TIP3   OH227260   1.319   7.158   4.796
 9106TIP3    H127261   1.225   7.167   4.810
 9106TIP3    H227262   1.349   7.107   4.871
 9107TIP3   OH227263   2.122   7.822   3.330
 9107TIP3    H127264   2.116   7.753   3.396
 9107TIP3    H227265   2.215   7.827   3.309
 9108TIP3   OH227266   1.300   7.838   3.164
 9108TIP3    H127267   1.350   7.762   3.132
 9108TIP3    H227268   1.352   7.872   3.237
 9109TIP3   OH227269   1.015   7.588   3.582
 9109TIP3    H127270   0.950   7.622   3.644
 9109TIP3    H227271   1.023   7.657   3.516
 9110TIP3   OH227272   2.163   7.224   4.478
 9110TIP3    H127273   2.239   7.267   4.516
 9110TIP3    H227274   2.150   7.146   4.532
 9111TIP3   OH227275   2.046   6.974   3.645
 9111TIP3    H127276   2.023   6.995   3.555
 9111TIP3    H227277   2.081   7.056   3.681
 9112TIP3   OH227278   1.728   7.157   3.748
 9112TIP3    H127279   1.789   7.228   3.727
 9112TIP3    H227280   1.731   7.151   3.843
 9113TIP3   OH227281   1.997   7.474   4.553
 9113TIP3    H127282   2.019   7.529   4.628
 9113TIP3    H227283   2.051   7.395   4.564
 9114TIP3   OH227284   1.872   6.889   3.856
 9114TIP3    H127285   1.856   6.968   3.907
 9114TIP3    H227286   1.932   6.916   3.787
 9115TIP3   OH227287   1.387   6.885   3.643
 9115TIP3    H127288   1.380   6.976   3.671
 9115TIP3    H227289   1.480   6.865   3.645
 9116TIP3   OH227290   2.633   7.374   4.517
 9116TIP3    H127291   2.540   7.382   4.537
 9116TIP3    H227292   2.637   7.311   4.445
 9117TIP3   OH227293   2.287   7.569   3.925
 9117TIP3    H127294   2.211   7.512   3.936
 9117TIP3    H227295   2.358   7.525   3.971
 9118TIP3   OH227296   1.007   7.803   3.394
 9118TIP3    H127297   1.036   7.893   3.387
 9118TIP3    H227298   1.061   7.755   3.331
 9119TIP3   OH227299   0.942   7.075   3.524
 9119TIP3    H127300   0.947   7.170   3.526
 9119TIP3    H227301   0.857   7.056   3.484
 9120TIP3   OH227302   1.333   6.791   4.396
 9120TIP3    H127303   1.303   6.761   4.311
 9120TIP3    H227304   1.320   6.716   4.454
 9121TIP3   OH227305   1.159   7.939   5.034
 9121TIP3    H127306   1.181   7.847   5.045
 9121TIP3    H227307   1.070   7.938   4.998
 9122TIP3   OH227308   1.133   7.600   3.251
 9122TIP3    H127309   1.182   7.569   3.327
 9122TIP3    H227310   1.200   7.611   3.183
 9123TIP3   OH227311   1.783   8.024   4.851
 9123TIP3    H127312   1.746   8.041   4.764
 9123TIP3    H227313   1.817   7.935   4.845
 9124TIP3   OH227314   1.564   7.776   3.072
 9124TIP3    H127315   1.632   7.821   3.122
 9124TIP3    H227316   1.600   7.689   3.056
 9125TIP3   OH227317   5.089   0.036   4.428
 9125TIP3    H127318   5.157   0.089   4.387
 9125TIP3    H227319   5.012   0.092   4.427
 9126TIP3   OH227320   1.285   7.691   5.038
 9126TIP3    H127321   1.364   7.644   5.010
 9126TIP3    H227322   1.308   7.725   5.125
 9127TIP3   OH227323   1.331   7.513   3.461
 9127TIP3    H127324   1.308   7.473   3.545
 9127TIP3    H227325   1.373   7.443   3.411
 9128TIP3   OH227326   1.614   7.581   4.690
 9128TIP3    H127327   1.537   7.638   4.697
 9128TIP3    H227328   1.663   7.615   4.616
 9129TIP3   OH227329   1.449   7.311   3.307
 9129TIP3    H127330   1.420   7.312   3.216
 9129TIP3    H227331   1.544   7.318   3.301
 9130TIP3   OH227332   2.134   7.971   4.826
 9130TIP3    H127333   2.217   7.955   4.781
 9130TIP3    H227334   2.134   7.909   4.899
 9131TIP3   OH227335   2.274   7.648   2.962
 9131TIP3    H127336   2.242   7.596   2.888
 9131TIP3    H227337   2.252   7.738   2.939
 9132TIP3   OH227338   1.735   7.370   4.817
 9132TIP3    H127339   1.737   7.292   4.761
 9132TIP3    H227340   1.694   7.438   4.763
 9133TIP3   OH227341   1.738   7.154   4.625
 9133TIP3    H127342   1.767   7.200   4.546
 9133TIP3    H227343   1.646   7.135   4.609
 9134TIP3   OH227344   1.762   7.697   4.499
 9134TIP3    H127345   1.845   7.707   4.452
 9134TIP3    H227346   1.704   7.762   4.458
 9135TIP3   OH227347   2.349   7.658   4.881
 9135TIP3    H127348   2.398   7.576   4.887
 9135TIP3    H227349   2.413   7.722   4.850
 9136TIP3   OH227350   2.389   7.909   4.613
 9136TIP3    H127351   2.330   7.961   4.558
 9136TIP3    H227352   2.476   7.928   4.579
 9137TIP3   OH227353   1.615   7.476   5.052
 9137TIP3    H127354   1.546   7.412   5.068
 9137TIP3    H227355   1.648   7.455   4.964
 9138TIP3   OH227356   1.869   6.919   4.696
 9138TIP3    H127357   1.824   7.000   4.673
 9138TIP3    H227358   1.802   6.851   4.684
 9139TIP3   OH227359   1.994   7.420   4.912
 9139TIP3    H127360   1.985   7.410   5.007
 9139TIP3    H227361   1.908   7.399   4.877
 9140TIP3   OH227362   2.233   7.369   4.766
 9140TIP3    H127363   2.159   7.374   4.826
 9140TIP3    H227364   2.307   7.343   4.821
 9141TIP3   OH227365   2.455   7.313   4.919
 9141TIP3    H127366   2.475   7.220   4.933
 9141TIP3    H227367   2.458   7.351   5.007
 9142TIP3   OH227368   1.453   7.255   5.107
 9142TIP3    H127369   1.461   7.167   5.071
 9142TIP3    H227370   1.488   7.249   5.196
 9143TIP3   OH227371   1.963   6.926   4.954
 9143TIP3    H127372   2.031   6.859   4.950
 9143TIP3    H227373   1.924   6.925   4.866
 9144TIP3   OH227374   2.027   7.142   5.113
 9144TIP3    H127375   2.007   7.073   5.050
 9144TIP3    H227376   1.953   7.202   5.106
 9145TIP3   OH227377   0.744   7.711   3.429
 9145TIP3    H127378   0.827   7.751   3.402
 9145TIP3    H227379   0.735   7.635   3.372
 9146TIP3   OH227380   5.445   0.323   4.661
 9146TIP3    H127381   5.373   0.303   4.721
 9146TIP3    H227382   5.490   0.397   4.701
 9147TIP3   OH227383   2.396   7.819   3.310
 9147TIP3    H127384   2.462   7.879   3.274
 9147TIP3    H227385   2.439   7.780   3.386
 9148TIP3   OH227386   2.530   7.691   3.509
 9148TIP3    H127387   2.467   7.651   3.569
 9148TIP3    H227388   2.598   7.727   3.565
 9149TIP3   OH227389   5.405   0.069   3.936
 9149TIP3    H127390   5.468   0.013   3.890
 9149TIP3    H227391   5.404   0.151   3.886
 9150TIP3   OH227392   2.463   7.604   3.152
 9150TIP3    H127393   2.398   7.605   3.082
 9150TIP3    H227394   2.440   7.677   3.209
 9151TIP3   OH227395   2.338   7.273   3.106
 9151TIP3    H127396   2.291   7.317   3.035
 9151TIP3    H227397   2.316   7.181   3.096
 9152TIP3   OH227398   2.343   7.550   3.657
 9152TIP3    H127399   2.353   7.456   3.647
 9152TIP3    H227400   2.330   7.563   3.751
 9153TIP3   OH227401   0.969   7.630   4.400
 9153TIP3    H127402   0.962   7.595   4.312
 9153TIP3    H227403   1.064   7.631   4.418
 9154TIP3   OH227404   2.633   7.971   4.511
 9154TIP3    H127405   2.701   7.905   4.494
 9154TIP3    H227406   2.656   8.044   4.453
 9155TIP3   OH227407   2.816   7.769   4.510
 9155TIP3    H127408   2.745   7.722   4.554
 9155TIP3    H227409   2.894   7.748   4.560
 9156TIP3   OH227410   2.281   7.008   3.090
 9156TIP3    H127411   2.355   6.978   3.143
 9156TIP3    H227412   2.210   6.949   3.113
 9157TIP3   OH227413   2.343   7.270   3.545
 9157TIP3    H127414   2.382   7.184   3.561
 9157TIP3    H227415   2.396   7.308   3.474
 9158TIP3   OH227416   2.502   7.441   4.043
 9158TIP3    H127417   2.584   7.463   3.998
 9158TIP3    H227418   2.512   7.476   4.131
 9159TIP3   OH227419   2.569   7.588   4.271
 9159TIP3    H127420   2.495   7.620   4.322
 9159TIP3    H227421   2.604   7.666   4.228
 9160TIP3   OH227422   1.187   7.302   5.063
 9160TIP3    H127423   1.282   7.304   5.073
 9160TIP3    H227424   1.159   7.223   5.110
 9161TIP3   OH227425   3.012   7.149   4.825
 9161TIP3    H127426   3.074   7.100   4.773
 9161TIP3    H227427   2.991   7.226   4.772
 9162TIP3   OH227428   2.452   7.023   3.586
 9162TIP3    H127429   2.501   7.007   3.666
 9162TIP3    H227430   2.392   6.949   3.578
 9163TIP3   OH227431   1.154   7.005   4.406
 9163TIP3    H127432   1.217   6.933   4.416
 9163TIP3    H227433   1.209   7.083   4.398
 9164TIP3   OH227434   0.953   7.275   4.480
 9164TIP3    H127435   0.997   7.271   4.395
 9164TIP3    H227436   0.975   7.361   4.515
 9165TIP3   OH227437   2.903   7.321   4.638
 9165TIP3    H127438   2.827   7.370   4.668
 9165TIP3    H227439   2.867   7.252   4.582
 9166TIP3   OH227440   2.528   6.951   3.217
 9166TIP3    H127441   2.568   6.881   3.165
 9166TIP3    H227442   2.592   7.022   3.215
 9167TIP3   OH227443   0.935   6.779   3.978
 9167TIP3    H127444   0.845   6.773   4.009
 9167TIP3    H227445   0.931   6.837   3.903
 9168TIP3   OH227446   1.147   6.848   4.787
 9168TIP3    H127447   1.104   6.853   4.872
 9168TIP3    H227448   1.089   6.899   4.729
 9169TIP3   OH227449   2.790   7.075   4.515
 9169TIP3    H127450   2.701   7.066   4.480
 9169TIP3    H227451   2.829   6.988   4.506
 9170TIP3   OH227452   1.999   6.999   4.142
 9170TIP3    H127453   1.953   6.928   4.187
 9170TIP3    H227454   2.069   6.956   4.094
 9171TIP3   OH227455   2.512   6.868   4.031
 9171TIP3    H127456   2.556   6.918   3.963
 9171TIP3    H227457   2.424   6.904   4.035
 9172TIP3   OH227458   2.615   6.974   3.802
 9172TIP3    H127459   2.684   6.918   3.766
 9172TIP3    H227460   2.647   7.063   3.789
 9173TIP3   OH227461   1.248   6.677   4.152
 9173TIP3    H127462   1.156   6.666   4.172
 9173TIP3    H227463   1.262   6.624   4.073
 9174TIP3   OH227464   1.049   6.576   3.808
 9174TIP3    H127465   1.067   6.626   3.728
 9174TIP3    H227466   1.005   6.638   3.866
 9175TIP3   OH227467   1.698   6.733   4.033
 9175TIP3    H127468   1.745   6.780   3.964
 9175TIP3    H227469   1.725   6.776   4.114
 9176TIP3   OH227470   2.224   6.884   4.022
 9176TIP3    H127471   2.235   6.861   3.930
 9176TIP3    H227472   2.217   6.800   4.068
 9177TIP3   OH227473   2.261   6.818   3.568
 9177TIP3    H127474   2.181   6.869   3.580
 9177TIP3    H227475   2.254   6.747   3.631
 9178TIP3   OH227476   1.153   6.728   3.563
 9178TIP3    H127477   1.197   6.668   3.502
 9178TIP3    H227478   1.223   6.784   3.596
 9179TIP3   OH227479   1.663   6.906   3.663
 9179TIP3    H127480   1.725   6.855   3.714
 9179TIP3    H227481   1.681   6.997   3.687
 9180TIP3   OH227482   1.454   6.977   5.038
 9180TIP3    H127483   1.416   6.911   5.096
 9180TIP3    H227484   1.546   6.982   5.064
 9181TIP3   OH227485   1.702   6.978   5.158
 9181TIP3    H127486   1.787   6.960   5.118
 9181TIP3    H227487   1.691   6.908   5.223
 9182TIP3   OH227488   2.528   7.045   4.948
 9182TIP3    H127489   2.546   7.014   5.037
 9182TIP3    H227490   2.613   7.042   4.904
 9183TIP3   OH227491   3.732   7.953   3.211
 9183TIP3    H127492   3.701   8.040   3.186
 9183TIP3    H227493   3.663   7.894   3.181
 9184TIP3   OH227494   3.735   7.965   3.585
 9184TIP3    H127495   3.763   7.948   3.675
 9184TIP3    H227496   3.690   7.885   3.559
 9185TIP3   OH227497   3.030   7.862   3.955
 9185TIP3    H127498   3.060   7.794   4.015
 9185TIP3    H227499   3.106   7.917   3.940
 9186TIP3   OH227500   6.785   0.253   3.279
 9186TIP3    H127501   6.782   0.183   3.343
 9186TIP3    H227502   6.836   0.322   3.321
 9187TIP3   OH227503   5.895   0.192   3.758
 9187TIP3    H127504   5.859   0.111   3.722
 9187TIP3    H227505   5.974   0.208   3.706
 9188TIP3   OH227506   2.706   7.471   3.458
 9188TIP3    H127507   2.665   7.556   3.476
 9188TIP3    H227508   2.638   7.420   3.415
 9189TIP3   OH227509   2.766   7.761   3.637
 9189TIP3    H127510   2.813   7.684   3.669
 9189TIP3    H227511   2.833   7.815   3.596
 9190TIP3   OH227512   6.382   0.168   3.630
 9190TIP3    H127513   6.425   0.091   3.591
 9190TIP3    H227514   6.455   0.224   3.658
 9191TIP3   OH227515   4.544   7.513   3.630
 9191TIP3    H127516   4.580   7.589   3.675
 9191TIP3    H227517   4.569   7.524   3.539
 9192TIP3   OH227518   3.955   7.693   3.668
 9192TIP3    H127519   3.990   7.606   3.685
 9192TIP3    H227520   3.915   7.685   3.581
 9193TIP3   OH227521   3.282   7.353   3.627
 9193TIP3    H127522   3.262   7.426   3.568
 9193TIP3    H227523   3.236   7.278   3.590
 9194TIP3   OH227524   3.977   7.446   3.251
 9194TIP3    H127525   4.044   7.431   3.318
 9194TIP3    H227526   4.026   7.481   3.176
 9195TIP3   OH227527   2.915   7.553   3.740
 9195TIP3    H127528   2.996   7.536   3.788
 9195TIP3    H227529   2.924   7.502   3.660
 9196TIP3   OH227530   3.353   7.751   3.536
 9196TIP3    H127531   3.446   7.730   3.547
 9196TIP3    H227532   3.314   7.670   3.503
 9197TIP3   OH227533   4.639   7.718   3.794
 9197TIP3    H127534   4.583   7.790   3.764
 9197TIP3    H227535   4.651   7.735   3.887
 9198TIP3   OH227536   3.275   7.340   4.069
 9198TIP3    H127537   3.217   7.374   4.000
 9198TIP3    H227538   3.225   7.353   4.150
 9199TIP3   OH227539   6.448   0.141   3.072
 9199TIP3    H127540   6.404   0.139   2.988
 9199TIP3    H227541   6.472   0.233   3.084
 9200TIP3   OH227542   6.214   0.105   3.859
 9200TIP3    H127543   6.149   0.167   3.892
 9200TIP3    H227544   6.251   0.146   3.781
 9201TIP3   OH227545   4.181   7.450   3.426
 9201TIP3    H127546   4.177   7.395   3.504
 9201TIP3    H227547   4.235   7.525   3.452
 9202TIP3   OH227548   3.152   7.452   3.848
 9202TIP3    H127549   3.210   7.524   3.873
 9202TIP3    H227550   3.198   7.409   3.775
 9203TIP3   OH227551   6.040   0.316   3.967
 9203TIP3    H127552   6.001   0.312   3.880
 9203TIP3    H227553   5.965   0.312   4.027
 9204TIP3   OH227554   2.601   7.965   3.199
 9204TIP3    H127555   2.568   7.970   3.109
 9204TIP3    H227556   2.617   8.056   3.224
 9205TIP3   OH227557   4.332   7.429   3.802
 9205TIP3    H127558   4.246   7.435   3.762
 9205TIP3    H227559   4.393   7.449   3.731
 9206TIP3   OH227560   3.628   7.051   3.784
 9206TIP3    H127561   3.618   6.957   3.801
 9206TIP3    H227562   3.553   7.092   3.827
 9207TIP3   OH227563   6.816   0.274   2.998
 9207TIP3    H127564   6.786   0.196   2.951
 9207TIP3    H227565   6.822   0.246   3.089
 9208TIP3   OH227566   7.098   0.403   3.782
 9208TIP3    H127567   7.087   0.329   3.723
 9208TIP3    H227568   7.128   0.475   3.727
 9209TIP3   OH227569   3.564   7.813   3.039
 9209TIP3    H127570   3.483   7.863   3.028
 9209TIP3    H227571   3.606   7.816   2.953
 9210TIP3   OH227572   3.525   7.605   2.752
 9210TIP3    H127573   3.590   7.656   2.801
 9210TIP3    H227574   3.577   7.542   2.703
 9211TIP3   OH227575   7.308   0.041   3.631
 9211TIP3    H127576   7.222   0.081   3.641
 9211TIP3    H227577   7.338   0.067   3.544
 9212TIP3   OH227578   3.911   7.880   3.020
 9212TIP3    H127579   3.855   7.907   3.093
 9212TIP3    H227580   3.996   7.861   3.061
 9213TIP3   OH227581   3.148   7.896   3.416
 9213TIP3    H127582   3.106   7.839   3.352
 9213TIP3    H227583   3.222   7.845   3.449
 9214TIP3   OH227584   6.115   0.249   3.619
 9214TIP3    H127585   6.077   0.249   3.532
 9214TIP3    H227586   6.209   0.249   3.604
 9215TIP3   OH227587   3.273   7.876   3.777
 9215TIP3    H127588   3.307   7.850   3.691
 9215TIP3    H227589   3.317   7.959   3.796
 9216TIP3   OH227590   6.289   0.319   4.101
 9216TIP3    H127591   6.259   0.406   4.126
 9216TIP3    H227592   6.217   0.284   4.048
 9217TIP3   OH227593   3.753   7.756   2.831
 9217TIP3    H127594   3.807   7.813   2.885
 9217TIP3    H227595   3.778   7.776   2.741
 9218TIP3   OH227596   3.171   7.979   4.214
 9218TIP3    H127597   3.178   8.068   4.247
 9218TIP3    H227598   3.078   7.959   4.218
 9219TIP3   OH227599   4.265   7.000   2.885
 9219TIP3    H127600   4.187   7.017   2.938
 9219TIP3    H227601   4.281   7.083   2.840
 9220TIP3   OH227602   3.010   7.740   3.227
 9220TIP3    H127603   2.946   7.785   3.172
 9220TIP3    H227604   2.970   7.655   3.245
 9221TIP3   OH227605   5.639   0.112   4.136
 9221TIP3    H127606   5.570   0.095   4.072
 9221TIP3    H227607   5.671   0.025   4.160
 9222TIP3   OH227608   5.828   0.313   4.144
 9222TIP3    H127609   5.883   0.276   4.212
 9222TIP3    H227610   5.758   0.249   4.132
 9223TIP3   OH227611   3.389   7.134   3.911
 9223TIP3    H127612   3.305   7.099   3.882
 9223TIP3    H227613   3.367   7.213   3.960
 9224TIP3   OH227614   3.924   7.246   4.107
 9224TIP3    H127615   3.994   7.217   4.166
 9224TIP3    H227616   3.843   7.224   4.152
 9225TIP3   OH227617   4.164   7.771   4.039
 9225TIP3    H127618   4.142   7.722   4.118
 9225TIP3    H227619   4.102   7.741   3.973
 9226TIP3   OH227620   3.828   7.805   2.573
 9226TIP3    H127621   3.776   7.821   2.494
 9226TIP3    H227622   3.890   7.878   2.577
 9227TIP3   OH227623   3.540   7.177   2.883
 9227TIP3    H127624   3.508   7.180   2.973
 9227TIP3    H227625   3.502   7.097   2.846
 9228TIP3   OH227626   3.326   7.652   3.925
 9228TIP3    H127627   3.277   7.666   4.006
 9228TIP3    H227628   3.309   7.731   3.873
 9229TIP3   OH227629   3.207   7.533   3.441
 9229TIP3    H127630   3.117   7.510   3.462
 9229TIP3    H227631   3.222   7.495   3.354
 9230TIP3   OH227632   3.702   7.618   3.172
 9230TIP3    H127633   3.648   7.685   3.130
 9230TIP3    H227634   3.757   7.584   3.101
 9231TIP3   OH227635   3.883   7.890   4.252
 9231TIP3    H127636   3.856   7.823   4.315
 9231TIP3    H227637   3.972   7.913   4.278
 9232TIP3   OH227638   3.857   7.646   3.408
 9232TIP3    H127639   3.794   7.679   3.343
 9232TIP3    H227640   3.893   7.567   3.368
 9233TIP3   OH227641   3.147   7.675   4.136
 9233TIP3    H127642   3.172   7.740   4.201
 9233TIP3    H227643   3.133   7.595   4.186
 9234TIP3   OH227644   3.194   7.157   2.847
 9234TIP3    H127645   3.188   7.151   2.943
 9234TIP3    H227646   3.118   7.208   2.821
 9235TIP3   OH227647   2.739   7.196   3.721
 9235TIP3    H127648   2.812   7.229   3.774
 9235TIP3    H227649   2.779   7.167   3.639
 9236TIP3   OH227650   2.703   7.181   3.235
 9236TIP3    H127651   2.750   7.213   3.158
 9236TIP3    H227652   2.643   7.252   3.258
 9237TIP3   OH227653   3.839   7.887   3.824
 9237TIP3    H127654   3.889   7.826   3.769
 9237TIP3    H227655   3.822   7.837   3.904
 9238TIP3   OH227656   3.542   7.357   3.506
 9238TIP3    H127657   3.459   7.353   3.554
 9238TIP3    H227658   3.609   7.349   3.573
 9239TIP3   OH227659   2.970   7.412   3.510
 9239TIP3    H127660   2.878   7.419   3.483
 9239TIP3    H227661   2.995   7.322   3.488
 9240TIP3   OH227662   3.238   7.408   3.201
 9240TIP3    H127663   3.330   7.422   3.178
 9240TIP3    H227664   3.190   7.429   3.120
 9241TIP3   OH227665   4.031   7.430   3.711
 9241TIP3    H127666   4.001   7.442   3.801
 9241TIP3    H227667   3.968   7.370   3.672
 9242TIP3   OH227668   3.085   7.441   2.975
 9242TIP3    H127669   3.013   7.397   2.930
 9242TIP3    H227670   3.137   7.479   2.905
 9243TIP3   OH227671   5.994   0.212   4.348
 9243TIP3    H127672   6.072   0.242   4.394
 9243TIP3    H227673   5.926   0.206   4.416
 9244TIP3   OH227674   3.620   7.687   3.603
 9244TIP3    H127675   3.688   7.643   3.552
 9244TIP3    H227676   3.623   7.644   3.688
 9245TIP3   OH227677   3.139   7.167   3.485
 9245TIP3    H127678   3.103   7.093   3.534
 9245TIP3    H227679   3.190   7.127   3.415
 9246TIP3   OH227680   3.595   7.586   3.889
 9246TIP3    H127681   3.506   7.617   3.902
 9246TIP3    H227682   3.650   7.647   3.938
 9247TIP3   OH227683   3.333   7.955   2.997
 9247TIP3    H127684   3.257   7.899   2.979
 9247TIP3    H227685   3.310   8.001   3.078
 9248TIP3   OH227686   7.068   0.179   3.616
 9248TIP3    H127687   7.099   0.231   3.541
 9248TIP3    H227688   6.983   0.145   3.588
 9249TIP3   OH227689   3.787   7.289   2.838
 9249TIP3    H127690   3.696   7.266   2.856
 9249TIP3    H227691   3.797   7.377   2.874
 9250TIP3   OH227692   6.579   0.297   3.985
 9250TIP3    H127693   6.609   0.248   4.062
 9250TIP3    H227694   6.496   0.336   4.012
 9251TIP3   OH227695   3.860   7.530   2.952
 9251TIP3    H127696   3.954   7.538   2.969
 9251TIP3    H227697   3.838   7.610   2.904
 9252TIP3   OH227698   3.007   7.948   3.648
 9252TIP3    H127699   3.055   7.942   3.566
 9252TIP3    H227700   3.064   7.908   3.713
 9253TIP3   OH227701   6.281   0.128   2.836
 9253TIP3    H127702   6.240   0.200   2.884
 9253TIP3    H227703   6.245   0.049   2.876
 9254TIP3   OH227704   2.907   7.904   4.274
 9254TIP3    H127705   2.921   7.888   4.368
 9254TIP3    H227706   2.836   7.845   4.250
 9255TIP3   OH227707   3.638   8.013   4.300
 9255TIP3    H127708   3.574   7.967   4.247
 9255TIP3    H227709   3.723   7.986   4.265
 9256TIP3   OH227710   4.299   7.626   2.783
 9256TIP3    H127711   4.240   7.576   2.725
 9256TIP3    H227712   4.297   7.715   2.748
 9257TIP3   OH227713   7.353   0.464   3.871
 9257TIP3    H127714   7.260   0.444   3.875
 9257TIP3    H227715   7.379   0.439   3.783
 9258TIP3   OH227716   6.827   0.059   3.519
 9258TIP3    H127717   6.737   0.036   3.540
 9258TIP3    H227718   6.863  -0.021   3.480
 9259TIP3   OH227719   2.690   7.603   2.993
 9259TIP3    H127720   2.737   7.684   3.010
 9259TIP3    H227721   2.613   7.607   3.050
 9260TIP3   OH227722   6.092   0.063   3.235
 9260TIP3    H127723   6.052   0.144   3.266
 9260TIP3    H227724   6.066  -0.002   3.301
 9261TIP3   OH227725   6.622   0.261   3.714
 9261TIP3    H127726   6.610   0.274   3.808
 9261TIP3    H227727   6.704   0.212   3.707
 9262TIP3   OH227728   6.658   0.138   2.589
 9262TIP3    H127729   6.666   0.115   2.681
 9262TIP3    H227730   6.563   0.139   2.573
 9263TIP3   OH227731   3.116   7.422   4.289
 9263TIP3    H127732   3.021   7.422   4.298
 9263TIP3    H227733   3.147   7.367   4.361
 9264TIP3   OH227734   6.753   0.063   2.835
 9264TIP3    H127735   6.749  -0.009   2.898
 9264TIP3    H227736   6.844   0.065   2.806
 9265TIP3   OH227737   5.930   0.083   2.649
 9265TIP3    H127738   5.980   0.008   2.617
 9265TIP3    H227739   5.975   0.109   2.730
 9266TIP3   OH227740   2.809   7.846   3.070
 9266TIP3    H127741   2.742   7.879   3.130
 9266TIP3    H227742   2.818   7.914   3.003
 9267TIP3   OH227743   3.970   7.481   3.979
 9267TIP3    H127744   4.029   7.505   4.050
 9267TIP3    H227745   3.930   7.399   4.007
 9268TIP3   OH227746   3.838   7.235   3.131
 9268TIP3    H127747   3.822   7.258   3.039
 9268TIP3    H227748   3.876   7.314   3.169
 9269TIP3   OH227749   3.524   7.417   3.235
 9269TIP3    H127750   3.586   7.487   3.216
 9269TIP3    H227751   3.526   7.407   3.330
 9270TIP3   OH227752   3.799   7.730   4.040
 9270TIP3    H127753   3.818   7.786   4.115
 9270TIP3    H227754   3.842   7.647   4.061
 9271TIP3   OH227755   3.667   7.142   3.334
 9271TIP3    H127756   3.654   7.218   3.390
 9271TIP3    H227757   3.727   7.172   3.266
 9272TIP3   OH227758   3.181   7.142   3.123
 9272TIP3    H127759   3.174   7.230   3.161
 9272TIP3    H227760   3.274   7.120   3.130
 9273TIP3   OH227761   4.429   7.640   3.995
 9273TIP3    H127762   4.339   7.658   4.024
 9273TIP3    H227763   4.421   7.564   3.937
 9274TIP3   OH227764   4.080   7.826   3.409
 9274TIP3    H127765   4.003   7.770   3.418
 9274TIP3    H227766   4.150   7.778   3.451
 9275TIP3   OH227767   5.637   0.046   2.882
 9275TIP3    H127768   5.664   0.137   2.871
 9275TIP3    H227769   5.690  -0.002   2.818
 9276TIP3   OH227770   2.738   7.332   3.011
 9276TIP3    H127771   2.742   7.428   3.010
 9276TIP3    H227772   2.656   7.311   2.966
 9277TIP3   OH227773   3.126   7.049   3.883
 9277TIP3    H127774   3.098   7.016   3.798
 9277TIP3    H227775   3.117   6.974   3.942
 9278TIP3   OH227776   5.788   0.184   4.522
 9278TIP3    H127777   5.807   0.092   4.538
 9278TIP3    H227778   5.700   0.184   4.484
 9279TIP3   OH227779   2.929   7.858   2.737
 9279TIP3    H127780   2.977   7.826   2.813
 9279TIP3    H227781   2.996   7.868   2.669
 9280TIP3   OH227782   6.412   0.264   4.337
 9280TIP3    H127783   6.376   0.282   4.250
 9280TIP3    H227784   6.448   0.176   4.330
 9281TIP3   OH227785   6.193   0.025   2.560
 9281TIP3    H127786   6.256   0.053   2.626
 9281TIP3    H227787   6.225  -0.060   2.530
 9282TIP3   OH227788   6.891   0.288   3.927
 9282TIP3    H127789   6.950   0.347   3.880
 9282TIP3    H227790   6.808   0.335   3.931
 9283TIP3   OH227791   3.070   7.939   4.528
 9283TIP3    H127792   3.152   7.926   4.481
 9283TIP3    H227793   3.096   7.971   4.614
 9284TIP3   OH227794   3.130   7.769   2.949
 9284TIP3    H127795   3.105   7.730   3.032
 9284TIP3    H227796   3.171   7.698   2.899
 9285TIP3   OH227797   3.412   7.838   4.184
 9285TIP3    H127798   3.334   7.893   4.187
 9285TIP3    H227799   3.460   7.868   4.107
 9286TIP3   OH227800   3.245   7.568   2.793
 9286TIP3    H127801   3.216   7.571   2.702
 9286TIP3    H227802   3.341   7.577   2.787
 9287TIP3   OH227803   6.756   0.212   4.311
 9287TIP3    H127804   6.846   0.243   4.307
 9287TIP3    H227805   6.755   0.153   4.387
 9288TIP3   OH227806   4.075   7.907   2.443
 9288TIP3    H127807   4.030   7.857   2.375
 9288TIP3    H227808   4.059   7.998   2.419
 9289TIP3   OH227809   3.541   7.621   4.312
 9289TIP3    H127810   3.534   7.546   4.253
 9289TIP3    H227811   3.490   7.690   4.269
 9290TIP3   OH227812   3.534   7.415   4.112
 9290TIP3    H127813   3.561   7.455   4.029
 9290TIP3    H227814   3.443   7.390   4.098
 9291TIP3   OH227815   3.560   7.953   3.987
 9291TIP3    H127816   3.641   7.957   3.937
 9291TIP3    H227817   3.503   8.017   3.946
 9292TIP3   OH227818   4.152   7.917   4.363
 9292TIP3    H127819   4.191   7.838   4.400
 9292TIP3    H227820   4.217   7.986   4.380
 9293TIP3   OH227821   7.079   0.136   4.041
 9293TIP3    H127822   7.003   0.179   4.002
 9293TIP3    H227823   7.138   0.207   4.064
 9294TIP3   OH227824   3.664   7.176   4.181
 9294TIP3    H127825   3.617   7.257   4.159
 9294TIP3    H227826   3.599   7.107   4.171
 9295TIP3   OH227827   3.797   7.676   4.395
 9295TIP3    H127828   3.787   7.665   4.490
 9295TIP3    H227829   3.711   7.655   4.359
 9296TIP3   OH227830   4.041   7.618   4.239
 9296TIP3    H127831   3.964   7.624   4.295
 9296TIP3    H227832   4.112   7.591   4.298
 9297TIP3   OH227833   4.262   7.568   4.399
 9297TIP3    H127834   4.276   7.475   4.417
 9297TIP3    H227835   4.255   7.609   4.485
 9298TIP3   OH227836   3.762   7.186   4.437
 9298TIP3    H127837   3.827   7.116   4.436
 9298TIP3    H227838   3.720   7.181   4.351
 9299TIP3   OH227839   3.834   7.397   4.596
 9299TIP3    H127840   3.812   7.327   4.535
 9299TIP3    H227841   3.760   7.458   4.590
 9300TIP3   OH227842   2.542   7.963   2.927
 9300TIP3    H127843   2.621   8.006   2.894
 9300TIP3    H227844   2.526   7.891   2.865
 9301TIP3   OH227845   7.026   0.059   2.796
 9301TIP3    H127846   7.090   0.121   2.761
 9301TIP3    H227847   7.069   0.021   2.873
 9302TIP3   OH227848   4.327   7.946   2.996
 9302TIP3    H127849   4.265   7.905   3.056
 9302TIP3    H227850   4.394   7.984   3.052
 9303TIP3   OH227851   7.199   0.322   3.426
 9303TIP3    H127852   7.263   0.270   3.378
 9303TIP3    H227853   7.198   0.407   3.380
 9304TIP3   OH227854   4.258   7.859   2.637
 9304TIP3    H127855   4.195   7.864   2.566
 9304TIP3    H227856   4.234   7.931   2.695
 9305TIP3   OH227857   4.137   7.525   2.592
 9305TIP3    H127858   4.089   7.578   2.528
 9305TIP3    H227859   4.114   7.435   2.570
 9306TIP3   OH227860   4.143   7.805   3.145
 9306TIP3    H127861   4.149   7.710   3.136
 9306TIP3    H227862   4.126   7.819   3.238
 9307TIP3   OH227863   2.766   7.884   3.887
 9307TIP3    H127864   2.760   7.850   3.797
 9307TIP3    H227865   2.860   7.886   3.905
 9308TIP3   OH227866   4.084   7.251   2.561
 9308TIP3    H127867   4.153   7.240   2.627
 9308TIP3    H227868   4.008   7.208   2.600
 9309TIP3   OH227869   4.138   7.524   3.031
 9309TIP3    H127870   4.176   7.438   3.049
 9309TIP3    H227871   4.193   7.560   2.962
 9310TIP3   OH227872   4.298   7.697   3.520
 9310TIP3    H127873   4.382   7.720   3.481
 9310TIP3    H227874   4.302   7.731   3.609
 9311TIP3   OH227875   4.818   7.434   4.315
 9311TIP3    H127876   4.877   7.369   4.276
 9311TIP3    H227877   4.788   7.487   4.241
 9312TIP3   OH227878   4.244   7.273   3.074
 9312TIP3    H127879   4.292   7.259   3.155
 9312TIP3    H227880   4.183   7.200   3.069
 9313TIP3   OH227881   2.946   7.261   3.896
 9313TIP3    H127882   3.004   7.184   3.903
 9313TIP3    H227883   3.006   7.335   3.885
 9314TIP3   OH227884   2.746   7.535   3.963
 9314TIP3    H127885   2.794   7.527   3.880
 9314TIP3    H227886   2.772   7.620   3.998
 9315TIP3   OH227887   4.682   7.567   4.121
 9315TIP3    H127888   4.602   7.615   4.144
 9315TIP3    H227889   4.653   7.498   4.062
 9316TIP3   OH227890   4.318   7.221   2.714
 9316TIP3    H127891   4.350   7.150   2.659
 9316TIP3    H227892   4.387   7.287   2.709
 9317TIP3   OH227893   2.730   7.041   3.465
 9317TIP3    H127894   2.639   7.036   3.493
 9317TIP3    H227895   2.728   7.096   3.387
 9318TIP3   OH227896   2.949   7.120   4.282
 9318TIP3    H127897   2.903   7.116   4.365
 9318TIP3    H227898   2.885   7.156   4.220
 9319TIP3   OH227899   4.584   7.327   4.000
 9319TIP3    H127900   4.495   7.310   3.971
 9319TIP3    H227901   4.628   7.242   3.993
 9320TIP3   OH227902   3.794   7.248   3.626
 9320TIP3    H127903   3.749   7.179   3.675
 9320TIP3    H227904   3.863   7.203   3.577
 9321TIP3   OH227905   4.311   7.142   3.528
 9321TIP3    H127906   4.348   7.184   3.451
 9321TIP3    H227907   4.217   7.148   3.517
 9322TIP3   OH227908   4.411   7.230   3.288
 9322TIP3    H127909   4.479   7.174   3.249
 9322TIP3    H227910   4.443   7.319   3.275
 9323TIP3   OH227911   3.039   6.953   3.637
 9323TIP3    H127912   2.948   6.924   3.638
 9323TIP3    H227913   3.090   6.872   3.632
 9324TIP3   OH227914   2.813   6.833   3.280
 9324TIP3    H127915   2.854   6.884   3.210
 9324TIP3    H227916   2.797   6.897   3.350
 9325TIP3   OH227917   3.483   6.997   3.516
 9325TIP3    H127918   3.543   7.041   3.456
 9325TIP3    H227919   3.511   7.025   3.603
 9326TIP3   OH227920   4.032   7.136   3.499
 9326TIP3    H127921   4.030   7.096   3.412
 9326TIP3    H227922   4.019   7.062   3.559
 9327TIP3   OH227923   4.059   7.062   3.065
 9327TIP3    H127924   3.976   7.106   3.081
 9327TIP3    H227925   4.049   6.977   3.108
 9328TIP3   OH227926   2.949   6.989   3.045
 9328TIP3    H127927   2.993   6.924   2.991
 9328TIP3    H227928   3.019   7.042   3.082
 9329TIP3   OH227929   3.458   7.167   3.146
 9329TIP3    H127930   3.511   7.115   3.205
 9329TIP3    H227931   3.477   7.258   3.171
 9330TIP3   OH227932   3.241   7.228   4.527
 9330TIP3    H127933   3.213   7.157   4.584
 9330TIP3    H227934   3.331   7.248   4.554
 9331TIP3   OH227935   3.490   7.252   4.656
 9331TIP3    H127936   3.570   7.227   4.610
 9331TIP3    H227937   3.477   7.183   4.721
 9332TIP3   OH227938   4.326   7.300   4.435
 9332TIP3    H127939   4.341   7.270   4.525
 9332TIP3    H227940   4.412   7.294   4.393
 9333TIP3   OH227941   8.363   0.194   2.697
 9333TIP3    H127942   8.332   0.282   2.672
 9333TIP3    H227943   8.292   0.136   2.669
 9334TIP3   OH227944   8.367   0.205   3.074
 9334TIP3    H127945   8.399   0.187   3.163
 9334TIP3    H227946   8.320   0.126   3.048
 9335TIP3   OH227947   7.661   0.103   3.441
 9335TIP3    H127948   7.690   0.037   3.503
 9335TIP3    H227949   7.733   0.166   3.436
 9336TIP3   OH227950   0.083   0.510   2.764
 9336TIP3    H127951   0.079   0.440   2.829
 9336TIP3    H227952   0.131   0.580   2.808
 9337TIP3   OH227953   7.688   0.451   3.239
 9337TIP3    H127954   7.655   0.367   3.207
 9337TIP3    H227955   7.770   0.464   3.192
 9338TIP3   OH227956   4.503   7.729   2.944
 9338TIP3    H127957   4.462   7.813   2.964
 9338TIP3    H227958   4.434   7.678   2.902
 9339TIP3   OH227959   4.562   8.017   3.123
 9339TIP3    H127960   4.610   7.941   3.157
 9339TIP3    H227961   4.630   8.074   3.087
 9340TIP3   OH227962   8.179   0.425   3.114
 9340TIP3    H127963   8.223   0.348   3.076
 9340TIP3    H227964   8.251   0.480   3.145
 9341TIP3   OH227965   6.343   7.772   3.120
 9341TIP3    H127966   6.370   7.853   3.165
 9341TIP3    H227967   6.357   7.791   3.027
 9342TIP3   OH227968   5.742   7.948   3.150
 9342TIP3    H127969   5.781   7.864   3.173
 9342TIP3    H227970   5.707   7.935   3.062
 9343TIP3   OH227971   5.078   7.610   3.114
 9343TIP3    H127972   5.059   7.683   3.056
 9343TIP3    H227973   5.031   7.536   3.076
 9344TIP3   OH227974   5.776   7.701   2.740
 9344TIP3    H127975   5.843   7.686   2.806
 9344TIP3    H227976   5.824   7.737   2.665
 9345TIP3   OH227977   4.710   7.809   3.227
 9345TIP3    H127978   4.791   7.793   3.276
 9345TIP3    H227979   4.720   7.758   3.147
 9346TIP3   OH227980   5.150   8.008   3.019
 9346TIP3    H127981   5.242   7.986   3.034
 9346TIP3    H227982   5.110   7.926   2.989
 9347TIP3   OH227983   6.412   7.982   3.290
 9347TIP3    H127984   6.329   8.024   3.270
 9347TIP3    H227985   6.432   8.009   3.380
 9348TIP3   OH227986   5.072   7.594   3.553
 9348TIP3    H127987   5.015   7.630   3.484
 9348TIP3    H227988   5.023   7.610   3.634
 9349TIP3   OH227989   8.249   0.396   2.555
 9349TIP3    H127990   8.195   0.396   2.476
 9349TIP3    H227991   8.267   0.489   2.571
 9350TIP3   OH227992   8.008   0.362   3.345
 9350TIP3    H127993   7.945   0.424   3.382
 9350TIP3    H227994   8.044   0.406   3.268
 9351TIP3   OH227995   5.980   7.706   2.920
 9351TIP3    H127996   5.956   7.665   3.002
 9351TIP3    H227997   6.030   7.784   2.945
 9352TIP3   OH227998   4.948   7.709   3.334
 9352TIP3    H127999   5.005   7.782   3.360
 9352TIP3    H228000   4.994   7.667   3.262
 9353TIP3   OH228001   7.837   0.570   3.452
 9353TIP3    H128002   7.796   0.569   3.366
 9353TIP3    H228003   7.764   0.566   3.514
 9354TIP3   OH228004   7.230   0.207   2.685
 9354TIP3    H128005   7.197   0.210   2.595
 9354TIP3    H228006   7.245   0.299   2.708
 9355TIP3   OH228007   6.134   7.669   3.284
 9355TIP3    H128008   6.046   7.696   3.256
 9355TIP3    H228009   6.192   7.701   3.215
 9356TIP3   OH228010   5.426   7.309   3.272
 9356TIP3    H128011   5.413   7.216   3.287
 9356TIP3    H228012   5.351   7.351   3.315
 9357TIP3   OH228013   0.110   0.524   2.483
 9357TIP3    H128014   0.072   0.447   2.441
 9357TIP3    H228015   0.116   0.501   2.575
 9358TIP3   OH228016   0.394   0.665   3.267
 9358TIP3    H128017   0.382   0.588   3.211
 9358TIP3    H228018   0.420   0.735   3.207
 9359TIP3   OH228019   8.192   0.055   2.527
 9359TIP3    H128020   8.112   0.105   2.515
 9359TIP3    H228021   8.236   0.058   2.442
 9360TIP3   OH228022   5.320   7.862   2.238
 9360TIP3    H128023   5.383   7.913   2.288
 9360TIP3    H228024   5.373   7.798   2.191
 9361TIP3   OH228025   0.595   0.306   3.108
 9361TIP3    H128026   0.513   0.353   3.120
 9361TIP3    H228027   0.624   0.331   3.021
 9362TIP3   OH228028   0.042   0.136   2.502
 9362TIP3    H128029  -0.015   0.158   2.575
 9362TIP3    H228030   0.125   0.112   2.543
 9363TIP3   OH228031   0.272   0.184   3.409
 9363TIP3    H128032   0.275   0.266   3.459
 9363TIP3    H228033   0.187   0.186   3.365
 9364TIP3   OH228034   7.778   0.138   2.902
 9364TIP3    H128035   7.737   0.080   2.838
 9364TIP3    H228036   7.853   0.088   2.935
 9365TIP3   OH228037   7.911   0.504   3.105
 9365TIP3    H128038   7.873   0.505   3.017
 9365TIP3    H228039   8.006   0.506   3.090
 9366TIP3   OH228040   7.906   0.118   3.262
 9366TIP3    H128041   7.940   0.095   3.175
 9366TIP3    H228042   7.947   0.202   3.283
 9367TIP3   OH228043   8.084   0.574   3.588
 9367TIP3    H128044   8.057   0.663   3.612
 9367TIP3    H228045   8.011   0.540   3.537
 9368TIP3   OH228046   8.381   0.001   2.322
 9368TIP3    H128047   8.437   0.059   2.373
 9368TIP3    H228048   8.407   0.016   2.231
 9369TIP3   OH228049   7.804   0.226   3.693
 9369TIP3    H128050   7.812   0.313   3.733
 9369TIP3    H228051   7.711   0.205   3.701
 9370TIP3   OH228052   6.061   7.258   2.371
 9370TIP3    H128053   5.980   7.274   2.420
 9370TIP3    H228054   6.076   7.338   2.321
 9371TIP3   OH228055   4.808   7.995   2.710
 9371TIP3    H128056   4.743   8.042   2.657
 9371TIP3    H228057   4.765   7.913   2.735
 9372TIP3   OH228058   7.434   0.368   3.626
 9372TIP3    H128059   7.364   0.348   3.564
 9372TIP3    H228060   7.467   0.282   3.653
 9373TIP3   OH228061   0.530   0.143   3.586
 9373TIP3    H128062   0.447   0.162   3.544
 9373TIP3    H228063   0.543   0.049   3.573
 9374TIP3   OH228064   7.627   0.567   3.625
 9374TIP3    H128065   7.679   0.534   3.698
 9374TIP3    H228066   7.553   0.506   3.618
 9375TIP3   OH228067   5.186   7.390   3.397
 9375TIP3    H128068   5.101   7.356   3.369
 9375TIP3    H228069   5.165   7.470   3.447
 9376TIP3   OH228070   5.723   7.501   3.593
 9376TIP3    H128071   5.790   7.476   3.656
 9376TIP3    H228072   5.640   7.484   3.638
 9377TIP3   OH228073   5.964   7.937   3.514
 9377TIP3    H128074   5.913   7.931   3.595
 9377TIP3    H228075   5.939   8.021   3.476
 9378TIP3   OH228076   8.458   0.029   2.063
 9378TIP3    H128077   8.426   0.008   1.975
 9378TIP3    H228078   8.506   0.111   2.052
 9379TIP3   OH228079   5.334   7.434   2.370
 9379TIP3    H128080   5.302   7.436   2.460
 9379TIP3    H228081   5.297   7.353   2.333
 9380TIP3   OH228082   5.120   7.909   3.413
 9380TIP3    H128083   5.073   7.925   3.495
 9380TIP3    H228084   5.104   7.988   3.361
 9381TIP3   OH228085   5.003   7.788   2.927
 9381TIP3    H128086   4.913   7.766   2.949
 9381TIP3    H228087   5.017   7.750   2.841
 9382TIP3   OH228088   5.498   7.874   2.658
 9382TIP3    H128089   5.444   7.942   2.617
 9382TIP3    H228090   5.552   7.840   2.586
 9383TIP3   OH228091   0.008   0.133   3.739
 9383TIP3    H128092  -0.018   0.066   3.802
 9383TIP3    H228093   0.098   0.155   3.763
 9384TIP3   OH228094   5.653   7.901   2.892
 9384TIP3    H128095   5.590   7.935   2.829
 9384TIP3    H228096   5.688   7.822   2.852
 9385TIP3   OH228097   4.943   7.932   3.625
 9385TIP3    H128098   4.970   7.997   3.689
 9385TIP3    H228099   4.932   7.851   3.676
 9386TIP3   OH228100   4.989   7.413   2.335
 9386TIP3    H128101   4.982   7.408   2.431
 9386TIP3    H228102   4.915   7.466   2.308
 9387TIP3   OH228103   4.535   7.453   3.207
 9387TIP3    H128104   4.609   7.485   3.259
 9387TIP3    H228105   4.575   7.423   3.125
 9388TIP3   OH228106   4.501   7.439   2.721
 9388TIP3    H128107   4.548   7.472   2.644
 9388TIP3    H228108   4.442   7.510   2.746
 9389TIP3   OH228109   8.498   0.132   3.316
 9389TIP3    H128110   8.532   0.065   3.257
 9389TIP3    H228111   8.466   0.084   3.392
 9390TIP3   OH228112   5.337   7.610   2.992
 9390TIP3    H128113   5.254   7.609   3.040
 9390TIP3    H228114   5.404   7.609   3.059
 9391TIP3   OH228115   4.766   7.669   2.997
 9391TIP3    H128116   4.674   7.678   2.971
 9391TIP3    H228117   4.789   7.579   2.975
 9392TIP3   OH228118   5.034   7.663   2.687
 9392TIP3    H128119   5.126   7.679   2.666
 9392TIP3    H228120   4.986   7.686   2.608
 9393TIP3   OH228121   5.823   7.685   3.191
 9393TIP3    H128122   5.797   7.701   3.282
 9393TIP3    H228123   5.756   7.627   3.156
 9394TIP3   OH228124   4.881   7.697   2.463
 9394TIP3    H128125   4.810   7.653   2.417
 9394TIP3    H228126   4.934   7.735   2.393
 9395TIP3   OH228127   7.788   0.469   3.834
 9395TIP3    H128128   7.866   0.498   3.882
 9395TIP3    H228129   7.720   0.462   3.902
 9396TIP3   OH228130   5.416   7.941   3.090
 9396TIP3    H128131   5.488   7.900   3.042
 9396TIP3    H228132   5.419   7.901   3.176
 9397TIP3   OH228133   4.935   7.424   2.972
 9397TIP3    H128134   4.899   7.349   3.020
 9397TIP3    H228135   4.982   7.384   2.899
 9398TIP3   OH228136   5.391   7.843   3.375
 9398TIP3    H128137   5.302   7.876   3.390
 9398TIP3    H228138   5.446   7.902   3.426
 9399TIP3   OH228139   7.962   0.200   2.483
 9399TIP3    H128140   7.887   0.142   2.466
 9399TIP3    H228141   7.940   0.245   2.564
 9400TIP3   OH228142   0.361   0.443   3.102
 9400TIP3    H128143   0.388   0.493   3.025
 9400TIP3    H228144   0.276   0.406   3.078
 9401TIP3   OH228145   5.584   7.541   2.336
 9401TIP3    H128146   5.491   7.521   2.346
 9401TIP3    H228147   5.592   7.632   2.363
 9402TIP3   OH228148   8.370   0.553   3.471
 9402TIP3    H128149   8.404   0.508   3.548
 9402TIP3    H228150   8.290   0.596   3.501
 9403TIP3   OH228151   5.656   7.788   2.440
 9403TIP3    H128152   5.750   7.795   2.456
 9403TIP3    H228153   5.634   7.867   2.391
 9404TIP3   OH228154   7.635   0.189   3.135
 9404TIP3    H128155   7.686   0.183   3.054
 9404TIP3    H228156   7.692   0.152   3.202
 9405TIP3   OH228157   8.069   0.383   2.313
 9405TIP3    H128158   8.034   0.457   2.363
 9405TIP3    H228159   8.036   0.306   2.359
 9406TIP3   OH228160   7.548   0.148   3.759
 9406TIP3    H128161   7.566   0.144   3.853
 9406TIP3    H228162   7.473   0.090   3.746
 9407TIP3   OH228163   8.267   0.258   3.787
 9407TIP3    H128164   8.202   0.212   3.734
 9407TIP3    H228165   8.351   0.228   3.753
 9408TIP3   OH228166   6.096   7.881   2.268
 9408TIP3    H128167   6.037   7.832   2.210
 9408TIP3    H228168   6.091   7.971   2.235
 9409TIP3   OH228169   0.651   0.697   3.357
 9409TIP3    H128170   0.557   0.715   3.350
 9409TIP3    H228171   0.681   0.689   3.266
 9410TIP3   OH228172   0.124   0.316   3.004
 9410TIP3    H128173   0.035   0.294   3.028
 9410TIP3    H228174   0.160   0.235   2.968
 9411TIP3   OH228175   4.487   7.860   2.482
 9411TIP3    H128176   4.533   7.942   2.498
 9411TIP3    H228177   4.410   7.864   2.538
 9412TIP3   OH228178   7.888   0.321   2.723
 9412TIP3    H128179   7.846   0.401   2.754
 9412TIP3    H228180   7.863   0.254   2.787
 9413TIP3   OH228181   8.419   0.515   3.202
 9413TIP3    H128182   8.404   0.530   3.295
 9413TIP3    H228183   8.506   0.476   3.198
 9414TIP3   OH228184   8.419   0.340   2.057
 9414TIP3    H128185   8.453   0.336   2.147
 9414TIP3    H228186   8.340   0.394   2.065
 9415TIP3   OH228187   4.917   7.674   3.769
 9415TIP3    H128188   4.822   7.681   3.777
 9415TIP3    H228189   4.944   7.618   3.841
 9416TIP3   OH228190   0.047   0.319   2.301
 9416TIP3    H128191   0.041   0.252   2.369
 9416TIP3    H228192   0.141   0.326   2.284
 9417TIP3   OH228193   7.742   0.344   2.128
 9417TIP3    H128194   7.777   0.258   2.106
 9417TIP3    H228195   7.762   0.355   2.221
 9418TIP3   OH228196   7.439   0.089   2.557
 9418TIP3    H128197   7.372   0.121   2.617
 9418TIP3    H228198   7.448   0.158   2.491
 9419TIP3   OH228199   5.758   7.735   3.451
 9419TIP3    H128200   5.831   7.777   3.495
 9419TIP3    H228201   5.739   7.658   3.503
 9420TIP3   OH228202   5.635   7.490   2.618
 9420TIP3    H128203   5.618   7.511   2.527
 9420TIP3    H228204   5.673   7.570   2.655
 9421TIP3   OH228205   5.320   7.672   2.722
 9421TIP3    H128206   5.382   7.743   2.703
 9421TIP3    H228207   5.322   7.663   2.817
 9422TIP3   OH228208   5.590   7.988   3.525
 9422TIP3    H128209   5.610   8.044   3.600
 9422TIP3    H228210   5.642   7.909   3.540
 9423TIP3   OH228211   5.463   7.398   2.822
 9423TIP3    H128212   5.448   7.474   2.877
 9423TIP3    H228213   5.524   7.429   2.754
 9424TIP3   OH228214   4.977   7.399   2.611
 9424TIP3    H128215   4.970   7.487   2.648
 9424TIP3    H228216   5.070   7.377   2.617
 9425TIP3   OH228217   6.227   7.886   3.507
 9425TIP3    H128218   6.133   7.890   3.520
 9425TIP3    H228219   6.239   7.845   3.422
 9426TIP3   OH228220   0.213   0.067   2.896
 9426TIP3    H128221   0.136   0.013   2.908
 9426TIP3    H228222   0.282   0.022   2.945
 9427TIP3   OH228223   7.436   0.303   2.371
 9427TIP3    H128224   7.459   0.395   2.359
 9427TIP3    H228225   7.487   0.257   2.304
 9428TIP3   OH228226   4.534   7.590   2.496
 9428TIP3    H128227   4.541   7.685   2.496
 9428TIP3    H228228   4.446   7.572   2.461
 9429TIP3   OH228229   4.923   7.306   3.369
 9429TIP3    H128230   4.893   7.274   3.284
 9429TIP3    H228231   4.914   7.231   3.428
 9430TIP3   OH228232   7.585   0.442   4.016
 9430TIP3    H128233   7.596   0.347   4.028
 9430TIP3    H228234   7.491   0.453   4.002
 9431TIP3   OH228235   7.561   0.103   2.222
 9431TIP3    H128236   7.606   0.070   2.300
 9431TIP3    H228237   7.629   0.107   2.154
 9432TIP3   OH228238   8.209   0.523   3.824
 9432TIP3    H128239   8.173   0.540   3.737
 9432TIP3    H228240   8.244   0.434   3.819
 9433TIP3   OH228241   8.020   0.283   2.033
 9433TIP3    H128242   8.043   0.303   2.124
 9433TIP3    H228243   8.045   0.192   2.022
 9434TIP3   OH228244   0.181   0.549   3.400
 9434TIP3    H128245   0.250   0.603   3.360
 9434TIP3    H228246   0.104   0.607   3.403
 9435TIP3   OH228247   7.685   0.172   4.016
 9435TIP3    H128248   7.767   0.131   3.986
 9435TIP3    H228249   7.709   0.214   4.098
 9436TIP3   OH228250   4.927   8.027   2.436
 9436TIP3    H128251   4.901   7.990   2.520
 9436TIP3    H228252   4.967   7.954   2.388
 9437TIP3   OH228253   8.038   0.080   3.664
 9437TIP3    H128254   7.962   0.138   3.671
 9437TIP3    H228255   8.087   0.114   3.589
 9438TIP3   OH228256   5.040   7.824   2.279
 9438TIP3    H128257   5.012   7.825   2.188
 9438TIP3    H228258   5.136   7.831   2.274
 9439TIP3   OH228259   0.058   0.469   3.800
 9439TIP3    H128260   0.142   0.454   3.757
 9439TIP3    H228261   0.058   0.409   3.874
 9440TIP3   OH228262   0.198   0.149   1.934
 9440TIP3    H128263   0.168   0.097   1.860
 9440TIP3    H228264   0.176   0.239   1.910
 9441TIP3   OH228265   5.330   7.884   3.789
 9441TIP3    H128266   5.329   7.805   3.735
 9441TIP3    H228267   5.287   7.951   3.736
 9442TIP3   OH228268   5.332   7.670   3.598
 9442TIP3    H128269   5.359   7.711   3.516
 9442TIP3    H228270   5.240   7.646   3.583
 9443TIP3   OH228271   8.187   0.196   3.472
 9443TIP3    H128272   8.271   0.207   3.426
 9443TIP3    H228273   8.129   0.261   3.432
 9444TIP3   OH228274   0.273   0.160   3.853
 9444TIP3    H128275   0.325   0.080   3.862
 9444TIP3    H228276   0.336   0.225   3.822
 9445TIP3   OH228277   0.314   0.407   3.585
 9445TIP3    H128278   0.254   0.459   3.531
 9445TIP3    H228279   0.401   0.428   3.551
 9446TIP3   OH228280   5.208   7.987   4.025
 9446TIP3    H128281   5.138   7.924   4.040
 9446TIP3    H228282   5.241   7.966   3.938
 9447TIP3   OH228283   5.461   7.432   3.668
 9447TIP3    H128284   5.415   7.514   3.646
 9447TIP3    H228285   5.394   7.364   3.658
 9448TIP3   OH228286   5.588   7.933   3.886
 9448TIP3    H128287   5.576   7.923   3.980
 9448TIP3    H228288   5.502   7.912   3.848
 9449TIP3   OH228289   5.827   7.881   3.741
 9449TIP3    H128290   5.751   7.887   3.798
 9449TIP3    H228291   5.898   7.853   3.798
 9450TIP3   OH228292   6.067   7.829   3.891
 9450TIP3    H128293   6.073   7.735   3.906
 9450TIP3    H228294   6.055   7.867   3.978
 9451TIP3   OH228295   5.039   7.773   4.081
 9451TIP3    H128296   5.042   7.684   4.046
 9451TIP3    H228297   5.076   7.765   4.169
 9452TIP3   OH228298   5.558   7.441   3.925
 9452TIP3    H128299   5.623   7.371   3.922
 9452TIP3    H228300   5.517   7.439   3.839
 9453TIP3   OH228301   5.622   7.657   4.084
 9453TIP3    H128302   5.602   7.587   4.022
 9453TIP3    H228303   5.547   7.716   4.079
 9454TIP3   OH228304   7.176   0.207   2.417
 9454TIP3    H128305   7.254   0.249   2.382
 9454TIP3    H228306   7.155   0.138   2.354
 9455TIP3   OH228307   0.542   0.830   3.639
 9455TIP3    H128308   0.468   0.813   3.697
 9455TIP3    H228309   0.573   0.917   3.664
 9456TIP3   OH228310   0.323   0.316   2.284
 9456TIP3    H128311   0.387   0.379   2.250
 9456TIP3    H228312   0.366   0.278   2.361
 9457TIP3   OH228313   0.458   0.189   2.485
 9457TIP3    H128314   0.392   0.150   2.542
 9457TIP3    H228315   0.520   0.232   2.545
 9458TIP3   OH228316   0.492   0.580   2.909
 9458TIP3    H128317   0.557   0.528   2.862
 9458TIP3    H228318   0.491   0.664   2.864
 9459TIP3   OH228319   0.384   0.102   2.126
 9459TIP3    H128320   0.318   0.106   2.056
 9459TIP3    H228321   0.364   0.175   2.183
 9460TIP3   OH228322   5.937   7.784   2.074
 9460TIP3    H128323   5.881   7.830   2.011
 9460TIP3    H228324   5.912   7.692   2.065
 9461TIP3   OH228325   0.270   0.049   2.630
 9461TIP3    H128326   0.276  -0.046   2.621
 9461TIP3    H228327   0.255   0.064   2.723
 9462TIP3   OH228328   7.396   0.122   3.378
 9462TIP3    H128329   7.389   0.091   3.287
 9462TIP3    H228330   7.490   0.126   3.394
 9463TIP3   OH228331   0.557   0.470   3.484
 9463TIP3    H128332   0.631   0.410   3.475
 9463TIP3    H228333   0.582   0.547   3.432
 9464TIP3   OH228334   0.748   0.276   3.494
 9464TIP3    H128335   0.672   0.235   3.535
 9464TIP3    H228336   0.819   0.214   3.510
 9465TIP3   OH228337   5.875   7.518   2.061
 9465TIP3    H128338   5.943   7.489   2.121
 9465TIP3    H228339   5.798   7.466   2.084
 9466TIP3   OH228340   5.935   7.781   2.519
 9466TIP3    H128341   5.972   7.694   2.535
 9466TIP3    H228342   5.989   7.817   2.449
 9467TIP3   OH228343   6.095   7.952   3.018
 9467TIP3    H128344   6.177   7.975   2.975
 9467TIP3    H228345   6.102   7.989   3.106
 9468TIP3   OH228346   0.494   0.086   3.247
 9468TIP3    H128347   0.419   0.116   3.298
 9468TIP3    H228348   0.527   0.165   3.203
 9469TIP3   OH228349   4.768   7.816   4.033
 9469TIP3    H128350   4.863   7.825   4.040
 9469TIP3    H228351   4.748   7.736   4.083
 9470TIP3   OH228352   6.598   7.670   3.810
 9470TIP3    H128353   6.664   7.619   3.765
 9470TIP3    H228354   6.582   7.745   3.753
 9471TIP3   OH228355   6.042   7.530   2.559
 9471TIP3    H128356   6.088   7.516   2.641
 9471TIP3    H228357   5.980   7.457   2.554
 9472TIP3   OH228358   4.743   7.517   3.383
 9472TIP3    H128359   4.801   7.442   3.389
 9472TIP3    H228360   4.802   7.592   3.373
 9473TIP3   OH228361   4.543   7.793   3.453
 9473TIP3    H128362   4.590   7.783   3.370
 9473TIP3    H228363   4.567   7.881   3.483
 9474TIP3   OH228364   6.480   7.828   3.614
 9474TIP3    H128365   6.395   7.871   3.624
 9474TIP3    H228366   6.461   7.752   3.558
 9475TIP3   OH228367   6.122   7.464   2.193
 9475TIP3    H128368   6.158   7.395   2.139
 9475TIP3    H228369   6.185   7.535   2.187
 9476TIP3   OH228370   4.527   7.297   2.952
 9476TIP3    H128371   4.436   7.290   2.981
 9476TIP3    H228372   4.523   7.354   2.875
 9477TIP3   OH228373   4.745   7.374   3.767
 9477TIP3    H128374   4.696   7.367   3.850
 9477TIP3    H228375   4.682   7.410   3.705
 9478TIP3   OH228376   6.383   7.588   3.487
 9478TIP3    H128377   6.294   7.584   3.452
 9478TIP3    H228378   6.417   7.499   3.477
 9479TIP3   OH228379   5.591   7.506   3.112
 9479TIP3    H128380   5.545   7.439   3.163
 9479TIP3    H228381   5.660   7.459   3.066
 9480TIP3   OH228382   6.109   7.387   3.008
 9480TIP3    H128383   6.145   7.439   2.937
 9480TIP3    H228384   6.015   7.406   3.006
 9481TIP3   OH228385   6.208   7.487   2.773
 9481TIP3    H128386   6.280   7.435   2.736
 9481TIP3    H228387   6.237   7.578   2.762
 9482TIP3   OH228388   4.833   7.210   3.123
 9482TIP3    H128389   4.742   7.180   3.123
 9482TIP3    H228390   4.884   7.129   3.119
 9483TIP3   OH228391   4.607   7.091   2.773
 9483TIP3    H128392   4.649   7.142   2.704
 9483TIP3    H228393   4.591   7.154   2.843
 9484TIP3   OH228394   5.284   7.248   3.003
 9484TIP3    H128395   5.341   7.296   2.943
 9484TIP3    H228396   5.303   7.285   3.089
 9485TIP3   OH228397   5.828   7.393   2.987
 9485TIP3    H128398   5.820   7.359   2.898
 9485TIP3    H228399   5.816   7.316   3.043
 9486TIP3   OH228400   5.856   7.319   2.552
 9486TIP3    H128401   5.773   7.365   2.565
 9486TIP3    H228402   5.843   7.234   2.594
 9487TIP3   OH228403   4.745   7.249   2.528
 9487TIP3    H128404   4.793   7.183   2.478
 9487TIP3    H228405   4.813   7.302   2.568
 9488TIP3   OH228406   5.254   7.423   2.634
 9488TIP3    H128407   5.309   7.372   2.692
 9488TIP3    H228408   5.272   7.514   2.657
 9489TIP3   OH228409   5.045   7.496   4.017
 9489TIP3    H128410   5.009   7.426   4.071
 9489TIP3    H228411   5.138   7.499   4.041
 9490TIP3   OH228412   5.295   7.492   4.134
 9490TIP3    H128413   5.379   7.467   4.095
 9490TIP3    H228414   5.278   7.426   4.201
 9491TIP3   OH228415   6.120   7.556   3.921
 9491TIP3    H128416   6.137   7.526   4.010
 9491TIP3    H228417   6.205   7.551   3.877
 9492TIP3   OH228418   0.950   0.349   2.915
 9492TIP3    H128419   1.002   0.318   2.988
 9492TIP3    H228420   1.013   0.389   2.855
 9493TIP3   OH228421   6.296   7.990   2.430
 9493TIP3    H128422   6.251   8.072   2.451
 9493TIP3    H228423   6.229   7.936   2.388
 9494TIP3   OH228424   0.698   0.264   2.611
 9494TIP3    H128425   0.743   0.188   2.647
 9494TIP3    H228426   0.757   0.296   2.542
 9495TIP3   OH228427   6.833   7.866   2.608
 9495TIP3    H128428   6.813   7.936   2.545
 9495TIP3    H228429   6.796   7.787   2.570
 9496TIP3   OH228430   0.838   0.054   2.715
 9496TIP3    H128431   0.918   0.040   2.767
 9496TIP3    H228432   0.848  -0.004   2.640
 9497TIP3   OH228433   6.854   7.843   3.049
 9497TIP3    H128434   6.802   7.883   2.979
 9497TIP3    H228435   6.804   7.859   3.128
 9498TIP3   OH228436   6.737   7.971   2.837
 9498TIP3    H128437   6.799   8.041   2.857
 9498TIP3    H228438   6.773   7.928   2.760
 9499TIP3   OH228439   0.535   0.466   2.192
 9499TIP3    H128440   0.508   0.494   2.104
 9499TIP3    H228441   0.573   0.544   2.231
 9500TIP3   OH228442   7.198   7.559   2.751
 9500TIP3    H128443   7.209   7.472   2.789
 9500TIP3    H228444   7.128   7.599   2.803
 9501TIP3   OH228445   1.073   0.493   3.166
 9501TIP3    H128446   1.065   0.577   3.211
 9501TIP3    H228447   0.989   0.449   3.180
 9502TIP3   OH228448   0.926   0.211   2.164
 9502TIP3    H128449   0.921   0.305   2.178
 9502TIP3    H228450   0.852   0.175   2.215
 9503TIP3   OH228451   0.727   0.616   3.111
 9503TIP3    H128452   0.656   0.605   3.048
 9503TIP3    H228453   0.757   0.527   3.130
 9504TIP3   OH228454   6.974   7.650   2.889
 9504TIP3    H128455   6.890   7.614   2.858
 9504TIP3    H228456   6.949   7.727   2.941
 9505TIP3   OH228457   7.495   7.715   3.107
 9505TIP3    H128458   7.530   7.754   3.188
 9505TIP3    H228459   7.401   7.709   3.123
 9506TIP3   OH228460   1.259   0.141   2.912
 9506TIP3    H128461   1.201   0.175   2.981
 9506TIP3    H228462   1.260   0.211   2.847
 9507TIP3   OH228463   1.108   0.016   2.389
 9507TIP3    H128464   1.024  -0.014   2.424
 9507TIP3    H228465   1.084   0.072   2.314
 9508TIP3   OH228466   1.096   0.186   3.132
 9508TIP3    H128467   1.059   0.249   3.193
 9508TIP3    H228468   1.068   0.101   3.165
 9509TIP3   OH228469   6.783   7.620   1.824
 9509TIP3    H128470   6.767   7.629   1.918
 9509TIP3    H228471   6.718   7.677   1.783
 9510TIP3   OH228472   6.330   7.711   2.690
 9510TIP3    H128473   6.403   7.742   2.744
 9510TIP3    H228474   6.371   7.678   2.610
 9511TIP3   OH228475   6.299   7.695   2.207
 9511TIP3    H128476   6.344   7.729   2.129
 9511TIP3    H228477   6.238   7.765   2.231
 9512TIP3   OH228478   7.086   7.796   2.540
 9512TIP3    H128479   7.001   7.809   2.581
 9512TIP3    H228480   7.144   7.858   2.584
 9513TIP3   OH228481   6.550   7.916   2.489
 9513TIP3    H128482   6.459   7.932   2.464
 9513TIP3    H228483   6.566   7.825   2.465
 9514TIP3   OH228484   6.635   7.927   1.988
 9514TIP3    H128485   6.565   7.891   1.935
 9514TIP3    H228486   6.634   8.021   1.968
 9515TIP3   OH228487   6.732   7.673   2.451
 9515TIP3    H128488   6.695   7.600   2.501
 9515TIP3    H228489   6.784   7.632   2.383
 9516TIP3   OH228490   0.834   0.383   3.246
 9516TIP3    H128491   0.836   0.377   3.342
 9516TIP3    H228492   0.752   0.340   3.222
 9517TIP3   OH228493   0.609   0.097   1.971
 9517TIP3    H128494   0.639   0.188   1.976
 9517TIP3    H228495   0.530   0.096   2.025
 9518TIP3   OH228496   6.704   7.931   3.259
 9518TIP3    H128497   6.609   7.938   3.270
 9518TIP3    H228498   6.733   7.877   3.333
 9519TIP3   OH228499   6.740   7.652   2.094
 9519TIP3    H128500   6.719   7.744   2.108
 9519TIP3    H228501   6.832   7.645   2.119
 9520TIP3   OH228502   6.325   7.842   1.974
 9520TIP3    H128503   6.323   7.938   1.982
 9520TIP3    H228504   6.235   7.818   1.950
 9521TIP3   OH228505   6.718   7.561   2.855
 9521TIP3    H128506   6.687   7.529   2.771
 9521TIP3    H228507   6.709   7.486   2.914
 9522TIP3   OH228508   0.897   0.700   3.476
 9522TIP3    H128509   0.925   0.608   3.477
 9522TIP3    H228510   0.807   0.697   3.445
 9523TIP3   OH228511   1.019   0.446   3.490
 9523TIP3    H128512   1.084   0.376   3.487
 9523TIP3    H228513   1.027   0.482   3.579
 9524TIP3   OH228514   1.454   0.167   3.235
 9524TIP3    H128515   1.491   0.081   3.254
 9524TIP3    H228516   1.367   0.149   3.200
 9525TIP3   OH228517   7.104   7.936   3.059
 9525TIP3    H128518   7.081   8.007   2.999
 9525TIP3    H228519   7.021   7.892   3.076
 9526TIP3   OH228520   1.301   0.246   3.484
 9526TIP3    H128521   1.262   0.165   3.516
 9526TIP3    H228522   1.367   0.218   3.421
 9527TIP3   OH228523   7.228   7.692   3.162
 9527TIP3    H128524   7.179   7.768   3.133
 9527TIP3    H228525   7.168   7.618   3.150
 9528TIP3   OH228526   6.847   8.024   3.565
 9528TIP3    H128527   6.849   7.933   3.534
 9528TIP3    H228528   6.880   8.019   3.654
 9529TIP3   OH228529   7.353   7.692   3.407
 9529TIP3    H128530   7.424   7.628   3.401
 9529TIP3    H228531   7.304   7.682   3.326
 9530TIP3   OH228532   7.410   7.899   3.578
 9530TIP3    H128533   7.395   7.833   3.510
 9530TIP3    H228534   7.340   7.963   3.565
 9531TIP3   OH228535   0.441   0.463   1.879
 9531TIP3    H128536   0.513   0.519   1.850
 9531TIP3    H228537   0.443   0.389   1.819
 9532TIP3   OH228538   0.688   0.383   2.859
 9532TIP3    H128539   0.682   0.349   2.770
 9532TIP3    H228540   0.781   0.381   2.880
 9533TIP3   OH228541   0.912   0.060   3.532
 9533TIP3    H128542   1.008   0.061   3.538
 9533TIP3    H228543   0.886  -0.020   3.577
 9534TIP3   OH228544   6.539   7.772   2.860
 9534TIP3    H128545   6.599   7.698   2.872
 9534TIP3    H228546   6.595   7.849   2.863
 9535TIP3   OH228547   0.673   0.032   2.940
 9535TIP3    H128548   0.720   0.030   2.857
 9535TIP3    H228549   0.692   0.119   2.976
 9536TIP3   OH228550   6.322   7.551   2.437
 9536TIP3    H128551   6.232   7.545   2.467
 9536TIP3    H228552   6.318   7.608   2.360
 9537TIP3   OH228553   6.539   7.631   3.253
 9537TIP3    H128554   6.492   7.625   3.336
 9537TIP3    H228555   6.476   7.670   3.193
 9538TIP3   OH228556   6.632   7.467   2.607
 9538TIP3    H128557   6.541   7.438   2.611
 9538TIP3    H228558   6.683   7.386   2.605
 9539TIP3   OH228559   6.426   7.345   2.260
 9539TIP3    H128560   6.449   7.398   2.184
 9539TIP3    H228561   6.394   7.408   2.325
 9540TIP3   OH228562   7.072   7.513   2.506
 9540TIP3    H128563   7.080   7.605   2.482
 9540TIP3    H228564   7.106   7.509   2.595
 9541TIP3   OH228565   6.527   7.492   2.018
 9541TIP3    H128566   6.575   7.433   1.960
 9541TIP3    H228567   6.595   7.549   2.054
 9542TIP3   OH228568   7.007   7.671   2.151
 9542TIP3    H128569   7.087   7.651   2.199
 9542TIP3    H228570   7.024   7.755   2.108
 9543TIP3   OH228571   6.841   7.751   3.501
 9543TIP3    H128572   6.802   7.684   3.557
 9543TIP3    H228573   6.933   7.752   3.526
 9544TIP3   OH228574   7.089   7.742   3.616
 9544TIP3    H128575   7.179   7.732   3.582
 9544TIP3    H228576   7.081   7.676   3.684
 9545TIP3   OH228577   5.105   4.953   0.579
 9545TIP3    H128578   5.102   4.880   0.640
 9545TIP3    H228579   5.137   5.027   0.630
 9546TIP3   OH228580   4.759   5.398   0.597
 9546TIP3    H128581   4.821   5.344   0.548
 9546TIP3    H228582   4.768   5.369   0.688
 9547TIP3   OH228583   4.792   4.893   0.381
 9547TIP3    H128584   4.724   4.841   0.337
 9547TIP3    H228585   4.758   4.983   0.379
 9548TIP3   OH228586   4.926   5.243   0.455
 9548TIP3    H128587   4.957   5.160   0.421
 9548TIP3    H228588   4.965   5.309   0.398
 9549TIP3   OH228589   5.036   5.026   0.324
 9549TIP3    H128590   4.980   4.955   0.293
 9549TIP3    H228591   5.069   4.995   0.409
 9550TIP3   OH228592   5.041   4.604   0.334
 9550TIP3    H128593   4.981   4.596   0.408
 9550TIP3    H228594   5.121   4.560   0.362
 9551TIP3   OH228595   4.666   5.164   0.363
 9551TIP3    H128596   4.709   5.208   0.437
 9551TIP3    H228597   4.572   5.173   0.381
 9552TIP3   OH228598   2.372   1.040   6.683
 9552TIP3    H128599   2.371   1.135   6.672
 9552TIP3    H228600   2.462   1.015   6.662
 9553TIP3   OH228601   4.489   5.368   0.220
 9553TIP3    H128602   4.462   5.365   0.129
 9553TIP3    H228603   4.474   5.459   0.247
 9554TIP3   OH228604   1.883   1.255   6.807
 9554TIP3    H128605   1.943   1.190   6.771
 9554TIP3    H228606   1.916   1.272   6.895
 9555TIP3   OH228607   4.753   5.316   0.139
 9555TIP3    H128608   4.669   5.315   0.184
 9555TIP3    H228609   4.812   5.269   0.198
 9556TIP3   OH228610   2.112   0.502   6.820
 9556TIP3    H128611   2.093   0.451   6.741
 9556TIP3    H228612   2.203   0.529   6.811
 9557TIP3   OH228613   4.661   4.856   0.061
 9557TIP3    H128614   4.603   4.930   0.081
 9557TIP3    H228615   4.651   4.797   0.135
 9558TIP3   OH228616   5.448   4.313   0.087
 9558TIP3    H128617   5.387   4.254   0.043
 9558TIP3    H228618   5.430   4.399   0.050
 9559TIP3   OH228619   5.148   5.118   0.015
 9559TIP3    H128620   5.113   5.054   0.078
 9559TIP3    H228621   5.151   5.071  -0.068
 9560TIP3   OH228622   2.061   0.850   6.854
 9560TIP3    H128623   2.121   0.815   6.919
 9560TIP3    H228624   1.975   0.849   6.897
 9561TIP3   OH228625   2.404   1.309   6.669
 9561TIP3    H128626   2.445   1.391   6.640
 9561TIP3    H228627   2.321   1.337   6.708
 9562TIP3   OH228628   5.058   4.783   0.121
 9562TIP3    H128629   5.038   4.721   0.191
 9562TIP3    H228630   5.154   4.782   0.115
 9563TIP3   OH228631   4.474   5.046   0.118
 9563TIP3    H128632   4.417   5.052   0.195
 9563TIP3    H228633   4.488   5.137   0.092
 9564TIP3   OH228634   5.187   5.478   0.702
 9564TIP3    H128635   5.140   5.521   0.630
 9564TIP3    H228636   5.279   5.484   0.677
 9565TIP3   OH228637   1.590   1.002   6.774
 9565TIP3    H128638   1.596   0.971   6.864
 9565TIP3    H228639   1.667   0.966   6.730
 9566TIP3   OH228640   2.029   1.064   6.674
 9566TIP3    H128641   2.065   0.999   6.733
 9566TIP3    H228642   2.088   1.064   6.599
 9567TIP3   OH228643   2.362   0.570   6.708
 9567TIP3    H128644   2.351   0.524   6.625
 9567TIP3    H228645   2.328   0.658   6.692
 9568TIP3   OH228646   1.361   1.320   6.934
 9568TIP3    H128647   1.455   1.303   6.930
 9568TIP3    H228648   1.342   1.368   6.854
 9569TIP3   OH228649   5.457   5.548   0.647
 9569TIP3    H128650   5.473   5.614   0.715
 9569TIP3    H228651   5.500   5.583   0.570
 9570TIP3   OH228652   5.342   4.769   0.105
 9570TIP3    H128653   5.413   4.828   0.082
 9570TIP3    H228654   5.372   4.724   0.183
 9571TIP3   OH228655   5.456   4.636   0.308
 9571TIP3    H128656   5.394   4.595   0.368
 9571TIP3    H228657   5.524   4.672   0.364
 9572TIP3   OH228658   5.494   5.032   0.733
 9572TIP3    H128659   5.558   4.963   0.716
 9572TIP3    H228660   5.506   5.094   0.661
 9573TIP3   OH228661   2.558   0.539   6.893
 9573TIP3    H128662   2.490   0.540   6.826
 9573TIP3    H228663   2.536   0.612   6.950
 9574TIP3   OH228664   2.440   0.198   6.841
 9574TIP3    H128665   2.399   0.263   6.785
 9574TIP3    H228666   2.392   0.117   6.823
 9575TIP3   OH228667   5.273   4.489   0.460
 9575TIP3    H128668   5.295   4.397   0.445
 9575TIP3    H228669   5.277   4.500   0.555
 9576TIP3   OH228670   5.023   5.425   0.282
 9576TIP3    H128671   5.074   5.413   0.202
 9576TIP3    H228672   5.073   5.489   0.333
 9577TIP3   OH228673   1.625   1.263   6.891
 9577TIP3    H128674   1.714   1.281   6.861
 9577TIP3    H228675   1.597   1.187   6.839
 9578TIP3   OH228676   5.176   5.385   0.056
 9578TIP3    H128677   5.171   5.290   0.047
 9578TIP3    H228678   5.134   5.419  -0.022
 9579TIP3   OH228679   3.827   0.896   6.948
 9579TIP3    H128680   3.803   0.987   6.929
 9579TIP3    H228681   3.756   0.844   6.910
 9580TIP3   OH228682   6.658   4.907   0.399
 9580TIP3    H128683   6.694   4.879   0.482
 9580TIP3    H228684   6.625   4.827   0.358
 9581TIP3   OH228685   5.967   4.830   0.729
 9581TIP3    H128686   5.960   4.786   0.814
 9581TIP3    H228687   6.057   4.814   0.701
 9582TIP3   OH228688   6.907   5.207   0.075
 9582TIP3    H128689   6.898   5.136   0.139
 9582TIP3    H228690   6.941   5.281   0.126
 9583TIP3   OH228691   5.943   5.213   0.480
 9583TIP3    H128692   5.925   5.119   0.477
 9583TIP3    H228693   6.036   5.220   0.460
 9584TIP3   OH228694   5.625   4.420   0.277
 9584TIP3    H128695   5.577   4.503   0.283
 9584TIP3    H228696   5.571   4.364   0.222
 9585TIP3   OH228697   5.691   4.710   0.430
 9585TIP3    H128698   5.726   4.631   0.472
 9585TIP3    H228699   5.760   4.737   0.369
 9586TIP3   OH228700   6.558   5.665   0.086
 9586TIP3    H128701   6.599   5.596   0.034
 9586TIP3    H228702   6.554   5.630   0.175
 9587TIP3   OH228703   6.467   5.130   0.438
 9587TIP3    H128704   6.500   5.049   0.398
 9587TIP3    H228705   6.546   5.179   0.461
 9588TIP3   OH228706   6.880   4.628   0.493
 9588TIP3    H128707   6.929   4.554   0.528
 9588TIP3    H228708   6.856   4.601   0.404
 9589TIP3   OH228709   6.189   4.264   0.417
 9589TIP3    H128710   6.174   4.344   0.367
 9589TIP3    H228711   6.117   4.206   0.392
 9590TIP3   OH228712   6.873   4.399   0.110
 9590TIP3    H128713   6.929   4.357   0.175
 9590TIP3    H228714   6.927   4.406   0.032
 9591TIP3   OH228715   5.818   4.497   0.531
 9591TIP3    H128716   5.895   4.487   0.587
 9591TIP3    H228717   5.832   4.433   0.461
 9592TIP3   OH228718   6.282   4.692   0.344
 9592TIP3    H128719   6.374   4.671   0.356
 9592TIP3    H228720   6.242   4.609   0.316
 9593TIP3   OH228721   7.541   4.664   0.607
 9593TIP3    H128722   7.452   4.693   0.588
 9593TIP3    H228723   7.567   4.715   0.684
 9594TIP3   OH228724   3.714   1.115   6.819
 9594TIP3    H128725   3.685   1.100   6.729
 9594TIP3    H228726   3.672   1.197   6.845
 9595TIP3   OH228727   6.328   5.059   0.664
 9595TIP3    H128728   6.259   5.119   0.690
 9595TIP3    H228729   6.370   5.101   0.589
 9596TIP3   OH228730   6.062   4.432   0.615
 9596TIP3    H128731   6.131   4.487   0.652
 9596TIP3    H228732   6.109   4.363   0.568
 9597TIP3   OH228733   6.130   5.217   0.774
 9597TIP3    H128734   6.075   5.258   0.707
 9597TIP3    H228735   6.072   5.211   0.851
 9598TIP3   OH228736   2.718   0.931   6.922
 9598TIP3    H128737   2.648   0.948   6.859
 9598TIP3    H228738   2.736   1.016   6.962
 9599TIP3   OH228739   6.975   5.454   0.238
 9599TIP3    H128740   6.887   5.443   0.274
 9599TIP3    H228741   6.972   5.536   0.190
 9600TIP3   OH228742   3.844   1.488   6.844
 9600TIP3    H128743   3.889   1.405   6.827
 9600TIP3    H228744   3.902   1.555   6.809
 9601TIP3   OH228745   3.983   1.271   6.764
 9601TIP3    H128746   3.965   1.191   6.714
 9601TIP3    H228747   4.021   1.239   6.846
 9602TIP3   OH228748   7.201   5.362   0.580
 9602TIP3    H128749   7.194   5.284   0.524
 9602TIP3    H228750   7.188   5.436   0.520
 9603TIP3   OH228751   3.660   0.757   6.774
 9603TIP3    H128752   3.581   0.806   6.754
 9603TIP3    H228753   3.705   0.748   6.690
 9604TIP3   OH228754   3.621   0.530   6.500
 9604TIP3    H128755   3.690   0.583   6.540
 9604TIP3    H228756   3.668   0.465   6.448
 9605TIP3   OH228757   7.398   5.005   0.427
 9605TIP3    H128758   7.315   5.052   0.434
 9605TIP3    H228759   7.428   5.022   0.338
 9606TIP3   OH228760   4.008   0.833   6.752
 9606TIP3    H128761   3.953   0.856   6.827
 9606TIP3    H228762   4.093   0.810   6.790
 9607TIP3   OH228763   7.076   4.895   0.707
 9607TIP3    H128764   7.066   4.967   0.769
 9607TIP3    H228765   6.990   4.888   0.665
 9608TIP3   OH228766   6.078   4.834   0.225
 9608TIP3    H128767   6.034   4.776   0.162
 9608TIP3    H228768   6.152   4.783   0.258
 9609TIP3   OH228769   6.208   5.245   0.377
 9609TIP3    H128770   6.186   5.211   0.291
 9609TIP3    H228771   6.296   5.210   0.395
 9610TIP3   OH228772   6.209   4.824   0.580
 9610TIP3    H128773   6.234   4.792   0.494
 9610TIP3    H228774   6.256   4.907   0.590
 9611TIP3   OH228775   6.730   5.448   0.356
 9611TIP3    H128776   6.721   5.524   0.414
 9611TIP3    H228777   6.722   5.372   0.414
 9612TIP3   OH228778   6.333   5.402   0.850
 9612TIP3    H128779   6.288   5.427   0.931
 9612TIP3    H228780   6.289   5.322   0.823
 9613TIP3   OH228781   3.850   0.691   6.575
 9613TIP3    H128782   3.905   0.750   6.627
 9613TIP3    H228783   3.874   0.709   6.484
 9614TIP3   OH228784   3.592   1.374   6.857
 9614TIP3    H128785   3.677   1.418   6.861
 9614TIP3    H228786   3.536   1.435   6.808
 9615TIP3   OH228787   6.085   5.572   0.920
 9615TIP3    H128788   6.089   5.517   0.841
 9615TIP3    H228789   6.145   5.644   0.903
 9616TIP3   OH228790   5.939   4.671   0.040
 9616TIP3    H128791   5.873   4.711  -0.018
 9616TIP3    H228792   5.910   4.581   0.050
 9617TIP3   OH228793   4.168   1.299   6.174
 9617TIP3    H128794   4.173   1.394   6.159
 9617TIP3    H228795   4.258   1.268   6.161
 9618TIP3   OH228796   5.577   5.265   0.558
 9618TIP3    H128797   5.671   5.249   0.560
 9618TIP3    H228798   5.564   5.339   0.616
 9619TIP3   OH228799   7.436   5.705   0.632
 9619TIP3    H128800   7.442   5.610   0.642
 9619TIP3    H228801   7.354   5.729   0.674
 9620TIP3   OH228802   6.582   5.491   0.802
 9620TIP3    H128803   6.566   5.585   0.799
 9620TIP3    H228804   6.495   5.451   0.806
 9621TIP3   OH228805   3.471   1.609   6.657
 9621TIP3    H128806   3.435   1.593   6.570
 9621TIP3    H228807   3.444   1.698   6.678
 9622TIP3   OH228808   5.730   5.464   0.110
 9622TIP3    H128809   5.799   5.454   0.175
 9622TIP3    H228810   5.650   5.437   0.155
 9623TIP3   OH228811   3.678   1.515   6.295
 9623TIP3    H128812   3.733   1.447   6.256
 9623TIP3    H228813   3.712   1.526   6.383
 9624TIP3   OH228814   3.726   1.566   6.567
 9624TIP3    H128815   3.639   1.572   6.607
 9624TIP3    H228816   3.781   1.528   6.635
 9625TIP3   OH228817   7.328   4.830   0.886
 9625TIP3    H128818   7.253   4.872   0.843
 9625TIP3    H228819   7.296   4.744   0.912
 9626TIP3   OH228820   7.127   4.636   0.866
 9626TIP3    H128821   7.105   4.546   0.842
 9626TIP3    H228822   7.100   4.688   0.790
 9627TIP3   OH228823   3.932   0.729   6.321
 9627TIP3    H128824   3.889   0.709   6.238
 9627TIP3    H228825   4.010   0.779   6.296
 9628TIP3   OH228826   6.256   4.591   0.712
 9628TIP3    H128827   6.281   4.619   0.801
 9628TIP3    H228828   6.249   4.673   0.663
 9629TIP3   OH228829   6.138   4.471   0.251
 9629TIP3    H128830   6.045   4.451   0.263
 9629TIP3    H228831   6.157   4.444   0.161
 9630TIP3   OH228832   3.792   0.556   6.910
 9630TIP3    H128833   3.744   0.626   6.867
 9630TIP3    H228834   3.857   0.528   6.846
 9631TIP3   OH228835   6.772   4.620   0.227
 9631TIP3    H128836   6.718   4.665   0.162
 9631TIP3    H228837   6.797   4.538   0.185
 9632TIP3   OH228838   5.712   4.230   0.073
 9632TIP3    H128839   5.727   4.225  -0.022
 9632TIP3    H228840   5.619   4.250   0.081
 9633TIP3   OH228841   6.791   4.831   0.638
 9633TIP3    H128842   6.828   4.764   0.581
 9633TIP3    H228843   6.772   4.785   0.720
 9634TIP3   OH228844   5.886   4.347   0.293
 9634TIP3    H128845   5.797   4.382   0.287
 9634TIP3    H228846   5.885   4.267   0.241
 9635TIP3   OH228847   3.350   0.364   6.943
 9635TIP3    H128848   3.440   0.350   6.914
 9635TIP3    H228849   3.297   0.353   6.864
 9636TIP3   OH228850   3.184   0.350   6.714
 9636TIP3    H128851   3.112   0.324   6.657
 9636TIP3    H228852   3.245   0.396   6.657
 9637TIP3   OH228853   7.136   6.061   0.722
 9637TIP3    H128854   7.132   6.084   0.629
 9637TIP3    H228855   7.214   6.107   0.755
 9638TIP3   OH228856   6.542   4.624   0.399
 9638TIP3    H128857   6.626   4.599   0.361
 9638TIP3    H228858   6.548   4.596   0.491
 9639TIP3   OH228859   6.552   4.558   0.662
 9639TIP3    H128860   6.474   4.512   0.694
 9639TIP3    H228861   6.602   4.577   0.741
 9640TIP3   OH228862   3.425   0.902   6.726
 9640TIP3    H128863   3.356   0.836   6.714
 9640TIP3    H228864   3.411   0.936   6.814
 9641TIP3   OH228865   7.162   5.148   0.414
 9641TIP3    H128866   7.190   5.195   0.335
 9641TIP3    H228867   7.081   5.104   0.388
 9642TIP3   OH228868   3.868   0.283   6.551
 9642TIP3    H128869   3.808   0.233   6.607
 9642TIP3    H228870   3.905   0.349   6.609
 9643TIP3   OH228871   6.664   5.224   0.776
 9643TIP3    H128872   6.684   5.178   0.858
 9643TIP3    H228873   6.641   5.313   0.804
 9644TIP3   OH228874   3.968   0.479   6.710
 9644TIP3    H128875   4.063   0.488   6.719
 9644TIP3    H228876   3.942   0.553   6.656
 9645TIP3   OH228877   5.953   4.945   0.449
 9645TIP3    H128878   5.996   4.905   0.374
 9645TIP3    H228879   5.975   4.888   0.523
 9646TIP3   OH228880   3.578   1.055   6.558
 9646TIP3    H128881   3.529   1.137   6.559
 9646TIP3    H228882   3.526   0.996   6.613
 9647TIP3   OH228883   6.834   5.490   0.687
 9647TIP3    H128884   6.743   5.464   0.697
 9647TIP3    H228885   6.842   5.570   0.739
 9648TIP3   OH228886   4.398   0.552   6.516
 9648TIP3    H128887   4.342   0.500   6.459
 9648TIP3    H228888   4.389   0.641   6.483
 9649TIP3   OH228889   7.451   5.420   0.664
 9649TIP3    H128890   7.356   5.411   0.661
 9649TIP3    H228891   7.481   5.389   0.579
 9650TIP3   OH228892   4.098   1.366   6.436
 9650TIP3    H128893   4.077   1.293   6.495
 9650TIP3    H228894   4.116   1.325   6.352
 9651TIP3   OH228895   6.927   5.009   0.331
 9651TIP3    H128896   6.836   4.982   0.344
 9651TIP3    H228897   6.968   4.933   0.290
 9652TIP3   OH228898   6.065   5.242   0.099
 9652TIP3    H128899   6.069   5.314   0.036
 9652TIP3    H228900   5.971   5.228   0.114
 9653TIP3   OH228901   2.784   0.528   6.736
 9653TIP3    H128902   2.835   0.607   6.755
 9653TIP3    H228903   2.709   0.533   6.795
 9654TIP3   OH228904   6.191   5.000   0.032
 9654TIP3    H128905   6.161   5.089   0.052
 9654TIP3    H228906   6.159   4.947   0.105
 9655TIP3   OH228907   6.360   5.574   0.579
 9655TIP3    H128908   6.447   5.540   0.556
 9655TIP3    H228909   6.342   5.639   0.510
 9656TIP3   OH228910   3.140   1.471   6.885
 9656TIP3    H128911   3.057   1.484   6.931
 9656TIP3    H228912   3.181   1.558   6.885
 9657TIP3   OH228913   6.718   5.216   0.512
 9657TIP3    H128914   6.707   5.209   0.607
 9657TIP3    H228915   6.790   5.156   0.492
 9658TIP3   OH228916   3.861   1.099   6.343
 9658TIP3    H128917   3.912   1.077   6.421
 9658TIP3    H228918   3.772   1.070   6.365
 9659TIP3   OH228919   6.957   5.750   0.566
 9659TIP3    H128920   6.880   5.697   0.548
 9659TIP3    H228921   6.958   5.816   0.496
 9660TIP3   OH228922   4.197   1.576   6.159
 9660TIP3    H128923   4.241   1.647   6.111
 9660TIP3    H228924   4.117   1.616   6.192
 9661TIP3   OH228925   4.022   1.036   6.562
 9661TIP3    H128926   4.008   0.968   6.628
 9661TIP3    H228927   4.116   1.033   6.544
 9662TIP3   OH228928   5.779   5.449   0.698
 9662TIP3    H128929   5.798   5.366   0.742
 9662TIP3    H228930   5.759   5.509   0.770
 9663TIP3   OH228931   3.220   1.079   6.349
 9663TIP3    H128932   3.238   1.001   6.297
 9663TIP3    H228933   3.191   1.045   6.434
 9664TIP3   OH228934   3.140   1.085   6.654
 9664TIP3    H128935   3.226   1.050   6.675
 9664TIP3    H228936   3.154   1.178   6.638
 9665TIP3   OH228937   2.912   0.765   6.809
 9665TIP3    H128938   2.851   0.823   6.854
 9665TIP3    H228939   2.962   0.823   6.752
 9666TIP3   OH228940   3.424   1.278   6.563
 9666TIP3    H128941   3.341   1.312   6.597
 9666TIP3    H228942   3.447   1.338   6.493
 9667TIP3   OH228943   6.471   4.342  -0.003
 9667TIP3    H128944   6.520   4.424  -0.012
 9667TIP3    H228945   6.484   4.316   0.088
 9668TIP3   OH228946   6.737   4.686   0.865
 9668TIP3    H128947   6.760   4.741   0.940
 9668TIP3    H228948   6.787   4.606   0.879
 9669TIP3   OH228949   3.156   1.360   6.630
 9669TIP3    H128950   3.142   1.427   6.563
 9669TIP3    H228951   3.159   1.408   6.713
 9670TIP3   OH228952   7.016   4.770   0.214
 9670TIP3    H128953   6.939   4.717   0.233
 9670TIP3    H228954   7.088   4.725   0.259
 9671TIP3   OH228955   2.840   0.259   6.741
 9671TIP3    H128956   2.834   0.354   6.735
 9671TIP3    H228957   2.749   0.228   6.734
 9672TIP3   OH228958   6.986   5.726   0.157
 9672TIP3    H128959   6.941   5.770   0.086
 9672TIP3    H228960   7.079   5.741   0.141
 9673TIP3   OH228961   5.587   5.201   0.054
 9673TIP3    H128962   5.564   5.206   0.147
 9673TIP3    H228963   5.553   5.282   0.017
 9674TIP3   OH228964   3.389   1.279   6.255
 9674TIP3    H128965   3.336   1.209   6.293
 9674TIP3    H228966   3.461   1.233   6.211
 9675TIP3   OH228967   6.891   5.609   0.954
 9675TIP3    H128968   6.929   5.533   0.911
 9675TIP3    H228969   6.964   5.669   0.967
 9676TIP3   OH228970   3.824   1.321   6.164
 9676TIP3    H128971   3.868   1.260   6.223
 9676TIP3    H228972   3.878   1.321   6.085
 9677TIP3   OH228973   3.029   0.786   6.476
 9677TIP3    H128974   3.084   0.757   6.549
 9677TIP3    H228975   3.090   0.796   6.403
 9678TIP3   OH228976   3.548   0.999   6.288
 9678TIP3    H128977   3.549   1.012   6.382
 9678TIP3    H228978   3.549   0.904   6.277
 9679TIP3   OH228979   6.992   5.259   0.729
 9679TIP3    H128980   7.070   5.288   0.682
 9679TIP3    H228981   6.923   5.320   0.702
 9680TIP3   OH228982   3.234   0.701   6.696
 9680TIP3    H128983   3.219   0.658   6.780
 9680TIP3    H228984   3.273   0.633   6.641
 9681TIP3   OH228985   3.341   0.501   6.539
 9681TIP3    H128986   3.312   0.503   6.448
 9681TIP3    H228987   3.437   0.503   6.533
 9682TIP3   OH228988   4.160   0.827   6.197
 9682TIP3    H128989   4.141   0.782   6.114
 9682TIP3    H228990   4.132   0.918   6.181
 9683TIP3   OH228991   6.496   4.902   0.816
 9683TIP3    H128992   6.576   4.872   0.774
 9683TIP3    H228993   6.455   4.960   0.752
 9684TIP3   OH228994   7.127   5.118   0.917
 9684TIP3    H128995   7.066   5.163   0.859
 9684TIP3    H228996   7.212   5.126   0.873
 9685TIP3   OH228997   3.152   1.557   6.439
 9685TIP3    H128998   3.246   1.551   6.423
 9685TIP3    H228999   3.118   1.609   6.366
 9686TIP3   OH229000   2.640   0.936   6.633
 9686TIP3    H129001   2.734   0.917   6.627
 9686TIP3    H229002   2.598   0.855   6.603
 9687TIP3   OH229003   5.381   5.558   0.139
 9687TIP3    H129004   5.317   5.512   0.084
 9687TIP3    H229005   5.413   5.491   0.199
 9688TIP3   OH229006   5.533   5.396   0.310
 9688TIP3    H129007   5.510   5.330   0.375
 9688TIP3    H229008   5.574   5.466   0.360
 9689TIP3   OH229009   7.240   5.813   0.119
 9689TIP3    H129010   7.271   5.851   0.201
 9689TIP3    H229011   7.303   5.843   0.054
 9690TIP3   OH229012   7.266   5.830   0.407
 9690TIP3    H129013   7.223   5.746   0.395
 9690TIP3    H229014   7.347   5.810   0.454
 9691TIP3   OH229015   7.312   5.518   0.952
 9691TIP3    H129016   7.260   5.505   1.031
 9691TIP3    H229017   7.361   5.599   0.968
 9692TIP3   OH229018   4.300   1.015   6.531
 9692TIP3    H129019   4.364   1.079   6.499
 9692TIP3    H229020   4.341   0.977   6.609
 9693TIP3   OH229021   4.423   0.887   6.736
 9693TIP3    H129022   4.359   0.848   6.795
 9693TIP3    H229023   4.489   0.925   6.794
 9694TIP3   OH229024   7.313   5.282   0.225
 9694TIP3    H129025   7.368   5.215   0.183
 9694TIP3    H229026   7.312   5.354   0.162
 9695TIP3   OH229027   7.141   5.580   0.421
 9695TIP3    H129028   7.068   5.619   0.469
 9695TIP3    H229029   7.100   5.533   0.348
 9696TIP3   OH229030   4.354   0.790   6.383
 9696TIP3    H129031   4.289   0.796   6.313
 9696TIP3    H229032   4.337   0.864   6.440
 9697TIP3   OH229033   4.226   0.448   6.321
 9697TIP3    H129034   4.209   0.531   6.276
 9697TIP3    H229035   4.175   0.384   6.272
 9698TIP3   OH229036   4.236   0.751   6.882
 9698TIP3    H129037   4.241   0.658   6.861
 9698TIP3    H229038   4.224   0.754   6.977
 9699TIP3   OH229039   5.698   4.863   0.666
 9699TIP3    H129040   5.689   4.815   0.583
 9699TIP3    H229041   5.789   4.848   0.693
 9700TIP3   OH229042   7.363   5.168   0.791
 9700TIP3    H129043   7.430   5.100   0.787
 9700TIP3    H229044   7.391   5.233   0.726
 9701TIP3   OH229045   7.546   4.973   0.810
 9701TIP3    H129046   7.472   4.925   0.846
 9701TIP3    H229047   7.623   4.920   0.831
 9702TIP3   OH229048   4.239   0.499   6.749
 9702TIP3    H129049   4.266   0.423   6.801
 9702TIP3    H229050   4.302   0.502   6.677
 9703TIP3   OH229051   7.226   4.645   0.334
 9703TIP3    H129052   7.310   4.666   0.292
 9703TIP3    H229053   7.238   4.669   0.425
 9704TIP3   OH229054   7.294   4.785   0.564
 9704TIP3    H129055   7.218   4.820   0.611
 9704TIP3    H229056   7.332   4.861   0.520
 9705TIP3   OH229057   3.990   1.674   6.716
 9705TIP3    H129058   4.035   1.656   6.633
 9705TIP3    H229059   4.045   1.739   6.759
 9706TIP3   OH229060   6.104   5.458   0.645
 9706TIP3    H129061   6.157   5.402   0.702
 9706TIP3    H229062   6.165   5.487   0.577
 9707TIP3   OH229063   6.530   5.761   0.814
 9707TIP3    H129064   6.562   5.762   0.904
 9707TIP3    H229065   6.596   5.810   0.764
 9708TIP3   OH229066   6.727   5.908   0.700
 9708TIP3    H129067   6.794   5.869   0.643
 9708TIP3    H229068   6.775   5.968   0.756
 9709TIP3   OH229069   5.759   5.768   0.750
 9709TIP3    H129070   5.682   5.811   0.713
 9709TIP3    H229071   5.804   5.838   0.798
 9710TIP3   OH229072   5.967   5.857   0.590
 9710TIP3    H129073   5.889   5.809   0.618
 9710TIP3    H229074   5.968   5.848   0.495
 9711TIP3   OH229075   6.453   5.803   0.366
 9711TIP3    H129076   6.383   5.816   0.302
 9711TIP3    H229077   6.466   5.890   0.405
 9712TIP3   OH229078   6.707   5.721   0.441
 9712TIP3    H129079   6.618   5.742   0.414
 9712TIP3    H229080   6.761   5.784   0.393
 9713TIP3   OH229081   6.916   5.908   0.349
 9713TIP3    H129082   6.901   5.993   0.306
 9713TIP3    H229083   6.943   5.850   0.279
 9714TIP3   OH229084   5.694   5.564   0.467
 9714TIP3    H129085   5.720   5.542   0.556
 9714TIP3    H229086   5.760   5.523   0.412
 9715TIP3   OH229087   5.886   5.432   0.327
 9715TIP3    H129088   5.897   5.355   0.383
 9715TIP3    H229089   5.973   5.471   0.323
 9716TIP3   OH229090   6.148   5.528   0.326
 9716TIP3    H129091   6.179   5.440   0.308
 9716TIP3    H229092   6.210   5.563   0.391
 9717TIP3   OH229093   2.666   1.342   6.772
 9717TIP3    H129094   2.584   1.302   6.741
 9717TIP3    H229095   2.647   1.436   6.773
 9718TIP3   OH229096   3.420   1.515   6.387
 9718TIP3    H129097   3.506   1.542   6.355
 9718TIP3    H229098   3.394   1.443   6.330
 9719TIP3   OH229099   4.125   1.631   6.481
 9719TIP3    H129100   4.121   1.536   6.468
 9719TIP3    H229101   4.087   1.668   6.401
 9720TIP3   OH229102   2.736   1.322   6.492
 9720TIP3    H129103   2.726   1.417   6.497
 9720TIP3    H229104   2.813   1.309   6.437
 9721TIP3   OH229105   7.183   5.792   0.729
 9721TIP3    H129106   7.113   5.761   0.671
 9721TIP3    H229107   7.175   5.887   0.729
 9722TIP3   OH229108   5.625   1.154   6.434
 9722TIP3    H129109   5.600   1.244   6.415
 9722TIP3    H229110   5.553   1.102   6.398
 9723TIP3   OH229111   5.629   1.155   6.820
 9723TIP3    H129112   5.660   1.130   6.907
 9723TIP3    H229113   5.585   1.076   6.787
 9724TIP3   OH229114   7.758   5.055   0.242
 9724TIP3    H129115   7.786   4.984   0.300
 9724TIP3    H229116   7.837   5.107   0.227
 9725TIP3   OH229117   5.873   1.457   6.500
 9725TIP3    H129118   5.856   1.388   6.563
 9725TIP3    H229119   5.900   1.532   6.554
 9726TIP3   OH229120   4.901   1.457   6.906
 9726TIP3    H129121   4.889   1.362   6.907
 9726TIP3    H229122   4.996   1.470   6.897
 9727TIP3   OH229123   4.592   0.673   6.702
 9727TIP3    H129124   4.540   0.753   6.714
 9727TIP3    H229125   4.536   0.616   6.649
 9728TIP3   OH229126   4.658   0.958   6.863
 9728TIP3    H129127   4.698   0.878   6.896
 9728TIP3    H229128   4.721   0.992   6.800
 9729TIP3   OH229129   5.526   1.919   6.516
 9729TIP3    H129130   5.567   1.849   6.464
 9729TIP3    H229131   5.510   1.879   6.601
 9730TIP3   OH229132   5.428   1.380   6.865
 9730TIP3    H129133   5.461   1.303   6.819
 9730TIP3    H229134   5.507   1.428   6.890
 9731TIP3   OH229135   5.843   0.880   6.909
 9731TIP3    H129136   5.862   0.790   6.936
 9731TIP3    H229137   5.806   0.871   6.821
 9732TIP3   OH229138   5.162   0.502   6.829
 9732TIP3    H129139   5.142   0.591   6.798
 9732TIP3    H229140   5.081   0.453   6.815
 9733TIP3   OH229141   5.835   0.651   6.534
 9733TIP3    H129142   5.892   0.607   6.597
 9733TIP3    H229143   5.886   0.655   6.453
 9734TIP3   OH229144   7.624   4.748   0.018
 9734TIP3    H129145   7.712   4.753   0.055
 9734TIP3    H229146   7.633   4.688  -0.056
 9735TIP3   OH229147   5.247   0.941   6.767
 9735TIP3    H129148   5.339   0.919   6.781
 9735TIP3    H229149   5.206   0.858   6.740
 9736TIP3   OH229150   0.806   4.898   0.124
 9736TIP3    H129151   0.735   4.953   0.089
 9736TIP3    H229152   0.867   4.960   0.163
 9737TIP3   OH229153   5.516   1.375   6.302
 9737TIP3    H129154   5.478   1.356   6.217
 9737TIP3    H229155   5.474   1.457   6.330
 9738TIP3   OH229156   8.113   5.309   0.148
 9738TIP3    H129157   8.052   5.373   0.185
 9738TIP3    H229158   8.154   5.355   0.075
 9739TIP3   OH229159   7.879   4.714   0.088
 9739TIP3    H129160   7.946   4.760   0.139
 9739TIP3    H229161   7.904   4.622   0.094
 9740TIP3   OH229162   7.940   5.505   0.249
 9740TIP3    H129163   7.917   5.589   0.209
 9740TIP3    H229164   7.864   5.483   0.304
 9741TIP3   OH229165   4.498   1.185   6.423
 9741TIP3    H129166   4.459   1.210   6.339
 9741TIP3    H229167   4.528   1.268   6.461
 9742TIP3   OH229168   5.939   1.703   6.664
 9742TIP3    H129169   5.854   1.690   6.705
 9742TIP3    H229170   5.932   1.787   6.619
 9743TIP3   OH229171   5.643   1.745   6.335
 9743TIP3    H129172   5.688   1.663   6.318
 9743TIP3    H229173   5.700   1.812   6.297
 9744TIP3   OH229174   5.785   1.529   6.248
 9744TIP3    H129175   5.747   1.451   6.208
 9744TIP3    H229176   5.823   1.498   6.330
 9745TIP3   OH229177   0.499   5.619   0.064
 9745TIP3    H129178   0.487   5.541   0.010
 9745TIP3    H229179   0.481   5.693   0.006
 9746TIP3   OH229180   5.458   1.012   6.263
 9746TIP3    H129181   5.378   1.060   6.245
 9746TIP3    H229182   5.501   1.005   6.178
 9747TIP3   OH229183   5.417   0.790   5.982
 9747TIP3    H129184   5.486   0.841   6.025
 9747TIP3    H229185   5.465   0.719   5.939
 9748TIP3   OH229186   6.360   1.255   6.852
 9748TIP3    H129187   6.277   1.302   6.858
 9748TIP3    H229188   6.392   1.273   6.764
 9749TIP3   OH229189   5.804   1.090   6.237
 9749TIP3    H129190   5.749   1.114   6.312
 9749TIP3    H229191   5.888   1.068   6.276
 9750TIP3   OH229192   0.370   5.137   0.215
 9750TIP3    H129193   0.369   5.217   0.267
 9750TIP3    H229194   0.286   5.137   0.169
 9751TIP3   OH229195   5.038   1.084   6.653
 9751TIP3    H129196   4.998   1.027   6.588
 9751TIP3    H229197   5.114   1.034   6.685
 9752TIP3   OH229198   5.168   1.496   6.801
 9752TIP3    H129199   5.146   1.462   6.714
 9752TIP3    H229200   5.255   1.462   6.820
 9753TIP3   OH229201   8.009   5.062   0.075
 9753TIP3    H129202   8.037   5.035  -0.013
 9753TIP3    H229203   8.052   5.147   0.089
 9754TIP3   OH229204   5.702   1.695   6.788
 9754TIP3    H129205   5.687   1.773   6.841
 9754TIP3    H229206   5.685   1.622   6.848
 9755TIP3   OH229207   8.143   5.621   0.392
 9755TIP3    H129208   8.087   5.682   0.439
 9755TIP3    H229209   8.083   5.567   0.342
 9756TIP3   OH229210   5.646   0.947   6.061
 9756TIP3    H129211   5.702   1.006   6.113
 9756TIP3    H229212   5.670   0.967   5.970
 9757TIP3   OH229213   7.891   5.186   0.491
 9757TIP3    H129214   7.900   5.268   0.540
 9757TIP3    H229215   7.800   5.160   0.504
 9758TIP3   OH229216   5.392   1.624   6.339
 9758TIP3    H129217   5.472   1.676   6.349
 9758TIP3    H229218   5.329   1.684   6.298
 9759TIP3   OH229219   7.938   5.789   0.478
 9759TIP3    H129220   7.907   5.789   0.388
 9759TIP3    H229221   7.860   5.768   0.530
 9760TIP3   OH229222   4.903   0.928   6.456
 9760TIP3    H129223   4.838   0.975   6.403
 9760TIP3    H229224   4.866   0.841   6.470
 9761TIP3   OH229225   5.964   1.555   5.661
 9761TIP3    H129226   5.969   1.649   5.646
 9761TIP3    H229227   6.054   1.523   5.648
 9762TIP3   OH229228   7.518   5.317   0.425
 9762TIP3    H129229   7.455   5.296   0.356
 9762TIP3    H229230   7.557   5.233   0.449
 9763TIP3   OH229231   7.376   5.512   0.061
 9763TIP3    H129232   7.469   5.502   0.044
 9763TIP3    H229233   7.369   5.591   0.114
 9764TIP3   OH229234   0.735   5.964   0.115
 9764TIP3    H129235   0.740   5.869   0.129
 9764TIP3    H229236   0.655   5.991   0.160
 9765TIP3   OH229237   8.342   5.751   0.251
 9765TIP3    H129238   8.341   5.842   0.281
 9765TIP3    H229239   8.272   5.709   0.302
 9766TIP3   OH229240   5.275   1.873   6.140
 9766TIP3    H129241   5.226   1.854   6.060
 9766TIP3    H229242   5.240   1.957   6.170
 9767TIP3   OH229243   4.717   1.714   6.522
 9767TIP3    H129244   4.761   1.711   6.607
 9767TIP3    H229245   4.647   1.649   6.529
 9768TIP3   OH229246   5.475   1.773   5.780
 9768TIP3    H129247   5.530   1.704   5.744
 9768TIP3    H229248   5.506   1.783   5.870
 9769TIP3   OH229249   5.525   1.821   6.051
 9769TIP3    H129250   5.437   1.833   6.087
 9769TIP3    H229251   5.575   1.780   6.121
 9770TIP3   OH229252   0.624   5.081   0.371
 9770TIP3    H129253   0.542   5.110   0.332
 9770TIP3    H229254   0.614   4.986   0.378
 9771TIP3   OH229255   7.722   5.503   0.415
 9771TIP3    H129256   7.774   5.485   0.494
 9771TIP3    H229257   7.651   5.440   0.419
 9772TIP3   OH229258   0.405   4.879   0.335
 9772TIP3    H129259   0.364   4.904   0.418
 9772TIP3    H229260   0.384   4.950   0.275
 9773TIP3   OH229261   5.724   0.989   5.805
 9773TIP3    H129262   5.686   0.967   5.720
 9773TIP3    H229263   5.806   1.034   5.783
 9774TIP3   OH229264   8.072   4.849   0.235
 9774TIP3    H129265   8.012   4.863   0.308
 9774TIP3    H229266   8.058   4.924   0.177
 9775TIP3   OH229267   5.102   0.722   6.677
 9775TIP3    H129268   5.010   0.702   6.691
 9775TIP3    H229269   5.121   0.692   6.588
 9776TIP3   OH229270   5.589   0.812   6.399
 9776TIP3    H129271   5.542   0.883   6.355
 9776TIP3    H229272   5.655   0.785   6.335
 9777TIP3   OH229273   0.114   5.118   0.535
 9777TIP3    H129274   0.087   5.040   0.583
 9777TIP3    H229275   0.207   5.128   0.557
 9778TIP3   OH229276   5.734   0.871   6.654
 9778TIP3    H129277   5.680   0.917   6.591
 9778TIP3    H229278   5.759   0.790   6.610
 9779TIP3   OH229279   7.873   4.874   0.427
 9779TIP3    H129280   7.889   4.936   0.498
 9779TIP3    H229281   7.847   4.793   0.470
 9780TIP3   OH229282   4.671   0.477   6.501
 9780TIP3    H129283   4.689   0.478   6.407
 9780TIP3    H229284   4.577   0.495   6.507
 9781TIP3   OH229285   0.093   5.090   0.121
 9781TIP3    H129286   0.129   5.023   0.063
 9781TIP3    H229287   0.068   5.042   0.200
 9782TIP3   OH229288   4.850   0.595   6.721
 9782TIP3    H129289   4.762   0.631   6.711
 9782TIP3    H229290   4.851   0.517   6.666
 9783TIP3   OH229291   5.145   0.617   6.431
 9783TIP3    H129292   5.236   0.606   6.402
 9783TIP3    H229293   5.094   0.609   6.351
 9784TIP3   OH229294   4.980   0.602   6.200
 9784TIP3    H129295   4.905   0.582   6.144
 9784TIP3    H229296   5.041   0.648   6.144
 9785TIP3   OH229297   0.432   6.315   0.215
 9785TIP3    H129298   0.427   6.338   0.122
 9785TIP3    H229299   0.509   6.362   0.247
 9786TIP3   OH229300   7.885   5.429   0.638
 9786TIP3    H129301   7.966   5.454   0.681
 9786TIP3    H229302   7.821   5.421   0.709
 9787TIP3   OH229303   5.505   0.873   6.832
 9787TIP3    H129304   5.587   0.843   6.792
 9787TIP3    H229305   5.510   0.841   6.922
 9788TIP3   OH229306   8.345   4.809   0.154
 9788TIP3    H129307   8.256   4.803   0.189
 9788TIP3    H229308   8.396   4.850   0.224
 9789TIP3   OH229309   5.225   1.158   6.216
 9789TIP3    H129310   5.155   1.094   6.201
 9789TIP3    H229311   5.209   1.192   6.304
 9790TIP3   OH229312   6.125   1.395   6.841
 9790TIP3    H129313   6.150   1.443   6.762
 9790TIP3    H229314   6.042   1.353   6.818
 9791TIP3   OH229315   5.654   0.548   6.039
 9791TIP3    H129316   5.601   0.495   6.099
 9791TIP3    H229317   5.700   0.610   6.096
 9792TIP3   OH229318   8.463   5.487   0.271
 9792TIP3    H129319   8.486   5.462   0.361
 9792TIP3    H229320   8.423   5.574   0.281
 9793TIP3   OH229321   5.767   0.737   6.198
 9793TIP3    H129322   5.862   0.745   6.206
 9793TIP3    H229323   5.741   0.810   6.143
 9794TIP3   OH229324   4.924   1.180   6.889
 9794TIP3    H129325   4.960   1.154   6.804
 9794TIP3    H229326   4.964   1.119   6.951
 9795TIP3   OH229327   5.372   1.310   6.040
 9795TIP3    H129328   5.327   1.394   6.043
 9795TIP3    H229329   5.320   1.253   6.097
 9796TIP3   OH229330   7.634   5.106   0.565
 9796TIP3    H129331   7.650   5.092   0.658
 9796TIP3    H229332   7.565   5.042   0.543
 9797TIP3   OH229333   8.362   5.227   0.586
 9797TIP3    H129334   8.298   5.172   0.539
 9797TIP3    H229335   8.447   5.197   0.553
 9798TIP3   OH229336   0.120   5.749   0.169
 9798TIP3    H129337   0.025   5.741   0.179
 9798TIP3    H229338   0.149   5.798   0.246
 9799TIP3   OH229339   6.196   0.812   6.005
 9799TIP3    H129340   6.138   0.759   5.951
 9799TIP3    H229341   6.187   0.901   5.971
 9800TIP3   OH229342   0.747   5.677   0.151
 9800TIP3    H129343   0.652   5.670   0.147
 9800TIP3    H229344   0.777   5.647   0.064
 9801TIP3   OH229345   5.903   1.627   5.927
 9801TIP3    H129346   5.872   1.559   5.988
 9801TIP3    H229347   5.912   1.582   5.844
 9802TIP3   OH229348   5.893   1.257   6.758
 9802TIP3    H129349   5.801   1.234   6.774
 9802TIP3    H229350   5.930   1.181   6.715
 9803TIP3   OH229351   5.021   1.488   6.517
 9803TIP3    H129352   5.023   1.567   6.462
 9803TIP3    H229353   4.928   1.469   6.528
 9804TIP3   OH229354   4.583   0.791   6.225
 9804TIP3    H129355   4.631   0.872   6.241
 9804TIP3    H229356   4.508   0.795   6.283
 9805TIP3   OH229357   5.154   1.251   6.460
 9805TIP3    H129358   5.123   1.340   6.477
 9805TIP3    H229359   5.121   1.199   6.533
 9806TIP3   OH229360   8.128   5.835   0.044
 9806TIP3    H129361   8.165   5.907  -0.007
 9806TIP3    H229362   8.202   5.798   0.091
 9807TIP3   OH229363   4.946   1.721   6.368
 9807TIP3    H129364   4.860   1.728   6.410
 9807TIP3    H229365   4.981   1.810   6.370
 9808TIP3   OH229366   0.013   5.470   0.005
 9808TIP3    H129367   0.001   5.470   0.100
 9808TIP3    H229368   0.089   5.414  -0.010
 9809TIP3   OH229369   5.656   1.358   5.829
 9809TIP3    H129370   5.710   1.334   5.905
 9809TIP3    H229371   5.568   1.328   5.853
 9810TIP3   OH229372   0.260   6.001   0.053
 9810TIP3    H129373   0.184   5.943   0.051
 9810TIP3    H229374   0.245   6.064  -0.017
 9811TIP3   OH229375   5.991   1.832   5.645
 9811TIP3    H129376   6.028   1.900   5.588
 9811TIP3    H229377   5.912   1.871   5.682
 9812TIP3   OH229378   5.817   1.289   6.043
 9812TIP3    H129379   5.803   1.224   6.112
 9812TIP3    H229380   5.912   1.288   6.029
 9813TIP3   OH229381   7.563   5.698   0.207
 9813TIP3    H129382   7.614   5.622   0.236
 9813TIP3    H229383   7.598   5.771   0.257
 9814TIP3   OH229384   5.020   1.333   5.828
 9814TIP3    H129385   5.032   1.243   5.799
 9814TIP3    H229386   4.999   1.327   5.921
 9815TIP3   OH229387   4.965   1.343   6.099
 9815TIP3    H129388   5.036   1.314   6.156
 9815TIP3    H229389   4.965   1.438   6.105
 9816TIP3   OH229390   4.696   1.035   6.303
 9816TIP3    H129391   4.632   1.078   6.361
 9816TIP3    H229392   4.713   1.100   6.234
 9817TIP3   OH229393   5.229   1.541   6.047
 9817TIP3    H129394   5.144   1.561   6.084
 9817TIP3    H229395   5.248   1.614   5.987
 9818TIP3   OH229396   5.431   0.593   6.423
 9818TIP3    H129397   5.481   0.674   6.417
 9818TIP3    H229398   5.443   0.564   6.514
 9819TIP3   OH229399   0.036   4.929   0.334
 9819TIP3    H129400   0.031   4.992   0.406
 9819TIP3    H229401   0.082   4.854   0.371
 9820TIP3   OH229402   4.975   1.614   6.115
 9820TIP3    H129403   4.947   1.682   6.053
 9820TIP3    H229404   4.961   1.654   6.201
 9821TIP3   OH229405   5.981   1.016   6.640
 9821TIP3    H129406   5.902   0.965   6.658
 9821TIP3    H229407   6.050   0.970   6.687
 9822TIP3   OH229408   4.696   1.239   6.106
 9822TIP3    H129409   4.759   1.310   6.117
 9822TIP3    H229410   4.735   1.182   6.041
 9823TIP3   OH229411   4.637   0.519   6.231
 9823TIP3    H129412   4.632   0.615   6.224
 9823TIP3    H229413   4.548   0.489   6.210
 9824TIP3   OH229414   5.950   1.974   6.584
 9824TIP3    H129415   5.905   2.019   6.512
 9824TIP3    H229416   6.043   1.987   6.565
 9825TIP3   OH229417   4.554   1.448   6.491
 9825TIP3    H129418   4.494   1.484   6.557
 9825TIP3    H229419   4.532   1.494   6.410
 9826TIP3   OH229420   7.558   6.007   0.630
 9826TIP3    H129421   7.643   6.011   0.674
 9826TIP3    H229422   7.540   5.913   0.621
 9827TIP3   OH229423   8.032   5.966   0.670
 9827TIP3    H129424   8.126   5.951   0.680
 9827TIP3    H229425   8.006   5.909   0.598
 9828TIP3   OH229426   5.182   1.535   5.737
 9828TIP3    H129427   5.125   1.469   5.776
 9828TIP3    H229428   5.258   1.486   5.704
 9829TIP3   OH229429   0.174   5.878   0.405
 9829TIP3    H129430   0.165   5.809   0.471
 9829TIP3    H229431   0.250   5.929   0.434
 9830TIP3   OH229432   5.620   1.577   5.652
 9830TIP3    H129433   5.657   1.511   5.710
 9830TIP3    H229434   5.675   1.574   5.574
 9831TIP3   OH229435   7.680   5.412   0.824
 9831TIP3    H129436   7.705   5.319   0.830
 9831TIP3    H229437   7.597   5.412   0.776
 9832TIP3   OH229438   4.832   1.053   5.962
 9832TIP3    H129439   4.885   1.023   6.036
 9832TIP3    H229440   4.894   1.059   5.889
 9833TIP3   OH229441   8.290   5.500   0.600
 9833TIP3    H129442   8.249   5.517   0.515
 9833TIP3    H229443   8.320   5.409   0.594
 9834TIP3   OH229444   5.344   1.255   5.771
 9834TIP3    H129445   5.344   1.270   5.865
 9834TIP3    H229446   5.345   1.160   5.762
 9835TIP3   OH229447   0.284   5.512   0.207
 9835TIP3    H129448   0.359   5.554   0.163
 9835TIP3    H229449   0.212   5.573   0.193
 9836TIP3   OH229450   7.805   5.159   0.807
 9836TIP3    H129451   7.866   5.087   0.789
 9836TIP3    H229452   7.829   5.188   0.895
 9837TIP3   OH229453   5.032   0.960   6.181
 9837TIP3    H129454   5.011   0.924   6.266
 9837TIP3    H229455   5.070   0.887   6.132
 9838TIP3   OH229456   8.139   5.064   0.468
 9838TIP3    H129457   8.056   5.112   0.466
 9838TIP3    H229458   8.184   5.089   0.387
 9839TIP3   OH229459   5.138   0.753   6.027
 9839TIP3    H129460   5.108   0.759   5.936
 9839TIP3    H229461   5.233   0.759   6.021
 9840TIP3   OH229462   0.159   5.435   0.603
 9840TIP3    H129463   0.231   5.403   0.550
 9840TIP3    H229464   0.146   5.368   0.670
 9841TIP3   OH229465   5.955   1.085   5.685
 9841TIP3    H129466   5.938   1.037   5.604
 9841TIP3    H229467   5.925   1.174   5.667
 9842TIP3   OH229468   8.223   4.839   0.585
 9842TIP3    H129469   8.178   4.777   0.528
 9842TIP3    H229470   8.199   4.925   0.550
 9843TIP3   OH229471   8.301   5.151   0.270
 9843TIP3    H129472   8.382   5.153   0.218
 9843TIP3    H229473   8.242   5.212   0.226
 9844TIP3   OH229474   0.372   5.116   0.638
 9844TIP3    H129475   0.400   5.049   0.700
 9844TIP3    H229476   0.452   5.159   0.610
 9845TIP3   OH229477   0.415   5.364   0.389
 9845TIP3    H129478   0.355   5.416   0.335
 9845TIP3    H229479   0.502   5.382   0.353
 9846TIP3   OH229480   8.118   4.963   0.816
 9846TIP3    H129481   8.053   4.903   0.853
 9846TIP3    H229482   8.164   4.910   0.751
 9847TIP3   OH229483   8.501   4.894   0.629
 9847TIP3    H129484   8.528   4.864   0.716
 9847TIP3    H229485   8.406   4.881   0.628
 9848TIP3   OH229486   4.947   1.814   5.924
 9848TIP3    H129487   5.041   1.807   5.906
 9848TIP3    H229488   4.914   1.868   5.852
 9849TIP3   OH229489   4.426   1.196   6.142
 9849TIP3    H129490   4.518   1.219   6.130
 9849TIP3    H229491   4.417   1.110   6.101
 9850TIP3   OH229492   4.324   1.801   6.565
 9850TIP3    H129493   4.263   1.739   6.525
 9850TIP3    H229494   4.380   1.747   6.622
 9851TIP3   OH229495   4.480   1.653   6.741
 9851TIP3    H129496   4.466   1.585   6.807
 9851TIP3    H229497   4.528   1.722   6.787
 9852TIP3   OH229498   6.210   2.051   6.549
 9852TIP3    H129499   6.226   2.086   6.636
 9852TIP3    H229500   6.260   2.108   6.490
 9853TIP3   OH229501   6.234   2.076   6.829
 9853TIP3    H129502   6.185   1.994   6.822
 9853TIP3    H229503   6.302   2.058   6.893
 9854TIP3   OH229504   0.611   5.770   0.459
 9854TIP3    H129505   0.538   5.775   0.521
 9854TIP3    H229506   0.653   5.855   0.464
 9855TIP3   OH229507   6.096   1.272   6.019
 9855TIP3    H129508   6.161   1.336   5.988
 9855TIP3    H229509   6.136   1.233   6.097
 9856TIP3   OH229510   6.221   1.145   6.224
 9856TIP3    H129511   6.154   1.105   6.280
 9856TIP3    H229512   6.284   1.182   6.285
 9857TIP3   OH229513   6.280   1.532   6.655
 9857TIP3    H129514   6.332   1.464   6.612
 9857TIP3    H229515   6.269   1.600   6.588
 9858TIP3   OH229516   6.104   1.833   6.847
 9858TIP3    H129517   6.036   1.872   6.901
 9858TIP3    H229518   6.057   1.785   6.778
 9859TIP3   OH229519   6.150   1.048   5.872
 9859TIP3    H129520   6.084   1.048   5.803
 9859TIP3    H229521   6.128   1.123   5.927
 9860TIP3   OH229522   6.024   0.703   5.825
 9860TIP3    H129523   5.984   0.738   5.745
 9860TIP3    H229524   6.021   0.608   5.814
 9861TIP3   OH229525   6.033   1.009   6.366
 9861TIP3    H129526   6.036   0.916   6.342
 9861TIP3    H229527   6.021   1.008   6.461
 9862TIP3   OH229528   7.494   5.080   0.174
 9862TIP3    H129529   7.488   5.047   0.085
 9862TIP3    H229530   7.588   5.079   0.194
 9863TIP3   OH229531   0.658   5.426   0.279
 9863TIP3    H129532   0.727   5.361   0.276
 9863TIP3    H229533   0.685   5.493   0.216
 9864TIP3   OH229534   0.840   5.231   0.310
 9864TIP3    H129535   0.765   5.179   0.337
 9864TIP3    H229536   0.915   5.172   0.321
 9865TIP3   OH229537   6.037   0.760   6.238
 9865TIP3    H129538   6.062   0.683   6.289
 9865TIP3    H229539   6.098   0.761   6.165
 9866TIP3   OH229540   6.191   0.890   6.766
 9866TIP3    H129541   6.273   0.912   6.721
 9866TIP3    H229542   6.202   0.924   6.855
 9867TIP3   OH229543   0.588   5.047   0.050
 9867TIP3    H129544   0.513   5.080   0.100
 9867TIP3    H229545   0.623   5.124   0.005
 9868TIP3   OH229546   7.707   4.761   0.848
 9868TIP3    H129547   7.802   4.760   0.848
 9868TIP3    H229548   7.682   4.671   0.870
 9869TIP3   OH229549   7.470   4.731   0.247
 9869TIP3    H129550   7.517   4.732   0.164
 9869TIP3    H229551   7.509   4.801   0.299
 9870TIP3   OH229552   5.790   1.928   6.201
 9870TIP3    H129553   5.838   1.914   6.120
 9870TIP3    H229554   5.839   1.996   6.246
 9871TIP3   OH229555   7.716   5.745   0.644
 9871TIP3    H129556   7.628   5.713   0.627
 9871TIP3    H229557   7.735   5.716   0.734
 9872TIP3   OH229558   7.900   5.777   0.192
 9872TIP3    H129559   7.850   5.851   0.156
 9872TIP3    H229560   7.985   5.784   0.150
 9873TIP3   OH229561   8.342   6.017   0.332
 9873TIP3    H129562   8.381   6.014   0.419
 9873TIP3    H229563   8.404   6.067   0.279
 9874TIP3   OH229564   0.021   6.170   0.192
 9874TIP3    H129565   0.088   6.116   0.149
 9874TIP3    H229566   0.071   6.226   0.252
 9875TIP3   OH229567   7.573   6.030   0.220
 9875TIP3    H129568   7.486   6.059   0.192
 9875TIP3    H229569   7.588   6.074   0.303
 9876TIP3   OH229570   7.809   6.010   0.076
 9876TIP3    H129571   7.724   6.019   0.119
 9876TIP3    H229572   7.793   6.040  -0.014
 9877TIP3   OH229573   5.402   2.029   6.815
 9877TIP3    H129574   5.332   2.043   6.751
 9877TIP3    H229575   5.416   2.114   6.855
 9878TIP3   OH229576   5.671   1.970   6.866
 9878TIP3    H129577   5.578   1.982   6.848
 9878TIP3    H229578   5.714   2.042   6.821
 9879TIP3   OH229579   5.882   2.161   6.777
 9879TIP3    H129580   5.865   2.243   6.732
 9879TIP3    H229581   5.904   2.099   6.707
 9880TIP3   OH229582   4.651   1.810   6.906
 9880TIP3    H129583   4.677   1.785   6.994
 9880TIP3    H229584   4.719   1.774   6.849
 9881TIP3   OH229585   4.847   1.688   6.764
 9881TIP3    H129586   4.861   1.605   6.810
 9881TIP3    H229587   4.935   1.726   6.756
 9882TIP3   OH229588   5.115   1.777   6.767
 9882TIP3    H129589   5.142   1.687   6.752
 9882TIP3    H229590   5.160   1.803   6.847
 9883TIP3   OH229591   4.438   1.593   6.294
 9883TIP3    H129592   4.355   1.558   6.261
 9883TIP3    H229593   4.435   1.687   6.272
 9884TIP3   OH229594   5.215   1.770   5.873
 9884TIP3    H129595   5.301   1.796   5.839
 9884TIP3    H229596   5.189   1.697   5.816
 9885TIP3   OH229597   5.934   1.894   5.967
 9885TIP3    H129598   5.928   1.799   5.959
 9885TIP3    H229599   5.888   1.928   5.891
 9886TIP3   OH229600   4.516   1.609   5.931
 9886TIP3    H129601   4.518   1.638   6.022
 9886TIP3    H229602   4.602   1.568   5.917
 9887TIP3   OH229603   0.489   6.046   0.212
 9887TIP3    H129604   0.412   6.012   0.166
 9887TIP3    H229605   0.471   6.140   0.221
 9888TIP3   OH229606   7.408   1.417   5.937
 9888TIP3    H129607   7.384   1.505   5.907
 9888TIP3    H229608   7.351   1.359   5.888
 9889TIP3   OH229609   7.414   1.424   6.296
 9889TIP3    H129610   7.433   1.393   6.384
 9889TIP3    H229611   7.376   1.349   6.251
 9890TIP3   OH229612   6.725   1.301   6.669
 9890TIP3    H129613   6.744   1.228   6.727
 9890TIP3    H229614   6.808   1.348   6.661
 9891TIP3   OH229615   7.668   1.718   5.988
 9891TIP3    H129616   7.651   1.644   6.046
 9891TIP3    H229617   7.703   1.786   6.046
 9892TIP3   OH229618   6.719   1.710   6.400
 9892TIP3    H129619   6.660   1.635   6.406
 9892TIP3    H229620   6.804   1.673   6.377
 9893TIP3   OH229621   6.388   0.931   6.188
 9893TIP3    H129622   6.334   1.010   6.198
 9893TIP3    H229623   6.335   0.872   6.135
 9894TIP3   OH229624   6.457   1.216   6.351
 9894TIP3    H129625   6.493   1.134   6.384
 9894TIP3    H229626   6.513   1.238   6.276
 9895TIP3   OH229627   7.320   2.169   6.005
 9895TIP3    H129628   7.353   2.104   5.943
 9895TIP3    H229629   7.338   2.132   6.091
 9896TIP3   OH229630   7.229   1.657   6.367
 9896TIP3    H129631   7.236   1.581   6.308
 9896TIP3    H229632   7.320   1.681   6.386
 9897TIP3   OH229633   7.624   1.140   6.402
 9897TIP3    H129634   7.667   1.057   6.422
 9897TIP3    H229635   7.600   1.132   6.310
 9898TIP3   OH229636   6.964   0.757   6.311
 9898TIP3    H129637   6.940   0.847   6.287
 9898TIP3    H229638   6.882   0.709   6.306
 9899TIP3   OH229639   7.634   0.913   6.022
 9899TIP3    H129640   7.691   0.864   6.082
 9899TIP3    H229641   7.685   0.920   5.941
 9900TIP3   OH229642   6.583   0.995   6.445
 9900TIP3    H129643   6.671   0.999   6.481
 9900TIP3    H229644   6.590   0.935   6.371
 9901TIP3   OH229645   7.043   1.198   6.252
 9901TIP3    H129646   7.135   1.174   6.265
 9901TIP3    H229647   7.001   1.116   6.226
 9902TIP3   OH229648   7.312   1.634   5.790
 9902TIP3    H129649   7.277   1.611   5.703
 9902TIP3    H229650   7.261   1.710   5.816
 9903TIP3   OH229651   7.088   1.553   6.578
 9903TIP3    H129652   7.023   1.616   6.611
 9903TIP3    H229653   7.129   1.597   6.504
 9904TIP3   OH229654   6.839   0.959   6.510
 9904TIP3    H129655   6.900   1.010   6.562
 9904TIP3    H229656   6.859   0.868   6.532
 9905TIP3   OH229657   6.893   1.757   6.659
 9905TIP3    H129658   6.826   1.776   6.592
 9905TIP3    H229659   6.842   1.735   6.737
 9906TIP3   OH229660   6.295   1.443   5.909
 9906TIP3    H129661   6.254   1.465   5.825
 9906TIP3    H229662   6.326   1.527   5.943
 9907TIP3   OH229663   7.725   1.961   6.159
 9907TIP3    H129664   7.634   1.951   6.186
 9907TIP3    H229665   7.726   2.042   6.108
 9908TIP3   OH229666   7.435   2.003   5.817
 9908TIP3    H129667   7.481   1.920   5.801
 9908TIP3    H229668   7.493   2.070   5.781
 9909TIP3   OH229669   7.575   1.785   5.739
 9909TIP3    H129670   7.530   1.707   5.708
 9909TIP3    H229671   7.618   1.757   5.820
 9910TIP3   OH229672   7.932   1.860   6.489
 9910TIP3    H129673   7.940   1.788   6.426
 9910TIP3    H229674   7.953   1.938   6.438
 9911TIP3   OH229675   7.269   1.278   5.737
 9911TIP3    H129676   7.184   1.316   5.718
 9911TIP3    H229677   7.324   1.303   5.663
 9912TIP3   OH229678   7.208   1.040   5.469
 9912TIP3    H129679   7.271   1.095   5.515
 9912TIP3    H229680   7.260   0.986   5.411
 9913TIP3   OH229681   8.188   1.511   6.338
 9913TIP3    H129682   8.095   1.532   6.349
 9913TIP3    H229683   8.206   1.530   6.246
 9914TIP3   OH229684   7.586   1.288   5.766
 9914TIP3    H129685   7.541   1.345   5.827
 9914TIP3    H229686   7.678   1.313   5.772
 9915TIP3   OH229687   7.867   1.373   6.515
 9915TIP3    H129688   7.907   1.439   6.573
 9915TIP3    H229689   7.805   1.423   6.462
 9916TIP3   OH229690   6.834   1.341   6.139
 9916TIP3    H129691   6.791   1.284   6.076
 9916TIP3    H229692   6.908   1.290   6.171
 9917TIP3   OH229693   6.976   1.307   6.499
 9917TIP3    H129694   7.001   1.282   6.410
 9917TIP3    H229695   7.023   1.389   6.515
 9918TIP3   OH229696   7.469   1.957   6.281
 9918TIP3    H129697   7.494   2.031   6.335
 9918TIP3    H229698   7.486   1.880   6.335
 9919TIP3   OH229699   7.097   1.872   6.813
 9919TIP3    H129700   7.046   1.932   6.867
 9919TIP3    H229701   7.031   1.823   6.763
 9920TIP3   OH229702   1.170   5.468  -0.022
 9920TIP3    H129703   1.176   5.541   0.040
 9920TIP3    H229704   1.085   5.428  -0.004
 9921TIP3   OH229705   7.183   1.889   5.835
 9921TIP3    H129706   7.267   1.934   5.834
 9921TIP3    H229707   7.127   1.942   5.778
 9922TIP3   OH229708   6.893   2.033   6.913
 9922TIP3    H129709   6.839   2.035   6.834
 9922TIP3    H229710   6.832   2.014   6.984
 9923TIP3   OH229711   6.697   1.185   5.948
 9923TIP3    H129712   6.633   1.230   5.892
 9923TIP3    H229713   6.664   1.095   5.956
 9924TIP3   OH229714   7.753   1.815   5.148
 9924TIP3    H129715   7.763   1.909   5.132
 9924TIP3    H229716   7.841   1.779   5.136
 9925TIP3   OH229717   6.484   1.572   6.848
 9925TIP3    H129718   6.415   1.551   6.785
 9925TIP3    H229719   6.516   1.487   6.878
 9926TIP3   OH229720   6.332   1.769   6.483
 9926TIP3    H129721   6.427   1.774   6.493
 9926TIP3    H229722   6.299   1.845   6.532
 9927TIP3   OH229723   8.182   2.223   6.532
 9927TIP3    H129724   8.207   2.130   6.537
 9927TIP3    H229725   8.104   2.229   6.587
 9928TIP3   OH229726   7.289   1.998   6.663
 9928TIP3    H129727   7.305   2.086   6.697
 9928TIP3    H229728   7.231   1.957   6.728
 9929TIP3   OH229729   7.069   2.126   5.629
 9929TIP3    H129730   7.024   2.103   5.548
 9929TIP3    H229731   7.036   2.213   5.651
 9930TIP3   OH229732   6.504   1.974   6.013
 9930TIP3    H129733   6.541   1.963   6.101
 9930TIP3    H229734   6.452   1.895   5.999
 9931TIP3   OH229735   7.272   2.028   5.267
 9931TIP3    H129736   7.325   1.958   5.230
 9931TIP3    H229737   7.304   2.038   5.356
 9932TIP3   OH229738   7.320   2.079   5.538
 9932TIP3    H129739   7.233   2.088   5.577
 9932TIP3    H229740   7.373   2.036   5.605
 9933TIP3   OH229741   6.689   1.755   6.840
 9933TIP3    H129742   6.734   1.744   6.923
 9933TIP3    H229743   6.618   1.690   6.842
 9934TIP3   OH229744   7.033   1.087   6.654
 9934TIP3    H129745   6.994   1.117   6.736
 9934TIP3    H229746   7.022   1.161   6.594
 9935TIP3   OH229747   6.897   0.981   6.163
 9935TIP3    H129748   6.806   0.957   6.178
 9935TIP3    H229749   6.916   0.949   6.075
 9936TIP3   OH229750   7.387   1.070   5.873
 9936TIP3    H129751   7.338   1.143   5.835
 9936TIP3    H229752   7.459   1.055   5.811
 9937TIP3   OH229753   7.531   1.132   6.140
 9937TIP3    H129754   7.477   1.177   6.075
 9937TIP3    H229755   7.557   1.050   6.097
 9938TIP3   OH229756   6.817   1.116   6.859
 9938TIP3    H129757   6.858   1.179   6.919
 9938TIP3    H229758   6.817   1.033   6.908
 9939TIP3   OH229759   6.464   0.729   5.989
 9939TIP3    H129760   6.479   0.693   5.901
 9939TIP3    H229761   6.372   0.753   5.990
 9940TIP3   OH229762   7.504   1.339   6.539
 9940TIP3    H129763   7.538   1.264   6.491
 9940TIP3    H229764   7.566   1.352   6.611
 9941TIP3   OH229765   6.646   0.852   6.207
 9941TIP3    H129766   6.558   0.887   6.196
 9941TIP3    H229767   6.647   0.772   6.155
 9942TIP3   OH229768   6.943   0.876   5.916
 9942TIP3    H129769   7.032   0.862   5.884
 9942TIP3    H229770   6.888   0.867   5.839
 9943TIP3   OH229771   6.775   0.861   5.690
 9943TIP3    H129772   6.699   0.842   5.636
 9943TIP3    H229773   6.837   0.904   5.631
 9944TIP3   OH229774   7.897   2.569   6.633
 9944TIP3    H129775   7.893   2.589   6.539
 9944TIP3    H229776   7.974   2.618   6.664
 9945TIP3   OH229777   1.178   5.703   0.131
 9945TIP3    H129778   1.259   5.725   0.177
 9945TIP3    H229779   1.112   5.694   0.200
 9946TIP3   OH229780   7.300   1.131   6.318
 9946TIP3    H129781   7.382   1.103   6.278
 9946TIP3    H229782   7.307   1.102   6.409
 9947TIP3   OH229783   7.310   1.060   6.582
 9947TIP3    H129784   7.220   1.038   6.605
 9947TIP3    H229785   7.350   1.086   6.665
 9948TIP3   OH229786   7.021   1.415   5.705
 9948TIP3    H129787   6.954   1.349   5.690
 9948TIP3    H229788   7.003   1.449   5.793
 9949TIP3   OH229789   7.934   1.638   6.327
 9949TIP3    H129790   7.961   1.689   6.250
 9949TIP3    H229791   7.850   1.599   6.302
 9950TIP3   OH229792   7.468   0.798   5.525
 9950TIP3    H129793   7.408   0.754   5.586
 9950TIP3    H229794   7.497   0.876   5.572
 9951TIP3   OH229795   7.432   1.745   6.701
 9951TIP3    H129796   7.410   1.696   6.780
 9951TIP3    H229797   7.385   1.828   6.710
 9952TIP3   OH229798   7.562   1.021   5.654
 9952TIP3    H129799   7.654   1.014   5.680
 9952TIP3    H229800   7.553   1.110   5.619
 9953TIP3   OH229801   6.727   1.440   6.377
 9953TIP3    H129802   6.757   1.407   6.293
 9953TIP3    H229803   6.757   1.374   6.440
 9954TIP3   OH229804   7.167   1.569   5.529
 9954TIP3    H129805   7.119   1.651   5.532
 9954TIP3    H229806   7.115   1.509   5.583
 9955TIP3   OH229807   0.918   5.370   0.058
 9955TIP3    H129808   0.945   5.349   0.147
 9955TIP3    H229809   0.854   5.303   0.035
 9956TIP3   OH229810   1.664   5.492   0.074
 9956TIP3    H129811   1.611   5.441   0.012
 9956TIP3    H229812   1.734   5.432   0.100
 9957TIP3   OH229813   7.573   2.009   6.579
 9957TIP3    H129814   7.481   1.985   6.593
 9957TIP3    H229815   7.600   2.048   6.662
 9958TIP3   OH229816   7.989   1.063   5.492
 9958TIP3    H129817   7.935   1.009   5.434
 9958TIP3    H229818   7.977   1.152   5.459
 9959TIP3   OH229819   7.697   1.882   5.412
 9959TIP3    H129820   7.676   1.809   5.470
 9959TIP3    H229821   7.707   1.843   5.326
 9960TIP3   OH229822   7.686   1.507   6.263
 9960TIP3    H129823   7.592   1.488   6.264
 9960TIP3    H229824   7.724   1.436   6.213
 9961TIP3   OH229825   6.810   1.761   6.017
 9961TIP3    H129826   6.810   1.830   5.951
 9961TIP3    H229827   6.727   1.714   6.003
 9962TIP3   OH229828   6.375   1.051   5.712
 9962TIP3    H129829   6.423   1.131   5.730
 9962TIP3    H229830   6.299   1.054   5.771
 9963TIP3   OH229831   6.946   1.514   5.949
 9963TIP3    H129832   6.925   1.603   5.978
 9963TIP3    H229833   6.914   1.458   6.019
 9964TIP3   OH229834   6.736   1.985   5.856
 9964TIP3    H129835   6.650   1.991   5.898
 9964TIP3    H229836   6.771   2.074   5.859
 9965TIP3   OH229837   7.487   1.724   6.434
 9965TIP3    H129838   7.479   1.716   6.529
 9965TIP3    H229839   7.553   1.659   6.410
 9966TIP3   OH229840   7.454   1.598   5.319
 9966TIP3    H129841   7.488   1.512   5.343
 9966TIP3    H229842   7.365   1.599   5.353
 9967TIP3   OH229843   7.714   2.262   6.488
 9967TIP3    H129844   7.645   2.196   6.479
 9967TIP3    H229845   7.705   2.317   6.410
 9968TIP3   OH229846   7.789   2.092   5.132
 9968TIP3    H129847   7.824   2.163   5.078
 9968TIP3    H229848   7.708   2.128   5.169
 9969TIP3   OH229849   6.539   1.940   6.634
 9969TIP3    H129850   6.572   1.870   6.691
 9969TIP3    H229851   6.539   2.018   6.689
 9970TIP3   OH229852   6.812   1.592   5.316
 9970TIP3    H129853   6.829   1.504   5.283
 9970TIP3    H229854   6.792   1.580   5.408
 9971TIP3   OH229855   6.759   1.599   5.589
 9971TIP3    H129856   6.834   1.568   5.639
 9971TIP3    H229857   6.765   1.695   5.595
 9972TIP3   OH229858   6.495   1.293   5.791
 9972TIP3    H129859   6.429   1.335   5.847
 9972TIP3    H229860   6.511   1.357   5.721
 9973TIP3   OH229861   7.027   1.800   5.541
 9973TIP3    H129862   6.940   1.824   5.573
 9973TIP3    H229863   7.043   1.861   5.468
 9974TIP3   OH229864   7.233   0.848   5.909
 9974TIP3    H129865   7.284   0.928   5.898
 9974TIP3    H229866   7.233   0.831   6.003
 9975TIP3   OH229867   7.490   1.145   6.805
 9975TIP3    H129868   7.533   1.228   6.788
 9975TIP3    H229869   7.553   1.079   6.775
 9976TIP3   OH229870   6.771   1.874   5.603
 9976TIP3    H129871   6.742   1.939   5.539
 9976TIP3    H229872   6.755   1.915   5.688
 9977TIP3   OH229873   7.770   1.282   6.128
 9977TIP3    H129874   7.694   1.226   6.140
 9977TIP3    H229875   7.841   1.236   6.173
 9978TIP3   OH229876   6.493   1.497   5.592
 9978TIP3    H129877   6.562   1.563   5.603
 9978TIP3    H229878   6.529   1.436   5.527
 9979TIP3   OH229879   6.444   0.782   5.681
 9979TIP3    H129880   6.421   0.873   5.702
 9979TIP3    H229881   6.369   0.731   5.712
 9980TIP3   OH229882   7.744   2.230   6.069
 9980TIP3    H129883   7.700   2.276   5.998
 9980TIP3    H229884   7.837   2.248   6.056
 9981TIP3   OH229885   6.359   1.723   5.978
 9981TIP3    H129886   6.294   1.746   6.044
 9981TIP3    H229887   6.325   1.760   5.896
 9982TIP3   OH229888   0.854   6.266   0.112
 9982TIP3    H129889   0.936   6.268   0.160
 9982TIP3    H229890   0.828   6.173   0.112
 9983TIP3   OH229891   1.333   6.232   0.148
 9983TIP3    H129892   1.423   6.208   0.169
 9983TIP3    H229893   1.306   6.170   0.080
 9984TIP3   OH229894   6.980   1.792   5.228
 9984TIP3    H129895   6.924   1.723   5.264
 9984TIP3    H229896   7.055   1.744   5.192
 9985TIP3   OH229897   7.604   2.115   6.829
 9985TIP3    H129898   7.597   2.047   6.896
 9985TIP3    H229899   7.684   2.163   6.852
 9986TIP3   OH229900   7.417   1.828   5.143
 9986TIP3    H129901   7.453   1.762   5.202
 9986TIP3    H229902   7.475   1.827   5.067
 9987TIP3   OH229903   0.976   5.670   0.311
 9987TIP3    H129904   0.994   5.577   0.325
 9987TIP3    H229905   0.891   5.672   0.267
 9988TIP3   OH229906   6.627   1.310   5.449
 9988TIP3    H129907   6.679   1.276   5.521
 9988TIP3    H229908   6.688   1.316   5.375
 9989TIP3   OH229909   1.599   5.765   0.066
 9989TIP3    H129910   1.537   5.778  -0.006
 9989TIP3    H229911   1.616   5.670   0.066
 9990TIP3   OH229912   7.132   1.510   5.258
 9990TIP3    H129913   7.143   1.521   5.352
 9990TIP3    H229914   7.140   1.416   5.244
 9991TIP3   OH229915   7.745   1.767   6.659
 9991TIP3    H129916   7.817   1.796   6.602
 9991TIP3    H229917   7.668   1.814   6.627
 9992TIP3   OH229918   1.110   5.399   0.282
 9992TIP3    H129919   1.179   5.334   0.274
 9992TIP3    H229920   1.111   5.424   0.374
 9993TIP3   OH229921   6.830   1.216   5.668
 9993TIP3    H129922   6.807   1.176   5.752
 9993TIP3    H229923   6.868   1.145   5.617
 9994TIP3   OH229924   7.055   1.311   6.831
 9994TIP3    H129925   6.994   1.380   6.857
 9994TIP3    H229926   7.124   1.357   6.784
 9995TIP3   OH229927   6.933   1.011   5.513
 9995TIP3    H129928   6.902   1.014   5.423
 9995TIP3    H229929   7.028   1.013   5.507
 9996TIP3   OH229930   7.785   1.350   5.146
 9996TIP3    H129931   7.715   1.288   5.124
 9996TIP3    H229932   7.745   1.436   5.137
 9997TIP3   OH229933   7.207   1.116   6.975
 9997TIP3    H129934   7.213   1.174   6.899
 9997TIP3    H229935   7.168   1.035   6.941
 9998TIP3   OH229936   7.284   1.411   6.711
 9998TIP3    H129937   7.353   1.379   6.652
 9998TIP3    H229938   7.227   1.464   6.655
 9999TIP3   OH229939   1.378   5.205   0.239
 9999TIP3    H129940   1.330   5.123   0.243
 9999TIP3    H229941   1.438   5.195   0.165
10000TIP3   OH229942   6.745   2.078   5.415
10000TIP3    H129943   6.839   2.067   5.397
10000TIP3    H229944   6.711   2.124   5.339
10001TIP3   OH229945   6.223   1.453   5.630
10001TIP3    H129946   6.315   1.476   5.616
10001TIP3    H229947   6.213   1.367   5.589
10002TIP3   OH229948   6.137   2.064   6.046
10002TIP3    H129949   6.070   2.007   6.007
10002TIP3    H229950   6.181   2.008   6.110
10003TIP3   OH229951   6.271   1.916   6.235
10003TIP3    H129952   6.254   1.842   6.295
10003TIP3    H229953   6.318   1.979   6.289
10004TIP3   OH229954   7.997   2.321   6.033
10004TIP3    H129955   8.031   2.356   6.116
10004TIP3    H229956   8.062   2.347   5.968
10005TIP3   OH229957   8.025   2.340   6.320
10005TIP3    H129958   7.980   2.256   6.306
10005TIP3    H229959   8.103   2.317   6.370
10006TIP3   OH229960   7.914   1.532   5.492
10006TIP3    H129961   7.985   1.594   5.474
10006TIP3    H229962   7.936   1.494   5.577
10007TIP3   OH229963   8.013   1.412   5.714
10007TIP3    H129964   7.948   1.361   5.763
10007TIP3    H229965   8.071   1.448   5.782
10008TIP3   OH229966   8.068   1.789   6.137
10008TIP3    H129967   8.121   1.723   6.093
10008TIP3    H229968   8.067   1.864   6.076
10009TIP3   OH229969   7.903   2.091   6.329
10009TIP3    H129970   7.832   2.115   6.388
10009TIP3    H229971   7.861   2.040   6.260
10010TIP3   OH229972   7.944   1.300   5.355
10010TIP3    H129973   7.886   1.308   5.280
10010TIP3    H229974   7.925   1.376   5.410
10011TIP3   OH229975   7.819   0.957   5.291
10011TIP3    H129976   7.797   1.049   5.276
10011TIP3    H229977   7.760   0.908   5.235
10012TIP3   OH229978   7.850   1.261   5.860
10012TIP3    H129979   7.832   1.172   5.830
10012TIP3    H229980   7.821   1.262   5.951
10013TIP3   OH229981   6.461   1.329   6.602
10013TIP3    H129982   6.455   1.296   6.512
10013TIP3    H229983   6.555   1.327   6.622
10014TIP3   OH229984   7.829   1.012   5.728
10014TIP3    H129985   7.858   0.934   5.775
10014TIP3    H229986   7.890   1.019   5.654
10015TIP3   OH229987   7.983   1.163   6.254
10015TIP3    H129988   8.074   1.159   6.225
10015TIP3    H229989   7.988   1.180   6.348
10016TIP3   OH229990   0.996   5.010   0.327
10016TIP3    H129991   1.091   5.007   0.333
10016TIP3    H229992   0.967   4.929   0.370
10017TIP3   OH229993   6.435   0.978   6.678
10017TIP3    H129994   6.478   0.977   6.593
10017TIP3    H229995   6.471   1.055   6.723
10018TIP3   OH229996   7.585   2.187   5.689
10018TIP3    H129997   7.629   2.169   5.606
10018TIP3    H229998   7.640   2.252   5.732
10019TIP3   OH229999   1.015   5.998   0.140
10019TIP3    H130000   0.925   5.973   0.123
10019TIP3    H230001   1.029   5.976   0.232
10020TIP3   OH230002   7.303   2.259   6.752
10020TIP3    H130003   7.337   2.259   6.842
10020TIP3    H230004   7.367   2.311   6.703
10021TIP3   OH230005   7.481   2.413   6.613
10021TIP3    H130006   7.542   2.361   6.562
10021TIP3    H230007   7.537   2.473   6.663
10022TIP3   OH230008   6.542   2.276   6.645
10022TIP3    H130009   6.455   2.304   6.617
10022TIP3    H230010   6.556   2.320   6.728
10023TIP3   OH230011   6.784   2.257   6.495
10023TIP3    H130012   6.704   2.254   6.547
10023TIP3    H230013   6.756   2.291   6.410
10024TIP3   OH230014   7.195   2.276   6.301
10024TIP3    H130015   7.132   2.299   6.233
10024TIP3    H230016   7.211   2.358   6.348
10025TIP3   OH230017   7.467   2.231   6.353
10025TIP3    H130018   7.376   2.247   6.329
10025TIP3    H230019   7.517   2.297   6.306
10026TIP3   OH230020   7.670   2.413   6.262
10026TIP3    H130021   7.658   2.497   6.218
10026TIP3    H230022   7.701   2.354   6.192
10027TIP3   OH230023   6.454   2.073   6.390
10027TIP3    H130024   6.477   2.050   6.480
10027TIP3    H230025   6.520   2.028   6.337
10028TIP3   OH230026   6.641   1.930   6.251
10028TIP3    H130027   6.651   1.851   6.303
10028TIP3    H230028   6.725   1.940   6.206
10029TIP3   OH230029   6.233   1.849   5.775
10029TIP3    H130030   6.151   1.811   5.746
10029TIP3    H230031   6.227   1.942   5.751
10030TIP3   OH230032   7.012   2.030   5.359
10030TIP3    H130033   7.098   2.054   5.326
10030TIP3    H230034   6.985   1.956   5.304
10031TIP3   OH230035   7.725   2.148   5.455
10031TIP3    H130036   7.721   2.053   5.445
10031TIP3    H230037   7.682   2.183   5.377
10032TIP3   OH230038   6.316   1.867   5.417
10032TIP3    H130039   6.314   1.887   5.511
10032TIP3    H230040   6.400   1.824   5.403
10033TIP3   OH230041   7.935   2.297   6.644
10033TIP3    H130042   7.866   2.268   6.585
10033TIP3    H230043   7.935   2.393   6.637
10034TIP3   OH230044   8.474   1.953   5.927
10034TIP3    H130045   8.434   1.884   5.874
10034TIP3    H230046   8.563   1.960   5.894
10035TIP3   OH230047   8.194   1.206   5.694
10035TIP3    H130048   8.125   1.271   5.682
10035TIP3    H230049   8.168   1.131   5.640
10036TIP3   OH230050   8.278   1.456   5.834
10036TIP3    H130051   8.282   1.361   5.822
10036TIP3    H230052   8.313   1.492   5.753
10037TIP3   OH230053   8.111   1.705   5.397
10037TIP3    H130054   8.050   1.724   5.325
10037TIP3    H230055   8.131   1.790   5.435
10038TIP3   OH230056   8.289   1.810   6.306
10038TIP3    H130057   8.216   1.819   6.245
10038TIP3    H230058   8.257   1.752   6.374
10039TIP3   OH230059   8.137   2.018   5.979
10039TIP3    H130060   8.232   2.016   5.964
10039TIP3    H230061   8.123   2.098   6.029
10040TIP3   OH230062   8.272   2.227   5.497
10040TIP3    H130063   8.353   2.240   5.547
10040TIP3    H230064   8.242   2.140   5.522
10041TIP3   OH230065   8.255   0.984   5.462
10041TIP3    H130066   8.270   1.000   5.368
10041TIP3    H230067   8.161   1.001   5.474
10042TIP3   OH230068   8.171   1.297   5.198
10042TIP3    H130069   8.221   1.377   5.215
10042TIP3    H230070   8.095   1.303   5.255
10043TIP3   OH230071   8.313   2.209   6.121
10043TIP3    H130072   8.371   2.136   6.144
10043TIP3    H230073   8.353   2.285   6.163
10044TIP3   OH230074   8.282   1.543   5.260
10044TIP3    H130075   8.222   1.584   5.322
10044TIP3    H230076   8.283   1.602   5.185
10045TIP3   OH230077   8.279   1.736   5.061
10045TIP3    H130078   8.345   1.796   5.094
10045TIP3    H230079   8.304   1.720   4.970
10046TIP3   OH230080   8.231   1.031   5.189
10046TIP3    H130081   8.223   1.127   5.192
10046TIP3    H230082   8.140   1.000   5.185
10047TIP3   OH230083   8.137   1.966   5.469
10047TIP3    H130084   8.070   2.003   5.528
10047TIP3    H230085   8.124   2.012   5.386
10048TIP3   OH230086   8.275   2.478   6.523
10048TIP3    H130087   8.367   2.473   6.551
10048TIP3    H230088   8.245   2.387   6.523
10049TIP3   OH230089   8.008   1.711   5.111
10049TIP3    H130090   8.102   1.728   5.101
10049TIP3    H230091   7.996   1.623   5.076
10050TIP3   OH230092   7.929   2.320   5.534
10050TIP3    H130093   7.864   2.261   5.497
10050TIP3    H230094   7.978   2.266   5.596
10051TIP3   OH230095   8.061   2.170   5.722
10051TIP3    H130096   8.056   2.097   5.784
10051TIP3    H230097   8.119   2.234   5.764
10052TIP3   OH230098   8.253   1.589   6.074
10052TIP3    H130099   8.253   1.542   5.991
10052TIP3    H230100   8.345   1.609   6.090
10053TIP3   OH230101   8.321   2.527   6.141
10053TIP3    H130102   8.241   2.563   6.101
10053TIP3    H230103   8.323   2.563   6.229
10054TIP3   OH230104   0.081   2.514   6.015
10054TIP3    H130105  -0.010   2.520   6.043
10054TIP3    H230106   0.079   2.542   5.923
10055TIP3   OH230107   8.238   2.326   5.878
10055TIP3    H130108   8.266   2.307   5.967
10055TIP3    H230109   8.308   2.290   5.823
10056TIP3   OH230110   8.427   2.193   5.737
10056TIP3    H130111   8.434   2.099   5.749
10056TIP3    H230112   8.514   2.219   5.707
10057TIP3   OH230113   8.037   2.099   5.253
10057TIP3    H130114   7.950   2.069   5.225
10057TIP3    H230115   8.033   2.195   5.248
10058TIP3   OH230116   8.110   2.134   4.922
10058TIP3    H130117   8.077   2.166   5.005
10058TIP3    H230118   8.177   2.070   4.946
10059TIP3   OH230119   4.504   6.463   0.156
10059TIP3    H130120   4.479   6.554   0.140
10059TIP3    H230121   4.431   6.412   0.120
10060TIP3   OH230122   4.488   6.470   0.525
10060TIP3    H130123   4.538   6.452   0.605
10060TIP3    H230124   4.450   6.385   0.501
10061TIP3   OH230125   4.750   6.763   0.228
10061TIP3    H130126   4.739   6.696   0.296
10061TIP3    H230127   4.781   6.840   0.276
10062TIP3   OH230128   3.785   6.768   0.625
10062TIP3    H130129   3.767   6.674   0.629
10062TIP3    H230130   3.880   6.773   0.616
10063TIP3   OH230131   3.533   6.233   0.558
10063TIP3    H130132   3.594   6.215   0.630
10063TIP3    H230133   3.578   6.299   0.505
10064TIP3   OH230134   4.395   7.222   0.234
10064TIP3    H130135   4.442   7.154   0.187
10064TIP3    H230136   4.389   7.190   0.324
10065TIP3   OH230137   4.308   6.686   0.575
10065TIP3    H130138   4.344   6.608   0.534
10065TIP3    H230139   4.383   6.732   0.612
10066TIP3   OH230140   5.313   6.010   0.575
10066TIP3    H130141   5.327   6.089   0.628
10066TIP3    H230142   5.330   6.038   0.485
10067TIP3   OH230143   4.701   6.164   0.621
10067TIP3    H130144   4.757   6.089   0.640
10067TIP3    H230145   4.684   6.159   0.527
10068TIP3   OH230146   4.082   5.849   0.583
10068TIP3    H130147   4.042   5.928   0.544
10068TIP3    H230148   4.019   5.780   0.563
10069TIP3   OH230149   4.754   5.940   0.206
10069TIP3    H130150   4.822   5.926   0.271
10069TIP3    H230151   4.801   5.973   0.129
10070TIP3   OH230152   4.130   6.245   0.490
10070TIP3    H130153   4.223   6.224   0.498
10070TIP3    H230154   4.090   6.166   0.452
10071TIP3   OH230155   5.373   6.207   0.755
10071TIP3    H130156   5.288   6.251   0.749
10071TIP3    H230157   5.425   6.262   0.814
10072TIP3   OH230158   4.404   6.692   0.018
10072TIP3    H130159   4.356   6.665  -0.060
10072TIP3    H230160   4.356   6.768   0.050
10073TIP3   OH230161   4.954   5.948   0.389
10073TIP3    H130162   4.956   5.896   0.470
10073TIP3    H230163   5.008   6.025   0.409
10074TIP3   OH230164   3.381   6.497   0.154
10074TIP3    H130165   3.337   6.516   0.071
10074TIP3    H230166   3.406   6.583   0.188
10075TIP3   OH230167   4.818   7.010   0.384
10075TIP3    H130168   4.732   6.998   0.424
10075TIP3    H230169   4.813   7.094   0.339
10076TIP3   OH230170   5.110   5.901   0.759
10076TIP3    H130171   5.022   5.924   0.729
10076TIP3    H230172   5.167   5.934   0.689
10077TIP3   OH230173   4.526   7.051   0.060
10077TIP3    H130174   4.574   6.970   0.042
10077TIP3    H230175   4.580   7.120   0.023
10078TIP3   OH230176   4.657   6.821  -0.024
10078TIP3    H130177   4.580   6.764  -0.028
10078TIP3    H230178   4.700   6.798   0.058
10079TIP3   OH230179   5.042   6.919   0.729
10079TIP3    H130180   5.032   6.842   0.672
10079TIP3    H230181   5.023   6.994   0.672
10080TIP3   OH230182   1.503   2.308   6.929
10080TIP3    H130183   1.421   2.354   6.912
10080TIP3    H230184   1.546   2.303   6.844
10081TIP3   OH230185   1.481   2.103   6.635
10081TIP3    H130186   1.547   2.148   6.688
10081TIP3    H230187   1.530   2.032   6.593
10082TIP3   OH230188   5.239   6.558   0.574
10082TIP3    H130189   5.158   6.608   0.585
10082TIP3    H230190   5.269   6.580   0.486
10083TIP3   OH230191   4.685   6.401  -0.036
10083TIP3    H130192   4.631   6.424   0.039
10083TIP3    H230193   4.768   6.372   0.002
10084TIP3   OH230194   4.907   6.464   0.845
10084TIP3    H130195   4.908   6.558   0.863
10084TIP3    H230196   4.828   6.450   0.792
10085TIP3   OH230197   3.918   6.400   0.377
10085TIP3    H130198   3.866   6.342   0.321
10085TIP3    H230199   3.990   6.345   0.408
10086TIP3   OH230200   4.052   6.804   0.523
10086TIP3    H130201   4.031   6.767   0.437
10086TIP3    H230202   4.138   6.768   0.544
10087TIP3   OH230203   4.035   6.387   0.709
10087TIP3    H130204   4.067   6.330   0.639
10087TIP3    H230205   4.109   6.444   0.729
10088TIP3   OH230206   4.582   7.000   0.509
10088TIP3    H130207   4.563   7.084   0.551
10088TIP3    H230208   4.559   6.934   0.574
10089TIP3   OH230209   1.701   2.248   6.728
10089TIP3    H130210   1.753   2.309   6.780
10089TIP3    H230211   1.721   2.270   6.637
10090TIP3   OH230212   4.271   6.933   0.061
10090TIP3    H130213   4.350   6.985   0.075
10090TIP3    H230214   4.208   6.994   0.022
10091TIP3   OH230215   2.208   1.471   6.777
10091TIP3    H130216   2.134   1.515   6.820
10091TIP3    H230217   2.269   1.542   6.758
10092TIP3   OH230218   3.767   6.240   0.206
10092TIP3    H130219   3.732   6.282   0.127
10092TIP3    H230220   3.764   6.146   0.187
10093TIP3   OH230221   5.276   7.266   0.774
10093TIP3    H130222   5.284   7.172   0.787
10093TIP3    H230223   5.202   7.292   0.827
10094TIP3   OH230224   4.409   7.063   0.928
10094TIP3    H130225   4.363   7.136   0.970
10094TIP3    H230226   4.343   6.993   0.924
10095TIP3   OH230227   1.315   3.169   6.805
10095TIP3    H130228   1.271   3.154   6.722
10095TIP3    H230229   1.287   3.257   6.831
10096TIP3   OH230230   3.586   7.026   0.251
10096TIP3    H130231   3.636   7.021   0.332
10096TIP3    H230232   3.538   6.943   0.247
10097TIP3   OH230233   1.514   3.074   6.446
10097TIP3    H130234   1.571   3.007   6.408
10097TIP3    H230235   1.550   3.088   6.533
10098TIP3   OH230236   1.566   3.124   6.715
10098TIP3    H130237   1.479   3.133   6.755
10098TIP3    H230238   1.621   3.089   6.785
10099TIP3   OH230239   1.763   2.286   6.465
10099TIP3    H130240   1.732   2.262   6.378
10099TIP3    H230241   1.841   2.339   6.449
10100TIP3   OH230242   1.477   1.665   6.770
10100TIP3    H130243   1.451   1.663   6.862
10100TIP3    H230244   1.440   1.585   6.733
10101TIP3   OH230245   3.998   6.028   0.382
10101TIP3    H130246   3.910   5.999   0.404
10101TIP3    H230247   4.011   5.999   0.292
10102TIP3   OH230248   4.471   6.113   0.120
10102TIP3    H130249   4.421   6.184   0.081
10102TIP3    H230250   4.528   6.081   0.050
10103TIP3   OH230251   4.629   6.139   0.354
10103TIP3    H130252   4.570   6.176   0.288
10103TIP3    H230253   4.666   6.061   0.313
10104TIP3   OH230254   1.133   1.632   6.755
10104TIP3    H130255   1.136   1.619   6.850
10104TIP3    H230256   1.055   1.684   6.740
10105TIP3   OH230257   4.653   6.409   0.733
10105TIP3    H130258   4.671   6.318   0.707
10105TIP3    H230259   4.620   6.402   0.823
10106TIP3   OH230260   4.320   5.841   0.453
10106TIP3    H130261   4.235   5.846   0.496
10106TIP3    H230262   4.383   5.868   0.520
10107TIP3   OH230263   3.779   5.884   0.436
10107TIP3    H130264   3.688   5.899   0.461
10107TIP3    H230265   3.794   5.791   0.455
10108TIP3   OH230266   4.018   5.917   0.125
10108TIP3    H130267   4.113   5.930   0.124
10108TIP3    H230268   3.985   5.978   0.059
10109TIP3   OH230269   4.805   5.915   0.681
10109TIP3    H130270   4.774   5.927   0.771
10109TIP3    H230271   4.736   5.864   0.638
10110TIP3   OH230272   4.995   7.609   0.858
10110TIP3    H130273   4.990   7.627   0.765
10110TIP3    H230274   5.070   7.660   0.888
10111TIP3   OH230275   4.401   6.176   0.535
10111TIP3    H130276   4.475   6.150   0.480
10111TIP3    H230277   4.429   6.157   0.624
10112TIP3   OH230278   3.948   5.639   0.454
10112TIP3    H130279   3.897   5.572   0.409
10112TIP3    H230280   4.022   5.657   0.396
10113TIP3   OH230281   1.268   2.452   6.881
10113TIP3    H130282   1.199   2.387   6.871
10113TIP3    H230283   1.254   2.490   6.968
10114TIP3   OH230284   5.007   6.701   0.563
10114TIP3    H130285   5.032   6.752   0.486
10114TIP3    H230286   4.922   6.663   0.539
10115TIP3   OH230287   1.730   1.771   6.742
10115TIP3    H130288   1.636   1.757   6.750
10115TIP3    H230289   1.742   1.863   6.767
10116TIP3   OH230290   1.803   2.019   6.845
10116TIP3    H130291   1.897   2.026   6.862
10116TIP3    H230292   1.781   2.098   6.797
10117TIP3   OH230293   3.800   6.488   0.611
10117TIP3    H130294   3.831   6.467   0.523
10117TIP3    H230295   3.867   6.453   0.669
10118TIP3   OH230296   1.414   2.607   6.703
10118TIP3    H130297   1.370   2.692   6.706
10118TIP3    H230298   1.362   2.551   6.760
10119TIP3   OH230299   4.673   7.026   0.860
10119TIP3    H130300   4.579   7.041   0.867
10119TIP3    H230301   4.713   7.090   0.918
10120TIP3   OH230302   2.231   2.119   6.691
10120TIP3    H130303   2.186   2.059   6.632
10120TIP3    H230304   2.231   2.203   6.644
10121TIP3   OH230305   5.285   6.978   0.818
10121TIP3    H130306   5.190   6.971   0.811
10121TIP3    H230307   5.318   6.944   0.735
10122TIP3   OH230308   4.772   6.570   0.472
10122TIP3    H130309   4.681   6.546   0.492
10122TIP3    H230310   4.809   6.492   0.432
10123TIP3   OH230311   3.901   6.795   0.237
10123TIP3    H130312   3.902   6.876   0.185
10123TIP3    H230313   3.808   6.776   0.250
10124TIP3   OH230314   0.605   2.097   6.897
10124TIP3    H130315   0.692   2.133   6.880
10124TIP3    H230316   0.574   2.144   6.973
10125TIP3   OH230317   4.035   6.559   0.182
10125TIP3    H130318   4.003   6.648   0.199
10125TIP3    H230319   4.001   6.507   0.255
10126TIP3   OH230320   4.170   7.140   0.697
10126TIP3    H130321   4.204   7.214   0.648
10126TIP3    H230322   4.248   7.091   0.724
10127TIP3   OH230323   3.818   7.036   0.093
10127TIP3    H130324   3.734   7.044   0.136
10127TIP3    H230325   3.855   7.125   0.095
10128TIP3   OH230326   4.562   6.769   0.674
10128TIP3    H130327   4.593   6.780   0.764
10128TIP3    H230328   4.634   6.726   0.629
10129TIP3   OH230329   1.696   2.650   6.486
10129TIP3    H130330   1.751   2.622   6.559
10129TIP3    H230331   1.606   2.630   6.515
10130TIP3   OH230332   4.793   7.304   0.711
10130TIP3    H130333   4.712   7.255   0.695
10130TIP3    H230334   4.794   7.372   0.644
10131TIP3   OH230335   1.858   2.574   6.695
10131TIP3    H130336   1.853   2.516   6.770
10131TIP3    H230337   1.898   2.654   6.729
10132TIP3   OH230338   1.066   2.633   6.492
10132TIP3    H130339   1.077   2.542   6.464
10132TIP3    H230340   1.044   2.627   6.585
10133TIP3   OH230341   1.009   2.647   6.763
10133TIP3    H130342   1.080   2.618   6.820
10133TIP3    H230343   1.010   2.742   6.769
10134TIP3   OH230344   3.564   6.343   0.026
10134TIP3    H130345   3.506   6.394   0.082
10134TIP3    H230346   3.593   6.404  -0.041
10135TIP3   OH230347   4.610   5.731   0.084
10135TIP3    H130348   4.597   5.750  -0.009
10135TIP3    H230349   4.653   5.809   0.120
10136TIP3   OH230350   1.274   2.840   6.710
10136TIP3    H130351   1.189   2.863   6.747
10136TIP3    H230352   1.297   2.915   6.654
10137TIP3   OH230353   4.293   5.914   0.186
10137TIP3    H130354   4.355   5.983   0.164
10137TIP3    H230355   4.300   5.904   0.281
10138TIP3   OH230356   4.445   5.641   0.289
10138TIP3    H130357   4.424   5.719   0.342
10138TIP3    H230358   4.507   5.674   0.223
10139TIP3   OH230359   1.019   2.918   6.781
10139TIP3    H130360   0.992   2.985   6.717
10139TIP3    H230361   1.006   2.960   6.866
10140TIP3   OH230362   3.974   5.650   0.091
10140TIP3    H130363   3.976   5.745   0.104
10140TIP3    H230364   4.066   5.624   0.093
10141TIP3   OH230365   4.858   6.322   0.362
10141TIP3    H130366   4.783   6.263   0.368
10141TIP3    H230367   4.928   6.275   0.408
10142TIP3   OH230368   0.746   2.546   6.761
10142TIP3    H130369   0.816   2.610   6.772
10142TIP3    H230370   0.783   2.480   6.702
10143TIP3   OH230371   0.736   1.835   6.821
10143TIP3    H130372   0.767   1.925   6.829
10143TIP3    H230373   0.674   1.824   6.893
10144TIP3   OH230374   4.828   7.280   0.307
10144TIP3    H130375   4.783   7.324   0.235
10144TIP3    H230376   4.921   7.295   0.290
10145TIP3   OH230377   3.440   6.780   0.219
10145TIP3    H130378   3.359   6.804   0.265
10145TIP3    H230379   3.427   6.811   0.130
10146TIP3   OH230380   1.225   2.837   6.399
10146TIP3    H130381   1.170   2.769   6.439
10146TIP3    H230382   1.303   2.789   6.369
10147TIP3   OH230383   1.659   2.880   6.315
10147TIP3    H130384   1.702   2.820   6.375
10147TIP3    H230385   1.717   2.883   6.239
10148TIP3   OH230386   0.868   2.346   6.623
10148TIP3    H130387   0.898   2.281   6.687
10148TIP3    H230388   0.943   2.357   6.564
10149TIP3   OH230389   1.389   2.552   6.433
10149TIP3    H130390   1.387   2.568   6.527
10149TIP3    H230391   1.382   2.457   6.425
10150TIP3   OH230392   4.815   6.789   0.832
10150TIP3    H130393   4.906   6.818   0.819
10150TIP3    H230394   4.767   6.870   0.848
10151TIP3   OH230395   2.003   2.386   6.347
10151TIP3    H130396   1.982   2.339   6.267
10151TIP3    H230397   1.974   2.476   6.330
10152TIP3   OH230398   0.991   3.116   6.589
10152TIP3    H130399   1.085   3.109   6.575
10152TIP3    H230400   0.960   3.167   6.514
10153TIP3   OH230401   0.483   2.495   6.814
10153TIP3    H130402   0.574   2.522   6.801
10153TIP3    H230403   0.475   2.412   6.767
10154TIP3   OH230404   3.199   7.119   0.285
10154TIP3    H130405   3.155   7.053   0.232
10154TIP3    H230406   3.245   7.069   0.352
10155TIP3   OH230407   3.340   6.977   0.471
10155TIP3    H130408   3.365   6.892   0.506
10155TIP3    H230409   3.393   7.040   0.521
10156TIP3   OH230410   5.086   7.361   0.272
10156TIP3    H130411   5.110   7.397   0.357
10156TIP3    H230412   5.138   7.411   0.209
10157TIP3   OH230413   5.111   7.385   0.555
10157TIP3    H130414   5.064   7.303   0.544
10157TIP3    H230415   5.182   7.365   0.615
10158TIP3   OH230416   5.161   6.840   0.379
10158TIP3    H130417   5.208   6.774   0.329
10158TIP3    H230418   5.155   6.915   0.320
10159TIP3   OH230419   4.980   7.139   0.570
10159TIP3    H130420   4.909   7.180   0.621
10159TIP3    H230421   4.935   7.093   0.499
10160TIP3   OH230422   2.193   2.368   6.538
10160TIP3    H130423   2.140   2.363   6.459
10160TIP3    H230424   2.135   2.407   6.603
10161TIP3   OH230425   2.079   2.019   6.484
10161TIP3    H130426   2.034   2.058   6.409
10161TIP3    H230427   2.056   1.927   6.481
10162TIP3   OH230428   4.903   6.299   0.087
10162TIP3    H130429   4.919   6.205   0.080
10162TIP3    H230430   4.901   6.316   0.181
10163TIP3   OH230431   5.179   6.702   0.925
10163TIP3    H130432   5.268   6.674   0.949
10163TIP3    H230433   5.188   6.794   0.901
10164TIP3   OH230434   5.386   6.529   0.981
10164TIP3    H130435   5.302   6.486   0.997
10164TIP3    H230436   5.445   6.459   0.956
10165TIP3   OH230437   2.016   1.753   6.481
10165TIP3    H130438   2.085   1.705   6.528
10165TIP3    H230439   1.938   1.698   6.490
10166TIP3   OH230440   2.077   2.017   6.923
10166TIP3    H130441   2.112   1.930   6.943
10166TIP3    H230442   2.135   2.050   6.854
10167TIP3   OH230443   5.073   6.195   0.487
10167TIP3    H130444   5.155   6.218   0.444
10167TIP3    H230445   5.081   6.231   0.575
10168TIP3   OH230446   5.136   6.345   0.723
10168TIP3    H130447   5.061   6.380   0.771
10168TIP3    H230448   5.170   6.420   0.674
10169TIP3   OH230449   4.990   5.774   0.048
10169TIP3    H130450   5.058   5.755   0.112
10169TIP3    H230451   4.942   5.692   0.039
10170TIP3   OH230452   1.836   3.222   6.862
10170TIP3    H130453   1.890   3.202   6.785
10170TIP3    H230454   1.878   3.298   6.901
10171TIP3   OH230455   3.927   7.082   0.844
10171TIP3    H130456   3.902   7.166   0.804
10171TIP3    H230457   4.019   7.071   0.822
10172TIP3   OH230458   4.559   7.467   0.834
10172TIP3    H130459   4.643   7.427   0.812
10172TIP3    H230460   4.572   7.503   0.922
10173TIP3   OH230461   3.845   7.316   0.731
10173TIP3    H130462   3.781   7.365   0.783
10173TIP3    H230463   3.829   7.343   0.641
10174TIP3   OH230464   4.281   7.332   0.534
10174TIP3    H130465   4.212   7.348   0.470
10174TIP3    H230466   4.297   7.418   0.574
10175TIP3   OH230467   4.549   7.270   0.581
10175TIP3    H130468   4.455   7.286   0.569
10175TIP3    H230469   4.591   7.348   0.547
10176TIP3   OH230470   4.762   7.469   0.499
10176TIP3    H130471   4.742   7.552   0.455
10176TIP3    H230472   4.782   7.408   0.428
10177TIP3   OH230473   3.529   7.118   0.614
10177TIP3    H130474   3.551   7.112   0.707
10177TIP3    H230475   3.603   7.077   0.569
10178TIP3   OH230476   3.730   6.993   0.482
10178TIP3    H130477   3.743   6.910   0.528
10178TIP3    H230478   3.817   7.032   0.477
10179TIP3   OH230479   3.992   7.082   0.491
10179TIP3    H130480   4.020   6.992   0.477
10179TIP3    H230481   4.038   7.111   0.570
10180TIP3   OH230482   4.595   5.757   0.577
10180TIP3    H130483   4.551   5.681   0.613
10180TIP3    H230484   4.660   5.720   0.517
10181TIP3   OH230485   5.089   5.621   0.475
10181TIP3    H130486   5.126   5.671   0.403
10181TIP3    H230487   4.996   5.643   0.474
10182TIP3   OH230488   5.187   5.724   0.239
10182TIP3    H130489   5.256   5.670   0.200
10182TIP3    H230490   5.216   5.814   0.225
10183TIP3   OH230491   4.238   5.503   0.430
10183TIP3    H130492   4.311   5.551   0.389
10183TIP3    H230493   4.247   5.521   0.523
10184TIP3   OH230494   4.800   5.626   0.451
10184TIP3    H130495   4.810   5.596   0.361
10184TIP3    H230496   4.786   5.546   0.502
10185TIP3   OH230497   4.829   5.554   0.018
10185TIP3    H130498   4.747   5.601   0.032
10185TIP3    H230499   4.815   5.469   0.061
10186TIP3   OH230500   0.470   2.893   6.960
10186TIP3    H130501   0.405   2.842   6.911
10186TIP3    H230502   0.467   2.980   6.921
10187TIP3   OH230503   4.247   5.661   0.098
10187TIP3    H130504   4.304   5.616   0.160
10187TIP3    H230505   4.259   5.754   0.117
10188TIP3   OH230506   1.258   3.071   6.538
10188TIP3    H130507   1.344   3.097   6.506
10188TIP3    H230508   1.232   2.998   6.481
10189TIP3   OH230509   0.562   2.908   6.598
10189TIP3    H130510   0.567   2.949   6.684
10189TIP3    H230511   0.648   2.868   6.585
10190TIP3   OH230512   5.019   7.335   0.871
10190TIP3    H130513   4.946   7.314   0.812
10190TIP3    H230514   5.014   7.430   0.882
10191TIP3   OH230515   3.467   2.714   6.582
10191TIP3    H130516   3.440   2.804   6.562
10191TIP3    H230517   3.395   2.659   6.550
10192TIP3   OH230518   6.302   6.719   0.029
10192TIP3    H130519   6.336   6.695   0.116
10192TIP3    H230520   6.261   6.640  -0.004
10193TIP3   OH230521   5.602   6.614   0.391
10193TIP3    H130522   5.628   6.546   0.453
10193TIP3    H230523   5.678   6.671   0.384
10194TIP3   OH230524   3.717   3.016   6.651
10194TIP3    H130525   3.697   2.948   6.715
10194TIP3    H230526   3.741   3.093   6.703
10195TIP3   OH230527   5.576   7.021   0.113
10195TIP3    H130528   5.563   6.926   0.116
10195TIP3    H230529   5.671   7.031   0.107
10196TIP3   OH230530   2.442   2.215   6.845
10196TIP3    H130531   2.395   2.281   6.895
10196TIP3    H230532   2.375   2.170   6.794
10197TIP3   OH230533   5.354   6.517   0.058
10197TIP3    H130534   5.383   6.437   0.101
10197TIP3    H230535   5.430   6.546   0.007
10198TIP3   OH230536   3.364   3.475   6.665
10198TIP3    H130537   3.406   3.405   6.616
10198TIP3    H230538   3.355   3.440   6.754
10199TIP3   OH230539   6.102   6.943   0.074
10199TIP3    H130540   6.138   6.867   0.029
10199TIP3    H230541   6.179   6.993   0.102
10200TIP3   OH230542   7.116   6.264   0.071
10200TIP3    H130543   7.144   6.346   0.112
10200TIP3    H230544   7.144   6.272  -0.020
10201TIP3   OH230545   6.511   6.441   0.104
10201TIP3    H130546   6.556   6.360   0.126
10201TIP3    H230547   6.480   6.429   0.014
10202TIP3   OH230548   5.851   6.106   0.068
10202TIP3    H130549   5.833   6.179   0.009
10202TIP3    H230550   5.807   6.031   0.027
10203TIP3   OH230551   3.715   2.191   6.631
10203TIP3    H130552   3.782   2.177   6.697
10203TIP3    H230553   3.763   2.225   6.555
10204TIP3   OH230554   5.482   6.304   0.178
10204TIP3    H130555   5.563   6.291   0.227
10204TIP3    H230556   5.493   6.252   0.098
10205TIP3   OH230557   3.092   2.495   6.914
10205TIP3    H130558   3.184   2.474   6.925
10205TIP3    H230559   3.052   2.414   6.881
10206TIP3   OH230560   7.187   6.475   0.245
10206TIP3    H130561   7.104   6.518   0.225
10206TIP3    H230562   7.212   6.509   0.330
10207TIP3   OH230563   5.844   6.098   0.501
10207TIP3    H130564   5.786   6.129   0.431
10207TIP3    H230565   5.795   6.113   0.582
10208TIP3   OH230566   3.355   2.933   6.453
10208TIP3    H130567   3.320   2.916   6.366
10208TIP3    H230568   3.313   3.015   6.481
10209TIP3   OH230569   5.953   6.866   0.298
10209TIP3    H130570   5.893   6.932   0.335
10209TIP3    H230571   5.997   6.911   0.226
10210TIP3   OH230572   3.918   2.198   6.810
10210TIP3    H130573   3.915   2.145   6.890
10210TIP3    H230574   3.973   2.273   6.833
10211TIP3   OH230575   5.720   6.207   0.285
10211TIP3    H130576   5.778   6.278   0.313
10211TIP3    H230577   5.767   6.164   0.213
10212TIP3   OH230578   5.780   7.062   0.397
10212TIP3    H130579   5.761   7.148   0.359
10212TIP3    H230580   5.704   7.042   0.452
10213TIP3   OH230581   3.779   3.258   6.809
10213TIP3    H130582   3.694   3.247   6.852
10213TIP3    H230583   3.775   3.344   6.768
10214TIP3   OH230584   6.908   6.162   0.237
10214TIP3    H130585   6.822   6.189   0.207
10214TIP3    H230586   6.968   6.193   0.169
10215TIP3   OH230587   6.206   5.809   0.224
10215TIP3    H130588   6.185   5.716   0.225
10215TIP3    H230589   6.126   5.851   0.256
10216TIP3   OH230590   3.483   3.301   6.484
10216TIP3    H130591   3.529   3.219   6.467
10216TIP3    H230592   3.540   3.369   6.447
10217TIP3   OH230593   3.626   3.086   6.399
10217TIP3    H130594   3.592   3.008   6.357
10217TIP3    H230595   3.664   3.054   6.482
10218TIP3   OH230596   6.840   7.174   0.219
10218TIP3    H130597   6.828   7.099   0.161
10218TIP3    H230598   6.821   7.250   0.164
10219TIP3   OH230599   3.299   2.565   6.416
10219TIP3    H130600   3.221   2.616   6.396
10219TIP3    H230601   3.346   2.560   6.333
10220TIP3   OH230602   3.261   2.350   6.130
10220TIP3    H130603   3.325   2.402   6.178
10220TIP3    H230604   3.313   2.286   6.082
10221TIP3   OH230605   7.034   6.818   0.062
10221TIP3    H130606   6.952   6.866   0.072
10221TIP3    H230607   7.063   6.837  -0.027
10222TIP3   OH230608   3.648   2.647   6.389
10222TIP3    H130609   3.592   2.672   6.463
10222TIP3    H230610   3.731   2.621   6.429
10223TIP3   OH230611   6.713   6.693   0.364
10223TIP3    H130612   6.714   6.775   0.413
10223TIP3    H230613   6.630   6.695   0.316
10224TIP3   OH230614   2.879   2.640   6.806
10224TIP3    H130615   2.836   2.584   6.742
10224TIP3    H230616   2.955   2.590   6.835
10225TIP3   OH230617   3.010   3.053   6.951
10225TIP3    H130618   2.990   3.018   6.864
10225TIP3    H230619   3.098   3.020   6.971
10226TIP3   OH230620   5.850   6.623   0.217
10226TIP3    H130621   5.882   6.600   0.130
10226TIP3    H230622   5.891   6.708   0.236
10227TIP3   OH230623   6.376   7.259  -0.003
10227TIP3    H130624   6.361   7.340   0.045
10227TIP3    H230625   6.359   7.190   0.060
10228TIP3   OH230626   5.983   7.178   0.544
10228TIP3    H130627   5.927   7.240   0.590
10228TIP3    H230628   5.923   7.124   0.493
10229TIP3   OH230629   3.487   2.507   6.213
10229TIP3    H130630   3.544   2.564   6.264
10229TIP3    H230631   3.510   2.526   6.122
10230TIP3   OH230632   5.744   6.729   0.649
10230TIP3    H130633   5.753   6.818   0.681
10230TIP3    H230634   5.650   6.712   0.652
10231TIP3   OH230635   3.233   3.182   6.490
10231TIP3    H130636   3.313   3.233   6.500
10231TIP3    H230637   3.171   3.243   6.448
10232TIP3   OH230638   5.779   7.344   0.631
10232TIP3    H130639   5.746   7.346   0.541
10232TIP3    H230640   5.701   7.323   0.684
10233TIP3   OH230641   4.001   1.745   6.262
10233TIP3    H130642   3.922   1.766   6.312
10233TIP3    H230643   4.018   1.824   6.210
10234TIP3   OH230644   2.735   2.487   6.615
10234TIP3    H130645   2.666   2.535   6.569
10234TIP3    H230646   2.708   2.395   6.612
10235TIP3   OH230647   3.805   3.112   5.813
10235TIP3    H130648   3.811   3.206   5.797
10235TIP3    H230649   3.895   3.080   5.800
10236TIP3   OH230650   5.358   6.878   0.578
10236TIP3    H130651   5.290   6.863   0.512
10236TIP3    H230652   5.395   6.792   0.595
10237TIP3   OH230653   5.216   7.067   0.215
10237TIP3    H130654   5.311   7.074   0.206
10237TIP3    H230655   5.191   7.149   0.260
10238TIP3   OH230656   7.084   7.514   0.284
10238TIP3    H130657   7.080   7.419   0.295
10238TIP3    H230658   7.001   7.546   0.318
10239TIP3   OH230659   6.182   7.308   0.401
10239TIP3    H130660   6.182   7.399   0.431
10239TIP3    H230661   6.113   7.266   0.453
10240TIP3   OH230662   3.113   3.429   6.291
10240TIP3    H130663   3.067   3.409   6.210
10240TIP3    H230664   3.079   3.514   6.318
10241TIP3   OH230665   2.553   3.283   6.680
10241TIP3    H130666   2.598   3.276   6.764
10241TIP3    H230667   2.499   3.204   6.676
10242TIP3   OH230668   3.316   3.331   5.931
10242TIP3    H130669   3.370   3.262   5.894
10242TIP3    H230670   3.347   3.341   6.021
10243TIP3   OH230671   3.364   3.379   6.202
10243TIP3    H130672   3.277   3.389   6.240
10243TIP3    H230673   3.417   3.341   6.272
10244TIP3   OH230674   6.967   6.650   0.541
10244TIP3    H130675   6.887   6.664   0.490
10244TIP3    H230676   6.984   6.556   0.532
10245TIP3   OH230677   5.564   7.060   0.561
10245TIP3    H130678   5.615   7.046   0.641
10245TIP3    H230679   5.489   7.000   0.570
10246TIP3   OH230680   5.955   5.906   0.301
10246TIP3    H130681   5.869   5.865   0.297
10246TIP3    H230682   5.947   5.971   0.371
10247TIP3   OH230683   6.499   6.004   0.548
10247TIP3    H130684   6.568   5.973   0.607
10247TIP3    H230685   6.418   5.980   0.592
10248TIP3   OH230686   6.733   6.428   0.460
10248TIP3    H130687   6.687   6.424   0.544
10248TIP3    H230688   6.713   6.514   0.425
10249TIP3   OH230689   3.564   2.549   5.957
10249TIP3    H130690   3.527   2.526   5.872
10249TIP3    H230691   3.648   2.591   5.935
10250TIP3   OH230692   3.273   1.922   6.262
10250TIP3    H130693   3.242   1.923   6.352
10250TIP3    H230694   3.237   1.842   6.224
10251TIP3   OH230695   5.894   6.403   0.366
10251TIP3    H130696   5.845   6.420   0.447
10251TIP3    H230697   5.880   6.481   0.313
10252TIP3   OH230698   2.944   2.278   6.820
10252TIP3    H130699   2.853   2.254   6.841
10252TIP3    H230700   2.959   2.239   6.734
10253TIP3   OH230701   3.436   2.365   6.549
10253TIP3    H130702   3.385   2.434   6.508
10253TIP3    H230703   3.492   2.331   6.479
10254TIP3   OH230704   6.450   6.650   0.692
10254TIP3    H130705   6.425   6.578   0.750
10254TIP3    H230706   6.542   6.667   0.712
10255TIP3   OH230707   3.590   2.388   6.785
10255TIP3    H130708   3.530   2.420   6.717
10255TIP3    H230709   3.630   2.310   6.746
10256TIP3   OH230710   5.715   6.430   0.575
10256TIP3    H130711   5.735   6.499   0.639
10256TIP3    H230712   5.704   6.351   0.628
10257TIP3   OH230713   2.933   1.899   6.234
10257TIP3    H130714   2.917   1.890   6.328
10257TIP3    H230715   2.857   1.948   6.202
10258TIP3   OH230716   5.313   5.947   0.163
10258TIP3    H130717   5.382   5.982   0.218
10258TIP3    H230718   5.350   5.948   0.074
10259TIP3   OH230719   6.436   6.640   0.270
10259TIP3    H130720   6.468   6.573   0.210
10259TIP3    H230721   6.405   6.591   0.346
10260TIP3   OH230722   3.276   2.097   6.885
10260TIP3    H130723   3.196   2.098   6.937
10260TIP3    H230724   3.347   2.096   6.949
10261TIP3   OH230725   2.705   2.157   6.889
10261TIP3    H130726   2.614   2.166   6.861
10261TIP3    H230727   2.730   2.068   6.862
10262TIP3   OH230728   2.974   2.154   6.579
10262TIP3    H130729   3.067   2.169   6.558
10262TIP3    H230730   2.928   2.177   6.498
10263TIP3   OH230731   6.600   6.182   0.151
10263TIP3    H130732   6.565   6.197   0.239
10263TIP3    H230733   6.536   6.124   0.109
10264TIP3   OH230734   2.817   2.194   6.358
10264TIP3    H130735   2.745   2.144   6.318
10264TIP3    H230736   2.869   2.225   6.284
10265TIP3   OH230737   5.742   6.981   0.776
10265TIP3    H130738   5.818   7.013   0.825
10265TIP3    H230739   5.669   6.987   0.837
10266TIP3   OH230740   6.192   6.435   0.037
10266TIP3    H130741   6.264   6.400  -0.015
10266TIP3    H230742   6.202   6.392   0.122
10267TIP3   OH230743   2.880   1.916   6.858
10267TIP3    H130744   2.843   1.839   6.902
10267TIP3    H230745   2.911   1.883   6.774
10268TIP3   OH230746   6.165   6.332   0.338
10268TIP3    H130747   6.077   6.370   0.346
10268TIP3    H230748   6.222   6.395   0.382
10269TIP3   OH230749   3.065   2.714   6.366
10269TIP3    H130750   2.995   2.650   6.352
10269TIP3    H230751   3.050   2.748   6.454
10270TIP3   OH230752   6.799   6.957   0.052
10270TIP3    H130753   6.824   7.007  -0.025
10270TIP3    H230754   6.716   6.916   0.028
10271TIP3   OH230755   3.527   2.025   6.236
10271TIP3    H130756   3.433   2.008   6.240
10271TIP3    H230757   3.535   2.118   6.255
10272TIP3   OH230758   6.294   7.039   0.427
10272TIP3    H130759   6.331   7.028   0.514
10272TIP3    H230760   6.263   7.129   0.425
10273TIP3   OH230761   3.597   2.278   6.333
10273TIP3    H130762   3.692   2.282   6.346
10273TIP3    H230763   3.577   2.355   6.280
10274TIP3   OH230764   5.596   6.742   0.100
10274TIP3    H130765   5.635   6.717   0.016
10274TIP3    H230766   5.639   6.685   0.164
10275TIP3   OH230767   3.213   2.867   6.191
10275TIP3    H130768   3.168   2.951   6.194
10275TIP3    H230769   3.162   2.810   6.248
10276TIP3   OH230770   5.479   6.660   0.703
10276TIP3    H130771   5.498   6.660   0.797
10276TIP3    H230772   5.399   6.608   0.695
10277TIP3   OH230773   6.206   6.778   0.733
10277TIP3    H130774   6.144   6.728   0.678
10277TIP3    H230775   6.292   6.750   0.703
10278TIP3   OH230776   6.459   7.292   0.329
10278TIP3    H130777   6.364   7.298   0.334
10278TIP3    H230778   6.491   7.350   0.398
10279TIP3   OH230779   4.035   2.372   6.167
10279TIP3    H130780   3.977   2.323   6.109
10279TIP3    H230781   4.037   2.460   6.130
10280TIP3   OH230782   7.088   7.224   0.308
10280TIP3    H130783   6.993   7.223   0.301
10280TIP3    H230784   7.119   7.201   0.220
10281TIP3   OH230785   3.747   3.184   6.079
10281TIP3    H130786   3.711   3.116   6.136
10281TIP3    H230787   3.755   3.141   5.993
10282TIP3   OH230788   3.734   2.813   6.909
10282TIP3    H130789   3.641   2.792   6.924
10282TIP3    H230790   3.768   2.735   6.865
10283TIP3   OH230791   2.862   3.045   6.664
10283TIP3    H130792   2.865   3.124   6.611
10283TIP3    H230793   2.769   3.033   6.684
10284TIP3   OH230794   2.419   2.353   6.379
10284TIP3    H130795   2.465   2.436   6.388
10284TIP3    H230796   2.344   2.359   6.438
10285TIP3   OH230797   2.994   2.807   6.610
10285TIP3    H130798   2.962   2.896   6.625
10285TIP3    H230799   2.962   2.757   6.684
10286TIP3   OH230800   5.970   7.394   0.193
10286TIP3    H130801   6.008   7.466   0.143
10286TIP3    H230802   6.044   7.357   0.242
10287TIP3   OH230803   2.780   3.284   6.519
10287TIP3    H130804   2.696   3.290   6.565
10287TIP3    H230805   2.815   3.373   6.520
10288TIP3   OH230806   6.351   7.027   0.158
10288TIP3    H130807   6.339   7.026   0.253
10288TIP3    H230808   6.432   6.978   0.144
10289TIP3   OH230809   3.496   2.916   5.980
10289TIP3    H130810   3.549   2.892   6.056
10289TIP3    H230811   3.408   2.886   6.003
10290TIP3   OH230812   6.600   7.560   0.198
10290TIP3    H130813   6.519   7.510   0.188
10290TIP3    H230814   6.593   7.631   0.134
10291TIP3   OH230815   3.837   3.389   5.799
10291TIP3    H130816   3.877   3.455   5.742
10291TIP3    H230817   3.758   3.430   5.833
10292TIP3   OH230818   5.684   6.168   0.715
10292TIP3    H130819   5.589   6.167   0.726
10292TIP3    H230820   5.717   6.109   0.783
10293TIP3   OH230821   3.657   2.848   6.196
10293TIP3    H130822   3.644   2.782   6.264
10293TIP3    H230823   3.751   2.847   6.178
10294TIP3   OH230824   5.410   7.255   0.353
10294TIP3    H130825   5.459   7.182   0.391
10294TIP3    H230826   5.429   7.329   0.411
10295TIP3   OH230827   2.860   2.892   5.978
10295TIP3    H130828   2.873   2.803   5.948
10295TIP3    H230829   2.842   2.884   6.072
10296TIP3   OH230830   2.809   2.901   6.252
10296TIP3    H130831   2.884   2.874   6.306
10296TIP3    H230832   2.809   2.997   6.256
10297TIP3   OH230833   2.535   2.612   6.456
10297TIP3    H130834   2.452   2.644   6.421
10297TIP3    H230835   2.602   2.645   6.396
10298TIP3   OH230836   6.524   6.239   0.407
10298TIP3    H130837   6.606   6.279   0.438
10298TIP3    H230838   6.513   6.161   0.461
10299TIP3   OH230839   3.572   1.979   6.513
10299TIP3    H130840   3.558   1.997   6.420
10299TIP3    H230841   3.612   2.059   6.547
10300TIP3   OH230842   3.070   3.097   6.198
10300TIP3    H130843   2.985   3.120   6.234
10300TIP3    H230844   3.090   3.167   6.135
10301TIP3   OH230845   3.260   2.162   6.613
10301TIP3    H130846   3.322   2.232   6.593
10301TIP3    H230847   3.264   2.152   6.708
10302TIP3   OH230848   6.363   6.482   0.480
10302TIP3    H130849   6.389   6.535   0.555
10302TIP3    H230850   6.418   6.404   0.486
10303TIP3   OH230851   3.404   1.882   6.712
10303TIP3    H130852   3.393   1.957   6.771
10303TIP3    H230853   3.465   1.914   6.645
10304TIP3   OH230854   2.815   3.173   6.267
10304TIP3    H130855   2.787   3.240   6.204
10304TIP3    H230856   2.800   3.214   6.353
10305TIP3   OH230857   2.925   1.886   6.518
10305TIP3    H130858   2.917   1.978   6.544
10305TIP3    H230859   3.020   1.870   6.516
10306TIP3   OH230860   6.999   6.383   0.461
10306TIP3    H130861   6.904   6.383   0.467
10306TIP3    H230862   7.018   6.348   0.374
10307TIP3   OH230863   3.820   2.569   6.788
10307TIP3    H130864   3.744   2.512   6.798
10307TIP3    H230865   3.890   2.525   6.835
10308TIP3   OH230866   2.539   2.817   6.239
10308TIP3    H130867   2.610   2.879   6.254
10308TIP3    H230868   2.577   2.751   6.181
10309TIP3   OH230869   2.484   2.085   6.341
10309TIP3    H130870   2.471   2.176   6.369
10309TIP3    H230871   2.433   2.033   6.404
10310TIP3   OH230872   3.792   3.526   6.729
10310TIP3    H130873   3.745   3.571   6.659
10310TIP3    H230874   3.885   3.545   6.712
10311TIP3   OH230875   5.700   5.803   0.322
10311TIP3    H130876   5.669   5.776   0.235
10311TIP3    H230877   5.688   5.726   0.377
10312TIP3   OH230878   2.429   3.042   6.649
10312TIP3    H130879   2.338   3.024   6.674
10312TIP3    H230880   2.429   3.039   6.553
10313TIP3   OH230881   5.398   7.568   0.780
10313TIP3    H130882   5.482   7.567   0.825
10313TIP3    H230883   5.373   7.476   0.773
10314TIP3   OH230884   5.874   7.526   0.818
10314TIP3    H130885   5.968   7.511   0.828
10314TIP3    H230886   5.847   7.467   0.748
10315TIP3   OH230887   3.024   3.094   5.887
10315TIP3    H130888   2.969   3.026   5.926
10315TIP3    H230889   3.099   3.047   5.851
10316TIP3   OH230890   6.511   7.438   0.558
10316TIP3    H130891   6.507   7.368   0.623
10316TIP3    H230892   6.589   7.488   0.582
10317TIP3   OH230893   3.459   3.135   5.802
10317TIP3    H130894   3.499   3.070   5.859
10317TIP3    H230895   3.512   3.133   5.722
10318TIP3   OH230896   5.530   6.982   0.942
10318TIP3    H130897   5.545   6.889   0.963
10318TIP3    H230898   5.439   6.986   0.913
10319TIP3   OH230899   2.676   2.611   6.117
10319TIP3    H130900   2.734   2.577   6.185
10319TIP3    H230901   2.732   2.618   6.039
10320TIP3   OH230902   6.132   7.058   0.746
10320TIP3    H130903   6.092   7.078   0.662
10320TIP3    H230904   6.163   6.968   0.738
10321TIP3   OH230905   3.184   2.810   5.922
10321TIP3    H130906   3.185   2.826   6.016
10321TIP3    H230907   3.185   2.715   5.913
10322TIP3   OH230908   6.624   7.069   0.357
10322TIP3    H130909   6.701   7.108   0.314
10322TIP3    H230910   6.556   7.135   0.346
10323TIP3   OH230911   5.635   6.704   0.941
10323TIP3    H130912   5.722   6.684   0.906
10323TIP3    H230913   5.635   6.666   1.029
10324TIP3   OH230914   2.870   2.514   6.328
10324TIP3    H130915   2.855   2.469   6.412
10324TIP3    H230916   2.910   2.447   6.273
10325TIP3   OH230917   5.983   6.588   0.621
10325TIP3    H130918   5.905   6.644   0.625
10325TIP3    H230919   6.030   6.619   0.544
10326TIP3   OH230920   2.981   2.317   6.170
10326TIP3    H130921   2.952   2.318   6.078
10326TIP3    H230922   3.076   2.319   6.165
10327TIP3   OH230923   6.496   6.989   0.754
10327TIP3    H130924   6.573   6.965   0.703
10327TIP3    H230925   6.493   6.924   0.825
10328TIP3   OH230926   3.796   2.642   5.836
10328TIP3    H130927   3.779   2.594   5.755
10328TIP3    H230928   3.766   2.731   5.818
10329TIP3   OH230929   6.106   6.377   0.741
10329TIP3    H130930   6.107   6.298   0.686
10329TIP3    H230931   6.065   6.444   0.687
10330TIP3   OH230932   6.105   6.166   0.555
10330TIP3    H130933   6.133   6.209   0.474
10330TIP3    H230934   6.015   6.139   0.538
10331TIP3   OH230935   6.130   6.702   0.427
10331TIP3    H130936   6.215   6.713   0.385
10331TIP3    H230937   6.073   6.765   0.384
10332TIP3   OH230938   6.717   6.666   0.805
10332TIP3    H130939   6.764   6.584   0.813
10332TIP3    H230940   6.781   6.727   0.768
10333TIP3   OH230941   6.754   6.921   0.540
10333TIP3    H130942   6.695   6.974   0.485
10333TIP3    H230943   6.841   6.939   0.505
10334TIP3   OH230944   5.961   6.499   0.949
10334TIP3    H130945   5.898   6.428   0.955
10334TIP3    H230946   6.010   6.482   0.868
10335TIP3   OH230947   6.235   5.930   0.616
10335TIP3    H130948   6.200   6.018   0.600
10335TIP3    H230949   6.159   5.872   0.607
10336TIP3   OH230950   6.366   6.430   0.828
10336TIP3    H130951   6.352   6.424   0.923
10336TIP3    H230952   6.281   6.407   0.790
10337TIP3   OH230953   6.604   6.380   0.690
10337TIP3    H130954   6.529   6.383   0.749
10337TIP3    H230955   6.677   6.352   0.746
10338TIP3   OH230956   6.831   6.322   0.836
10338TIP3    H130957   6.842   6.228   0.851
10338TIP3    H230958   6.827   6.359   0.924
10339TIP3   OH230959   5.809   6.271   0.997
10339TIP3    H130960   5.826   6.181   0.969
10339TIP3    H230961   5.855   6.279   1.081
10340TIP3   OH230962   6.326   5.930   0.879
10340TIP3    H130963   6.397   5.868   0.860
10340TIP3    H230964   6.281   5.942   0.796
10341TIP3   OH230965   6.405   6.153   1.030
10341TIP3    H130966   6.380   6.072   0.984
10341TIP3    H230967   6.328   6.209   1.024
10342TIP3   OH230968   2.790   3.377   6.078
10342TIP3    H130969   2.883   3.366   6.060
10342TIP3    H230970   2.755   3.424   6.002
10343TIP3   OH230971   2.311   2.689   6.339
10343TIP3    H130972   2.362   2.757   6.293
10343TIP3    H230973   2.277   2.633   6.269
10344TIP3   OH230974   2.177   3.359   6.697
10344TIP3    H130975   2.141   3.291   6.641
10344TIP3    H230976   2.220   3.311   6.769
10345TIP3   OH230977   2.310   3.233   6.899
10345TIP3    H130978   2.299   3.150   6.945
10345TIP3    H230979   2.366   3.285   6.956
10346TIP3   OH230980   4.050   3.604   6.685
10346TIP3    H130981   4.068   3.618   6.778
10346TIP3    H230982   4.093   3.678   6.641
10347TIP3   OH230983   6.932   7.624   0.008
10347TIP3    H130984   6.892   7.541   0.036
10347TIP3    H230985   6.949   7.671   0.090
10348TIP3   OH230986   6.954   7.323   0.613
10348TIP3    H130987   6.880   7.331   0.673
10348TIP3    H230988   6.994   7.410   0.612
10349TIP3   OH230989   3.933   2.832   6.168
10349TIP3    H130990   3.999   2.894   6.136
10349TIP3    H230991   3.971   2.796   6.248
10350TIP3   OH230992   4.051   2.715   6.383
10350TIP3    H130993   3.988   2.663   6.432
10350TIP3    H230994   4.121   2.734   6.445
10351TIP3   OH230995   4.117   3.086   6.807
10351TIP3    H130996   4.173   3.021   6.762
10351TIP3    H230997   4.107   3.157   6.743
10352TIP3   OH230998   6.777   7.391   0.064
10352TIP3    H130999   6.714   7.443   0.114
10352TIP3    H231000   6.725   7.350  -0.006
10353TIP3   OH231001   3.996   2.609   6.020
10353TIP3    H131002   3.929   2.604   5.952
10353TIP3    H231003   3.969   2.683   6.075
10354TIP3   OH231004   3.868   2.278   5.974
10354TIP3    H131005   3.829   2.314   5.894
10354TIP3    H231006   3.849   2.184   5.969
10355TIP3   OH231007   3.876   2.553   6.518
10355TIP3    H131008   3.884   2.458   6.507
10355TIP3    H231009   3.862   2.564   6.612
10356TIP3   OH231010   5.338   6.626   0.320
10356TIP3    H131011   5.334   6.604   0.227
10356TIP3    H231012   5.431   6.630   0.340
10357TIP3   OH231013   6.999   6.984   0.437
10357TIP3    H131014   7.069   6.919   0.426
10357TIP3    H231015   7.024   7.055   0.378
10358TIP3   OH231016   7.181   6.783   0.447
10358TIP3    H131017   7.107   6.738   0.487
10358TIP3    H231018   7.256   6.725   0.462
10359TIP3   OH231019   3.815   2.012   5.959
10359TIP3    H131020   3.889   1.981   6.010
10359TIP3    H231021   3.744   1.952   5.981
10360TIP3   OH231022   3.877   2.272   6.410
10360TIP3    H131023   3.912   2.185   6.428
10360TIP3    H231024   3.932   2.307   6.340
10361TIP3   OH231025   4.036   2.444   6.911
10361TIP3    H131026   4.117   2.466   6.866
10361TIP3    H231027   4.046   2.478   7.000
10362TIP3   OH231028   6.938   6.597   0.202
10362TIP3    H131029   6.861   6.628   0.249
10362TIP3    H231030   6.971   6.674   0.156
10363TIP3   OH231031   5.548   6.313   0.939
10363TIP3    H131032   5.643   6.318   0.934
10363TIP3    H231033   5.531   6.252   1.012
10364TIP3   OH231034   7.387   6.183   0.753
10364TIP3    H131035   7.447   6.120   0.713
10364TIP3    H231036   7.357   6.238   0.681
10365TIP3   OH231037   3.976   2.022   6.457
10365TIP3    H131038   4.030   2.006   6.534
10365TIP3    H231039   3.919   1.945   6.451
10366TIP3   OH231040   5.520   6.014   0.334
10366TIP3    H131041   5.579   5.939   0.338
10366TIP3    H231042   5.577   6.090   0.323
10367TIP3   OH231043   5.319   6.283   0.405
10367TIP3    H131044   5.366   6.281   0.322
10367TIP3    H231045   5.335   6.372   0.439
10368TIP3   OH231046   7.253   6.322   0.561
10368TIP3    H131047   7.171   6.367   0.580
10368TIP3    H231048   7.229   6.251   0.502
10369TIP3   OH231049   4.058   1.951   6.084
10369TIP3    H131050   4.101   1.883   6.033
10369TIP3    H231051   4.121   2.023   6.087
10370TIP3   OH231052   3.627   3.485   6.350
10370TIP3    H131053   3.679   3.476   6.270
10370TIP3    H231054   3.672   3.551   6.401
10371TIP3   OH231055   5.508   5.890   0.721
10371TIP3    H131056   5.424   5.863   0.760
10371TIP3    H231057   5.483   5.944   0.646
10372TIP3   OH231058   5.557   7.296   0.798
10372TIP3    H131059   5.466   7.274   0.779
10372TIP3    H231060   5.569   7.273   0.890
10373TIP3   OH231061   5.743   7.333   0.342
10373TIP3    H131062   5.690   7.405   0.307
10373TIP3    H231063   5.828   7.344   0.299
10374TIP3   OH231064   6.185   7.574   0.482
10374TIP3    H131065   6.223   7.573   0.570
10374TIP3    H231066   6.247   7.624   0.429
10375TIP3   OH231067   6.364   7.728   0.343
10375TIP3    H131068   6.430   7.680   0.294
10375TIP3    H231069   6.414   7.787   0.400
10376TIP3   OH231070   7.156   6.085   0.440
10376TIP3    H131071   7.068   6.081   0.401
10376TIP3    H231072   7.191   5.996   0.429
10377TIP3   OH231073   5.414   7.587   0.370
10377TIP3    H131074   5.327   7.616   0.343
10377TIP3    H231075   5.428   7.628   0.455
10378TIP3   OH231076   5.650   7.566   0.226
10378TIP3    H131077   5.566   7.577   0.271
10378TIP3    H231078   5.632   7.596   0.137
10379TIP3   OH231079   6.077   7.595   0.024
10379TIP3    H131080   6.007   7.612  -0.040
10379TIP3    H231081   6.091   7.679   0.066
10380TIP3   OH231082   6.347   7.528   0.076
10380TIP3    H131083   6.255   7.549   0.057
10380TIP3    H231084   6.396   7.599   0.035
10381TIP3   OH231085   3.699   3.712   6.926
10381TIP3    H131086   3.705   3.803   6.898
10381TIP3    H231087   3.737   3.662   6.854
10382TIP3   OH231088   5.332   7.379   0.114
10382TIP3    H131089   5.354   7.353   0.204
10382TIP3    H231090   5.400   7.339   0.060
10383TIP3   OH231091   2.692   3.245   6.913
10383TIP3    H131092   2.703   3.162   6.960
10383TIP3    H231093   2.779   3.282   6.909
10384TIP3   OH231094   2.958   3.337   6.917
10384TIP3    H131095   2.985   3.247   6.903
10384TIP3    H231096   3.001   3.364   6.998
10385TIP3   OH231097   6.365   6.003   0.060
10385TIP3    H131098   6.322   5.933   0.109
10385TIP3    H231099   6.438   5.960   0.015
10386TIP3   OH231100   4.049   1.882   6.906
10386TIP3    H131101   4.087   1.929   6.832
10386TIP3    H231102   3.955   1.897   6.898
10387TIP3   OH231103   4.149   1.979   6.668
10387TIP3    H131104   4.214   1.920   6.631
10387TIP3    H231105   4.183   2.066   6.651
10388TIP3   OH231106   5.610   5.710   0.075
10388TIP3    H131107   5.518   5.684   0.074
10388TIP3    H231108   5.659   5.629   0.065
10389TIP3   OH231109   3.229   1.732   6.899
10389TIP3    H131110   3.278   1.777   6.831
10389TIP3    H231111   3.247   1.781   6.979
10390TIP3   OH231112   3.764   1.881   6.880
10390TIP3    H131113   3.769   1.847   6.791
10390TIP3    H231114   3.752   1.803   6.935
10391TIP3   OH231115   3.796   1.806   6.444
10391TIP3    H131116   3.713   1.851   6.455
10391TIP3    H231117   3.784   1.721   6.487
10392TIP3   OH231118   2.695   1.761   6.383
10392TIP3    H131119   2.742   1.684   6.353
10392TIP3    H231120   2.746   1.793   6.457
10393TIP3   OH231121   3.199   1.912   6.527
10393TIP3    H131122   3.259   1.864   6.584
10393TIP3    H231123   3.215   2.004   6.548
10394TIP3   OH231124   3.056   3.329   6.023
10394TIP3    H131125   3.142   3.354   5.990
10394TIP3    H231126   3.030   3.255   5.967
10395TIP3   OH231127   3.775   3.452   6.118
10395TIP3    H131128   3.769   3.357   6.110
10395TIP3    H231129   3.730   3.486   6.041
10396TIP3   OH231130   5.857   6.006   0.933
10396TIP3    H131131   5.848   5.948   1.008
10396TIP3    H231132   5.952   6.014   0.920
10397TIP3   OH231133   2.349   3.171   6.079
10397TIP3    H131134   2.336   3.215   6.163
10397TIP3    H231135   2.438   3.135   6.086
10398TIP3   OH231136   6.896   6.054   0.856
10398TIP3    H131137   6.920   6.033   0.946
10398TIP3    H231138   6.979   6.057   0.809
10399TIP3   OH231139   6.830   7.597   0.367
10399TIP3    H131140   6.750   7.581   0.317
10399TIP3    H231141   6.846   7.691   0.357
10400TIP3   OH231142   5.264   2.972   6.068
10400TIP3    H131143   5.235   3.061   6.048
10400TIP3    H231144   5.193   2.917   6.035
10401TIP3   OH231145   5.264   2.968   6.459
10401TIP3    H131146   5.299   2.943   6.544
10401TIP3    H231147   5.224   2.889   6.424
10402TIP3   OH231148   4.562   2.867   6.817
10402TIP3    H131149   4.584   2.797   6.879
10402TIP3    H231150   4.644   2.912   6.801
10403TIP3   OH231151   5.511   3.272   6.137
10403TIP3    H131152   5.492   3.203   6.200
10403TIP3    H231153   5.539   3.346   6.191
10404TIP3   OH231154   4.240   2.512   6.354
10404TIP3    H131155   4.164   2.567   6.335
10404TIP3    H231156   4.219   2.427   6.314
10405TIP3   OH231157   4.320   2.767   6.492
10405TIP3    H131158   4.350   2.691   6.542
10405TIP3    H231159   4.339   2.744   6.401
10406TIP3   OH231160   5.162   3.732   6.153
10406TIP3    H131161   5.201   3.662   6.100
10406TIP3    H231162   5.150   3.693   6.240
10407TIP3   OH231163   5.065   3.195   6.502
10407TIP3    H131164   5.099   3.117   6.458
10407TIP3    H231165   5.143   3.244   6.528
10408TIP3   OH231166   6.082   2.515   6.499
10408TIP3    H131167   6.108   2.597   6.542
10408TIP3    H231168   6.097   2.531   6.406
10409TIP3   OH231169   5.478   2.693   6.530
10409TIP3    H131170   5.518   2.609   6.552
10409TIP3    H231171   5.443   2.680   6.442
10410TIP3   OH231172   4.809   2.350   6.485
10410TIP3    H131173   4.796   2.427   6.430
10410TIP3    H231174   4.749   2.285   6.450
10411TIP3   OH231175   5.512   2.448   6.119
10411TIP3    H131176   5.580   2.432   6.184
10411TIP3    H231177   5.560   2.482   6.043
10412TIP3   OH231178   4.436   2.546   6.601
10412TIP3    H131179   4.524   2.522   6.630
10412TIP3    H231180   4.420   2.489   6.525
10413TIP3   OH231181   4.883   2.754   6.402
10413TIP3    H131182   4.975   2.730   6.412
10413TIP3    H231183   4.840   2.674   6.372
10414TIP3   OH231184   6.151   2.727   6.668
10414TIP3    H131185   6.068   2.768   6.647
10414TIP3    H231186   6.164   2.746   6.761
10415TIP3   OH231187   4.808   2.343   6.932
10415TIP3    H131188   4.751   2.372   6.861
10415TIP3    H231189   4.757   2.359   7.012
10416TIP3   OH231190   5.151   3.191   5.939
10416TIP3    H131191   5.114   3.171   5.853
10416TIP3    H231192   5.107   3.272   5.966
10417TIP3   OH231193   4.917   3.116   6.724
10417TIP3    H131194   4.857   3.182   6.761
10417TIP3    H231195   4.962   3.162   6.654
10418TIP3   OH231196   5.717   2.452   6.297
10418TIP3    H131197   5.699   2.403   6.377
10418TIP3    H231198   5.767   2.528   6.325
10419TIP3   OH231199   4.684   2.450   6.707
10419TIP3    H131200   4.743   2.522   6.732
10419TIP3    H231201   4.728   2.407   6.635
10420TIP3   OH231202   4.744   3.312   6.824
10420TIP3    H131203   4.725   3.399   6.789
10420TIP3    H231204   4.669   3.291   6.880
10421TIP3   OH231205   4.135   2.999   6.059
10421TIP3    H131206   4.094   3.010   5.973
10421TIP3    H231207   4.155   3.088   6.087
10422TIP3   OH231208   5.576   3.517   6.301
10422TIP3    H131209   5.489   3.505   6.341
10422TIP3    H231210   5.570   3.601   6.256
10423TIP3   OH231211   5.870   2.416   6.664
10423TIP3    H131212   5.782   2.440   6.634
10423TIP3    H231213   5.928   2.445   6.594
10424TIP3   OH231214   5.168   2.058   6.657
10424TIP3    H131215   5.152   1.964   6.660
10424TIP3    H231216   5.091   2.097   6.699
10425TIP3   OH231217   5.277   3.559   5.969
10425TIP3    H131218   5.323   3.476   5.953
10425TIP3    H231219   5.335   3.626   5.933
10426TIP3   OH231220   5.421   3.343   5.886
10426TIP3    H131221   5.388   3.265   5.843
10426TIP3    H231222   5.459   3.312   5.968
10427TIP3   OH231223   5.803   3.426   6.643
10427TIP3    H131224   5.791   3.349   6.587
10427TIP3    H231225   5.785   3.500   6.585
10428TIP3   OH231226   5.096   2.824   5.902
10428TIP3    H131227   5.015   2.871   5.882
10428TIP3    H231228   5.141   2.817   5.818
10429TIP3   OH231229   5.057   2.608   5.615
10429TIP3    H131230   5.122   2.658   5.665
10429TIP3    H231231   5.108   2.542   5.568
10430TIP3   OH231232   5.998   3.068   6.490
10430TIP3    H131233   5.915   3.115   6.497
10430TIP3    H231234   6.029   3.088   6.402
10431TIP3   OH231235   5.444   2.905   5.876
10431TIP3    H131236   5.389   2.929   5.950
10431TIP3    H231237   5.527   2.878   5.916
10432TIP3   OH231238   5.676   2.943   6.789
10432TIP3    H131239   5.675   3.025   6.838
10432TIP3    H231240   5.592   2.942   6.743
10433TIP3   OH231241   4.679   2.900   6.286
10433TIP3    H131242   4.633   2.842   6.226
10433TIP3    H231243   4.752   2.848   6.318
10434TIP3   OH231244   4.817   3.326   6.422
10434TIP3    H131245   4.794   3.264   6.353
10434TIP3    H231246   4.901   3.294   6.456
10435TIP3   OH231247   4.805   2.877   6.644
10435TIP3    H131248   4.839   2.847   6.559
10435TIP3    H231249   4.853   2.957   6.663
10436TIP3   OH231250   5.338   3.510   6.425
10436TIP3    H131251   5.323   3.588   6.477
10436TIP3    H231252   5.322   3.437   6.485
10437TIP3   OH231253   7.780   7.435   0.030
10437TIP3    H131254   7.724   7.497   0.076
10437TIP3    H231255   7.720   7.381  -0.020
10438TIP3   OH231256   5.285   2.763   5.700
10438TIP3    H131257   5.341   2.820   5.752
10438TIP3    H231258   5.308   2.782   5.609
10439TIP3   OH231259   7.537   6.992   0.135
10439TIP3    H131260   7.544   7.078   0.175
10439TIP3    H231261   7.444   6.969   0.143
10440TIP3   OH231262   5.025   3.442   5.980
10440TIP3    H131263   5.108   3.489   5.987
10440TIP3    H231264   4.968   3.501   5.930
10441TIP3   OH231265   7.574   7.600   0.118
10441TIP3    H131266   7.539   7.605   0.030
10441TIP3    H231267   7.499   7.575   0.173
10442TIP3   OH231268   5.798   2.002   5.751
10442TIP3    H131269   5.718   2.019   5.800
10442TIP3    H231270   5.813   2.081   5.700
10443TIP3   OH231271   4.526   2.750   6.115
10443TIP3    H131272   4.466   2.777   6.046
10443TIP3    H231273   4.524   2.654   6.112
10444TIP3   OH231274   5.601   3.369   5.298
10444TIP3    H131275   5.606   3.464   5.283
10444TIP3    H231276   5.690   3.338   5.286
10445TIP3   OH231277   7.156   7.133   0.063
10445TIP3    H131278   7.086   7.112   0.001
10445TIP3    H231279   7.192   7.048   0.088
10446TIP3   OH231280   4.189   3.332   6.640
10446TIP3    H131281   4.270   3.361   6.682
10446TIP3    H231282   4.123   3.395   6.669
10447TIP3   OH231283   6.039   3.772   6.695
10447TIP3    H131284   6.041   3.677   6.707
10447TIP3    H231285   5.958   3.799   6.738
10448TIP3   OH231286   5.145   3.557   6.829
10448TIP3    H131287   5.145   3.648   6.858
10448TIP3    H231288   5.076   3.515   6.880
10449TIP3   OH231289   4.909   3.684   5.779
10449TIP3    H131290   4.865   3.664   5.697
10449TIP3    H231291   4.877   3.771   5.803
10450TIP3   OH231292   4.346   3.538   6.169
10450TIP3    H131293   4.397   3.526   6.249
10450TIP3    H231294   4.273   3.477   6.178
10451TIP3   OH231295   5.112   3.587   5.419
10451TIP3    H131296   5.167   3.518   5.382
10451TIP3    H231297   5.144   3.597   5.508
10452TIP3   OH231298   5.161   3.637   5.689
10452TIP3    H131299   5.073   3.646   5.727
10452TIP3    H231300   5.213   3.597   5.759
10453TIP3   OH231301   0.263   6.907   0.025
10453TIP3    H131302   0.181   6.921  -0.022
10453TIP3    H231303   0.280   6.814   0.017
10454TIP3   OH231304   7.358   7.317   0.044
10454TIP3    H131305   7.404   7.313   0.128
10454TIP3    H231306   7.286   7.255   0.053
10455TIP3   OH231307   4.925   2.135   6.778
10455TIP3    H131308   4.840   2.100   6.750
10455TIP3    H231309   4.903   2.216   6.824
10456TIP3   OH231310   8.294   6.255   0.033
10456TIP3    H131311   8.362   6.227   0.095
10456TIP3    H231312   8.211   6.235   0.077
10457TIP3   OH231313   5.700   2.680   6.893
10457TIP3    H131314   5.650   2.675   6.975
10457TIP3    H231315   5.674   2.764   6.854
10458TIP3   OH231316   5.362   2.805   5.444
10458TIP3    H131317   5.323   2.782   5.360
10458TIP3    H231318   5.444   2.849   5.421
10459TIP3   OH231319   5.072   2.177   5.749
10459TIP3    H131320   5.039   2.180   5.839
10459TIP3    H231321   5.033   2.098   5.711
10460TIP3   OH231322   4.856   2.653   6.792
10460TIP3    H131323   4.806   2.667   6.873
10460TIP3    H231324   4.839   2.731   6.740
10461TIP3   OH231325   4.736   2.537   6.302
10461TIP3    H131326   4.668   2.471   6.307
10461TIP3    H231327   4.768   2.531   6.211
10462TIP3   OH231328   5.235   2.627   6.038
10462TIP3    H131329   5.181   2.694   5.997
10462TIP3    H231330   5.287   2.590   5.967
10463TIP3   OH231331   8.242   6.902   0.184
10463TIP3    H131332   8.216   6.831   0.243
10463TIP3    H231333   8.334   6.918   0.204
10464TIP3   OH231334   5.389   2.647   6.270
10464TIP3    H131335   5.327   2.677   6.204
10464TIP3    H231336   5.427   2.567   6.233
10465TIP3   OH231337   7.508   6.685   0.062
10465TIP3    H131338   7.538   6.748   0.127
10465TIP3    H231339   7.498   6.603   0.111
10466TIP3   OH231340   4.729   2.160   5.718
10466TIP3    H131341   4.721   2.158   5.814
10466TIP3    H231342   4.652   2.209   5.689
10467TIP3   OH231343   4.282   2.197   6.581
10467TIP3    H131344   4.350   2.229   6.641
10467TIP3    H231345   4.327   2.181   6.499
10468TIP3   OH231346   4.232   2.174   6.096
10468TIP3    H131347   4.298   2.206   6.035
10468TIP3    H231348   4.181   2.251   6.121
10469TIP3   OH231349   5.402   2.890   6.696
10469TIP3    H131350   5.435   2.823   6.636
10469TIP3    H231351   5.371   2.841   6.772
10470TIP3   OH231352   5.071   2.355   6.371
10470TIP3    H131353   4.986   2.348   6.414
10470TIP3    H231354   5.134   2.353   6.443
10471TIP3   OH231355   4.796   2.484   6.047
10471TIP3    H131356   4.876   2.437   6.026
10471TIP3    H231357   4.732   2.451   5.985
10472TIP3   OH231358   5.559   2.430   6.575
10472TIP3    H131359   5.529   2.446   6.664
10472TIP3    H231360   5.494   2.370   6.538
10473TIP3   OH231361   4.610   2.454   5.843
10473TIP3    H131362   4.541   2.400   5.803
10473TIP3    H231363   4.663   2.482   5.769
10474TIP3   OH231364   5.736   4.122   6.791
10474TIP3    H131365   5.731   4.146   6.699
10474TIP3    H231366   5.813   4.169   6.823
10475TIP3   OH231367   7.523   7.239   0.274
10475TIP3    H131368   7.602   7.269   0.318
10475TIP3    H231369   7.454   7.242   0.341
10476TIP3   OH231370   5.151   2.687   6.470
10476TIP3    H131371   5.219   2.644   6.417
10476TIP3    H231372   5.156   2.644   6.555
10477TIP3   OH231373   5.127   2.587   6.756
10477TIP3    H131374   5.039   2.620   6.770
10477TIP3    H231375   5.183   2.646   6.806
10478TIP3   OH231376   4.860   2.972   5.851
10478TIP3    H131377   4.793   2.905   5.839
10478TIP3    H231378   4.845   3.006   5.939
10479TIP3   OH231379   5.763   3.209   6.477
10479TIP3    H131380   5.788   3.258   6.399
10479TIP3    H231381   5.680   3.167   6.454
10480TIP3   OH231382   5.322   2.285   5.717
10480TIP3    H131383   5.229   2.264   5.726
10480TIP3    H231384   5.328   2.377   5.743
10481TIP3   OH231385   5.265   3.293   6.850
10481TIP3    H131386   5.291   3.272   6.940
10481TIP3    H231387   5.225   3.380   6.856
10482TIP3   OH231388   5.391   2.534   5.821
10482TIP3    H131389   5.486   2.539   5.835
10482TIP3    H231390   5.371   2.612   5.769
10483TIP3   OH231391   4.534   3.006   6.487
10483TIP3    H131392   4.599   2.963   6.431
10483TIP3    H231393   4.551   2.973   6.575
10484TIP3   OH231394   5.011   3.124   5.679
10484TIP3    H131395   4.965   3.208   5.681
10484TIP3    H231396   4.958   3.067   5.735
10485TIP3   OH231397   7.274   6.920   0.201
10485TIP3    H131398   7.295   6.911   0.294
10485TIP3    H231399   7.204   6.856   0.186
10486TIP3   OH231400   8.000   7.037   0.219
10486TIP3    H131401   7.937   6.980   0.175
10486TIP3    H231402   8.086   7.004   0.193
10487TIP3   OH231403   5.423   3.553   6.748
10487TIP3    H131404   5.328   3.549   6.757
10487TIP3    H231405   5.452   3.604   6.824
10488TIP3   OH231406   5.832   2.626   5.650
10488TIP3    H131407   5.772   2.578   5.592
10488TIP3    H231408   5.832   2.715   5.614
10489TIP3   OH231409   6.052   3.483   6.731
10489TIP3    H131410   5.957   3.478   6.727
10489TIP3    H231411   6.081   3.453   6.645
10490TIP3   OH231412   5.541   3.442   5.564
10490TIP3    H131413   5.508   3.374   5.624
10490TIP3    H231414   5.549   3.398   5.480
10491TIP3   OH231415   5.529   3.069   6.395
10491TIP3    H131416   5.437   3.048   6.411
10491TIP3    H231417   5.565   2.992   6.352
10492TIP3   OH231418   4.630   3.291   6.154
10492TIP3    H131419   4.685   3.367   6.135
10492TIP3    H231420   4.552   3.304   6.101
10493TIP3   OH231421   4.220   2.605   5.860
10493TIP3    H131422   4.269   2.684   5.879
10493TIP3    H231423   4.145   2.607   5.919
10494TIP3   OH231424   4.794   3.068   6.096
10494TIP3    H131425   4.750   3.151   6.116
10494TIP3    H231426   4.765   3.009   6.165
10495TIP3   OH231427   4.933   3.644   6.619
10495TIP3    H131428   4.971   3.716   6.569
10495TIP3    H231429   5.006   3.607   6.668
10496TIP3   OH231430   4.575   3.543   6.005
10496TIP3    H131431   4.490   3.552   6.049
10496TIP3    H231432   4.612   3.631   6.006
10497TIP3   OH231433   5.316   3.277   6.583
10497TIP3    H131434   5.304   3.278   6.678
10497TIP3    H231435   5.392   3.222   6.568
10498TIP3   OH231436   5.293   3.172   5.466
10498TIP3    H131437   5.346   3.149   5.543
10498TIP3    H231438   5.205   3.142   5.488
10499TIP3   OH231439   5.563   3.809   6.630
10499TIP3    H131440   5.486   3.752   6.627
10499TIP3    H231441   5.549   3.873   6.560
10500TIP3   OH231442   5.628   3.646   5.281
10500TIP3    H131443   5.664   3.714   5.224
10500TIP3    H231444   5.550   3.685   5.320
10501TIP3   OH231445   7.480   6.429   0.208
10501TIP3    H131446   7.385   6.430   0.217
10501TIP3    H231447   7.510   6.371   0.278
10502TIP3   OH231448   5.455   3.105   5.682
10502TIP3    H131449   5.441   3.038   5.750
10502TIP3    H231450   5.549   3.103   5.666
10503TIP3   OH231451   4.379   3.486   6.783
10503TIP3    H131452   4.432   3.434   6.844
10503TIP3    H231453   4.361   3.567   6.831
10504TIP3   OH231454   4.658   3.148   5.467
10504TIP3    H131455   4.668   3.059   5.434
10504TIP3    H231456   4.634   3.138   5.559
10505TIP3   OH231457   4.600   3.157   5.740
10505TIP3    H131458   4.679   3.127   5.785
10505TIP3    H231459   4.605   3.253   5.744
10506TIP3   OH231460   4.334   2.849   5.937
10506TIP3    H131461   4.267   2.892   5.991
10506TIP3    H231462   4.352   2.912   5.867
10507TIP3   OH231463   5.489   2.486   6.836
10507TIP3    H131464   5.569   2.522   6.872
10507TIP3    H231465   5.474   2.405   6.885
10508TIP3   OH231466   5.373   2.233   5.997
10508TIP3    H131467   5.354   2.254   5.906
10508TIP3    H231468   5.409   2.314   6.034
10509TIP3   OH231469   4.867   3.354   5.686
10509TIP3    H131470   4.781   3.379   5.721
10509TIP3    H231471   4.885   3.419   5.619
10510TIP3   OH231472   5.075   2.409   6.099
10510TIP3    H131473   5.128   2.486   6.082
10510TIP3    H231474   5.066   2.406   6.194
10511TIP3   OH231475   5.327   2.733   6.905
10511TIP3    H131476   5.350   2.784   6.983
10511TIP3    H231477   5.378   2.652   6.914
10512TIP3   OH231478   5.202   2.143   6.203
10512TIP3    H131479   5.180   2.222   6.253
10512TIP3    H231480   5.261   2.173   6.134
10513TIP3   OH231481   4.613   3.431   5.754
10513TIP3    H131482   4.585   3.495   5.689
10513TIP3    H231483   4.598   3.473   5.839
10514TIP3   OH231484   4.702   2.144   5.997
10514TIP3    H131485   4.669   2.184   6.077
10514TIP3    H231486   4.797   2.139   6.009
10515TIP3   OH231487   5.963   2.633   6.882
10515TIP3    H131488   5.869   2.636   6.897
10515TIP3    H231489   5.973   2.585   6.800
10516TIP3   OH231490   5.617   2.826   6.276
10516TIP3    H131491   5.540   2.770   6.286
10516TIP3    H231492   5.686   2.780   6.323
10517TIP3   OH231493   4.334   3.055   5.742
10517TIP3    H131494   4.402   3.122   5.751
10517TIP3    H231495   4.369   2.995   5.676
10518TIP3   OH231496   4.280   2.335   5.868
10518TIP3    H131497   4.277   2.430   5.870
10518TIP3    H231498   4.191   2.308   5.845
10519TIP3   OH231499   5.587   3.789   6.221
10519TIP3    H131500   5.542   3.833   6.149
10519TIP3    H231501   5.680   3.804   6.203
10520TIP3   OH231502   4.662   2.057   6.766
10520TIP3    H131503   4.632   2.030   6.680
10520TIP3    H231504   4.651   1.980   6.821
10521TIP3   OH231505   4.208   3.259   6.150
10521TIP3    H131506   4.140   3.296   6.207
10521TIP3    H231507   4.192   3.299   6.064
10522TIP3   OH231508   7.224   7.825   0.215
10522TIP3    H131509   7.288   7.823   0.286
10522TIP3    H231510   7.147   7.781   0.251
10523TIP3   OH231511   7.673   7.779   0.307
10523TIP3    H131512   7.767   7.760   0.313
10523TIP3    H231513   7.641   7.723   0.236
10524TIP3   OH231514   4.821   3.350   5.377
10524TIP3    H131515   4.765   3.281   5.413
10524TIP3    H231516   4.895   3.303   5.338
10525TIP3   OH231517   8.311   7.691   0.043
10525TIP3    H131518   8.303   7.623   0.109
10525TIP3    H231519   8.387   7.743   0.071
10526TIP3   OH231520   5.257   3.392   5.289
10526TIP3    H131521   5.295   3.326   5.347
10526TIP3    H231522   5.311   3.388   5.210
10527TIP3   OH231523   7.320   7.226   0.463
10527TIP3    H131524   7.338   7.133   0.468
10527TIP3    H231525   7.235   7.232   0.419
10528TIP3   OH231526   4.468   2.867   5.599
10528TIP3    H131527   4.520   2.832   5.671
10528TIP3    H231528   4.530   2.874   5.526
10529TIP3   OH231529   7.929   7.314   0.235
10529TIP3    H131530   7.887   7.333   0.152
10529TIP3    H231531   7.959   7.223   0.227
10530TIP3   OH231532   4.984   3.068   5.409
10530TIP3    H131533   4.982   3.082   5.503
10530TIP3    H231534   4.982   2.973   5.399
10531TIP3   OH231535   5.588   3.320   6.784
10531TIP3    H131536   5.663   3.361   6.741
10531TIP3    H231537   5.516   3.382   6.771
10532TIP3   OH231538   7.441   6.961   0.448
10532TIP3    H131539   7.518   6.912   0.420
10532TIP3    H231540   7.465   6.995   0.534
10533TIP3   OH231541   4.677   2.767   5.821
10533TIP3    H131542   4.653   2.718   5.900
10533TIP3    H231543   4.713   2.702   5.761
10534TIP3   OH231544   7.775   6.848   0.107
10534TIP3    H131545   7.698   6.905   0.111
10534TIP3    H231546   7.824   6.879   0.031
10535TIP3   OH231547   4.776   2.573   5.653
10535TIP3    H131548   4.749   2.576   5.561
10535TIP3    H231549   4.872   2.575   5.650
10536TIP3   OH231550   8.294   7.247   0.240
10536TIP3    H131551   8.370   7.218   0.190
10536TIP3    H231552   8.287   7.184   0.312
10537TIP3   OH231553   5.593   2.900   5.322
10537TIP3    H131554   5.575   2.851   5.242
10537TIP3    H231555   5.563   2.988   5.304
10538TIP3   OH231556   7.899   6.635   0.230
10538TIP3    H131557   7.900   6.557   0.175
10538TIP3    H231558   7.856   6.701   0.176
10539TIP3   OH231559   7.901   6.423   0.038
10539TIP3    H131560   7.931   6.462  -0.044
10539TIP3    H231561   7.810   6.399   0.022
10540TIP3   OH231562   5.092   2.950   6.854
10540TIP3    H131563   5.177   2.958   6.810
10540TIP3    H231564   5.037   3.014   6.810
10541TIP3   OH231565   0.010   6.922   0.292
10541TIP3    H131566   0.054   6.838   0.305
10541TIP3    H231567   0.078   6.979   0.257
10542TIP3   OH231568   5.718   3.172   6.968
10542TIP3    H131569   5.659   3.224   6.913
10542TIP3    H231570   5.805   3.189   6.932
10543TIP3   OH231571   7.778   6.741   0.464
10543TIP3    H131572   7.709   6.676   0.480
10543TIP3    H231573   7.812   6.718   0.377
10544TIP3   OH231574   8.031   6.185   0.109
10544TIP3    H131575   7.985   6.266   0.086
10544TIP3    H231576   7.966   6.116   0.097
10545TIP3   OH231577   8.156   6.685   0.325
10545TIP3    H131578   8.146   6.673   0.420
10545TIP3    H231579   8.070   6.663   0.289
10546TIP3   OH231580   8.399   6.638   0.182
10546TIP3    H131581   8.323   6.638   0.241
10546TIP3    H231582   8.472   6.607   0.236
10547TIP3   OH231583   0.131   6.579   0.331
10547TIP3    H131584   0.142   6.485   0.345
10547TIP3    H231585   0.124   6.617   0.418
10548TIP3   OH231586   7.616   6.521   0.520
10548TIP3    H131587   7.621   6.433   0.484
10548TIP3    H231588   7.652   6.513   0.609
10549TIP3   OH231589   8.126   6.192   0.366
10549TIP3    H131590   8.193   6.123   0.363
10549TIP3    H231591   8.086   6.190   0.280
10550TIP3   OH231592   8.192   6.408   0.525
10550TIP3    H131593   8.172   6.338   0.463
10550TIP3    H231594   8.116   6.467   0.519
10551TIP3   OH231595   4.585   3.632   5.565
10551TIP3    H131596   4.679   3.624   5.547
10551TIP3    H231597   4.550   3.680   5.490
10552TIP3   OH231598   4.066   3.006   5.787
10552TIP3    H131599   4.156   3.031   5.768
10552TIP3    H231600   4.054   2.922   5.742
10553TIP3   OH231601   3.979   3.621   6.198
10553TIP3    H131602   3.912   3.565   6.158
10553TIP3    H231603   4.022   3.564   6.261
10554TIP3   OH231604   4.122   3.470   6.380
10554TIP3    H131605   4.093   3.408   6.447
10554TIP3    H231606   4.169   3.537   6.429
10555TIP3   OH231607   5.843   3.873   6.184
10555TIP3    H131608   5.864   3.904   6.271
10555TIP3    H231609   5.903   3.921   6.126
10556TIP3   OH231610   5.869   3.892   6.465
10556TIP3    H131611   5.822   3.809   6.460
10556TIP3    H231612   5.943   3.874   6.523
10557TIP3   OH231613   0.248   7.581   0.098
10557TIP3    H131614   0.177   7.587   0.162
10557TIP3    H231615   0.290   7.667   0.101
10558TIP3   OH231616   5.734   3.084   5.657
10558TIP3    H131617   5.798   3.149   5.626
10558TIP3    H231618   5.775   3.046   5.735
10559TIP3   OH231619   5.860   2.952   5.862
10559TIP3    H131620   5.793   2.910   5.917
10559TIP3    H231621   5.923   2.989   5.924
10560TIP3   OH231622   5.917   3.347   6.291
10560TIP3    H131623   5.968   3.280   6.246
10560TIP3    H231624   5.908   3.418   6.228
10561TIP3   OH231625   5.741   3.646   6.486
10561TIP3    H131626   5.672   3.687   6.538
10561TIP3    H231627   5.694   3.599   6.416
10562TIP3   OH231628   5.794   2.863   5.506
10562TIP3    H131629   5.726   2.860   5.438
10562TIP3    H231630   5.770   2.936   5.562
10563TIP3   OH231631   5.668   2.531   5.458
10563TIP3    H131632   5.622   2.570   5.383
10563TIP3    H231633   5.646   2.438   5.452
10564TIP3   OH231634   5.672   2.809   6.006
10564TIP3    H131635   5.678   2.714   5.998
10564TIP3    H231636   5.657   2.823   6.100
10565TIP3   OH231637   4.300   2.887   6.745
10565TIP3    H131638   4.301   2.848   6.657
10565TIP3    H231639   4.392   2.885   6.773
10566TIP3   OH231640   5.963   3.235   6.863
10566TIP3    H131641   6.032   3.169   6.853
10566TIP3    H231642   5.987   3.303   6.800
10567TIP3   OH231643   6.146   3.034   6.873
10567TIP3    H131644   6.070   2.989   6.911
10567TIP3    H231645   6.219   2.974   6.889
10568TIP3   OH231646   5.611   2.266   5.445
10568TIP3    H131647   5.680   2.233   5.502
10568TIP3    H231648   5.535   2.211   5.465
10569TIP3   OH231649   5.672   2.526   5.898
10569TIP3    H131650   5.709   2.439   5.915
10569TIP3    H231651   5.726   2.561   5.827
10570TIP3   OH231652   5.833   2.697   6.398
10570TIP3    H131653   5.914   2.721   6.354
10570TIP3    H231654   5.841   2.733   6.486
10571TIP3   OH231655   5.900   2.846   6.626
10571TIP3    H131656   5.824   2.876   6.676
10571TIP3    H231657   5.932   2.925   6.582
10572TIP3   OH231658   7.349   6.571   0.486
10572TIP3    H131659   7.445   6.571   0.489
10572TIP3    H231660   7.324   6.489   0.527
10573TIP3   OH231661   0.685   6.445   0.239
10573TIP3    H131662   0.743   6.380   0.200
10573TIP3    H231663   0.654   6.498   0.165
10574TIP3   OH231664   5.778   2.275   5.940
10574TIP3    H131665   5.824   2.260   6.022
10574TIP3    H231666   5.716   2.202   5.934
10575TIP3   OH231667   4.478   2.265   6.773
10575TIP3    H131668   4.533   2.188   6.775
10575TIP3    H231669   4.538   2.337   6.752
10576TIP3   OH231670   4.278   2.538   6.830
10576TIP3    H131671   4.325   2.524   6.748
10576TIP3    H231672   4.317   2.616   6.868
10577TIP3   OH231673   0.551   6.579   0.044
10577TIP3    H131674   0.470   6.623   0.069
10577TIP3    H231675   0.523   6.506  -0.011
10578TIP3   OH231676   5.859   2.208   5.573
10578TIP3    H131677   5.894   2.138   5.518
10578TIP3    H231678   5.922   2.279   5.566
10579TIP3   OH231679   4.259   2.021   6.322
10579TIP3    H131680   4.169   2.035   6.352
10579TIP3    H231681   4.273   2.089   6.257
10580TIP3   OH231682   5.425   3.742   5.839
10580TIP3    H131683   5.474   3.730   5.758
10580TIP3    H231684   5.474   3.810   5.886
10581TIP3   OH231685   7.316   6.127   0.209
10581TIP3    H131686   7.265   6.123   0.290
10581TIP3    H231687   7.255   6.163   0.144
10582TIP3   OH231688   7.360   7.535   0.283
10582TIP3    H131689   7.267   7.534   0.261
10582TIP3    H231690   7.363   7.536   0.378
10583TIP3   OH231691   4.707   3.580   6.766
10583TIP3    H131692   4.653   3.654   6.736
10583TIP3    H231693   4.791   3.594   6.723
10584TIP3   OH231694   5.147   3.823   6.909
10584TIP3    H131695   5.185   3.821   6.997
10584TIP3    H231696   5.209   3.874   6.857
10585TIP3   OH231697   5.326   3.978   6.770
10585TIP3    H131698   5.393   3.925   6.726
10585TIP3    H231699   5.375   4.034   6.830
10586TIP3   OH231700   6.120   2.333   6.865
10586TIP3    H131701   6.030   2.328   6.834
10586TIP3    H231702   6.154   2.244   6.857
10587TIP3   OH231703   4.374   3.830   6.796
10587TIP3    H131704   4.287   3.865   6.778
10587TIP3    H231705   4.388   3.849   6.889
10588TIP3   OH231706   4.611   3.815   6.654
10588TIP3    H131707   4.528   3.826   6.701
10588TIP3    H231708   4.593   3.850   6.566
10589TIP3   OH231709   5.039   3.844   6.451
10589TIP3    H131710   4.971   3.861   6.385
10589TIP3    H231711   5.053   3.929   6.493
10590TIP3   OH231712   5.308   3.783   6.503
10590TIP3    H131713   5.215   3.797   6.485
10590TIP3    H231714   5.352   3.856   6.458
10591TIP3   OH231715   5.516   3.974   6.414
10591TIP3    H131716   5.501   4.057   6.369
10591TIP3    H231717   5.541   3.913   6.344
10592TIP3   OH231718   4.299   3.629   6.531
10592TIP3    H131719   4.314   3.610   6.624
10592TIP3    H231720   4.371   3.586   6.485
10593TIP3   OH231721   4.501   3.500   6.397
10593TIP3    H131722   4.540   3.429   6.448
10593TIP3    H231723   4.574   3.559   6.378
10594TIP3   OH231724   4.757   3.598   6.402
10594TIP3    H131725   4.783   3.506   6.391
10594TIP3    H231726   4.799   3.626   6.483
10595TIP3   OH231727   5.331   2.252   6.498
10595TIP3    H131728   5.284   2.185   6.546
10595TIP3    H231729   5.394   2.204   6.444
10596TIP3   OH231730   5.847   2.136   6.391
10596TIP3    H131731   5.882   2.185   6.316
10596TIP3    H231732   5.753   2.149   6.386
10597TIP3   OH231733   5.945   2.232   6.154
10597TIP3    H131734   6.015   2.179   6.115
10597TIP3    H231735   5.974   2.322   6.141
10598TIP3   OH231736   4.570   1.954   6.540
10598TIP3    H131737   4.481   1.942   6.505
10598TIP3    H231738   4.621   1.884   6.499
10599TIP3   OH231739   4.360   1.831   6.149
10599TIP3    H131740   4.392   1.888   6.080
10599TIP3    H231741   4.330   1.891   6.218
10600TIP3   OH231742   5.034   1.982   6.383
10600TIP3    H131743   5.085   2.036   6.323
10600TIP3    H231744   5.025   2.035   6.462
10601TIP3   OH231745   5.568   2.138   6.365
10601TIP3    H131746   5.558   2.101   6.277
10601TIP3    H231747   5.554   2.063   6.423
10602TIP3   OH231748   5.593   2.064   5.931
10602TIP3    H131749   5.511   2.110   5.946
10602TIP3    H231750   5.580   1.978   5.973
10603TIP3   OH231751   4.079   3.401   5.947
10603TIP3    H131752   3.998   3.363   5.913
10603TIP3    H231753   4.076   3.492   5.918
10604TIP3   OH231754   4.478   1.991   5.911
10604TIP3    H131755   4.528   1.929   5.857
10604TIP3    H231756   4.545   2.047   5.950
10605TIP3   OH231757   4.989   2.168   6.012
10605TIP3    H131758   5.036   2.111   6.072
10605TIP3    H231759   5.017   2.257   6.036
10606TIP3   OH231760   4.853   3.586   5.511
10606TIP3    H131761   4.938   3.613   5.477
10606TIP3    H231762   4.827   3.513   5.455
10607TIP3   OH231763   5.571   3.709   5.605
10607TIP3    H131764   5.565   3.613   5.596
10607TIP3    H231765   5.524   3.743   5.529
10608TIP3   OH231766   7.616   6.246   0.457
10608TIP3    H131767   7.580   6.176   0.512
10608TIP3    H231768   7.709   6.249   0.480
10609TIP3   OH231769   7.866   6.243   0.572
10609TIP3    H131770   7.949   6.223   0.530
10609TIP3    H231771   7.854   6.174   0.637
10610TIP3   OH231772   4.156   3.423   5.566
10610TIP3    H131773   4.160   3.452   5.658
10610TIP3    H231774   4.240   3.381   5.551
10611TIP3   OH231775   0.192   6.308   0.361
10611TIP3    H131776   0.207   6.278   0.451
10611TIP3    H231777   0.278   6.303   0.319
10612TIP3   OH231778   5.791   3.853   6.791
10612TIP3    H131779   5.715   3.820   6.743
10612TIP3    H231780   5.775   3.947   6.799
10613TIP3   OH231781   7.059   3.226   5.556
10613TIP3    H131782   7.032   3.316   5.537
10613TIP3    H231783   6.987   3.172   5.522
10614TIP3   OH231784   7.061   3.226   5.943
10614TIP3    H131785   7.094   3.200   6.029
10614TIP3    H231786   7.019   3.147   5.909
10615TIP3   OH231787   6.361   3.118   6.305
10615TIP3    H131788   6.388   3.050   6.367
10615TIP3    H231789   6.437   3.175   6.297
10616TIP3   OH231790   7.306   3.529   5.625
10616TIP3    H131791   7.290   3.461   5.689
10616TIP3    H231792   7.336   3.604   5.676
10617TIP3   OH231793   6.335   3.529   6.027
10617TIP3    H131794   6.322   3.434   6.029
10617TIP3    H231795   6.430   3.540   6.023
10618TIP3   OH231796   6.036   2.734   5.811
10618TIP3    H131797   5.989   2.816   5.830
10618TIP3    H231798   5.970   2.678   5.770
10619TIP3   OH231799   6.098   3.020   5.991
10619TIP3    H131800   6.145   2.944   6.025
10619TIP3    H231801   6.152   3.050   5.918
10620TIP3   OH231802   6.951   3.983   5.639
10620TIP3    H131803   6.995   3.917   5.586
10620TIP3    H231804   6.949   3.947   5.728
10621TIP3   OH231805   6.861   3.451   5.989
10621TIP3    H131806   6.895   3.375   5.942
10621TIP3    H231807   6.939   3.500   6.015
10622TIP3   OH231808   7.873   2.771   5.984
10622TIP3    H131809   7.900   2.852   6.026
10622TIP3    H231810   7.901   2.780   5.893
10623TIP3   OH231811   7.270   2.947   6.018
10623TIP3    H131812   7.316   2.865   6.038
10623TIP3    H231813   7.240   2.936   5.928
10624TIP3   OH231814   6.612   2.611   5.981
10624TIP3    H131815   6.592   2.685   5.923
10624TIP3    H231816   6.565   2.537   5.943
10625TIP3   OH231817   7.307   2.705   5.606
10625TIP3    H131818   7.375   2.691   5.672
10625TIP3    H231819   7.354   2.738   5.529
10626TIP3   OH231820   6.245   2.811   6.092
10626TIP3    H131821   6.325   2.794   6.142
10626TIP3    H231822   6.254   2.758   6.014
10627TIP3   OH231823   6.683   3.009   5.888
10627TIP3    H131824   6.776   2.987   5.899
10627TIP3    H231825   6.643   2.928   5.855
10628TIP3   OH231826   7.944   2.978   6.165
10628TIP3    H131827   7.864   3.025   6.144
10628TIP3    H231828   7.980   3.024   6.240
10629TIP3   OH231829   6.605   2.595   6.420
10629TIP3    H131830   6.549   2.631   6.351
10629TIP3    H231831   6.555   2.610   6.501
10630TIP3   OH231832   6.947   3.445   5.427
10630TIP3    H131833   6.912   3.428   5.340
10630TIP3    H231834   6.905   3.527   5.455
10631TIP3   OH231835   6.712   3.373   6.212
10631TIP3    H131836   6.652   3.438   6.249
10631TIP3    H231837   6.756   3.419   6.140
10632TIP3   OH231838   7.511   2.711   5.784
10632TIP3    H131839   7.508   2.658   5.863
10632TIP3    H231840   7.565   2.786   5.807
10633TIP3   OH231841   6.481   2.711   6.202
10633TIP3    H131842   6.539   2.783   6.227
10633TIP3    H231843   6.527   2.668   6.129
10634TIP3   OH231844   6.539   3.568   6.312
10634TIP3    H131845   6.519   3.654   6.274
10634TIP3    H231846   6.464   3.548   6.367
10635TIP3   OH231847   5.933   3.258   5.547
10635TIP3    H131848   5.891   3.280   5.463
10635TIP3    H231849   5.964   3.342   5.581
10636TIP3   OH231850   7.370   3.774   5.787
10636TIP3    H131851   7.283   3.763   5.826
10636TIP3    H231852   7.366   3.858   5.743
10637TIP3   OH231853   7.666   2.667   6.150
10637TIP3    H131854   7.580   2.694   6.119
10637TIP3    H231855   7.727   2.699   6.083
10638TIP3   OH231856   6.970   2.334   6.136
10638TIP3    H131857   6.945   2.249   6.100
10638TIP3    H231858   6.891   2.365   6.181
10639TIP3   OH231859   7.075   3.815   5.457
10639TIP3    H131860   7.121   3.733   5.440
10639TIP3    H231861   7.132   3.883   5.420
10640TIP3   OH231862   7.216   3.599   5.373
10640TIP3    H131863   7.186   3.520   5.329
10640TIP3    H231864   7.254   3.568   5.456
10641TIP3   OH231865   7.598   3.681   6.131
10641TIP3    H131866   7.588   3.605   6.073
10641TIP3    H231867   7.581   3.757   6.074
10642TIP3   OH231868   6.891   3.078   5.389
10642TIP3    H131869   6.812   3.129   5.370
10642TIP3    H231870   6.938   3.074   5.306
10643TIP3   OH231871   6.853   2.863   5.103
10643TIP3    H131872   6.917   2.915   5.152
10643TIP3    H231873   6.905   2.799   5.056
10644TIP3   OH231874   7.792   3.321   5.977
10644TIP3    H131875   7.711   3.372   5.984
10644TIP3    H231876   7.826   3.342   5.890
10645TIP3   OH231877   7.239   3.160   5.362
10645TIP3    H131878   7.185   3.185   5.437
10645TIP3    H231879   7.323   3.135   5.402
10646TIP3   OH231880   7.470   3.197   6.276
10646TIP3    H131881   7.472   3.280   6.324
10646TIP3    H231882   7.387   3.199   6.229
10647TIP3   OH231883   6.471   3.154   5.778
10647TIP3    H131884   6.429   3.099   5.712
10647TIP3    H231885   6.546   3.103   5.808
10648TIP3   OH231886   6.603   3.571   5.923
10648TIP3    H131887   6.581   3.532   5.839
10648TIP3    H231888   6.690   3.536   5.943
10649TIP3   OH231889   6.610   3.128   6.133
10649TIP3    H131890   6.640   3.105   6.045
10649TIP3    H231891   6.650   3.213   6.150
10650TIP3   OH231892   7.132   3.767   5.911
10650TIP3    H131893   7.120   3.846   5.963
10650TIP3    H231894   7.117   3.695   5.972
10651TIP3   OH231895   6.743   3.684   6.458
10651TIP3    H131896   6.687   3.746   6.504
10651TIP3    H231897   6.682   3.631   6.407
10652TIP3   OH231898   7.080   3.020   5.187
10652TIP3    H131899   7.137   3.077   5.238
10652TIP3    H231900   7.103   3.039   5.096
10653TIP3   OH231901   6.499   3.239   6.562
10653TIP3    H131902   6.507   3.325   6.602
10653TIP3    H231903   6.406   3.217   6.572
10654TIP3   OH231904   6.825   3.696   5.466
10654TIP3    H131905   6.907   3.744   5.475
10654TIP3    H231906   6.766   3.758   5.422
10655TIP3   OH231907   6.538   3.850   6.544
10655TIP3    H131908   6.506   3.852   6.454
10655TIP3    H231909   6.461   3.829   6.597
10656TIP3   OH231910   7.594   2.259   5.237
10656TIP3    H131911   7.515   2.278   5.287
10656TIP3    H231912   7.610   2.338   5.186
10657TIP3   OH231913   6.335   3.000   5.583
10657TIP3    H131914   6.271   3.045   5.528
10657TIP3    H231915   6.300   2.912   5.594
10658TIP3   OH231916   7.397   3.626   4.785
10658TIP3    H131917   7.402   3.721   4.770
10658TIP3    H231918   7.487   3.595   4.772
10659TIP3   OH231919   6.119   3.383   6.489
10659TIP3    H131920   6.052   3.364   6.424
10659TIP3    H231921   6.155   3.297   6.511
10660TIP3   OH231922   5.974   3.578   6.121
10660TIP3    H131923   6.069   3.571   6.114
10660TIP3    H231924   5.959   3.655   6.177
10661TIP3   OH231925   7.836   4.027   6.183
10661TIP3    H131926   7.837   3.933   6.195
10661TIP3    H231927   7.755   4.056   6.225
10662TIP3   OH231928   6.941   3.814   6.316
10662TIP3    H131929   6.941   3.905   6.345
10662TIP3    H231930   6.873   3.772   6.368
10663TIP3   OH231931   6.692   3.946   5.265
10663TIP3    H131932   6.659   3.914   5.181
10663TIP3    H231933   6.675   4.040   5.263
10664TIP3   OH231934   6.143   3.789   5.652
10664TIP3    H131935   6.186   3.782   5.737
10664TIP3    H231936   6.089   3.711   5.646
10665TIP3   OH231937   6.907   3.843   4.906
10665TIP3    H131938   6.962   3.775   4.867
10665TIP3    H231939   6.940   3.854   4.995
10666TIP3   OH231940   6.951   3.894   5.179
10666TIP3    H131941   6.867   3.897   5.223
10666TIP3    H231942   7.012   3.859   5.244
10667TIP3   OH231943   7.722   3.153   6.458
10667TIP3    H131944   7.646   3.170   6.402
10667TIP3    H231945   7.741   3.060   6.444
10668TIP3   OH231946   6.324   3.565   6.477
10668TIP3    H131947   6.373   3.551   6.558
10668TIP3    H231948   6.250   3.504   6.483
10669TIP3   OH231949   6.720   2.391   6.258
10669TIP3    H131950   6.633   2.357   6.234
10669TIP3    H231951   6.701   2.472   6.307
10670TIP3   OH231952   7.257   2.498   6.457
10670TIP3    H131953   7.322   2.470   6.521
10670TIP3    H231954   7.173   2.483   6.501
10671TIP3   OH231955   7.491   2.935   6.379
10671TIP3    H131956   7.437   2.936   6.458
10671TIP3    H231957   7.473   3.019   6.336
10672TIP3   OH231958   7.157   3.062   4.930
10672TIP3    H131959   7.120   3.038   4.846
10672TIP3    H231960   7.240   3.105   4.909
10673TIP3   OH231961   6.866   2.435   5.235
10673TIP3    H131962   6.833   2.437   5.325
10673TIP3    H231963   6.830   2.355   5.197
10674TIP3   OH231964   6.654   2.908   6.283
10674TIP3    H131965   6.605   2.924   6.363
10674TIP3    H231966   6.640   2.986   6.229
10675TIP3   OH231967   6.537   2.790   5.794
10675TIP3    H131968   6.447   2.767   5.815
10675TIP3    H231969   6.552   2.752   5.708
10676TIP3   OH231970   7.029   2.878   5.523
10676TIP3    H131971   6.977   2.948   5.482
10676TIP3    H231972   7.084   2.845   5.453
10677TIP3   OH231973   7.204   3.152   6.608
10677TIP3    H131974   7.177   3.088   6.673
10677TIP3    H231975   7.295   3.171   6.629
10678TIP3   OH231976   7.183   2.902   5.759
10678TIP3    H131977   7.122   2.935   5.692
10678TIP3    H231978   7.221   2.824   5.720
10679TIP3   OH231979   6.476   2.933   6.491
10679TIP3    H131980   6.495   2.999   6.558
10679TIP3    H231981   6.461   2.853   6.540
10680TIP3   OH231982   6.524   2.414   5.202
10680TIP3    H131983   6.514   2.409   5.298
10680TIP3    H231984   6.447   2.463   5.173
10681TIP3   OH231985   6.067   2.456   6.073
10681TIP3    H131986   6.142   2.487   6.123
10681TIP3    H231987   6.104   2.424   5.991
10682TIP3   OH231988   6.035   2.440   5.589
10682TIP3    H131989   6.080   2.473   5.512
10682TIP3    H231990   5.972   2.508   5.613
10683TIP3   OH231991   7.197   3.147   6.183
10683TIP3    H131992   7.229   3.080   6.123
10683TIP3    H231993   7.164   3.098   6.259
10684TIP3   OH231994   6.868   2.606   5.859
10684TIP3    H131995   6.787   2.612   5.908
10684TIP3    H231996   6.937   2.615   5.925
10685TIP3   OH231997   6.298   2.670   5.863
10685TIP3    H131998   6.207   2.680   5.838
10685TIP3    H231999   6.320   2.580   5.841
10686TIP3   OH232000   6.567   2.667   5.553
10686TIP3    H132001   6.659   2.681   5.531
10686TIP3    H232002   6.519   2.688   5.473
10687TIP3   OH232003   7.357   2.687   6.065
10687TIP3    H132004   7.320   2.703   6.152
10687TIP3    H232005   7.293   2.630   6.022
10688TIP3   OH232006   6.414   2.701   5.328
10688TIP3    H132007   6.343   2.654   5.284
10688TIP3    H232008   6.467   2.737   5.257
10689TIP3   OH232009   7.533   4.380   6.280
10689TIP3    H132010   7.528   4.402   6.187
10689TIP3    H232011   7.609   4.427   6.312
10690TIP3   OH232012   6.486   3.489   6.701
10690TIP3    H132013   6.565   3.519   6.745
10690TIP3    H232014   6.419   3.486   6.769
10691TIP3   OH232015   6.950   2.940   5.953
10691TIP3    H132016   7.024   2.906   5.902
10691TIP3    H232017   6.959   2.899   6.038
10692TIP3   OH232018   6.473   2.425   5.837
10692TIP3    H132019   6.434   2.350   5.883
10692TIP3    H232020   6.504   2.388   5.754
10693TIP3   OH232021   6.923   2.840   6.247
10693TIP3    H132022   6.835   2.875   6.258
10693TIP3    H232023   6.979   2.902   6.293
10694TIP3   OH232024   6.659   3.228   5.340
10694TIP3    H132025   6.590   3.163   5.326
10694TIP3    H232026   6.643   3.262   5.428
10695TIP3   OH232027   7.560   3.465   5.964
10695TIP3    H132028   7.586   3.515   5.886
10695TIP3    H232029   7.477   3.424   5.940
10696TIP3   OH232030   7.119   2.538   5.209
10696TIP3    H132031   7.025   2.521   5.214
10696TIP3    H232032   7.127   2.632   5.229
10697TIP3   OH232033   7.058   3.547   6.338
10697TIP3    H132034   7.088   3.532   6.428
10697TIP3    H232035   7.022   3.636   6.340
10698TIP3   OH232036   7.188   2.791   5.307
10698TIP3    H132037   7.283   2.796   5.321
10698TIP3    H232038   7.168   2.868   5.254
10699TIP3   OH232039   6.358   3.254   6.013
10699TIP3    H132040   6.393   3.226   5.929
10699TIP3    H232041   6.395   3.192   6.076
10700TIP3   OH232042   6.806   3.380   5.164
10700TIP3    H132043   6.761   3.464   5.167
10700TIP3    H232044   6.754   3.323   5.221
10701TIP3   OH232045   6.236   3.168   6.628
10701TIP3    H132046   6.252   3.156   6.722
10701TIP3    H232047   6.165   3.107   6.607
10702TIP3   OH232048   6.961   3.285   6.648
10702TIP3    H132049   6.896   3.230   6.604
10702TIP3    H232050   7.045   3.254   6.616
10703TIP3   OH232051   7.219   3.805   6.238
10703TIP3    H132052   7.123   3.805   6.246
10703TIP3    H232053   7.249   3.859   6.311
10704TIP3   OH232054   7.626   2.883   5.138
10704TIP3    H132055   7.567   2.835   5.079
10704TIP3    H232056   7.627   2.972   5.102
10705TIP3   OH232057   7.847   3.737   6.218
10705TIP3    H132058   7.752   3.733   6.213
10705TIP3    H232059   7.877   3.709   6.132
10706TIP3   OH232060   7.330   3.699   5.049
10706TIP3    H132061   7.306   3.629   5.110
10706TIP3    H232062   7.344   3.654   4.966
10707TIP3   OH232063   7.326   3.326   5.883
10707TIP3    H132064   7.233   3.305   5.897
10707TIP3    H232065   7.361   3.249   5.839
10708TIP3   OH232066   6.455   3.555   5.643
10708TIP3    H132067   6.453   3.631   5.584
10708TIP3    H232068   6.363   3.531   5.654
10709TIP3   OH232069   6.020   2.861   5.349
10709TIP3    H132070   6.066   2.943   5.367
10709TIP3    H232071   5.943   2.863   5.405
10710TIP3   OH232072   6.589   3.320   5.585
10710TIP3    H132073   6.558   3.409   5.602
10710TIP3    H232074   6.555   3.268   5.657
10711TIP3   OH232075   6.727   3.899   6.107
10711TIP3    H132076   6.766   3.971   6.056
10711TIP3    H232077   6.801   3.863   6.156
10712TIP3   OH232078   6.366   3.785   5.493
10712TIP3    H132079   6.281   3.787   5.538
10712TIP3    H232080   6.402   3.873   5.505
10713TIP3   OH232081   7.111   3.534   6.070
10713TIP3    H132082   7.100   3.533   6.165
10713TIP3    H232083   7.190   3.482   6.054
10714TIP3   OH232084   7.089   3.428   4.954
10714TIP3    H132085   7.143   3.405   5.029
10714TIP3    H232086   7.001   3.398   4.978
10715TIP3   OH232087   7.359   4.070   6.110
10715TIP3    H132088   7.279   4.016   6.103
10715TIP3    H232089   7.349   4.137   6.043
10716TIP3   OH232090   7.426   3.904   4.769
10716TIP3    H132091   7.466   3.974   4.718
10716TIP3    H232092   7.346   3.943   4.805
10717TIP3   OH232093   6.443   2.676   6.634
10717TIP3    H132094   6.348   2.683   6.644
10717TIP3    H232095   6.471   2.620   6.707
10718TIP3   OH232096   7.251   3.360   5.169
10718TIP3    H132097   7.237   3.294   5.237
10718TIP3    H232098   7.345   3.359   5.153
10719TIP3   OH232099   6.165   3.761   6.267
10719TIP3    H132100   6.216   3.687   6.301
10719TIP3    H232101   6.188   3.834   6.325
10720TIP3   OH232102   6.452   3.405   4.952
10720TIP3    H132103   6.465   3.316   4.921
10720TIP3    H232104   6.431   3.395   5.045
10721TIP3   OH232105   6.397   3.413   5.225
10721TIP3    H132106   6.471   3.382   5.278
10721TIP3    H232107   6.401   3.508   5.230
10722TIP3   OH232108   6.132   3.107   5.427
10722TIP3    H132109   6.065   3.148   5.484
10722TIP3    H232110   6.147   3.172   5.358
10723TIP3   OH232111   7.281   2.743   6.325
10723TIP3    H132112   7.366   2.777   6.353
10723TIP3    H232113   7.271   2.661   6.372
10724TIP3   OH232114   7.162   2.492   5.487
10724TIP3    H132115   7.149   2.511   5.394
10724TIP3    H232116   7.203   2.572   5.521
10725TIP3   OH232117   6.665   3.610   5.173
10725TIP3    H132118   6.578   3.634   5.207
10725TIP3    H232119   6.681   3.675   5.104
10726TIP3   OH232120   6.852   2.674   5.587
10726TIP3    H132121   6.914   2.744   5.567
10726TIP3    H232122   6.857   2.666   5.682
10727TIP3   OH232123   7.121   2.989   6.390
10727TIP3    H132124   7.145   3.040   6.466
10727TIP3    H232125   7.173   2.909   6.397
10728TIP3   OH232126   6.994   2.397   5.686
10728TIP3    H132127   6.980   2.473   5.743
10728TIP3    H232128   7.055   2.428   5.619
10729TIP3   OH232129   6.409   3.686   5.237
10729TIP3    H132130   6.380   3.753   5.175
10729TIP3    H232131   6.389   3.722   5.323
10730TIP3   OH232132   6.510   2.400   5.480
10730TIP3    H132133   6.504   2.490   5.513
10730TIP3    H232134   6.604   2.379   5.483
10731TIP3   OH232135   7.758   2.887   6.381
10731TIP3    H132136   7.663   2.885   6.377
10731TIP3    H232137   7.786   2.864   6.293
10732TIP3   OH232138   7.412   3.083   5.763
10732TIP3    H132139   7.337   3.025   5.772
10732TIP3    H232140   7.483   3.039   5.809
10733TIP3   OH232141   6.130   3.310   5.229
10733TIP3    H132142   6.197   3.378   5.241
10733TIP3    H232143   6.167   3.251   5.164
10734TIP3   OH232144   6.068   2.590   5.365
10734TIP3    H132145   6.069   2.685   5.364
10734TIP3    H232146   5.988   2.566   5.317
10735TIP3   OH232147   7.382   4.046   5.709
10735TIP3    H132148   7.339   4.087   5.635
10735TIP3    H232149   7.476   4.060   5.694
10736TIP3   OH232150   6.459   2.307   6.233
10736TIP3    H132151   6.426   2.277   6.149
10736TIP3    H232152   6.447   2.233   6.292
10737TIP3   OH232153   5.995   3.536   5.615
10737TIP3    H132154   5.931   3.559   5.682
10737TIP3    H232155   5.961   3.574   5.534
10738TIP3   OH232156   6.158   4.073   6.690
10738TIP3    H132157   6.241   4.076   6.736
10738TIP3    H232158   6.134   3.981   6.688
10739TIP3   OH232159   6.633   4.029   6.735
10739TIP3    H132160   6.728   4.016   6.742
10739TIP3    H232161   6.607   3.972   6.663
10740TIP3   OH232162   6.617   3.608   4.864
10740TIP3    H132163   6.561   3.538   4.900
10740TIP3    H232164   6.691   3.561   4.827
10741TIP3   OH232165   7.273   3.942   6.470
10741TIP3    H132166   7.267   3.873   6.536
10741TIP3    H232167   7.349   3.994   6.497
10742TIP3   OH232168   7.052   3.648   4.775
10742TIP3    H132169   7.092   3.585   4.834
10742TIP3    H232170   7.108   3.647   4.697
10743TIP3   OH232171   6.282   3.477   6.889
10743TIP3    H132172   6.301   3.383   6.895
10743TIP3    H232173   6.197   3.482   6.846
10744TIP3   OH232174   6.265   3.124   5.085
10744TIP3    H132175   6.317   3.093   5.159
10744TIP3    H232176   6.327   3.131   5.012
10745TIP3   OH232177   6.892   3.563   6.663
10745TIP3    H132178   6.850   3.584   6.579
10745TIP3    H232179   6.921   3.472   6.653
10746TIP3   OH232180   6.776   3.324   4.895
10746TIP3    H132181   6.777   3.339   4.989
10746TIP3    H232182   6.776   3.229   4.886
10747TIP3   OH232183   7.384   3.577   6.272
10747TIP3    H132184   7.460   3.615   6.227
10747TIP3    H232185   7.314   3.641   6.258
10748TIP3   OH232186   6.405   3.216   6.876
10748TIP3    H132187   6.477   3.159   6.849
10748TIP3    H232188   6.430   3.247   6.962
10749TIP3   OH232189   6.468   3.030   5.304
10749TIP3    H132190   6.441   2.990   5.387
10749TIP3    H232191   6.506   2.958   5.254
10750TIP3   OH232192   6.741   3.100   6.536
10750TIP3    H132193   6.662   3.153   6.538
10750TIP3    H232194   6.789   3.130   6.458
10751TIP3   OH232195   6.573   2.827   5.143
10751TIP3    H132196   6.544   2.832   5.052
10751TIP3    H232197   6.669   2.831   5.138
10752TIP3   OH232198   7.255   3.496   6.668
10752TIP3    H132199   7.333   3.472   6.618
10752TIP3    H232200   7.252   3.432   6.739
10753TIP3   OH232201   7.389   3.156   4.809
10753TIP3    H132202   7.371   3.108   4.729
10753TIP3    H232203   7.359   3.245   4.791
10754TIP3   OH232204   6.864   2.885   6.654
10754TIP3    H132205   6.861   2.807   6.600
10754TIP3    H232206   6.821   2.952   6.602
10755TIP3   OH232207   6.864   2.670   6.466
10755TIP3    H132208   6.893   2.713   6.385
10755TIP3    H232209   6.773   2.647   6.450
10756TIP3   OH232210   6.890   3.208   6.339
10756TIP3    H132211   6.974   3.220   6.295
10756TIP3    H232212   6.832   3.271   6.297
10757TIP3   OH232213   7.479   3.181   6.713
10757TIP3    H132214   7.542   3.109   6.712
10757TIP3    H232215   7.529   3.257   6.682
10758TIP3   OH232216   7.514   3.427   6.454
10758TIP3    H132217   7.454   3.479   6.400
10758TIP3    H232218   7.600   3.446   6.418
10759TIP3   OH232219   6.743   2.989   6.891
10759TIP3    H132220   6.674   2.925   6.908
10759TIP3    H232221   6.774   2.968   6.803
10760TIP3   OH232222   6.994   2.434   6.536
10760TIP3    H132223   6.950   2.516   6.513
10760TIP3    H232224   6.927   2.367   6.523
10761TIP3   OH232225   7.115   2.936   6.751
10761TIP3    H132226   7.102   2.923   6.845
10761TIP3    H232227   7.030   2.915   6.712
10762TIP3   OH232228   7.346   2.888   6.613
10762TIP3    H132229   7.256   2.902   6.641
10762TIP3    H232230   7.391   2.858   6.692
10763TIP3   OH232231   7.648   2.815   6.802
10763TIP3    H132232   7.583   2.786   6.739
10763TIP3    H232233   7.604   2.885   6.851
10764TIP3   OH232234   0.914   6.777   0.006
10764TIP3    H132235   0.916   6.688  -0.029
10764TIP3    H232236   0.949   6.768   0.095
10765TIP3   OH232237   7.094   2.443   6.790
10765TIP3    H132238   7.156   2.371   6.786
10765TIP3    H232239   7.050   2.441   6.705
10766TIP3   OH232240   7.155   2.660   6.943
10766TIP3    H132241   7.133   2.588   6.885
10766TIP3    H232242   7.078   2.717   6.942
10767TIP3   OH232243   6.382   3.894   5.053
10767TIP3    H132244   6.476   3.883   5.036
10767TIP3    H232245   6.348   3.938   4.976
10768TIP3   OH232246   5.860   3.267   5.266
10768TIP3    H132247   5.952   3.290   5.253
10768TIP3    H232248   5.850   3.181   5.226
10769TIP3   OH232249   5.775   3.879   5.682
10769TIP3    H132250   5.708   3.822   5.644
10769TIP3    H232251   5.819   3.824   5.747
10770TIP3   OH232252   5.910   3.729   5.872
10770TIP3    H132253   5.893   3.657   5.933
10770TIP3    H232254   5.959   3.793   5.924
10771TIP3   OH232255   7.638   4.128   5.671
10771TIP3    H132256   7.660   4.165   5.757
10771TIP3    H232257   7.690   4.179   5.609
10772TIP3   OH232258   7.664   4.147   5.954
10772TIP3    H132259   7.621   4.062   5.947
10772TIP3    H232260   7.742   4.131   6.007
10773TIP3   OH232261   7.712   3.830   6.527
10773TIP3    H132262   7.639   3.838   6.589
10773TIP3    H232263   7.754   3.916   6.528
10774TIP3   OH232264   7.530   3.342   5.144
10774TIP3    H132265   7.594   3.406   5.113
10774TIP3    H232266   7.571   3.303   5.221
10775TIP3   OH232267   7.655   3.210   5.349
10775TIP3    H132268   7.590   3.168   5.405
10775TIP3    H232269   7.720   3.245   5.410
10776TIP3   OH232270   7.712   3.603   5.777
10776TIP3    H132271   7.764   3.536   5.732
10776TIP3    H232272   7.707   3.676   5.716
10777TIP3   OH232273   7.537   3.899   5.974
10777TIP3    H132274   7.468   3.945   6.023
10777TIP3    H232275   7.490   3.854   5.904
10778TIP3   OH232276   7.590   3.120   4.992
10778TIP3    H132277   7.521   3.118   4.926
10778TIP3    H232278   7.566   3.193   5.049
10779TIP3   OH232279   7.461   2.789   4.946
10779TIP3    H132280   7.419   2.827   4.868
10779TIP3    H232281   7.440   2.696   4.941
10780TIP3   OH232282   7.467   3.066   5.493
10780TIP3    H132283   7.476   2.972   5.484
10780TIP3    H232284   7.454   3.080   5.587
10781TIP3   OH232285   6.096   3.138   6.240
10781TIP3    H132286   6.089   3.106   6.150
10781TIP3    H232287   6.190   3.140   6.258
10782TIP3   OH232288   7.758   3.491   6.350
10782TIP3    H132289   7.827   3.426   6.341
10782TIP3    H232290   7.782   3.561   6.289
10783TIP3   OH232291   7.938   3.292   6.368
10783TIP3    H132292   7.865   3.242   6.407
10783TIP3    H232293   8.014   3.234   6.377
10784TIP3   OH232294   7.406   2.525   4.935
10784TIP3    H132295   7.479   2.491   4.986
10784TIP3    H232296   7.333   2.465   4.953
10785TIP3   OH232297   7.467   2.782   5.384
10785TIP3    H132298   7.506   2.696   5.402
10785TIP3    H232299   7.522   2.818   5.314
10786TIP3   OH232300   7.628   2.958   5.884
10786TIP3    H132301   7.710   2.979   5.840
10786TIP3    H232302   7.639   2.993   5.973
10787TIP3   OH232303   7.697   3.104   6.118
10787TIP3    H132304   7.618   3.137   6.161
10787TIP3    H232305   7.731   3.179   6.069
10788TIP3   OH232306   6.315   2.825   6.918
10788TIP3    H132307   6.411   2.820   6.919
10788TIP3    H232308   6.287   2.741   6.955
10789TIP3   OH232309   8.160   2.684   6.659
10789TIP3    H132310   8.193   2.607   6.612
10789TIP3    H232311   8.123   2.740   6.591
10790TIP3   OH232312   7.573   2.532   5.428
10790TIP3    H132313   7.622   2.517   5.508
10790TIP3    H232314   7.513   2.458   5.422
10791TIP3   OH232315   6.278   2.518   6.243
10791TIP3    H132316   6.337   2.443   6.253
10791TIP3    H232317   6.336   2.593   6.237
10792TIP3   OH232318   6.077   2.791   6.317
10792TIP3    H132319   6.124   2.785   6.234
10792TIP3    H232320   6.101   2.877   6.352
10793TIP3   OH232321   8.011   2.823   6.481
10793TIP3    H132322   7.929   2.871   6.490
10793TIP3    H232323   7.992   2.755   6.416
10794TIP3   OH232324   7.654   2.464   5.058
10794TIP3    H132325   7.691   2.395   5.004
10794TIP3    H232326   7.718   2.535   5.054
10795TIP3   OH232327   6.059   2.300   5.821
10795TIP3    H132328   5.968   2.290   5.847
10795TIP3    H232329   6.056   2.355   5.743
10796TIP3   OH232330   7.216   4.001   5.323
10796TIP3    H132331   7.270   3.990   5.244
10796TIP3    H232332   7.262   4.067   5.374
10797TIP3   OH232333   6.281   2.371   6.631
10797TIP3    H132334   6.234   2.366   6.715
10797TIP3    H232335   6.218   2.413   6.571
10798TIP3   OH232336   6.318   3.802   6.709
10798TIP3    H132337   6.226   3.779   6.692
10798TIP3    H232338   6.330   3.785   6.803
10799TIP3   OH232339   6.501   3.841   6.255
10799TIP3    H132340   6.449   3.912   6.220
10799TIP3    H232341   6.587   3.850   6.213
10800TIP3   OH232342   6.943   4.080   6.395
10800TIP3    H132343   6.981   4.079   6.482
10800TIP3    H232344   7.005   4.130   6.342
10801TIP3   OH232345   7.123   4.233   6.257
10801TIP3    H132346   7.192   4.181   6.214
10801TIP3    H232347   7.170   4.291   6.317
10802TIP3   OH232348   7.912   2.588   6.354
10802TIP3    H132349   7.825   2.582   6.313
10802TIP3    H232350   7.950   2.502   6.343
10803TIP3   OH232351   6.173   4.096   6.282
10803TIP3    H132352   6.084   4.124   6.259
10803TIP3    H232353   6.189   4.136   6.367
10804TIP3   OH232354   6.407   4.073   6.138
10804TIP3    H132355   6.324   4.083   6.185
10804TIP3    H232356   6.388   4.104   6.050
10805TIP3   OH232357   6.835   4.095   5.938
10805TIP3    H132358   6.770   4.115   5.870
10805TIP3    H232359   6.851   4.179   5.981
10806TIP3   OH232360   7.105   4.039   5.988
10806TIP3    H132361   7.011   4.052   5.973
10806TIP3    H232362   7.147   4.114   5.945
10807TIP3   OH232363   7.311   4.237   5.894
10807TIP3    H132364   7.281   4.310   5.841
10807TIP3    H232365   7.341   4.172   5.830
10808TIP3   OH232366   6.090   3.886   6.027
10808TIP3    H132367   6.110   3.860   6.117
10808TIP3    H232368   6.158   3.844   5.974
10809TIP3   OH232369   6.283   3.757   5.886
10809TIP3    H132370   6.292   3.675   5.933
10809TIP3    H232371   6.372   3.793   5.883
10810TIP3   OH232372   6.552   3.850   5.891
10810TIP3    H132373   6.577   3.759   5.876
10810TIP3    H232374   6.595   3.874   5.973
10811TIP3   OH232375   7.132   2.517   5.976
10811TIP3    H132376   7.085   2.450   6.026
10811TIP3    H232377   7.199   2.468   5.927
10812TIP3   OH232378   7.639   2.397   5.882
10812TIP3    H132379   7.679   2.441   5.807
10812TIP3    H232380   7.545   2.410   5.870
10813TIP3   OH232381   7.741   2.488   5.643
10813TIP3    H132382   7.810   2.433   5.606
10813TIP3    H232383   7.771   2.578   5.629
10814TIP3   OH232384   6.367   2.214   5.988
10814TIP3    H132385   6.275   2.187   5.990
10814TIP3    H232386   6.416   2.132   5.984
10815TIP3   OH232387   6.164   2.090   5.642
10815TIP3    H132388   6.189   2.143   5.566
10815TIP3    H232389   6.131   2.153   5.706
10816TIP3   OH232390   6.826   2.250   5.877
10816TIP3    H132391   6.877   2.287   5.805
10816TIP3    H232392   6.812   2.324   5.937
10817TIP3   OH232393   7.356   2.391   5.852
10817TIP3    H132394   7.360   2.356   5.763
10817TIP3    H232395   7.344   2.314   5.908
10818TIP3   OH232396   7.389   2.320   5.418
10818TIP3    H132397   7.305   2.364   5.428
10818TIP3    H232398   7.378   2.235   5.461
10819TIP3   OH232399   5.870   3.663   5.411
10819TIP3    H132400   5.788   3.625   5.383
10819TIP3    H232401   5.864   3.756   5.387
10820TIP3   OH232402   6.278   2.245   5.401
10820TIP3    H132403   6.322   2.182   5.343
10820TIP3    H232404   6.349   2.298   5.436
10821TIP3   OH232405   6.786   2.425   5.501
10821TIP3    H132406   6.846   2.374   5.555
10821TIP3    H232407   6.805   2.516   5.523
10822TIP3   OH232408   6.649   3.843   4.999
10822TIP3    H132409   6.735   3.869   4.967
10822TIP3    H232410   6.622   3.771   4.942
10823TIP3   OH232411   7.365   3.965   5.091
10823TIP3    H132412   7.358   3.870   5.082
10823TIP3    H232413   7.321   4.000   5.014
10824TIP3   OH232414   6.579   2.495   6.883
10824TIP3    H132415   6.541   2.427   6.937
10824TIP3    H232416   6.672   2.498   6.909
10825TIP3   OH232417   1.162   6.499   0.062
10825TIP3    H132418   1.246   6.470   0.025
10825TIP3    H232419   1.142   6.434   0.129
10826TIP3   OH232420   5.952   3.682   5.055
10826TIP3    H132421   5.951   3.701   5.149
10826TIP3    H232422   6.037   3.639   5.041
10827TIP3   OH232423   7.666   2.539   6.771
10827TIP3    H132424   7.671   2.467   6.833
10827TIP3    H232425   7.744   2.529   6.717
10828TIP3   OH232426   7.586   4.110   6.279
10828TIP3    H132427   7.512   4.078   6.228
10828TIP3    H232428   7.572   4.204   6.285
10829TIP3   OH232429   8.155   3.373   5.794
10829TIP3    H132430   8.179   3.306   5.859
10829TIP3    H232431   8.230   3.432   5.793
10830TIP3   OH232432   8.127   3.786   5.515
10830TIP3    H132433   8.116   3.691   5.517
10830TIP3    H232434   8.222   3.798   5.511
10831TIP3   OH232435   7.830   2.989   5.297
10831TIP3    H132436   7.784   3.071   5.317
10831TIP3    H232437   7.763   2.934   5.256
10832TIP3   OH232438   7.894   3.275   5.478
10832TIP3    H132439   7.940   3.198   5.512
10832TIP3    H232440   7.949   3.307   5.407
10833TIP3   OH232441   0.260   4.211   5.108
10833TIP3    H132442   0.353   4.187   5.108
10833TIP3    H232443   0.239   4.221   5.201
10834TIP3   OH232444   0.161   3.698   5.477
10834TIP3    H132445   0.172   3.665   5.387
10834TIP3    H232446   0.238   3.752   5.492
10835TIP3   OH232447   8.379   2.869   5.483
10835TIP3    H132448   8.395   2.936   5.416
10835TIP3    H232449   8.346   2.794   5.433
10836TIP3   OH232450   8.042   3.067   5.578
10836TIP3    H132451   8.120   3.050   5.630
10836TIP3    H232452   8.054   3.016   5.498
10837TIP3   OH232453   8.466   3.268   5.370
10837TIP3    H132454   8.556   3.240   5.385
10837TIP3    H232455   8.421   3.189   5.340
10838TIP3   OH232456   8.402   2.862   5.917
10838TIP3    H132457   8.349   2.890   5.842
10838TIP3    H232458   8.347   2.881   5.993
10839TIP3   OH232459   0.012   3.627   5.708
10839TIP3    H132460  -0.052   3.689   5.744
10839TIP3    H232461   0.054   3.676   5.637
10840TIP3   OH232462   8.269   2.970   5.701
10840TIP3    H132463   8.330   3.040   5.723
10840TIP3    H232464   8.308   2.926   5.626
10841TIP3   OH232465   8.336   3.823   5.798
10841TIP3    H132466   8.315   3.909   5.761
10841TIP3    H232467   8.261   3.801   5.853
10842TIP3   OH232468   7.729   3.515   5.035
10842TIP3    H132469   7.688   3.538   4.951
10842TIP3    H232470   7.760   3.598   5.070
10843TIP3   OH232471   8.259   3.414   5.261
10843TIP3    H132472   8.219   3.358   5.195
10843TIP3    H232473   8.334   3.363   5.293
10844TIP3   OH232474   8.391   3.829   5.407
10844TIP3    H132475   8.366   3.792   5.323
10844TIP3    H232476   8.474   3.786   5.429
10845TIP3   OH232477   8.402   3.388   5.616
10845TIP3    H132478   8.431   3.363   5.528
10845TIP3    H232479   8.444   3.472   5.632
10846TIP3   OH232480   8.536   3.937   5.951
10846TIP3    H132481   8.480   4.002   5.994
10846TIP3    H232482   8.475   3.884   5.899
10847TIP3   OH232483   8.293   3.506   6.043
10847TIP3    H132484   8.300   3.590   6.090
10847TIP3    H232485   8.203   3.478   6.058
10848TIP3   OH232486   0.139   3.991   4.974
10848TIP3    H132487   0.161   4.077   5.010
10848TIP3    H232488   0.071   4.009   4.909
10849TIP3   OH232489   8.334   4.107   6.030
10849TIP3    H132490   8.301   4.110   5.940
10849TIP3    H232491   8.256   4.087   6.083
10850TIP3   OH232492   8.133   3.256   5.065
10850TIP3    H132493   8.066   3.299   5.012
10850TIP3    H232494   8.096   3.170   5.085
10851TIP3   OH232495   7.914   3.641   5.977
10851TIP3    H132496   7.850   3.619   5.909
10851TIP3    H232497   7.952   3.556   6.001
10852TIP3   OH232498   7.770   3.834   5.612
10852TIP3    H132499   7.865   3.830   5.603
10852TIP3    H232500   7.754   3.914   5.663
10853TIP3   OH232501   0.226   4.056   5.793
10853TIP3    H132502   0.235   4.146   5.825
10853TIP3    H232503   0.159   4.018   5.850
10854TIP3   OH232504   8.509   4.200   4.747
10854TIP3    H132505   8.461   4.179   4.667
10854TIP3    H232506   8.473   4.284   4.777
10855TIP3   OH232507   7.939   4.046   5.138
10855TIP3    H132508   7.985   4.040   5.221
10855TIP3    H232509   7.882   3.968   5.137
10856TIP3   OH232510   0.275   4.161   4.684
10856TIP3    H132511   0.184   4.178   4.708
10856TIP3    H232512   0.290   4.069   4.709
10857TIP3   OH232513   8.122   3.821   5.963
10857TIP3    H132514   8.170   3.808   6.045
10857TIP3    H232515   8.047   3.761   5.969
10858TIP3   OH232516   8.501   2.630   5.778
10858TIP3    H132517   8.418   2.610   5.736
10858TIP3    H232518   8.494   2.722   5.803
10859TIP3   OH232519   8.443   3.169   5.769
10859TIP3    H132520   8.395   3.185   5.850
10859TIP3    H232521   8.426   3.246   5.715
10860TIP3   OH232522   8.334   3.047   5.275
10860TIP3    H132523   8.247   3.017   5.302
10860TIP3    H232524   8.349   3.007   5.190
10861TIP3   OH232525   8.261   3.190   5.983
10861TIP3    H132526   8.315   3.244   6.040
10861TIP3    H232527   8.252   3.107   6.029
10862TIP3   OH232528   8.304   2.627   4.675
10862TIP3    H132529   8.295   2.644   4.768
10862TIP3    H232530   8.248   2.692   4.633
10863TIP3   OH232531   7.863   2.710   5.560
10863TIP3    H132532   7.936   2.743   5.613
10863TIP3    H232533   7.905   2.678   5.480
10864TIP3   OH232534   7.829   2.696   5.075
10864TIP3    H132535   7.875   2.729   4.998
10864TIP3    H232536   7.768   2.765   5.099
10865TIP3   OH232537   8.095   2.929   5.346
10865TIP3    H132538   8.003   2.933   5.321
10865TIP3    H232539   8.120   2.838   5.331
10866TIP3   OH232540   8.373   2.927   5.028
10866TIP3    H132541   8.457   2.935   4.983
10866TIP3    H232542   8.307   2.944   4.960
10867TIP3   OH232543   8.210   2.953   4.816
10867TIP3    H132544   8.140   2.906   4.769
10867TIP3    H232545   8.265   2.989   4.746
10868TIP3   OH232546   8.282   3.748   6.190
10868TIP3    H132547   8.362   3.775   6.235
10868TIP3    H232548   8.216   3.745   6.259
10869TIP3   OH232549   8.256   2.683   5.319
10869TIP3    H132550   8.225   2.612   5.375
10869TIP3    H232551   8.306   2.638   5.250
10870TIP3   OH232552   0.213   3.094   5.786
10870TIP3    H132553   0.124   3.118   5.760
10870TIP3    H232554   0.263   3.175   5.777
10871TIP3   OH232555   8.425   3.513   4.826
10871TIP3    H132556   8.378   3.430   4.819
10871TIP3    H232557   8.433   3.528   4.920
10872TIP3   OH232558   0.323   3.778   5.851
10872TIP3    H132559   0.353   3.763   5.941
10872TIP3    H232560   0.298   3.871   5.849
10873TIP3   OH232561   8.153   3.511   5.501
10873TIP3    H132562   8.186   3.482   5.416
10873TIP3    H232563   8.190   3.449   5.564
10874TIP3   OH232564   0.067   3.634   4.624
10874TIP3    H132565   0.042   3.723   4.646
10874TIP3    H232566   0.036   3.581   4.697
10875TIP3   OH232567   8.033   3.432   6.118
10875TIP3    H132568   8.063   3.418   6.208
10875TIP3    H232569   7.968   3.363   6.103
10876TIP3   OH232570   0.264   3.548   6.132
10876TIP3    H132571   0.219   3.500   6.062
10876TIP3    H232572   0.353   3.512   6.132
10877TIP3   OH232573   8.251   3.814   5.127
10877TIP3    H132574   8.252   3.893   5.073
10877TIP3    H232575   8.158   3.794   5.139
10878TIP3   OH232576   7.815   3.118   4.834
10878TIP3    H132577   7.861   3.200   4.853
10878TIP3    H232578   7.738   3.120   4.891
10879TIP3   OH232579   8.401   3.581   5.092
10879TIP3    H132580   8.360   3.668   5.096
10879TIP3    H232581   8.351   3.528   5.153
10880TIP3   OH232582   0.022   4.153   5.596
10880TIP3    H132583   0.054   4.229   5.548
10880TIP3    H232584   0.097   4.122   5.646
10881TIP3   OH232585   8.170   4.052   4.980
10881TIP3    H132586   8.085   4.058   5.025
10881TIP3    H232587   8.204   4.142   4.981
10882TIP3   OH232588   8.233   2.938   6.123
10882TIP3    H132589   8.137   2.938   6.130
10882TIP3    H232590   8.263   2.877   6.191
10883TIP3   OH232591   7.961   4.018   5.754
10883TIP3    H132592   8.013   3.947   5.793
10883TIP3    H232593   7.983   4.095   5.806
10884TIP3   OH232594   8.245   3.660   4.440
10884TIP3    H132595   8.249   3.569   4.412
10884TIP3    H232596   8.228   3.656   4.534
10885TIP3   OH232597   8.199   3.667   4.710
10885TIP3    H132598   8.276   3.632   4.754
10885TIP3    H232599   8.204   3.762   4.724
10886TIP3   OH232600   7.926   3.364   4.914
10886TIP3    H132601   7.861   3.405   4.971
10886TIP3    H232602   7.942   3.429   4.845
10887TIP3   OH232603   8.460   3.880   4.666
10887TIP3    H132604   8.371   3.897   4.697
10887TIP3    H232605   8.483   3.957   4.613
10888TIP3   OH232606   8.201   3.944   4.727
10888TIP3    H132607   8.169   4.010   4.665
10888TIP3    H232608   8.186   3.983   4.813
10889TIP3   OH232609   8.311   2.663   4.956
10889TIP3    H132610   8.296   2.744   5.004
10889TIP3    H232611   8.397   2.676   4.915
10890TIP3   OH232612   7.928   3.566   4.716
10890TIP3    H132613   7.992   3.635   4.730
10890TIP3    H232614   7.967   3.510   4.649
10891TIP3   OH232615   7.866   2.848   4.853
10891TIP3    H132616   7.865   2.943   4.850
10891TIP3    H232617   7.789   2.821   4.803
10892TIP3   OH232618   8.234   2.566   5.724
10892TIP3    H132619   8.221   2.533   5.635
10892TIP3    H232620   8.236   2.488   5.779
10893TIP3   OH232621   7.787   3.784   5.102
10893TIP3    H132622   7.726   3.814   5.169
10893TIP3    H232623   7.758   3.826   5.021
10894TIP3   OH232624   7.953   4.329   6.181
10894TIP3    H132625   8.037   4.333   6.226
10894TIP3    H232626   7.933   4.236   6.175
10895TIP3   OH232627   8.428   4.286   6.222
10895TIP3    H132628   8.522   4.272   6.231
10895TIP3    H232629   8.402   4.229   6.149
10896TIP3   OH232630   8.408   3.859   4.350
10896TIP3    H132631   8.344   3.796   4.383
10896TIP3    H232632   8.493   3.821   4.372
10897TIP3   OH232633   8.078   3.735   6.376
10897TIP3    H132634   8.096   3.643   6.392
10897TIP3    H232635   7.994   3.737   6.331
10898TIP3   OH232636   8.068   3.381   4.569
10898TIP3    H132637   8.116   3.351   4.646
10898TIP3    H232638   8.134   3.387   4.500
10899TIP3   OH232639   0.202   3.823   6.146
10899TIP3    H132640   0.148   3.838   6.069
10899TIP3    H232641   0.219   3.728   6.145
10900TIP3   OH232642   0.053   3.564   4.367
10900TIP3    H132643   0.072   3.597   4.455
10900TIP3    H232644  -0.021   3.504   4.380
10901TIP3   OH232645   8.214   3.451   6.354
10901TIP3    H132646   8.297   3.409   6.332
10901TIP3    H232647   8.230   3.491   6.439
10902TIP3   OH232648   8.263   3.283   4.788
10902TIP3    H132649   8.236   3.246   4.871
10902TIP3    H232650   8.306   3.211   4.741
10903TIP3   OH232651   0.003   3.330   6.036
10903TIP3    H132652  -0.062   3.399   6.049
10903TIP3    H232653   0.063   3.366   5.972
10904TIP3   OH232654   8.373   3.077   4.628
10904TIP3    H132655   8.332   3.084   4.542
10904TIP3    H232656   8.464   3.056   4.610
10905TIP3   OH232657   0.156   3.135   6.158
10905TIP3    H132658   0.163   3.053   6.108
10905TIP3    H232659   0.103   3.192   6.103
10906TIP3   OH232660   0.164   2.916   5.981
10906TIP3    H132661   0.180   2.968   5.902
10906TIP3    H232662   0.078   2.876   5.966
10907TIP3   OH232663   0.163   3.461   5.867
10907TIP3    H132664   0.232   3.444   5.803
10907TIP3    H232665   0.105   3.524   5.823
10908TIP3   OH232666   8.451   3.281   6.331
10908TIP3    H132667   8.424   3.195   6.363
10908TIP3    H232668   8.516   3.262   6.263
10909TIP3   OH232669   8.368   3.034   6.422
10909TIP3    H132670   8.372   2.942   6.395
10909TIP3    H232671   8.408   3.035   6.508
10910TIP3   OH232672   8.167   4.147   4.537
10910TIP3    H132673   8.262   4.141   4.527
10910TIP3    H232674   8.138   4.198   4.461
10911TIP3   OH232675   7.656   3.525   4.751
10911TIP3    H132676   7.748   3.547   4.740
10911TIP3    H232677   7.647   3.438   4.712
10912TIP3   OH232678   7.573   4.133   5.168
10912TIP3    H132679   7.504   4.077   5.131
10912TIP3    H232680   7.616   4.078   5.233
10913TIP3   OH232681   7.707   3.983   5.357
10913TIP3    H132682   7.691   3.913   5.421
10913TIP3    H232683   7.757   4.049   5.406
10914TIP3   OH232684   7.892   3.394   5.727
10914TIP3    H132685   7.885   3.361   5.637
10914TIP3    H232686   7.986   3.396   5.745
10915TIP3   OH232687   8.100   3.074   6.393
10915TIP3    H132688   8.195   3.081   6.392
10915TIP3    H232689   8.083   2.993   6.442
10916TIP3   OH232690   8.065   2.779   5.741
10916TIP3    H132691   8.120   2.701   5.742
10916TIP3    H232692   8.127   2.852   5.733
10917TIP3   OH232693   7.872   3.050   5.803
10917TIP3    H132694   7.919   3.037   5.721
10917TIP3    H232695   7.902   3.135   5.835
10918TIP3   OH232696   7.854   2.552   5.304
10918TIP3    H132697   7.763   2.547   5.332
10918TIP3    H232698   7.853   2.609   5.227
10919TIP3   OH232699   8.072   2.641   6.126
10919TIP3    H132700   8.019   2.631   6.205
10919TIP3    H232701   8.011   2.673   6.059
10920TIP3   OH232702   8.114   4.059   6.194
10920TIP3    H132703   8.023   4.035   6.179
10920TIP3    H232704   8.129   4.043   6.287
10921TIP3   OH232705   8.296   4.094   5.742
10921TIP3    H132706   8.243   4.166   5.708
10921TIP3    H232707   8.381   4.104   5.699
10922TIP3   OH232708   0.231   4.321   5.885
10922TIP3    H132709   0.274   4.328   5.970
10922TIP3    H232710   0.279   4.381   5.828
10923TIP3   OH232711   0.372   4.491   5.710
10923TIP3    H132712   0.419   4.483   5.627
10923TIP3    H232713   0.406   4.572   5.748
10924TIP3   OH232714   7.972   4.348   5.775
10924TIP3    H132715   7.883   4.372   5.748
10924TIP3    H232716   7.989   4.401   5.853
10925TIP3   OH232717   8.203   4.325   5.625
10925TIP3    H132718   8.120   4.336   5.672
10925TIP3    H232719   8.185   4.360   5.537
10926TIP3   OH232720   0.104   4.364   5.427
10926TIP3    H132721   0.032   4.376   5.365
10926TIP3    H232722   0.118   4.451   5.464
10927TIP3   OH232723   0.355   4.265   5.407
10927TIP3    H132724   0.265   4.296   5.417
10927TIP3    H232725   0.409   4.340   5.432
10928TIP3   OH232726   7.884   4.139   5.511
10928TIP3    H132727   7.903   4.115   5.601
10928TIP3    H232728   7.954   4.100   5.460
10929TIP3   OH232729   8.079   4.014   5.371
10929TIP3    H132730   8.090   3.932   5.419
10929TIP3    H232731   8.166   4.052   5.368
10930TIP3   OH232732   8.345   4.108   5.376
10930TIP3    H132733   8.369   4.016   5.364
10930TIP3    H232734   8.388   4.134   5.457
10931TIP3   OH232735   8.163   2.472   5.470
10931TIP3    H132736   8.073   2.441   5.475
10931TIP3    H232737   8.216   2.393   5.467
10932TIP3   OH232738   7.957   2.347   5.117
10932TIP3    H132739   7.984   2.405   5.046
10932TIP3    H232740   7.929   2.407   5.187
10933TIP3   OH232741   7.668   3.919   4.901
10933TIP3    H132742   7.584   3.884   4.869
10933TIP3    H232743   7.663   4.012   4.882
10934TIP3   OH232744   8.071   2.504   4.891
10934TIP3    H132745   8.111   2.444   4.828
10934TIP3    H232746   8.143   2.558   4.922
10935TIP3   OH232747   8.434   4.098   4.491
10935TIP3    H132748   8.524   4.113   4.462
10935TIP3    H232749   8.402   4.027   4.435
10936TIP3   OH232750   8.379   2.761   6.372
10936TIP3    H132751   8.362   2.698   6.442
10936TIP3    H232752   8.470   2.743   6.346
10937TIP3   OH232753   7.746   3.938   4.542
10937TIP3    H132754   7.745   3.961   4.635
10937TIP3    H232755   7.832   3.897   4.528
10938TIP3   OH232756   1.313   4.282   6.731
10938TIP3    H132757   1.279   4.368   6.707
10938TIP3    H232758   1.242   4.221   6.708
10939TIP3   OH232759   6.969   0.263   0.185
10939TIP3    H132760   7.015   0.226   0.261
10939TIP3    H232761   6.940   0.187   0.135
10940TIP3   OH232762   6.299   0.144   0.505
10940TIP3    H132763   6.295   0.087   0.582
10940TIP3    H232764   6.371   0.204   0.523
10941TIP3   OH232765   1.555   4.576   6.798
10941TIP3    H132766   1.536   4.501   6.854
10941TIP3    H232767   1.583   4.645   6.859
10942TIP3   OH232768   6.255   0.550   0.209
10942TIP3    H132769   6.234   0.458   0.226
10942TIP3    H232770   6.345   0.561   0.239
10943TIP3   OH232771   6.022   0.051   0.185
10943TIP3    H132772   6.062   0.005   0.259
10943TIP3    H232773   6.081   0.124   0.167
10944TIP3   OH232774   1.207   5.032   6.819
10944TIP3    H132775   1.247   4.966   6.762
10944TIP3    H232776   1.201   4.989   6.905
10945TIP3   OH232777   6.779   0.487   0.225
10945TIP3    H132778   6.811   0.405   0.188
10945TIP3    H232779   6.858   0.536   0.248
10946TIP3   OH232780   4.960   7.822   0.224
10946TIP3    H132781   4.987   7.906   0.261
10946TIP3    H232782   4.966   7.835   0.129
10947TIP3   OH232783   3.685   7.664   0.224
10947TIP3    H132784   3.678   7.736   0.161
10947TIP3    H232785   3.646   7.589   0.179
10948TIP3   OH232786   1.558   3.718   6.776
10948TIP3    H132787   1.606   3.724   6.858
10948TIP3    H232788   1.596   3.787   6.721
10949TIP3   OH232789   3.330   7.866   0.330
10949TIP3    H132790   3.410   7.857   0.383
10949TIP3    H232791   3.351   7.821   0.248
10950TIP3   OH232792   6.609   0.044   0.116
10950TIP3    H132793   6.701   0.021   0.129
10950TIP3    H232794   6.568  -0.038   0.088
10951TIP3   OH232795   7.865   0.022   0.392
10951TIP3    H132796   7.782   0.064   0.367
10951TIP3    H232797   7.872   0.036   0.486
10952TIP3   OH232798   3.685   7.636   0.652
10952TIP3    H132799   3.633   7.682   0.586
10952TIP3    H232800   3.642   7.657   0.735
10953TIP3   OH232801   1.201   4.498   6.599
10953TIP3    H132802   1.156   4.470   6.519
10953TIP3    H232803   1.153   4.576   6.626
10954TIP3   OH232804   6.628   0.417   0.449
10954TIP3    H132805   6.567   0.480   0.488
10954TIP3    H232806   6.668   0.465   0.377
10955TIP3   OH232807   4.602   7.758   0.024
10955TIP3    H132808   4.548   7.734   0.099
10955TIP3    H232809   4.640   7.843   0.047
10956TIP3   OH232810   3.566   7.763   0.442
10956TIP3    H132811   3.622   7.838   0.466
10956TIP3    H232812   3.610   7.724   0.367
10957TIP3   OH232813   6.440   0.594   0.570
10957TIP3    H132814   6.384   0.646   0.513
10957TIP3    H232815   6.380   0.551   0.631
10958TIP3   OH232816   7.287   0.813   0.028
10958TIP3    H132817   7.200   0.800   0.065
10958TIP3    H232818   7.281   0.896  -0.019
10959TIP3   OH232819   4.754   7.726   0.389
10959TIP3    H132820   4.671   7.767   0.365
10959TIP3    H232821   4.814   7.749   0.318
10960TIP3   OH232822   4.042   7.353   0.378
10960TIP3    H132823   4.027   7.260   0.394
10960TIP3    H232824   3.967   7.397   0.419
10961TIP3   OH232825   1.323   4.862   6.634
10961TIP3    H132826   1.368   4.779   6.620
10961TIP3    H232827   1.381   4.928   6.595
10962TIP3   OH232828   1.467   4.646   6.548
10962TIP3    H132829   1.419   4.570   6.517
10962TIP3    H232830   1.507   4.617   6.630
10963TIP3   OH232831   7.515   0.720   0.366
10963TIP3    H132832   7.502   0.642   0.311
10963TIP3    H232833   7.498   0.794   0.307
10964TIP3   OH232834   1.142   4.133   6.564
10964TIP3    H132835   1.062   4.179   6.542
10964TIP3    H232836   1.188   4.121   6.481
10965TIP3   OH232837   1.100   3.909   6.281
10965TIP3    H132838   1.165   3.956   6.333
10965TIP3    H232839   1.150   3.843   6.233
10966TIP3   OH232840   7.709   0.366   0.215
10966TIP3    H132841   7.625   0.411   0.222
10966TIP3    H232842   7.739   0.382   0.126
10967TIP3   OH232843   1.491   4.207   6.540
10967TIP3    H132844   1.434   4.231   6.613
10967TIP3    H232845   1.572   4.177   6.580
10968TIP3   OH232846   7.388   0.238   0.507
10968TIP3    H132847   7.378   0.319   0.555
10968TIP3    H232848   7.306   0.227   0.459
10969TIP3   OH232849   6.395   0.187   0.013
10969TIP3    H132850   6.352   0.131  -0.051
10969TIP3    H232851   6.471   0.137   0.042
10970TIP3   OH232852   6.535   0.620   0.154
10970TIP3    H132853   6.502   0.571   0.079
10970TIP3    H232854   6.620   0.579   0.174
10971TIP3   OH232855   6.559   0.161   0.366
10971TIP3    H132856   6.578   0.142   0.274
10971TIP3    H232857   6.584   0.253   0.376
10972TIP3   OH232858   7.046   0.805   0.147
10972TIP3    H132859   7.038   0.881   0.204
10972TIP3    H232860   7.034   0.730   0.205
10973TIP3   OH232861   6.657   0.721   0.692
10973TIP3    H132862   6.603   0.782   0.743
10973TIP3    H232863   6.593   0.665   0.647
10974TIP3   OH232864   1.329   4.066   6.364
10974TIP3    H132865   1.386   4.121   6.417
10974TIP3    H232866   1.353   4.086   6.274
10975TIP3   OH232867   6.396   0.258   0.775
10975TIP3    H132868   6.413   0.342   0.818
10975TIP3    H232869   6.303   0.263   0.750
10976TIP3   OH232870   1.072   4.743   6.638
10976TIP3    H132871   1.153   4.791   6.649
10976TIP3    H232872   1.012   4.806   6.596
10977TIP3   OH232873   6.443   0.883   0.770
10977TIP3    H132874   6.419   0.890   0.677
10977TIP3    H232875   6.365   0.846   0.812
10978TIP3   OH232876   1.825   3.307   6.406
10978TIP3    H132877   1.758   3.327   6.470
10978TIP3    H232878   1.844   3.391   6.364
10979TIP3   OH232879   0.595   4.038   6.759
10979TIP3    H132880   0.532   4.076   6.697
10979TIP3    H232881   0.561   3.950   6.778
10980TIP3   OH232882   1.645   4.670   5.959
10980TIP3    H132883   1.651   4.765   5.948
10980TIP3    H232884   1.735   4.639   5.947
10981TIP3   OH232885   7.749   1.066   0.416
10981TIP3    H132886   7.753   0.971   0.428
10981TIP3    H232887   7.669   1.093   0.461
10982TIP3   OH232888   6.854   0.852   0.548
10982TIP3    H132889   6.855   0.943   0.579
10982TIP3    H232890   6.786   0.810   0.601
10983TIP3   OH232891   0.954   4.988   6.441
10983TIP3    H132892   0.907   4.971   6.360
10983TIP3    H232893   0.924   5.074   6.469
10984TIP3   OH232894   1.158   4.889   6.081
10984TIP3    H132895   1.213   4.819   6.045
10984TIP3    H232896   1.188   4.899   6.171
10985TIP3   OH232897   1.204   4.936   6.351
10985TIP3    H132898   1.117   4.947   6.390
10985TIP3    H232899   1.256   4.895   6.420
10986TIP3   OH232900   7.638   0.196   0.689
10986TIP3    H132901   7.557   0.207   0.639
10986TIP3    H232902   7.658   0.103   0.683
10987TIP3   OH232903   3.802   7.439   0.493
10987TIP3    H132904   3.716   7.407   0.465
10987TIP3    H232905   3.784   7.523   0.535
10988TIP3   OH232906   4.346   7.555   0.675
10988TIP3    H132907   4.414   7.533   0.739
10988TIP3    H232908   4.264   7.550   0.724
10989TIP3   OH232909   4.585   7.990   0.616
10989TIP3    H132910   4.533   7.980   0.696
10989TIP3    H232911   4.550   8.068   0.575
10990TIP3   OH232912   1.406   4.109   6.108
10990TIP3    H132913   1.369   4.083   6.024
10990TIP3    H232914   1.489   4.151   6.085
10991TIP3   OH232915   1.117   3.480   6.415
10991TIP3    H132916   1.087   3.481   6.506
10991TIP3    H232917   1.079   3.400   6.378
10992TIP3   OH232918   3.735   7.957   0.520
10992TIP3    H132919   3.687   7.979   0.600
10992TIP3    H232920   3.729   8.036   0.466
10993TIP3   OH232921   3.617   7.841   0.031
10993TIP3    H132922   3.525   7.819   0.048
10993TIP3    H232923   3.635   7.803  -0.055
10994TIP3   OH232924   1.257   3.905   6.679
10994TIP3    H132925   1.222   3.988   6.648
10994TIP3    H232926   1.329   3.885   6.618
10995TIP3   OH232927   7.134   0.213   0.853
10995TIP3    H132928   7.101   0.129   0.886
10995TIP3    H232929   7.229   0.207   0.863
10996TIP3   OH232930   3.563   7.987   0.735
10996TIP3    H132931   3.590   8.070   0.776
10996TIP3    H232932   3.493   7.954   0.791
10997TIP3   OH232933   0.773   3.457   6.376
10997TIP3    H132934   0.765   3.457   6.472
10997TIP3    H232935   0.696   3.503   6.345
10998TIP3   OH232936   3.162   7.543   0.306
10998TIP3    H132937   3.245   7.538   0.355
10998TIP3    H232938   3.170   7.475   0.239
10999TIP3   OH232939   0.310   3.530   6.795
10999TIP3    H132940   0.336   3.540   6.703
10999TIP3    H232941   0.298   3.620   6.826
11000TIP3   OH232942   7.130   0.167   0.404
11000TIP3    H132943   7.152   0.097   0.342
11000TIP3    H232944   7.093   0.122   0.479
11001TIP3   OH232945   3.936   7.674   0.092
11001TIP3    H132946   3.872   7.670   0.163
11001TIP3    H232947   4.019   7.651   0.134
11002TIP3   OH232948   3.379   7.707   0.099
11002TIP3    H132949   3.289   7.675   0.104
11002TIP3    H232950   3.432   7.628   0.083
11003TIP3   OH232951   0.811   3.709   6.731
11003TIP3    H132952   0.905   3.721   6.720
11003TIP3    H232953   0.774   3.734   6.646
11004TIP3   OH232954   0.658   3.751   6.500
11004TIP3    H132955   0.596   3.700   6.447
11004TIP3    H232956   0.717   3.791   6.436
11005TIP3   OH232957   7.447   1.417   0.515
11005TIP3    H132958   7.443   1.438   0.422
11005TIP3    H232959   7.525   1.463   0.546
11006TIP3   OH232960   6.406   0.492   0.906
11006TIP3    H132961   6.475   0.549   0.939
11006TIP3    H232962   6.337   0.497   0.973
11007TIP3   OH232963   4.041   7.985   0.192
11007TIP3    H132964   4.130   7.970   0.161
11007TIP3    H232965   4.037   7.941   0.277
11008TIP3   OH232966   3.546   7.483   0.072
11008TIP3    H132967   3.513   7.405   0.116
11008TIP3    H232968   3.599   7.449  -0.000
11009TIP3   OH232969   4.003   7.888   0.485
11009TIP3    H132970   3.917   7.929   0.494
11009TIP3    H232971   4.063   7.951   0.525
11010TIP3   OH232972   0.903   4.277   6.512
11010TIP3    H132973   0.837   4.209   6.500
11010TIP3    H232974   0.891   4.307   6.602
11011TIP3   OH232975   7.472   0.504   0.201
11011TIP3    H132976   7.497   0.552   0.122
11011TIP3    H232977   7.392   0.458   0.178
11012TIP3   OH232978   1.363   3.593   6.367
11012TIP3    H132979   1.272   3.571   6.387
11012TIP3    H232980   1.375   3.680   6.403
11013TIP3   OH232981   6.981   0.591   0.571
11013TIP3    H132982   6.998   0.561   0.661
11013TIP3    H232983   6.939   0.676   0.582
11014TIP3   OH232984   1.444   3.833   6.477
11014TIP3    H132985   1.537   3.839   6.499
11014TIP3    H232986   1.425   3.914   6.430
11015TIP3   OH232987   6.272   0.281   0.252
11015TIP3    H132988   6.322   0.238   0.182
11015TIP3    H232989   6.280   0.222   0.327
11016TIP3   OH232990   1.052   4.426   6.337
11016TIP3    H132991   1.007   4.510   6.342
11016TIP3    H232992   1.001   4.368   6.394
11017TIP3   OH232993   6.880   0.325   0.866
11017TIP3    H132994   6.820   0.266   0.821
11017TIP3    H232995   6.967   0.292   0.845
11018TIP3   OH232996   7.134   0.856   0.463
11018TIP3    H132997   7.040   0.844   0.477
11018TIP3    H232998   7.164   0.903   0.541
11019TIP3   OH232999   1.881   3.923   6.310
11019TIP3    H133000   1.819   3.877   6.253
11019TIP3    H233001   1.879   4.013   6.278
11020TIP3   OH233002   7.764   0.780   0.452
11020TIP3    H133003   7.669   0.772   0.449
11020TIP3    H233004   7.794   0.749   0.367
11021TIP3   OH233005   1.582   4.742   6.228
11021TIP3    H133006   1.553   4.678   6.292
11021TIP3    H233007   1.591   4.693   6.146
11022TIP3   OH233008   7.243   0.360   0.116
11022TIP3    H133009   7.151   0.338   0.134
11022TIP3    H233010   7.279   0.282   0.075
11023TIP3   OH233011   0.707   4.602   6.814
11023TIP3    H133012   0.699   4.680   6.759
11023TIP3    H233013   0.621   4.594   6.856
11024TIP3   OH233014   0.274   3.913   6.533
11024TIP3    H133015   0.331   3.988   6.549
11024TIP3    H233016   0.186   3.946   6.549
11025TIP3   OH233017   0.838   4.365   6.759
11025TIP3    H133018   0.805   4.453   6.777
11025TIP3    H233019   0.809   4.312   6.833
11026TIP3   OH233020   6.650   0.940   0.345
11026TIP3    H133021   6.692   1.008   0.293
11026TIP3    H233022   6.723   0.898   0.392
11027TIP3   OH233023   0.620   4.847   6.673
11027TIP3    H133024   0.539   4.863   6.722
11027TIP3    H233025   0.663   4.932   6.669
11028TIP3   OH233026   7.030   0.574   0.304
11028TIP3    H133027   7.018   0.573   0.399
11028TIP3    H233028   7.099   0.511   0.287
11029TIP3   OH233029   1.338   4.474   6.129
11029TIP3    H133030   1.393   4.450   6.204
11029TIP3    H233031   1.250   4.442   6.153
11030TIP3   OH233032   7.276   1.104   0.355
11030TIP3    H133033   7.201   1.044   0.355
11030TIP3    H233034   7.258   1.165   0.284
11031TIP3   OH233035   1.674   4.948   5.946
11031TIP3    H133036   1.715   5.020   5.897
11031TIP3    H233037   1.594   4.986   5.982
11032TIP3   OH233038   1.500   4.402   6.340
11032TIP3    H133039   1.484   4.340   6.412
11032TIP3    H233040   1.595   4.402   6.330
11033TIP3   OH233041   0.700   4.447   6.126
11033TIP3    H133042   0.714   4.357   6.098
11033TIP3    H233043   0.681   4.441   6.219
11034TIP3   OH233044   0.651   4.459   6.400
11034TIP3    H133045   0.725   4.426   6.451
11034TIP3    H233046   0.656   4.554   6.409
11035TIP3   OH233047   0.396   4.145   6.605
11035TIP3    H133048   0.358   4.194   6.678
11035TIP3    H233049   0.412   4.212   6.538
11036TIP3   OH233050   4.346   7.821   0.601
11036TIP3    H133051   4.434   7.834   0.566
11036TIP3    H233052   4.341   7.727   0.618
11037TIP3   OH233053   1.411   3.526   6.654
11037TIP3    H133054   1.398   3.557   6.564
11037TIP3    H233055   1.456   3.599   6.697
11038TIP3   OH233056   0.911   4.658   6.347
11038TIP3    H133057   0.827   4.680   6.387
11038TIP3    H233058   0.930   4.732   6.288
11039TIP3   OH233059   1.086   3.717   6.764
11039TIP3    H133060   1.151   3.783   6.739
11039TIP3    H233061   1.098   3.706   6.859
11040TIP3   OH233062   7.032   0.029   0.618
11040TIP3    H133063   7.048   0.058   0.708
11040TIP3    H233064   7.081  -0.053   0.611
11041TIP3   OH233065   1.246   3.434   6.859
11041TIP3    H133066   1.270   3.483   6.938
11041TIP3    H233067   1.299   3.473   6.790
11042TIP3   OH233068   0.658   4.733   6.419
11042TIP3    H133069   0.631   4.799   6.355
11042TIP3    H233070   0.640   4.774   6.504
11043TIP3   OH233071   0.760   3.446   6.654
11043TIP3    H133072   0.754   3.534   6.690
11043TIP3    H233073   0.852   3.423   6.660
11044TIP3   OH233074   4.846   7.941   0.605
11044TIP3    H133075   4.752   7.947   0.621
11044TIP3    H233076   4.854   7.894   0.522
11045TIP3   OH233077   7.333   0.116   0.002
11045TIP3    H133078   7.264   0.067   0.046
11045TIP3    H233079   7.414   0.080   0.036
11046TIP3   OH233080   0.390   4.365   6.443
11046TIP3    H133081   0.470   4.416   6.435
11046TIP3    H233082   0.386   4.313   6.363
11047TIP3   OH233083   0.295   3.635   6.546
11047TIP3    H133084   0.303   3.731   6.544
11047TIP3    H233085   0.271   3.611   6.456
11048TIP3   OH233086   1.631   5.092   6.884
11048TIP3    H133087   1.586   5.136   6.812
11048TIP3    H233088   1.724   5.107   6.867
11049TIP3   OH233089   3.539   7.356   0.471
11049TIP3    H133090   3.512   7.328   0.383
11049TIP3    H233091   3.528   7.278   0.525
11050TIP3   OH233092   6.527   1.087   0.942
11050TIP3    H133093   6.610   1.081   0.990
11050TIP3    H233094   6.528   1.011   0.884
11051TIP3   OH233095   0.863   4.649   6.038
11051TIP3    H133096   0.804   4.584   6.077
11051TIP3    H233097   0.941   4.599   6.012
11052TIP3   OH233098   7.190   0.985   0.697
11052TIP3    H133099   7.178   0.911   0.756
11052TIP3    H233100   7.266   1.032   0.733
11053TIP3   OH233101   1.303   4.691   5.954
11053TIP3    H133102   1.335   4.625   6.015
11053TIP3    H233103   1.364   4.687   5.880
11054TIP3   OH233104   0.512   4.172   6.268
11054TIP3    H133105   0.567   4.142   6.340
11054TIP3    H233106   0.571   4.176   6.192
11055TIP3   OH233107   6.820   0.599   0.886
11055TIP3    H133108   6.778   0.619   0.803
11055TIP3    H233109   6.846   0.507   0.878
11056TIP3   OH233110   1.024   4.371   6.069
11056TIP3    H133111   1.026   4.386   6.164
11056TIP3    H233112   1.026   4.276   6.059
11057TIP3   OH233113   7.301   0.614   0.510
11057TIP3    H133114   7.374   0.656   0.464
11057TIP3    H233115   7.226   0.671   0.492
11058TIP3   OH233116   0.716   4.075   6.480
11058TIP3    H133117   0.699   4.033   6.564
11058TIP3    H233118   0.754   4.005   6.426
11059TIP3   OH233119   6.653   0.137   0.770
11059TIP3    H133120   6.575   0.191   0.770
11059TIP3    H233121   6.704   0.166   0.695
11060TIP3   OH233122   0.822   3.875   6.320
11060TIP3    H133123   0.794   3.875   6.229
11060TIP3    H233124   0.918   3.876   6.316
11061TIP3   OH233125   7.178   0.529   0.906
11061TIP3    H133126   7.246   0.501   0.844
11061TIP3    H233127   7.167   0.454   0.964
11062TIP3   OH233128   1.638   4.203   5.983
11062TIP3    H133129   1.617   4.153   5.905
11062TIP3    H233130   1.605   4.291   5.965
11063TIP3   OH233131   3.931   7.926   0.898
11063TIP3    H133132   3.930   7.851   0.838
11063TIP3    H233133   3.884   7.994   0.850
11064TIP3   OH233134   3.938   7.728   0.699
11064TIP3    H133135   3.971   7.774   0.622
11064TIP3    H233136   3.849   7.703   0.676
11065TIP3   OH233137   6.804   0.251   0.581
11065TIP3    H133138   6.884   0.240   0.529
11065TIP3    H233139   6.750   0.311   0.529
11066TIP3   OH233140   7.403   0.206   0.955
11066TIP3    H133141   7.422   0.113   0.958
11066TIP3    H233142   7.477   0.244   0.908
11067TIP3   OH233143   7.428   0.470   0.695
11067TIP3    H133144   7.371   0.520   0.638
11067TIP3    H233145   7.516   0.482   0.659
11068TIP3   OH233146   4.079   7.495   0.737
11068TIP3    H133147   4.036   7.580   0.730
11068TIP3    H233148   4.009   7.431   0.724
11069TIP3   OH233149   4.186   7.995   0.936
11069TIP3    H133150   4.175   8.030   1.025
11069TIP3    H233151   4.102   7.956   0.915
11070TIP3   OH233152   4.460   7.965   0.857
11070TIP3    H133153   4.371   7.938   0.881
11070TIP3    H233154   4.516   7.924   0.923
11071TIP3   OH233155   4.676   7.910   1.037
11071TIP3    H133156   4.700   7.818   1.024
11071TIP3    H233157   4.661   7.918   1.131
11072TIP3   OH233158   4.081   7.362   0.980
11072TIP3    H133159   4.172   7.334   0.974
11072TIP3    H233160   4.075   7.440   0.925
11073TIP3   OH233161   0.632   4.929   6.227
11073TIP3    H133162   0.725   4.925   6.206
11073TIP3    H233163   0.594   4.982   6.157
11074TIP3   OH233164   1.886   5.180   6.847
11074TIP3    H133165   1.911   5.207   6.935
11074TIP3    H233166   1.953   5.219   6.790
11075TIP3   OH233167   7.581   1.186   0.189
11075TIP3    H133168   7.532   1.104   0.183
11075TIP3    H233169   7.655   1.166   0.246
11076TIP3   OH233170   7.627   0.868   0.765
11076TIP3    H133171   7.552   0.874   0.824
11076TIP3    H233172   7.667   0.955   0.767
11077TIP3   OH233173   1.780   4.386   6.321
11077TIP3    H133174   1.846   4.450   6.294
11077TIP3    H233175   1.817   4.346   6.400
11078TIP3   OH233176   1.902   4.254   6.528
11078TIP3    H133177   1.837   4.210   6.582
11078TIP3    H233178   1.965   4.290   6.591
11079TIP3   OH233179   1.962   4.649   6.955
11079TIP3    H133180   2.013   4.580   6.912
11079TIP3    H233181   1.951   4.716   6.888
11080TIP3   OH233182   7.453   0.941   0.208
11080TIP3    H133183   7.384   0.980   0.262
11080TIP3    H233184   7.407   0.892   0.140
11081TIP3   OH233185   1.839   4.165   6.168
11081TIP3    H133186   1.769   4.164   6.102
11081TIP3    H233187   1.815   4.236   6.227
11082TIP3   OH233188   1.712   3.832   6.117
11082TIP3    H133189   1.662   3.866   6.043
11082TIP3    H233190   1.694   3.738   6.117
11083TIP3   OH233191   1.716   4.109   6.671
11083TIP3    H133192   1.721   4.014   6.658
11083TIP3    H233193   1.696   4.119   6.764
11084TIP3   OH233194   7.675   0.529   0.589
11084TIP3    H133195   7.743   0.462   0.579
11084TIP3    H233196   7.695   0.593   0.521
11085TIP3   OH233197   7.857   0.329   0.600
11085TIP3    H133198   7.781   0.283   0.634
11085TIP3    H233199   7.931   0.269   0.616
11086TIP3   OH233200   1.658   3.566   6.104
11086TIP3    H133201   1.730   3.537   6.160
11086TIP3    H233202   1.584   3.512   6.131
11087TIP3   OH233203   1.718   3.833   6.556
11087TIP3    H133204   1.749   3.746   6.582
11087TIP3    H233205   1.778   3.859   6.486
11088TIP3   OH233206   7.552  -0.005   0.115
11088TIP3    H133207   7.637   0.021   0.079
11088TIP3    H233208   7.553   0.028   0.205
11089TIP3   OH233209   7.615   0.140   0.351
11089TIP3    H133210   7.535   0.167   0.398
11089TIP3    H233211   7.645   0.219   0.307
11090TIP3   OH233212   5.228   7.746   0.903
11090TIP3    H133213   5.291   7.687   0.862
11090TIP3    H233214   5.200   7.805   0.833
11091TIP3   OH233215   1.824   3.579   6.601
11091TIP3    H133216   1.867   3.569   6.686
11091TIP3    H233217   1.760   3.508   6.598
11092TIP3   OH233218   3.372   7.571   0.491
11092TIP3    H133219   3.430   7.495   0.492
11092TIP3    H233220   3.428   7.645   0.471
11093TIP3   OH233221   5.098   7.881   0.706
11093TIP3    H133222   5.014   7.924   0.726
11093TIP3    H233223   5.074   7.810   0.647
11094TIP3   OH233224   1.902   3.513   6.230
11094TIP3    H133225   1.936   3.434   6.188
11094TIP3    H233226   1.974   3.575   6.225
11095TIP3   OH233227   3.161   7.378   0.078
11095TIP3    H133228   3.072   7.343   0.084
11095TIP3    H233229   3.162   7.427  -0.003
11096TIP3   OH233230   1.469   5.046   6.500
11096TIP3    H133231   1.519   5.031   6.420
11096TIP3    H233232   1.521   5.109   6.550
11097TIP3   OH233233   6.412   0.910   0.488
11097TIP3    H133234   6.392   0.986   0.435
11097TIP3    H233235   6.501   0.885   0.461
11098TIP3   OH233236   6.857   1.117   0.628
11098TIP3    H133237   6.894   1.113   0.716
11098TIP3    H233238   6.921   1.168   0.577
11099TIP3   OH233239   7.038   1.273   0.492
11099TIP3    H133240   7.104   1.217   0.451
11099TIP3    H233241   7.086   1.328   0.553
11100TIP3   OH233242   4.999   7.642   0.581
11100TIP3    H133243   4.909   7.639   0.548
11100TIP3    H233244   5.031   7.552   0.571
11101TIP3   OH233245   6.326   1.137   0.349
11101TIP3    H133246   6.298   1.223   0.380
11101TIP3    H233247   6.274   1.122   0.270
11102TIP3   OH233248   6.753   1.138   0.178
11102TIP3    H133249   6.702   1.157   0.099
11102TIP3    H233250   6.768   1.223   0.219
11103TIP3   OH233251   7.021   1.080   0.228
11103TIP3    H133252   6.928   1.092   0.208
11103TIP3    H233253   7.065   1.151   0.182
11104TIP3   OH233254   7.228   1.269   0.138
11104TIP3    H133255   7.214   1.351   0.092
11104TIP3    H233256   7.253   1.207   0.069
11105TIP3   OH233257   6.202   0.799   0.113
11105TIP3    H133258   6.205   0.711   0.150
11105TIP3    H233259   6.293   0.828   0.114
11106TIP3   OH233260   6.479   0.893   0.127
11106TIP3    H133261   6.498   0.802   0.107
11106TIP3    H233262   6.526   0.911   0.208
11107TIP3   OH233263   4.164   7.531   0.172
11107TIP3    H133264   4.147   7.477   0.249
11107TIP3    H233265   4.258   7.547   0.174
11108TIP3   OH233266   4.726   7.440   0.112
11108TIP3    H133267   4.761   7.494   0.041
11108TIP3    H233268   4.633   7.459   0.114
11109TIP3   OH233269   1.991   3.532   6.816
11109TIP3    H133270   2.060   3.482   6.772
11109TIP3    H233271   2.018   3.624   6.807
11110TIP3   OH233272   3.448   7.267   0.227
11110TIP3    H133273   3.356   7.243   0.222
11110TIP3    H233274   3.495   7.183   0.222
11111TIP3   OH233275   0.434   3.125   6.821
11111TIP3    H133276   0.452   3.180   6.745
11111TIP3    H233277   0.374   3.176   6.875
11112TIP3   OH233278   3.900   7.303   0.110
11112TIP3    H133279   3.948   7.350   0.041
11112TIP3    H233280   3.934   7.339   0.192
11113TIP3   OH233281   4.449   7.452   0.099
11113TIP3    H133282   4.430   7.430   0.008
11113TIP3    H233283   4.426   7.373   0.148
11114TIP3   OH233284   1.637   3.370   6.602
11114TIP3    H133285   1.553   3.415   6.614
11114TIP3    H233286   1.623   3.283   6.641
11115TIP3   OH233287   0.529   3.287   6.587
11115TIP3    H133288   0.570   3.224   6.527
11115TIP3    H233289   0.601   3.341   6.619
11116TIP3   OH233290   1.035   3.466   6.680
11116TIP3    H133291   1.097   3.420   6.737
11116TIP3    H233292   1.047   3.558   6.701
11117TIP3   OH233293   0.898   4.886   6.171
11117TIP3    H133294   0.985   4.911   6.139
11117TIP3    H233295   0.873   4.812   6.116
11118TIP3   OH233296   1.615   5.009   6.267
11118TIP3    H133297   1.609   4.914   6.260
11118TIP3    H233298   1.568   5.042   6.191
11119TIP3   OH233299   4.776   7.654   1.017
11119TIP3    H133300   4.801   7.593   1.086
11119TIP3    H233301   4.844   7.644   0.950
11120TIP3   OH233302   7.502   1.147   0.517
11120TIP3    H133303   7.427   1.113   0.468
11120TIP3    H233304   7.486   1.241   0.523
11121TIP3   OH233305   3.107   4.529   6.217
11121TIP3    H133306   3.079   4.619   6.201
11121TIP3    H233307   3.032   4.476   6.192
11122TIP3   OH233308   3.104   4.525   6.610
11122TIP3    H133309   3.140   4.503   6.695
11122TIP3    H233310   3.064   4.444   6.579
11123TIP3   OH233311   8.071   0.412   0.029
11123TIP3    H133312   8.096   0.343   0.091
11123TIP3    H233313   8.149   0.466   0.020
11124TIP3   OH233314   3.348   4.831   6.288
11124TIP3    H133315   3.336   4.761   6.352
11124TIP3    H233316   3.380   4.905   6.340
11125TIP3   OH233317   2.379   4.831   6.691
11125TIP3    H133318   2.366   4.736   6.692
11125TIP3    H233319   2.474   4.843   6.689
11126TIP3   OH233320   2.082   4.040   6.474
11126TIP3    H133321   2.031   4.119   6.492
11126TIP3    H233322   2.018   3.977   6.441
11127TIP3   OH233323   2.143   4.320   6.655
11127TIP3    H133324   2.188   4.244   6.690
11127TIP3    H233325   2.196   4.347   6.580
11128TIP3   OH233326   3.000   5.286   6.303
11128TIP3    H133327   3.044   5.219   6.251
11128TIP3    H233328   2.995   5.250   6.391
11129TIP3   OH233329   2.907   4.753   6.651
11129TIP3    H133330   2.941   4.674   6.609
11129TIP3    H233331   2.984   4.802   6.677
11130TIP3   OH233332   3.921   4.074   6.651
11130TIP3    H133333   3.947   4.155   6.696
11130TIP3    H233334   3.941   4.090   6.559
11131TIP3   OH233335   3.317   4.253   6.680
11131TIP3    H133336   3.358   4.170   6.704
11131TIP3    H233337   3.284   4.238   6.591
11132TIP3   OH233338   2.655   3.913   6.645
11132TIP3    H133339   2.636   3.985   6.585
11132TIP3    H233340   2.610   3.838   6.606
11133TIP3   OH233341   3.354   4.004   6.269
11133TIP3    H133342   3.420   3.989   6.337
11133TIP3    H233343   3.404   4.039   6.195
11134TIP3   OH233344   2.291   4.113   6.754
11134TIP3    H133345   2.370   4.094   6.804
11134TIP3    H233346   2.298   4.058   6.676
11135TIP3   OH233347   2.728   4.311   6.551
11135TIP3    H133348   2.820   4.288   6.564
11135TIP3    H233349   2.688   4.229   6.520
11136TIP3   OH233350   3.990   4.286   6.815
11136TIP3    H133351   3.910   4.331   6.787
11136TIP3    H233352   3.978   4.273   6.909
11137TIP3   OH233353   5.482   7.904   0.144
11137TIP3    H133354   5.426   7.938   0.075
11137TIP3    H233355   5.433   7.920   0.225
11138TIP3   OH233356   2.996   4.751   6.088
11138TIP3    H133357   2.950   4.729   6.006
11138TIP3    H233358   2.954   4.831   6.118
11139TIP3   OH233359   2.757   4.674   6.874
11139TIP3    H133360   2.697   4.739   6.912
11139TIP3    H233361   2.801   4.721   6.803
11140TIP3   OH233362   3.556   4.010   6.449
11140TIP3    H133363   3.538   3.966   6.533
11140TIP3    H233364   3.609   4.086   6.473
11141TIP3   OH233365   2.527   4.012   6.865
11141TIP3    H133366   2.585   4.084   6.891
11141TIP3    H233367   2.572   3.970   6.792
11142TIP3   OH233368   8.250   0.863   0.035
11142TIP3    H133369   8.228   0.948  -0.002
11142TIP3    H233370   8.176   0.841   0.091
11143TIP3   OH233371   1.981   4.560   6.211
11143TIP3    H133372   1.935   4.585   6.131
11143TIP3    H233373   2.011   4.642   6.248
11144TIP3   OH233374   3.415   5.074   6.450
11144TIP3    H133375   3.328   5.064   6.490
11144TIP3    H233376   3.411   5.160   6.407
11145TIP3   OH233377   3.709   3.969   6.812
11145TIP3    H133378   3.623   4.001   6.783
11145TIP3    H233379   3.771   4.005   6.748
11146TIP3   OH233380   3.003   3.613   6.801
11146TIP3    H133381   2.992   3.519   6.816
11146TIP3    H233382   2.928   3.653   6.845
11147TIP3   OH233383   3.121   5.117   6.120
11147TIP3    H133384   3.168   5.035   6.104
11147TIP3    H233385   3.177   5.185   6.083
11148TIP3   OH233386   3.263   4.899   6.037
11148TIP3    H133387   3.216   4.822   6.005
11148TIP3    H233388   3.302   4.871   6.119
11149TIP3   OH233389   3.645   4.984   6.793
11149TIP3    H133390   3.633   4.906   6.738
11149TIP3    H233391   3.627   5.058   6.735
11150TIP3   OH233392   2.936   4.378   6.050
11150TIP3    H133393   2.855   4.427   6.035
11150TIP3    H233394   2.981   4.378   5.966
11151TIP3   OH233395   2.897   4.168   5.763
11151TIP3    H133396   2.961   4.213   5.819
11151TIP3    H233397   2.947   4.102   5.717
11152TIP3   OH233398   3.840   4.629   6.640
11152TIP3    H133399   3.757   4.676   6.646
11152TIP3    H233400   3.871   4.647   6.551
11153TIP3   OH233401   3.284   4.460   6.025
11153TIP3    H133402   3.230   4.486   6.100
11153TIP3    H233403   3.368   4.435   6.064
11154TIP3   OH233404   0.684   0.493   0.001
11154TIP3    H133405   0.683   0.574   0.052
11154TIP3    H233406   0.600   0.493  -0.046
11155TIP3   OH233407   2.518   4.456   6.439
11155TIP3    H133408   2.476   4.399   6.375
11155TIP3    H233409   2.592   4.405   6.472
11156TIP3   OH233410   2.650   4.873   6.586
11156TIP3    H133411   2.626   4.830   6.504
11156TIP3    H233412   2.737   4.838   6.608
11157TIP3   OH233413   2.653   4.430   6.796
11157TIP3    H133414   2.685   4.405   6.709
11157TIP3    H233415   2.695   4.514   6.814
11158TIP3   OH233416   3.176   5.068   6.574
11158TIP3    H133417   3.166   5.146   6.629
11158TIP3    H233418   3.163   4.995   6.634
11159TIP3   OH233419   8.455   0.979   0.180
11159TIP3    H133420   8.398   1.040   0.227
11159TIP3    H233421   8.394   0.925   0.130
11160TIP3   OH233422   3.128   4.330   5.842
11160TIP3    H133423   3.184   4.377   5.904
11160TIP3    H233424   3.151   4.365   5.757
11161TIP3   OH233425   8.210   0.536   0.284
11161TIP3    H133426   8.217   0.622   0.326
11161TIP3    H233427   8.118   0.512   0.294
11162TIP3   OH233428   2.870   4.997   6.122
11162TIP3    H133429   2.952   5.046   6.135
11162TIP3    H233430   2.808   5.062   6.090
11163TIP3   OH233431   8.249   1.146   0.267
11163TIP3    H133432   8.217   1.145   0.176
11163TIP3    H233433   8.172   1.125   0.319
11164TIP3   OH233434   3.641   3.560   5.902
11164TIP3    H133435   3.560   3.578   5.950
11164TIP3    H233436   3.655   3.639   5.849
11165TIP3   OH233437   2.384   4.301   6.241
11165TIP3    H133438   2.314   4.342   6.190
11165TIP3    H233439   2.350   4.214   6.262
11166TIP3   OH233440   3.445   4.922   5.461
11166TIP3    H133441   3.447   5.014   5.435
11166TIP3    H233442   3.531   4.888   5.438
11167TIP3   OH233443   7.830   0.677   0.212
11167TIP3    H133444   7.763   0.658   0.146
11167TIP3    H233445   7.867   0.592   0.236
11168TIP3   OH233446   2.019   4.882   6.780
11168TIP3    H133447   2.114   4.868   6.775
11168TIP3    H233448   2.008   4.955   6.841
11169TIP3   OH233449   3.876   5.319   6.843
11169TIP3    H133450   3.880   5.225   6.857
11169TIP3    H233451   3.795   5.347   6.886
11170TIP3   OH233452   0.152   1.110   0.038
11170TIP3    H133453   0.152   1.201   0.068
11170TIP3    H233454   0.084   1.067   0.090
11171TIP3   OH233455   2.746   5.244   5.930
11171TIP3    H133456   2.701   5.228   5.847
11171TIP3    H233457   2.718   5.332   5.955
11172TIP3   OH233458   2.188   5.089   6.316
11172TIP3    H133459   2.233   5.083   6.400
11172TIP3    H233460   2.136   5.009   6.311
11173TIP3   OH233461   2.963   5.137   5.574
11173TIP3    H133462   3.042   5.087   5.553
11173TIP3    H233463   2.975   5.164   5.665
11174TIP3   OH233464   2.997   5.195   5.839
11174TIP3    H133465   2.912   5.203   5.883
11174TIP3    H233466   3.056   5.160   5.906
11175TIP3   OH233467   0.937   0.453   0.178
11175TIP3    H133468   0.856   0.466   0.128
11175TIP3    H233469   0.960   0.362   0.162
11176TIP3   OH233470   8.034   0.861   0.201
11176TIP3    H133471   8.085   0.845   0.281
11176TIP3    H233472   7.962   0.798   0.206
11177TIP3   OH233473   2.764   3.692   6.929
11177TIP3    H133474   2.680   3.658   6.899
11177TIP3    H233475   2.742   3.772   6.977
11178TIP3   OH233476   6.136   7.812   0.183
11178TIP3    H133477   6.205   7.786   0.244
11178TIP3    H233478   6.054   7.793   0.229
11179TIP3   OH233479   0.702   0.226   0.099
11179TIP3    H133480   0.656   0.223   0.183
11179TIP3    H233481   0.682   0.313   0.064
11180TIP3   OH233482   3.179   4.435   5.569
11180TIP3    H133483   3.155   4.366   5.507
11180TIP3    H233484   3.274   4.444   5.561
11181TIP3   OH233485   2.911   3.738   5.900
11181TIP3    H133486   2.880   3.739   5.990
11181TIP3    H233487   2.875   3.657   5.862
11182TIP3   OH233488   8.366   0.202   0.006
11182TIP3    H133489   8.316   0.218   0.087
11182TIP3    H233490   8.351   0.280  -0.047
11183TIP3   OH233491   2.579   4.093   6.457
11183TIP3    H133492   2.490   4.066   6.480
11183TIP3    H233493   2.595   4.053   6.372
11184TIP3   OH233494   3.074   4.180   6.188
11184TIP3    H133495   3.023   4.249   6.146
11184TIP3    H233496   3.129   4.145   6.118
11185TIP3   OH233497   0.416   0.447   0.336
11185TIP3    H133498   0.391   0.376   0.394
11185TIP3    H233499   0.509   0.461   0.354
11186TIP3   OH233500   3.230   4.203   6.421
11186TIP3    H133501   3.167   4.232   6.355
11186TIP3    H233502   3.269   4.124   6.384
11187TIP3   OH233503   8.186   0.227   0.215
11187TIP3    H133504   8.214   0.289   0.282
11187TIP3    H233505   8.171   0.146   0.262
11188TIP3   OH233506   2.568   3.716   5.865
11188TIP3    H133507   2.562   3.710   5.961
11188TIP3    H233508   2.489   3.763   5.839
11189TIP3   OH233509   2.109   3.762   6.737
11189TIP3    H133510   2.188   3.786   6.785
11189TIP3    H233511   2.140   3.724   6.655
11190TIP3   OH233512   2.084   3.735   6.250
11190TIP3    H133513   2.130   3.772   6.174
11190TIP3    H233514   2.021   3.803   6.274
11191TIP3   OH233515   3.240   4.450   6.847
11191TIP3    H133516   3.274   4.383   6.787
11191TIP3    H233517   3.211   4.401   6.924
11192TIP3   OH233518   2.913   3.916   6.521
11192TIP3    H133519   2.833   3.914   6.573
11192TIP3    H233520   2.983   3.908   6.586
11193TIP3   OH233521   2.345   3.971   6.525
11193TIP3    H133522   2.253   3.980   6.500
11193TIP3    H233523   2.365   3.879   6.508
11194TIP3   OH233524   2.611   3.967   6.218
11194TIP3    H133525   2.704   3.981   6.197
11194TIP3    H233526   2.565   3.989   6.136
11195TIP3   OH233527   3.396   3.992   6.721
11195TIP3    H133528   3.369   4.005   6.812
11195TIP3    H233529   3.332   3.930   6.686
11196TIP3   OH233530   2.456   4.004   5.993
11196TIP3    H133531   2.383   3.958   5.953
11196TIP3    H233532   2.507   4.036   5.919
11197TIP3   OH233533   3.574   5.687   6.932
11197TIP3    H133534   3.572   5.692   6.837
11197TIP3    H233535   3.604   5.773   6.961
11198TIP3   OH233536   8.196   0.786   0.424
11198TIP3    H133537   8.276   0.812   0.469
11198TIP3    H233538   8.130   0.780   0.494
11199TIP3   OH233539   2.994   4.245   6.620
11199TIP3    H133540   3.065   4.203   6.571
11199TIP3    H233541   2.996   4.203   6.706
11200TIP3   OH233542   2.515   3.726   6.501
11200TIP3    H133543   2.476   3.653   6.551
11200TIP3    H233544   2.558   3.684   6.427
11201TIP3   OH233545   2.969   4.146   6.903
11201TIP3    H133546   2.881   4.177   6.921
11201TIP3    H233547   3.026   4.202   6.955
11202TIP3   OH233548   2.704   4.528   6.004
11202TIP3    H133549   2.635   4.464   5.990
11202TIP3    H233550   2.688   4.563   6.092
11203TIP3   OH233551   3.604   4.768   6.627
11203TIP3    H133552   3.630   4.817   6.549
11203TIP3    H233553   3.521   4.726   6.604
11204TIP3   OH233554   3.162   3.844   5.867
11204TIP3    H133555   3.069   3.823   5.878
11204TIP3    H233556   3.169   3.936   5.894
11205TIP3   OH233557   0.273   0.844   0.059
11205TIP3    H133558   0.300   0.820   0.148
11205TIP3    H233559   0.234   0.930   0.068
11206TIP3   OH233560   3.232   4.094   5.970
11206TIP3    H133561   3.326   4.093   5.987
11206TIP3    H233562   3.219   4.171   5.915
11207TIP3   OH233563   2.403   4.557   6.676
11207TIP3    H133564   2.439   4.527   6.592
11207TIP3    H233565   2.437   4.495   6.740
11208TIP3   OH233566   2.838   4.680   5.819
11208TIP3    H133567   2.796   4.766   5.828
11208TIP3    H233568   2.791   4.624   5.881
11209TIP3   OH233569   7.946   0.464   0.352
11209TIP3    H133570   7.962   0.449   0.445
11209TIP3    H233571   7.877   0.401   0.330
11210TIP3   OH233572   0.174   0.581   0.369
11210TIP3    H133573   0.112   0.523   0.326
11210TIP3    H233574   0.260   0.548   0.344
11211TIP3   OH233575   3.264   5.115   6.895
11211TIP3    H133576   3.169   5.108   6.907
11211TIP3    H233577   3.294   5.163   6.972
11212TIP3   OH233578   3.669   4.182   5.801
11212TIP3    H133579   3.608   4.136   5.744
11212TIP3    H233580   3.674   4.271   5.765
11213TIP3   OH233581   3.893   5.037   6.882
11213TIP3    H133582   3.798   5.032   6.877
11213TIP3    H233583   3.923   5.010   6.795
11214TIP3   OH233584   3.355   5.000   5.709
11214TIP3    H133585   3.355   4.929   5.774
11214TIP3    H233586   3.384   4.958   5.628
11215TIP3   OH233587   3.370   4.628   6.543
11215TIP3    H133588   3.278   4.605   6.560
11215TIP3    H233589   3.407   4.550   6.503
11216TIP3   OH233590   2.499   4.858   6.300
11216TIP3    H133591   2.497   4.939   6.249
11216TIP3    H233592   2.406   4.839   6.318
11217TIP3   OH233593   2.060   4.164   6.007
11217TIP3    H133594   2.109   4.243   6.029
11217TIP3    H233595   1.985   4.164   6.067
11218TIP3   OH233596   2.634   4.623   6.246
11218TIP3    H133597   2.601   4.711   6.264
11218TIP3    H233598   2.601   4.570   6.319
11219TIP3   OH233599   2.773   5.201   6.771
11219TIP3    H133600   2.813   5.272   6.721
11219TIP3    H233601   2.846   5.163   6.820
11220TIP3   OH233602   2.416   5.100   6.155
11220TIP3    H133603   2.332   5.103   6.202
11220TIP3    H233604   2.449   5.190   6.158
11221TIP3   OH233605   3.157   4.835   6.732
11221TIP3    H133606   3.145   4.836   6.827
11221TIP3    H233607   3.235   4.781   6.718
11222TIP3   OH233608   3.405   5.368   6.782
11222TIP3    H133609   3.330   5.309   6.780
11222TIP3    H233610   3.390   5.430   6.711
11223TIP3   OH233611   3.469   5.202   5.433
11223TIP3    H133612   3.511   5.268   5.377
11223TIP3    H233613   3.390   5.244   5.466
11224TIP3   OH233614   5.319   7.986   0.357
11224TIP3    H133615   5.224   7.993   0.366
11224TIP3    H233616   5.346   7.928   0.428
11225TIP3   OH233617   3.292   4.643   5.813
11225TIP3    H133618   3.282   4.594   5.894
11225TIP3    H233619   3.386   4.658   5.805
11226TIP3   OH233620   7.876   1.055  -0.009
11226TIP3    H133621   7.926   0.979   0.022
11226TIP3    H233622   7.901   1.126   0.050
11227TIP3   OH233623   2.502   4.700   5.616
11227TIP3    H133624   2.503   4.608   5.589
11227TIP3    H233625   2.479   4.698   5.708
11228TIP3   OH233626   2.443   4.715   5.884
11228TIP3    H133627   2.509   4.682   5.945
11228TIP3    H233628   2.445   4.810   5.895
11229TIP3   OH233629   2.175   4.407   6.090
11229TIP3    H133630   2.110   4.447   6.149
11229TIP3    H233631   2.190   4.474   6.023
11230TIP3   OH233632   0.496   0.035   0.042
11230TIP3    H133633   0.577   0.075   0.074
11230TIP3    H233634   0.486  -0.044   0.095
11231TIP3   OH233635   3.211   3.793   6.149
11231TIP3    H133636   3.198   3.815   6.056
11231TIP3    H233637   3.251   3.872   6.186
11232TIP3   OH233638   2.706   4.916   5.831
11232TIP3    H133639   2.621   4.933   5.871
11232TIP3    H233640   2.728   4.996   5.783
11233TIP3   OH233641   2.896   3.977   6.251
11233TIP3    H133642   2.959   4.047   6.234
11233TIP3    H233643   2.899   3.964   6.346
11234TIP3   OH233644   0.336   0.283   0.115
11234TIP3    H133645   0.358   0.333   0.194
11234TIP3    H233646   0.388   0.203   0.123
11235TIP3   OH233647   3.042   3.699   6.350
11235TIP3    H133648   3.035   3.772   6.412
11235TIP3    H233649   3.101   3.729   6.282
11236TIP3   OH233650   2.452   4.988   5.905
11236TIP3    H133651   2.423   5.055   5.843
11236TIP3    H233652   2.437   5.027   5.991
11237TIP3   OH233653   2.557   3.702   6.141
11237TIP3    H133654   2.549   3.789   6.180
11237TIP3    H233655   2.650   3.681   6.147
11238TIP3   OH233656   0.972   0.197   0.077
11238TIP3    H133657   0.877   0.198   0.087
11238TIP3    H233658   0.992   0.109   0.044
11239TIP3   OH233659   3.457   4.385   6.426
11239TIP3    H133660   3.382   4.328   6.438
11239TIP3    H233661   3.528   4.341   6.472
11240TIP3   OH233662   2.175   4.612   5.892
11240TIP3    H133663   2.240   4.681   5.905
11240TIP3    H233664   2.214   4.554   5.827
11241TIP3   OH233665   2.116   3.893   6.025
11241TIP3    H133666   2.111   3.989   6.024
11241TIP3    H233667   2.030   3.864   5.993
11242TIP3   OH233668   3.428   5.346   6.371
11242TIP3    H133669   3.383   5.390   6.299
11242TIP3    H233670   3.521   5.362   6.355
11243TIP3   OH233671   2.504   3.607   6.898
11243TIP3    H133672   2.471   3.577   6.814
11243TIP3    H233673   2.493   3.532   6.957
11244TIP3   OH233674   2.039   4.835   6.279
11244TIP3    H133675   1.976   4.860   6.346
11244TIP3    H233676   2.006   4.874   6.199
11245TIP3   OH233677   7.869   1.367   0.414
11245TIP3    H133678   7.953   1.369   0.459
11245TIP3    H233679   7.846   1.274   0.410
11246TIP3   OH233680   8.345   1.326   0.456
11246TIP3    H133681   8.438   1.308   0.467
11246TIP3    H233682   8.318   1.267   0.385
11247TIP3   OH233683   2.663   4.899   5.523
11247TIP3    H133684   2.597   4.842   5.561
11247TIP3    H233685   2.744   4.848   5.528
11248TIP3   OH233686   0.485   1.235   0.193
11248TIP3    H133687   0.476   1.166   0.258
11248TIP3    H233688   0.560   1.287   0.222
11249TIP3   OH233689   7.993   0.771   0.613
11249TIP3    H133690   8.014   0.677   0.618
11249TIP3    H233691   7.908   0.774   0.568
11250TIP3   OH233692   2.312   4.425   5.747
11250TIP3    H133693   2.359   4.392   5.823
11250TIP3    H233694   2.378   4.431   5.678
11251TIP3   OH233695   0.102   0.857   0.387
11251TIP3    H133696   0.061   0.875   0.302
11251TIP3    H233697   0.133   0.767   0.379
11252TIP3   OH233698   2.893   4.629   5.560
11252TIP3    H133699   2.857   4.653   5.645
11252TIP3    H233700   2.849   4.547   5.537
11253TIP3   OH233701   3.429   4.877   6.934
11253TIP3    H133702   3.504   4.918   6.891
11253TIP3    H233703   3.357   4.939   6.920
11254TIP3   OH233704   8.117   0.513   0.598
11254TIP3    H133705   8.187   0.453   0.572
11254TIP3    H233706   8.142   0.541   0.686
11255TIP3   OH233707   2.511   4.332   5.968
11255TIP3    H133708   2.483   4.297   6.052
11255TIP3    H233709   2.547   4.257   5.921
11256TIP3   OH233710   8.450   0.393   0.257
11256TIP3    H133711   8.372   0.449   0.260
11256TIP3    H233712   8.500   0.424   0.182
11257TIP3   OH233713   2.617   4.129   5.806
11257TIP3    H133714   2.589   4.130   5.715
11257TIP3    H233715   2.712   4.131   5.802
11258TIP3   OH233716   0.469   0.791   0.390
11258TIP3    H133717   0.546   0.761   0.340
11258TIP3    H233718   0.461   0.728   0.461
11259TIP3   OH233719   3.434   4.469   5.469
11259TIP3    H133720   3.411   4.422   5.389
11259TIP3    H233721   3.485   4.544   5.438
11260TIP3   OH233722   0.072   0.179   0.381
11260TIP3    H133723   0.074   0.101   0.326
11260TIP3    H233724   0.029   0.245   0.326
11261TIP3   OH233725   5.742   7.980   0.188
11261TIP3    H133726   5.771   8.019   0.106
11261TIP3    H233727   5.650   7.957   0.173
11262TIP3   OH233728   0.100   0.501   0.063
11262TIP3    H133729   0.186   0.508   0.020
11262TIP3    H233730   0.046   0.565   0.018
11263TIP3   OH233731   0.687   0.464   0.443
11263TIP3    H133732   0.728   0.378   0.453
11263TIP3    H233733   0.756   0.519   0.406
11264TIP3   OH233734   0.725   0.724   0.179
11264TIP3    H133735   0.667   0.776   0.124
11264TIP3    H233736   0.812   0.739   0.144
11265TIP3   OH233737   8.451   0.286   0.613
11265TIP3    H133738   8.384   0.220   0.631
11265TIP3    H233739   8.486   0.262   0.527
11266TIP3   OH233740   5.871   7.742   0.260
11266TIP3    H133741   5.826   7.823   0.237
11266TIP3    H233742   5.805   7.674   0.249
11267TIP3   OH233743   0.329   0.231   0.476
11267TIP3    H133744   0.320   0.218   0.570
11267TIP3    H233745   0.243   0.208   0.440
11268TIP3   OH233746   0.571   0.186   0.332
11268TIP3    H133747   0.496   0.184   0.392
11268TIP3    H233748   0.645   0.156   0.385
11269TIP3   OH233749   0.792   0.123   0.481
11269TIP3    H133750   0.815   0.031   0.491
11269TIP3    H233751   0.800   0.160   0.570
11270TIP3   OH233752   8.293   0.064   0.670
11270TIP3    H133753   8.295  -0.024   0.634
11270TIP3    H233754   8.328   0.055   0.758
11271TIP3   OH233755   5.969   7.749   0.516
11271TIP3    H133756   6.035   7.681   0.512
11271TIP3    H233757   5.928   7.747   0.429
11272TIP3   OH233758   6.032   7.967   0.672
11272TIP3    H133759   6.013   7.896   0.611
11272TIP3    H233760   5.956   8.024   0.667
11273TIP3   OH233761   2.426   5.188   5.714
11273TIP3    H133762   2.520   5.180   5.696
11273TIP3    H233763   2.393   5.239   5.640
11274TIP3   OH233764   1.904   4.572   5.925
11274TIP3    H133765   1.997   4.593   5.916
11274TIP3    H233766   1.896   4.484   5.888
11275TIP3   OH233767   1.818   5.179   6.348
11275TIP3    H133768   1.752   5.121   6.309
11275TIP3    H233769   1.864   5.124   6.412
11276TIP3   OH233770   1.953   5.030   6.537
11276TIP3    H133771   1.940   4.957   6.598
11276TIP3    H233772   2.004   5.094   6.586
11277TIP3   OH233773   3.681   5.435   6.334
11277TIP3    H133774   3.711   5.469   6.419
11277TIP3    H233775   3.743   5.471   6.271
11278TIP3   OH233776   3.712   5.448   6.620
11278TIP3    H133777   3.664   5.366   6.609
11278TIP3    H233778   3.788   5.424   6.674
11279TIP3   OH233779   0.915   1.118   0.245
11279TIP3    H133780   0.846   1.125   0.311
11279TIP3    H233781   0.960   1.202   0.248
11280TIP3   OH233782   3.576   4.644   5.806
11280TIP3    H133783   3.640   4.709   5.776
11280TIP3    H233784   3.616   4.606   5.884
11281TIP3   OH233785   3.699   4.511   6.012
11281TIP3    H133786   3.635   4.469   6.070
11281TIP3    H233787   3.765   4.546   6.071
11282TIP3   OH233788   3.757   4.904   6.440
11282TIP3    H133789   3.809   4.838   6.396
11282TIP3    H233790   3.752   4.976   6.378
11283TIP3   OH233791   3.581   5.202   6.636
11283TIP3    H133792   3.512   5.244   6.687
11283TIP3    H233793   3.535   5.155   6.566
11284TIP3   OH233794   3.634   4.421   5.658
11284TIP3    H133795   3.561   4.419   5.596
11284TIP3    H233796   3.615   4.495   5.715
11285TIP3   OH233797   3.493   4.096   5.611
11285TIP3    H133798   3.479   4.119   5.519
11285TIP3    H233799   3.477   4.001   5.615
11286TIP3   OH233800   3.510   4.367   6.157
11286TIP3    H133801   3.521   4.272   6.149
11286TIP3    H233802   3.497   4.383   6.250
11287TIP3   OH233803   2.140   4.441   6.902
11287TIP3    H133804   2.134   4.407   6.813
11287TIP3    H233805   2.234   4.443   6.921
11288TIP3   OH233806   0.971   0.784   0.074
11288TIP3    H133807   1.040   0.718   0.064
11288TIP3    H233808   0.995   0.852   0.010
11289TIP3   OH233809   1.154   0.585   0.085
11289TIP3    H133810   1.078   0.541   0.123
11289TIP3    H233811   1.227   0.524   0.100
11290TIP3   OH233812   3.450   3.830   5.602
11290TIP3    H133813   3.524   3.794   5.649
11290TIP3    H233814   3.379   3.767   5.617
11291TIP3   OH233815   3.511   4.082   6.046
11291TIP3    H133816   3.548   3.996   6.064
11291TIP3    H233817   3.567   4.119   5.978
11292TIP3   OH233818   3.672   4.256   6.544
11292TIP3    H133819   3.754   4.279   6.501
11292TIP3    H233820   3.681   4.290   6.633
11293TIP3   OH233821   3.738   4.405   6.769
11293TIP3    H133822   3.665   4.434   6.824
11293TIP3    H233823   3.772   4.485   6.729
11294TIP3   OH233824   8.028   0.123   0.647
11294TIP3    H133825   8.124   0.117   0.645
11294TIP3    H233826   7.999   0.038   0.680
11295TIP3   OH233827   3.617   3.833   6.090
11295TIP3    H133828   3.666   3.819   6.171
11295TIP3    H233829   3.557   3.758   6.085
11296TIP3   OH233830   2.324   3.818   6.904
11296TIP3    H133831   2.383   3.743   6.915
11296TIP3    H233832   2.383   3.893   6.900
11297TIP3   OH233833   7.798   0.089   0.045
11297TIP3    H133834   7.839   0.076  -0.041
11297TIP3    H233835   7.827   0.176   0.073
11298TIP3   OH233836   3.698   3.766   5.720
11298TIP3    H133837   3.735   3.695   5.667
11298TIP3    H233838   3.764   3.835   5.717
11299TIP3   OH233839   2.104   3.615   6.496
11299TIP3    H133840   2.012   3.597   6.516
11299TIP3    H233841   2.101   3.657   6.410
11300TIP3   OH233842   3.261   5.303   5.985
11300TIP3    H133843   3.312   5.289   5.905
11300TIP3    H233844   3.311   5.367   6.036
11301TIP3   OH233845   5.159   7.683   0.354
11301TIP3    H133846   5.111   7.677   0.437
11301TIP3    H233847   5.097   7.723   0.293
11302TIP3   OH233848   8.028   1.101   0.432
11302TIP3    H133849   7.938   1.074   0.415
11302TIP3    H233850   8.044   1.078   0.523
11303TIP3   OH233851   2.545   5.141   6.919
11303TIP3    H133852   2.494   5.215   6.884
11303TIP3    H233853   2.631   5.150   6.878
11304TIP3   OH233854   0.153   1.376   0.119
11304TIP3    H133855   0.192   1.373   0.206
11304TIP3    H233856   0.216   1.426   0.066
11305TIP3   OH233857   3.166   5.537   6.919
11305TIP3    H133858   3.232   5.483   6.875
11305TIP3    H233859   3.215   5.592   6.979
11306TIP3   OH233860   7.884   1.391   0.004
11306TIP3    H133861   7.796   1.420  -0.019
11306TIP3    H233862   7.899   1.427   0.091
11307TIP3   OH233863   2.453   5.376   6.803
11307TIP3    H133864   2.370   5.386   6.849
11307TIP3    H233865   2.436   5.405   6.714
11308TIP3   OH233866   2.880   5.402   6.602
11308TIP3    H133867   2.811   5.418   6.537
11308TIP3    H233868   2.894   5.486   6.644
11309TIP3   OH233869   3.150   5.341   6.653
11309TIP3    H133870   3.057   5.356   6.634
11309TIP3    H233871   3.196   5.413   6.609
11310TIP3   OH233872   3.353   5.530   6.563
11310TIP3    H133873   3.342   5.614   6.519
11310TIP3    H233874   3.382   5.470   6.494
11311TIP3   OH233875   2.134   5.186   6.691
11311TIP3    H133876   2.155   5.160   6.780
11311TIP3    H233877   2.201   5.145   6.637
11312TIP3   OH233878   2.328   5.059   6.549
11312TIP3    H133879   2.338   4.976   6.597
11312TIP3    H233880   2.416   5.096   6.546
11313TIP3   OH233881   2.596   5.151   6.554
11313TIP3    H133882   2.621   5.060   6.540
11313TIP3    H233883   2.640   5.176   6.635
11314TIP3   OH233884   3.164   3.806   6.635
11314TIP3    H133885   3.123   3.738   6.689
11314TIP3    H233886   3.238   3.763   6.593
11315TIP3   OH233887   3.687   3.685   6.535
11315TIP3    H133888   3.723   3.739   6.465
11315TIP3    H233889   3.595   3.709   6.538
11316TIP3   OH233890   3.787   3.791   6.303
11316TIP3    H133891   3.857   3.737   6.266
11316TIP3    H233892   3.817   3.881   6.291
11317TIP3   OH233893   2.411   3.517   6.652
11317TIP3    H133894   2.320   3.488   6.649
11317TIP3    H233895   2.461   3.435   6.650
11318TIP3   OH233896   2.238   3.388   6.277
11318TIP3    H133897   2.241   3.464   6.219
11318TIP3    H233898   2.190   3.419   6.354
11319TIP3   OH233899   2.863   3.549   6.533
11319TIP3    H133900   2.919   3.597   6.472
11319TIP3    H233901   2.883   3.587   6.618
11320TIP3   OH233902   3.402   3.696   6.518
11320TIP3    H133903   3.404   3.659   6.430
11320TIP3    H233904   3.391   3.620   6.576
11321TIP3   OH233905   3.434   3.621   6.082
11321TIP3    H133906   3.350   3.665   6.096
11321TIP3    H233907   3.423   3.535   6.124
11322TIP3   OH233908   1.917   4.963   6.075
11322TIP3    H133909   1.833   4.926   6.045
11322TIP3    H233910   1.910   5.056   6.057
11323TIP3   OH233911   2.324   3.561   6.052
11323TIP3    H133912   2.366   3.489   6.005
11323TIP3    H233913   2.396   3.607   6.095
11324TIP3   OH233914   2.833   3.726   6.164
11324TIP3    H133915   2.888   3.675   6.223
11324TIP3    H233916   2.852   3.817   6.187
11325TIP3   OH233917   2.694   5.141   5.658
11325TIP3    H133918   2.779   5.169   5.623
11325TIP3    H233919   2.669   5.067   5.602
11326TIP3   OH233920   3.406   5.263   5.754
11326TIP3    H133921   3.394   5.169   5.743
11326TIP3    H233922   3.367   5.302   5.675
11327TIP3   OH233923   5.457   7.804   0.607
11327TIP3    H133924   5.420   7.734   0.662
11327TIP3    H233925   5.549   7.807   0.632
11328TIP3   OH233926   5.705   7.800   0.726
11328TIP3    H133927   5.789   7.778   0.684
11328TIP3    H233928   5.693   7.733   0.792
11329TIP3   OH233929   1.995   4.983   5.719
11329TIP3    H133930   1.993   5.002   5.813
11329TIP3    H233931   2.080   4.941   5.704
11330TIP3   OH233932   6.543   7.870   0.504
11330TIP3    H133933   6.557   7.839   0.593
11330TIP3    H233934   6.630   7.869   0.464
11331TIP3   OH233935   3.631   5.413   6.947
11331TIP3    H133936   3.557   5.379   6.896
11331TIP3    H233937   3.617   5.507   6.949
11332TIP3   OH233938   4.900   4.785   5.706
11332TIP3    H133939   4.874   4.875   5.686
11332TIP3    H233940   4.829   4.731   5.672
11333TIP3   OH233941   4.903   4.782   6.094
11333TIP3    H133942   4.936   4.757   6.180
11333TIP3    H233943   4.861   4.704   6.060
11334TIP3   OH233944   4.200   4.674   6.458
11334TIP3    H133945   4.228   4.607   6.520
11334TIP3    H233946   4.277   4.729   6.445
11335TIP3   OH233947   5.149   5.085   5.775
11335TIP3    H133948   5.129   5.019   5.840
11335TIP3    H233949   5.176   5.162   5.826
11336TIP3   OH233950   4.176   5.086   6.180
11336TIP3    H133951   4.164   4.991   6.181
11336TIP3    H233952   4.270   5.098   6.170
11337TIP3   OH233953   3.876   4.291   5.961
11337TIP3    H133954   3.832   4.373   5.979
11337TIP3    H233955   3.809   4.235   5.922
11338TIP3   OH233956   3.938   4.575   6.139
11338TIP3    H133957   3.985   4.500   6.174
11338TIP3    H233958   3.997   4.613   6.074
11339TIP3   OH233959   4.797   5.545   5.789
11339TIP3    H133960   4.839   5.476   5.737
11339TIP3    H233961   4.787   5.506   5.876
11340TIP3   OH233962   4.702   5.009   6.139
11340TIP3    H133963   4.736   4.932   6.092
11340TIP3    H233964   4.779   5.058   6.165
11341TIP3   OH233965   5.717   4.331   6.137
11341TIP3    H133966   5.744   4.411   6.181
11341TIP3    H233967   5.730   4.349   6.044
11342TIP3   OH233968   5.114   4.507   6.167
11342TIP3    H133969   5.155   4.423   6.189
11342TIP3    H233970   5.080   4.494   6.079
11343TIP3   OH233971   4.452   4.170   6.132
11343TIP3    H133972   4.434   4.243   6.073
11343TIP3    H233973   4.406   4.095   6.092
11344TIP3   OH233974   5.150   4.262   5.757
11344TIP3    H133975   5.219   4.247   5.821
11344TIP3    H233976   5.196   4.297   5.681
11345TIP3   OH233977   4.087   4.370   6.242
11345TIP3    H133978   4.167   4.353   6.292
11345TIP3    H233979   4.097   4.317   6.163
11346TIP3   OH233980   4.524   4.567   6.040
11346TIP3    H133981   4.616   4.546   6.051
11346TIP3    H233982   4.485   4.486   6.006
11347TIP3   OH233983   5.787   4.539   6.307
11347TIP3    H133984   5.704   4.583   6.286
11347TIP3    H233985   5.806   4.566   6.397
11348TIP3   OH233986   4.445   4.154   6.571
11348TIP3    H133987   4.388   4.189   6.503
11348TIP3    H233988   4.396   4.168   6.652
11349TIP3   OH233989   4.790   5.005   5.576
11349TIP3    H133990   4.752   4.986   5.491
11349TIP3    H233991   4.747   5.087   5.604
11350TIP3   OH233992   4.553   4.931   6.362
11350TIP3    H133993   4.493   4.996   6.399
11350TIP3    H233994   4.596   4.976   6.290
11351TIP3   OH233995   5.356   4.266   5.935
11351TIP3    H133996   5.335   4.222   6.018
11351TIP3    H233997   5.405   4.344   5.961
11352TIP3   OH233998   4.322   4.269   6.352
11352TIP3    H133999   4.380   4.341   6.378
11352TIP3    H234000   4.368   4.226   6.279
11353TIP3   OH234001   4.380   5.127   6.463
11353TIP3    H134002   4.359   5.211   6.423
11353TIP3    H234003   4.305   5.107   6.519
11354TIP3   OH234004   3.773   4.816   5.698
11354TIP3    H134005   3.736   4.841   5.614
11354TIP3    H234006   3.806   4.899   5.735
11355TIP3   OH234007   5.213   5.331   5.938
11355TIP3    H134008   5.126   5.320   5.977
11355TIP3    H234009   5.208   5.415   5.892
11356TIP3   OH234010   5.508   4.229   6.301
11356TIP3    H134011   5.420   4.255   6.272
11356TIP3    H234012   5.566   4.260   6.232
11357TIP3   OH234013   4.799   3.871   6.286
11357TIP3    H134014   4.789   3.777   6.302
11357TIP3    H234015   4.725   3.911   6.331
11358TIP3   OH234016   4.917   5.372   5.608
11358TIP3    H134017   4.963   5.290   5.591
11358TIP3    H234018   4.974   5.440   5.571
11359TIP3   OH234019   5.059   5.156   5.523
11359TIP3    H134020   5.021   5.078   5.483
11359TIP3    H234021   5.097   5.125   5.605
11360TIP3   OH234022   5.440   5.239   6.281
11360TIP3    H134023   5.429   5.163   6.224
11360TIP3    H234024   5.422   5.314   6.224
11361TIP3   OH234025   4.732   4.637   5.540
11361TIP3    H134026   4.653   4.687   5.521
11361TIP3    H234027   4.776   4.628   5.456
11362TIP3   OH234028   4.693   4.420   5.265
11362TIP3    H134029   4.764   4.472   5.304
11362TIP3    H234030   4.738   4.356   5.210
11363TIP3   OH234031   5.635   4.881   6.127
11363TIP3    H134032   5.552   4.929   6.134
11363TIP3    H234033   5.667   4.902   6.039
11364TIP3   OH234034   5.082   4.719   5.513
11364TIP3    H134035   5.026   4.744   5.587
11364TIP3    H234036   5.165   4.694   5.554
11365TIP3   OH234037   5.313   4.757   6.426
11365TIP3    H134038   5.312   4.839   6.476
11365TIP3    H234039   5.229   4.757   6.380
11366TIP3   OH234040   4.312   4.712   5.929
11366TIP3    H134041   4.271   4.657   5.863
11366TIP3    H234042   4.388   4.662   5.959
11367TIP3   OH234043   4.441   5.122   6.076
11367TIP3    H134044   4.421   5.090   5.988
11367TIP3    H234045   4.529   5.090   6.094
11368TIP3   OH234046   4.446   4.688   6.283
11368TIP3    H134047   4.478   4.662   6.196
11368TIP3    H234048   4.489   4.771   6.301
11369TIP3   OH234049   4.975   5.324   6.061
11369TIP3    H134050   4.960   5.404   6.112
11369TIP3    H234051   4.959   5.253   6.123
11370TIP3   OH234052   4.585   5.242   6.608
11370TIP3    H134053   4.528   5.304   6.654
11370TIP3    H234054   4.525   5.188   6.557
11371TIP3   OH234055   4.922   4.577   5.339
11371TIP3    H134056   4.978   4.635   5.390
11371TIP3    H234057   4.945   4.595   5.248
11372TIP3   OH234058   4.340   4.798   6.713
11372TIP3    H134059   4.348   4.885   6.753
11372TIP3    H234060   4.247   4.776   6.721
11373TIP3   OH234061   4.666   5.254   5.614
11373TIP3    H134062   4.746   5.304   5.624
11373TIP3    H234063   4.605   5.315   5.571
11374TIP3   OH234064   4.377   5.407   6.693
11374TIP3    H134065   4.348   5.408   6.602
11374TIP3    H234066   4.297   5.391   6.744
11375TIP3   OH234067   5.436   3.816   5.389
11375TIP3    H134068   5.355   3.834   5.437
11375TIP3    H234069   5.451   3.895   5.338
11376TIP3   OH234070   4.176   4.558   5.734
11376TIP3    H134071   4.112   4.602   5.679
11376TIP3    H234072   4.143   4.469   5.743
11377TIP3   OH234073   5.237   5.184   4.934
11377TIP3    H134074   5.242   5.278   4.921
11377TIP3    H234075   5.327   5.153   4.923
11378TIP3   OH234076   3.960   4.940   6.640
11378TIP3    H134077   3.894   4.920   6.572
11378TIP3    H234078   3.997   4.855   6.663
11379TIP3   OH234079   3.815   5.135   6.273
11379TIP3    H134080   3.910   5.126   6.260
11379TIP3    H234081   3.806   5.213   6.328
11380TIP3   OH234082   5.677   5.587   6.333
11380TIP3    H134083   5.678   5.492   6.344
11380TIP3    H234084   5.596   5.615   6.375
11381TIP3   OH234085   4.783   5.372   6.467
11381TIP3    H134086   4.782   5.464   6.495
11381TIP3    H234087   4.714   5.330   6.518
11382TIP3   OH234088   4.546   5.500   5.416
11382TIP3    H134089   4.501   5.482   5.334
11382TIP3    H234090   4.515   5.587   5.442
11383TIP3   OH234091   3.983   5.346   5.803
11383TIP3    H134092   4.032   5.340   5.885
11383TIP3    H234093   3.928   5.268   5.802
11384TIP3   OH234094   4.748   5.401   5.055
11384TIP3    H134095   4.804   5.333   5.018
11384TIP3    H234096   4.780   5.412   5.144
11385TIP3   OH234097   4.797   5.451   5.326
11385TIP3    H134098   4.710   5.460   5.365
11385TIP3    H234099   4.851   5.414   5.396
11386TIP3   OH234100   5.566   4.715   6.604
11386TIP3    H134101   5.485   4.729   6.555
11386TIP3    H234102   5.583   4.621   6.595
11387TIP3   OH234103   4.164   5.124   6.629
11387TIP3    H134104   4.215   5.107   6.709
11387TIP3    H234105   4.091   5.063   6.634
11388TIP3   OH234106   4.561   3.949   6.416
11388TIP3    H134107   4.475   3.917   6.387
11388TIP3    H234108   4.541   4.030   6.463
11389TIP3   OH234109   5.098   4.061   6.610
11389TIP3    H134110   5.166   4.035   6.673
11389TIP3    H234111   5.016   4.043   6.656
11390TIP3   OH234112   5.335   4.493   6.529
11390TIP3    H134113   5.287   4.490   6.611
11390TIP3    H234114   5.311   4.578   6.491
11391TIP3   OH234115   5.002   4.623   5.086
11391TIP3    H134116   4.963   4.598   5.002
11391TIP3    H234117   5.083   4.668   5.061
11392TIP3   OH234118   4.707   3.990   5.387
11392TIP3    H134119   4.674   3.991   5.477
11392TIP3    H234120   4.668   3.912   5.349
11393TIP3   OH234121   4.495   4.466   6.433
11393TIP3    H134122   4.446   4.482   6.513
11393TIP3    H234123   4.480   4.544   6.380
11394TIP3   OH234124   4.378   4.348   5.944
11394TIP3    H134125   4.288   4.325   5.965
11394TIP3    H234126   4.393   4.311   5.858
11395TIP3   OH234127   4.869   4.436   5.674
11395TIP3    H134128   4.818   4.506   5.633
11395TIP3    H234129   4.924   4.402   5.603
11396TIP3   OH234130   5.046   4.710   6.761
11396TIP3    H134131   5.020   4.639   6.820
11396TIP3    H234132   5.138   4.725   6.781
11397TIP3   OH234133   5.025   4.460   5.908
11397TIP3    H134134   4.963   4.493   5.843
11397TIP3    H234135   5.063   4.382   5.869
11398TIP3   OH234136   4.315   4.490   6.642
11398TIP3    H134137   4.342   4.553   6.708
11398TIP3    H234138   4.301   4.409   6.690
11399TIP3   OH234139   4.365   3.972   5.352
11399TIP3    H134140   4.355   3.969   5.447
11399TIP3    H234141   4.288   4.021   5.321
11400TIP3   OH234142   3.908   4.014   6.221
11400TIP3    H134143   3.981   4.047   6.274
11400TIP3    H234144   3.950   3.983   6.141
11401TIP3   OH234145   3.875   3.995   5.741
11401TIP3    H134146   3.921   4.028   5.664
11401TIP3    H234147   3.813   4.065   5.764
11402TIP3   OH234148   5.039   4.705   6.334
11402TIP3    H134149   5.071   4.638   6.274
11402TIP3    H234150   5.007   4.656   6.410
11403TIP3   OH234151   4.711   4.169   6.009
11403TIP3    H134152   4.629   4.169   6.059
11403TIP3    H234153   4.779   4.167   6.075
11404TIP3   OH234154   4.140   4.228   6.013
11404TIP3    H134155   4.048   4.235   5.986
11404TIP3    H234156   4.165   4.138   5.991
11405TIP3   OH234157   4.407   4.224   5.703
11405TIP3    H134158   4.500   4.238   5.682
11405TIP3    H234159   4.361   4.246   5.621
11406TIP3   OH234160   5.198   4.245   6.211
11406TIP3    H134161   5.168   4.261   6.300
11406TIP3    H234162   5.132   4.186   6.174
11407TIP3   OH234163   4.254   4.259   5.477
11407TIP3    H134164   4.186   4.211   5.429
11407TIP3    H234165   4.309   4.297   5.409
11408TIP3   OH234166   5.372   5.937   6.428
11408TIP3    H134167   5.367   5.960   6.335
11408TIP3    H234168   5.449   5.984   6.460
11409TIP3   OH234169   4.325   5.048   6.852
11409TIP3    H134170   4.405   5.076   6.896
11409TIP3    H234171   4.260   5.042   6.922
11410TIP3   OH234172   4.790   4.500   6.105
11410TIP3    H134173   4.862   4.462   6.055
11410TIP3    H234174   4.795   4.457   6.191
11411TIP3   OH234175   4.310   3.986   5.985
11411TIP3    H134176   4.274   3.911   6.032
11411TIP3    H234177   4.352   3.949   5.908
11412TIP3   OH234178   4.765   4.400   6.394
11412TIP3    H134179   4.677   4.433   6.408
11412TIP3    H234180   4.821   4.459   6.444
11413TIP3   OH234181   4.499   4.787   5.490
11413TIP3    H134182   4.430   4.722   5.475
11413TIP3    H234183   4.483   4.820   5.578
11414TIP3   OH234184   5.401   5.023   6.115
11414TIP3    H134185   5.426   5.073   6.037
11414TIP3    H234186   5.317   4.983   6.092
11415TIP3   OH234187   4.959   4.094   5.362
11415TIP3    H134188   4.866   4.075   5.363
11415TIP3    H234189   4.965   4.189   5.373
11416TIP3   OH234190   4.899   5.105   6.488
11416TIP3    H134191   4.929   5.088   6.577
11416TIP3    H234192   4.864   5.194   6.491
11417TIP3   OH234193   5.029   4.349   5.460
11417TIP3    H134194   5.124   4.356   5.470
11417TIP3    H234195   5.006   4.424   5.405
11418TIP3   OH234196   4.195   4.808   6.163
11418TIP3    H134197   4.232   4.784   6.078
11418TIP3    H234198   4.240   4.750   6.226
11419TIP3   OH234199   4.648   4.939   5.316
11419TIP3    H134200   4.601   5.022   5.317
11419TIP3    H234201   4.596   4.882   5.373
11420TIP3   OH234202   4.076   4.727   6.780
11420TIP3    H134203   4.093   4.714   6.873
11420TIP3    H234204   4.008   4.664   6.758
11421TIP3   OH234205   4.803   4.843   6.798
11421TIP3    H134206   4.740   4.787   6.753
11421TIP3    H234207   4.889   4.811   6.770
11422TIP3   OH234208   5.061   5.363   6.388
11422TIP3    H134209   4.965   5.363   6.395
11422TIP3    H234210   5.090   5.416   6.462
11423TIP3   OH234211   5.471   4.440   5.286
11423TIP3    H134212   5.411   4.392   5.229
11423TIP3    H234213   5.469   4.530   5.252
11424TIP3   OH234214   5.689   5.296   6.369
11424TIP3    H134215   5.594   5.292   6.364
11424TIP3    H234216   5.718   5.267   6.282
11425TIP3   OH234217   5.177   5.256   5.201
11425TIP3    H134218   5.145   5.189   5.261
11425TIP3    H234219   5.185   5.211   5.117
11426TIP3   OH234220   5.166   4.884   6.033
11426TIP3    H134221   5.074   4.862   6.048
11426TIP3    H234222   5.202   4.807   5.989
11427TIP3   OH234223   4.297   5.117   5.792
11427TIP3    H134224   4.300   5.196   5.738
11427TIP3    H234225   4.204   5.097   5.800
11428TIP3   OH234226   3.860   4.419   5.496
11428TIP3    H134227   3.908   4.499   5.515
11428TIP3    H234228   3.785   4.421   5.555
11429TIP3   OH234229   4.429   4.879   5.735
11429TIP3    H134230   4.399   4.968   5.751
11429TIP3    H234231   4.395   4.828   5.808
11430TIP3   OH234232   4.569   5.457   6.258
11430TIP3    H134233   4.605   5.530   6.207
11430TIP3    H234234   4.644   5.421   6.305
11431TIP3   OH234235   4.216   5.354   5.644
11431TIP3    H134236   4.131   5.361   5.687
11431TIP3    H234237   4.251   5.443   5.645
11432TIP3   OH234238   4.952   5.091   6.221
11432TIP3    H134239   4.941   5.091   6.316
11432TIP3    H234240   5.031   5.039   6.205
11433TIP3   OH234241   4.930   4.985   5.103
11433TIP3    H134242   4.983   4.961   5.179
11433TIP3    H234243   4.841   4.957   5.127
11434TIP3   OH234244   5.200   5.624   6.265
11434TIP3    H134245   5.122   5.570   6.260
11434TIP3    H234246   5.189   5.689   6.196
11435TIP3   OH234247   5.266   5.461   4.919
11435TIP3    H134248   5.304   5.531   4.866
11435TIP3    H234249   5.186   5.500   4.956
11436TIP3   OH234250   4.284   4.234   6.785
11436TIP3    H134251   4.189   4.242   6.796
11436TIP3    H234252   4.312   4.177   6.857
11437TIP3   OH234253   5.092   4.917   5.317
11437TIP3    H134254   5.078   4.853   5.387
11437TIP3    H234255   5.187   4.917   5.303
11438TIP3   OH234256   4.005   5.317   6.418
11438TIP3    H134257   4.055   5.242   6.449
11438TIP3    H234258   4.036   5.391   6.472
11439TIP3   OH234259   4.294   4.962   5.103
11439TIP3    H134260   4.307   4.873   5.073
11439TIP3    H234261   4.273   4.954   5.196
11440TIP3   OH234262   4.237   4.971   5.376
11440TIP3    H134263   4.313   4.943   5.428
11440TIP3    H234264   4.239   5.066   5.380
11441TIP3   OH234265   3.971   4.663   5.577
11441TIP3    H134266   3.907   4.707   5.634
11441TIP3    H234267   3.990   4.728   5.509
11442TIP3   OH234268   5.128   4.298   6.470
11442TIP3    H134269   5.206   4.337   6.509
11442TIP3    H234270   5.112   4.219   6.522
11443TIP3   OH234271   5.006   4.049   5.636
11443TIP3    H134272   4.989   4.067   5.544
11443TIP3    H234273   5.044   4.130   5.670
11444TIP3   OH234274   4.503   5.168   5.322
11444TIP3    H134275   4.418   5.191   5.358
11444TIP3    H234276   4.523   5.239   5.261
11445TIP3   OH234277   4.692   4.232   5.738
11445TIP3    H134278   4.754   4.302   5.717
11445TIP3    H234279   4.697   4.223   5.833
11446TIP3   OH234280   4.964   4.547   6.543
11446TIP3    H134281   4.986   4.600   6.620
11446TIP3    H234282   5.016   4.467   6.554
11447TIP3   OH234283   4.837   3.955   5.837
11447TIP3    H134284   4.823   4.031   5.893
11447TIP3    H234285   4.897   3.986   5.769
11448TIP3   OH234286   4.248   5.244   5.391
11448TIP3    H134287   4.222   5.310   5.328
11448TIP3    H234288   4.234   5.285   5.476
11449TIP3   OH234289   4.350   3.958   5.630
11449TIP3    H134290   4.344   4.047   5.664
11449TIP3    H234291   4.444   3.937   5.634
11450TIP3   OH234292   5.600   4.447   6.523
11450TIP3    H134293   5.505   4.449   6.534
11450TIP3    H234294   5.613   4.405   6.438
11451TIP3   OH234295   5.254   4.640   5.913
11451TIP3    H134296   5.176   4.585   5.923
11451TIP3    H234297   5.323   4.594   5.960
11452TIP3   OH234298   3.970   4.869   5.379
11452TIP3    H134299   4.035   4.938   5.392
11452TIP3    H234300   4.009   4.811   5.314
11453TIP3   OH234301   3.907   4.148   5.521
11453TIP3    H134302   3.910   4.243   5.513
11453TIP3    H234303   3.840   4.121   5.458
11454TIP3   OH234304   5.224   5.602   5.858
11454TIP3    H134305   5.179   5.645   5.786
11454TIP3    H234306   5.317   5.617   5.840
11455TIP3   OH234307   4.299   3.868   6.385
11455TIP3    H134308   4.267   3.838   6.300
11455TIP3    H234309   4.289   3.792   6.442
11456TIP3   OH234310   3.832   5.083   5.765
11456TIP3    H134311   3.770   5.116   5.831
11456TIP3    H234312   3.805   5.126   5.684
11457TIP3   OH234313   4.468   5.610   6.863
11457TIP3    H134314   4.559   5.591   6.886
11457TIP3    H234315   4.443   5.541   6.803
11458TIP3   OH234316   4.456   5.165   5.011
11458TIP3    H134317   4.402   5.097   5.050
11458TIP3    H234318   4.531   5.118   4.975
11459TIP3   OH234319   5.113   5.500   6.622
11459TIP3    H134320   5.107   5.431   6.687
11459TIP3    H234321   5.189   5.552   6.648
11460TIP3   OH234322   4.893   5.206   4.925
11460TIP3    H134323   4.933   5.142   4.984
11460TIP3    H234324   4.948   5.204   4.847
11461TIP3   OH234325   1.289   1.029   0.101
11461TIP3    H134326   1.309   0.936   0.108
11461TIP3    H234327   1.204   1.032   0.056
11462TIP3   OH234328   4.105   4.681   5.235
11462TIP3    H134329   4.158   4.651   5.309
11462TIP3    H234330   4.166   4.687   5.162
11463TIP3   OH234331   4.730   5.120   6.814
11463TIP3    H134332   4.690   5.141   6.729
11463TIP3    H234333   4.762   5.030   6.804
11464TIP3   OH234334   4.619   4.881   5.047
11464TIP3    H134335   4.619   4.897   5.141
11464TIP3    H234336   4.619   4.786   5.039
11465TIP3   OH234337   5.225   5.134   6.421
11465TIP3    H134338   5.301   5.174   6.377
11465TIP3    H234339   5.154   5.198   6.408
11466TIP3   OH234340   1.412   0.770   0.085
11466TIP3    H134341   1.481   0.711   0.056
11466TIP3    H234342   1.439   0.797   0.173
11467TIP3   OH234343   4.306   4.588   5.452
11467TIP3    H134344   4.284   4.547   5.536
11467TIP3    H234345   4.346   4.518   5.401
11468TIP3   OH234346   4.581   4.656   6.685
11468TIP3    H134347   4.502   4.711   6.687
11468TIP3    H234348   4.629   4.687   6.608
11469TIP3   OH234349   4.415   4.386   5.295
11469TIP3    H134350   4.387   4.389   5.203
11469TIP3    H234351   4.510   4.388   5.291
11470TIP3   OH234352   5.097   5.054   6.818
11470TIP3    H134353   5.173   5.026   6.767
11470TIP3    H234354   5.092   4.990   6.889
11471TIP3   OH234355   5.233   4.712   4.955
11471TIP3    H134356   5.211   4.664   4.876
11471TIP3    H234357   5.202   4.801   4.939
11472TIP3   OH234358   4.704   4.444   6.807
11472TIP3    H134359   4.703   4.364   6.754
11472TIP3    H234360   4.661   4.510   6.753
11473TIP3   OH234361   4.705   4.229   6.616
11473TIP3    H134362   4.733   4.270   6.534
11473TIP3    H234363   4.614   4.206   6.601
11474TIP3   OH234364   4.730   4.765   6.489
11474TIP3    H134365   4.815   4.775   6.447
11474TIP3    H234366   4.674   4.829   6.446
11475TIP3   OH234367   5.315   4.730   6.870
11475TIP3    H134368   5.360   4.646   6.879
11475TIP3    H234369   5.381   4.788   6.833
11476TIP3   OH234370   5.355   4.986   6.605
11476TIP3    H134371   5.295   5.038   6.550
11476TIP3    H234372   5.442   5.004   6.569
11477TIP3   OH234373   1.749   0.540   0.102
11477TIP3    H134374   1.681   0.474   0.119
11477TIP3    H234375   1.782   0.519   0.015
11478TIP3   OH234376   4.835   3.991   6.686
11478TIP3    H134377   4.789   4.073   6.664
11478TIP3    H234378   4.768   3.923   6.676
11479TIP3   OH234379   4.960   4.493   6.903
11479TIP3    H134380   4.949   4.480   6.997
11479TIP3    H234381   4.875   4.471   6.865
11480TIP3   OH234382   5.202   4.446   6.759
11480TIP3    H134383   5.127   4.446   6.817
11480TIP3    H234384   5.275   4.415   6.813
11481TIP3   OH234385   2.601   0.380  -0.032
11481TIP3    H134386   2.613   0.286  -0.018
11481TIP3    H234387   2.595   0.417   0.057
11482TIP3   OH234388   1.589   0.321   0.159
11482TIP3    H134389   1.589   0.233   0.122
11482TIP3    H234390   1.625   0.311   0.247
11483TIP3   OH234391   4.933   4.001   6.942
11483TIP3    H134392   4.998   3.930   6.938
11483TIP3    H234393   4.891   3.998   6.856
11484TIP3   OH234394   2.163   0.209   0.161
11484TIP3    H134395   2.143   0.138   0.100
11484TIP3    H234396   2.087   0.267   0.156
11485TIP3   OH234397   4.221   5.442   5.200
11485TIP3    H134398   4.316   5.436   5.184
11485TIP3    H234399   4.188   5.494   5.127
11486TIP3   OH234400   3.702   4.822   5.415
11486TIP3    H134401   3.793   4.848   5.403
11486TIP3    H234402   3.696   4.735   5.374
11487TIP3   OH234403   3.612   5.433   5.836
11487TIP3    H134404   3.547   5.374   5.795
11487TIP3    H234405   3.658   5.377   5.898
11488TIP3   OH234406   3.751   5.282   6.020
11488TIP3    H134407   3.738   5.212   6.085
11488TIP3    H234408   3.802   5.348   6.067
11489TIP3   OH234409   5.481   5.685   5.821
11489TIP3    H134410   5.502   5.721   5.907
11489TIP3    H234411   5.536   5.735   5.760
11490TIP3   OH234412   5.504   5.707   6.104
11490TIP3    H134413   5.459   5.623   6.096
11490TIP3    H234414   5.581   5.689   6.158
11491TIP3   OH234415   5.552   5.388   6.676
11491TIP3    H134416   5.480   5.395   6.739
11491TIP3    H234417   5.594   5.474   6.678
11492TIP3   OH234418   5.372   4.898   5.293
11492TIP3    H134419   5.435   4.965   5.264
11492TIP3    H234420   5.413   4.860   5.371
11493TIP3   OH234421   5.498   4.764   5.498
11493TIP3    H134422   5.431   4.724   5.554
11493TIP3    H234423   5.559   4.804   5.560
11494TIP3   OH234424   5.555   5.161   5.929
11494TIP3    H134425   5.604   5.096   5.881
11494TIP3    H234426   5.547   5.235   5.868
11495TIP3   OH234427   5.378   5.459   6.124
11495TIP3    H134428   5.309   5.503   6.174
11495TIP3    H234429   5.331   5.413   6.054
11496TIP3   OH234430   5.431   4.677   5.142
11496TIP3    H134431   5.363   4.675   5.074
11496TIP3    H234432   5.408   4.751   5.198
11497TIP3   OH234433   5.307   4.341   5.095
11497TIP3    H134434   5.257   4.385   5.025
11497TIP3    H234435   5.285   4.248   5.084
11498TIP3   OH234436   5.310   4.624   5.644
11498TIP3    H134437   5.314   4.529   5.635
11498TIP3    H234438   5.294   4.638   5.737
11499TIP3   OH234439   3.936   4.698   6.388
11499TIP3    H134440   3.931   4.665   6.299
11499TIP3    H234441   4.030   4.700   6.407
11500TIP3   OH234442   5.600   5.049   6.501
11500TIP3    H134443   5.669   4.983   6.490
11500TIP3    H234444   5.623   5.118   6.439
11501TIP3   OH234445   5.783   4.848   6.512
11501TIP3    H134446   5.707   4.804   6.550
11501TIP3    H234447   5.856   4.788   6.526
11502TIP3   OH234448   5.254   4.071   5.072
11502TIP3    H134449   5.317   4.046   5.140
11502TIP3    H234450   5.173   4.028   5.097
11503TIP3   OH234451   5.310   4.340   5.536
11503TIP3    H134452   5.347   4.253   5.552
11503TIP3    H234453   5.363   4.376   5.465
11504TIP3   OH234454   5.470   4.512   6.035
11504TIP3    H134455   5.551   4.535   5.991
11504TIP3    H234456   5.478   4.548   6.123
11505TIP3   OH234457   5.536   4.660   6.263
11505TIP3    H134458   5.460   4.691   6.313
11505TIP3    H234459   5.569   4.739   6.219
11506TIP3   OH234460   1.323   0.380   0.139
11506TIP3    H134461   1.417   0.366   0.134
11506TIP3    H234462   1.289   0.300   0.180
11507TIP3   OH234463   5.989   4.252   6.818
11507TIP3    H134464   6.047   4.187   6.778
11507TIP3    H234465   5.958   4.304   6.744
11508TIP3   OH234466   5.417   4.088   5.576
11508TIP3    H134467   5.461   4.074   5.659
11508TIP3    H234468   5.354   4.016   5.570
11509TIP3   OH234469   4.117   4.077   6.392
11509TIP3    H134470   4.176   4.002   6.404
11509TIP3    H234471   4.176   4.153   6.387
11510TIP3   OH234472   3.915   4.350   6.464
11510TIP3    H134473   3.964   4.345   6.382
11510TIP3    H234474   3.946   4.431   6.505
11511TIP3   OH234475   5.854   4.386   6.623
11511TIP3    H134476   5.772   4.430   6.645
11511TIP3    H234477   5.828   4.313   6.567
11512TIP3   OH234478   5.498   4.021   5.213
11512TIP3    H134479   5.530   3.953   5.154
11512TIP3    H234480   5.560   4.093   5.202
11513TIP3   OH234481   3.900   3.852   5.970
11513TIP3    H134482   3.809   3.847   5.998
11513TIP3    H234483   3.899   3.908   5.893
11514TIP3   OH234484   5.062   5.556   5.475
11514TIP3    H134485   5.112   5.545   5.394
11514TIP3    H234486   5.108   5.626   5.522
11515TIP3   OH234487   4.116   3.925   6.787
11515TIP3    H134488   4.076   3.908   6.872
11515TIP3    H234489   4.047   3.968   6.736
11516TIP3   OH234490   4.151   5.374   6.860
11516TIP3    H134491   4.059   5.358   6.842
11516TIP3    H234492   4.169   5.327   6.941
11517TIP3   OH234493   4.342   5.400   6.406
11517TIP3    H134494   4.291   5.472   6.369
11517TIP3    H234495   4.428   5.407   6.364
11518TIP3   OH234496   4.781   5.640   6.547
11518TIP3    H134497   4.821   5.637   6.634
11518TIP3    H234498   4.844   5.689   6.493
11519TIP3   OH234499   4.962   5.791   6.409
11519TIP3    H134500   5.029   5.741   6.361
11519TIP3    H234501   5.012   5.848   6.467
11520TIP3   OH234502   5.757   4.148   6.503
11520TIP3    H134503   5.667   4.143   6.470
11520TIP3    H234504   5.791   4.058   6.494
11521TIP3   OH234505   4.010   5.649   6.425
11521TIP3    H134506   3.925   5.679   6.394
11521TIP3    H234507   4.020   5.689   6.511
11522TIP3   OH234508   4.250   5.630   6.288
11522TIP3    H134509   4.165   5.641   6.331
11522TIP3    H234510   4.235   5.661   6.198
11523TIP3   OH234511   4.675   5.657   6.089
11523TIP3    H134512   4.609   5.673   6.022
11523TIP3    H234513   4.690   5.743   6.129
11524TIP3   OH234514   4.945   5.597   6.141
11524TIP3    H134515   4.852   5.612   6.123
11524TIP3    H234516   4.990   5.669   6.095
11525TIP3   OH234517   5.152   5.787   6.050
11525TIP3    H134518   5.137   5.871   6.007
11525TIP3    H234519   5.177   5.728   5.979
11526TIP3   OH234520   3.926   5.439   6.177
11526TIP3    H134521   3.950   5.416   6.266
11526TIP3    H234522   3.996   5.402   6.123
11527TIP3   OH234523   4.123   5.316   6.037
11527TIP3    H134524   4.136   5.234   6.084
11527TIP3    H234525   4.210   5.354   6.031
11528TIP3   OH234526   4.388   5.407   6.042
11528TIP3    H134527   4.417   5.317   6.026
11528TIP3    H234528   4.434   5.433   6.122
11529TIP3   OH234529   4.966   4.066   6.128
11529TIP3    H134530   4.921   3.997   6.177
11529TIP3    H234531   5.036   4.020   6.081
11530TIP3   OH234532   5.483   3.949   6.027
11530TIP3    H134533   5.519   3.999   5.954
11530TIP3    H234534   5.388   3.966   6.023
11531TIP3   OH234535   5.582   4.046   5.792
11531TIP3    H134536   5.653   3.994   5.754
11531TIP3    H234537   5.610   4.137   5.780
11532TIP3   OH234538   4.208   3.775   6.138
11532TIP3    H134539   4.117   3.744   6.140
11532TIP3    H234540   4.260   3.695   6.133
11533TIP3   OH234541   4.007   3.645   5.792
11533TIP3    H134542   4.033   3.698   5.717
11533TIP3    H234543   3.975   3.709   5.856
11534TIP3   OH234544   4.660   3.806   6.023
11534TIP3    H134545   4.712   3.852   5.957
11534TIP3    H234546   4.683   3.848   6.106
11535TIP3   OH234547   5.201   3.952   6.004
11535TIP3    H134548   5.197   3.917   5.915
11535TIP3    H234549   5.189   3.875   6.060
11536TIP3   OH234550   5.230   3.878   5.568
11536TIP3    H134551   5.147   3.924   5.579
11536TIP3    H234552   5.217   3.793   5.611
11537TIP3   OH234553   3.710   5.222   5.567
11537TIP3    H134554   3.627   5.186   5.534
11537TIP3    H234555   3.708   5.314   5.543
11538TIP3   OH234556   4.119   3.801   5.552
11538TIP3    H134557   4.162   3.739   5.493
11538TIP3    H234558   4.190   3.855   5.586
11539TIP3   OH234559   4.626   3.981   5.653
11539TIP3    H134560   4.686   3.932   5.708
11539TIP3    H234561   4.645   4.073   5.673
11540TIP3   OH234562   4.490   5.399   5.148
11540TIP3    H134563   4.575   5.426   5.114
11540TIP3    H234564   4.464   5.326   5.091
11541TIP3   OH234565   5.207   5.523   5.241
11541TIP3    H134566   5.201   5.428   5.232
11541TIP3    H234567   5.161   5.558   5.165
11542TIP3   OH234568   1.584   0.056   0.093
11542TIP3    H134569   1.544  -0.021   0.134
11542TIP3    H234570   1.676   0.052   0.119
11543TIP3   OH234571   1.835   0.046   0.215
11543TIP3    H134572   1.916   0.018   0.174
11543TIP3    H234573   1.815  -0.023   0.279
11544TIP3   OH234574   3.790   5.233   5.206
11544TIP3    H134575   3.796   5.267   5.295
11544TIP3    H234576   3.876   5.193   5.189
11545TIP3   OH234577   2.663   0.109  -0.002
11545TIP3    H134578   2.679   0.079   0.087
11545TIP3    H234579   2.749   0.104  -0.045
11546TIP3   OH234580   5.428   5.668   6.429
11546TIP3    H134581   5.353   5.634   6.379
11546TIP3    H234582   5.413   5.762   6.435
11547TIP3   OH234583   6.696   5.043   5.190
11547TIP3    H134584   6.668   5.132   5.169
11547TIP3    H234585   6.622   4.988   5.164
11548TIP3   OH234586   6.690   5.043   5.583
11548TIP3    H134587   6.731   5.011   5.664
11548TIP3    H234588   6.666   4.964   5.535
11549TIP3   OH234589   5.999   4.931   5.943
11549TIP3    H134590   6.026   4.864   6.007
11549TIP3    H234591   6.073   4.991   5.938
11550TIP3   OH234592   6.942   5.344   5.261
11550TIP3    H134593   6.930   5.273   5.324
11550TIP3    H234594   6.973   5.418   5.314
11551TIP3   OH234595   5.973   5.343   5.665
11551TIP3    H134596   5.960   5.248   5.667
11551TIP3    H234597   6.068   5.353   5.658
11552TIP3   OH234598   5.675   4.550   5.448
11552TIP3    H134599   5.628   4.632   5.468
11552TIP3    H234600   5.609   4.494   5.408
11553TIP3   OH234601   5.734   4.835   5.628
11553TIP3    H134602   5.783   4.760   5.661
11553TIP3    H234603   5.793   4.874   5.563
11554TIP3   OH234604   6.595   5.803   5.277
11554TIP3    H134605   6.636   5.733   5.225
11554TIP3    H234606   6.583   5.764   5.363
11555TIP3   OH234607   6.499   5.263   5.626
11555TIP3    H134608   6.536   5.185   5.585
11555TIP3    H234609   6.576   5.315   5.651
11556TIP3   OH234610   7.539   4.586   5.617
11556TIP3    H134611   7.541   4.665   5.670
11556TIP3    H234612   7.520   4.616   5.528
11557TIP3   OH234613   6.253   4.415   5.601
11557TIP3    H134614   6.231   4.498   5.558
11557TIP3    H234615   6.184   4.354   5.573
11558TIP3   OH234616   6.947   4.512   5.244
11558TIP3    H134617   7.014   4.494   5.310
11558TIP3    H234618   6.994   4.555   5.172
11559TIP3   OH234619   5.883   4.625   5.729
11559TIP3    H134620   5.964   4.610   5.777
11559TIP3    H234621   5.890   4.569   5.652
11560TIP3   OH234622   6.324   4.824   5.523
11560TIP3    H134623   6.417   4.803   5.534
11560TIP3    H234624   6.285   4.743   5.490
11561TIP3   OH234625   7.593   4.794   5.803
11561TIP3    H134626   7.515   4.844   5.778
11561TIP3    H234627   7.615   4.827   5.890
11562TIP3   OH234628   6.239   4.409   6.057
11562TIP3    H134629   6.183   4.449   5.990
11562TIP3    H234630   6.192   4.424   6.139
11563TIP3   OH234631   6.583   5.261   5.062
11563TIP3    H134632   6.547   5.245   4.975
11563TIP3    H234633   6.542   5.343   5.091
11564TIP3   OH234634   6.348   5.188   5.847
11564TIP3    H134635   6.289   5.254   5.884
11564TIP3    H234636   6.393   5.233   5.776
11565TIP3   OH234637   7.149   4.501   5.424
11565TIP3    H134638   7.117   4.472   5.510
11565TIP3    H234639   7.193   4.584   5.441
11566TIP3   OH234640   6.123   4.523   5.832
11566TIP3    H134641   6.175   4.598   5.862
11566TIP3    H234642   6.177   4.481   5.765
11567TIP3   OH234643   6.177   5.384   5.950
11567TIP3    H134644   6.156   5.469   5.910
11567TIP3    H234645   6.101   5.363   6.004
11568TIP3   OH234646   5.572   5.072   5.184
11568TIP3    H134647   5.529   5.095   5.101
11568TIP3    H234648   5.600   5.156   5.220
11569TIP3   OH234649   7.008   5.588   5.425
11569TIP3    H134650   6.921   5.577   5.464
11569TIP3    H234651   7.003   5.673   5.380
11570TIP3   OH234652   6.585   4.113   5.776
11570TIP3    H134653   6.582   4.022   5.805
11570TIP3    H234654   6.516   4.157   5.825
11571TIP3   OH234655   6.712   5.630   5.093
11571TIP3    H134656   6.758   5.548   5.078
11571TIP3    H234657   6.770   5.698   5.057
11572TIP3   OH234658   6.854   5.414   5.009
11572TIP3    H134659   6.818   5.335   4.970
11572TIP3    H234660   6.892   5.384   5.092
11573TIP3   OH234661   7.235   5.497   5.767
11573TIP3    H134662   7.225   5.420   5.711
11573TIP3    H234663   7.220   5.571   5.709
11574TIP3   OH234664   6.524   4.890   5.025
11574TIP3    H134665   6.449   4.945   5.005
11574TIP3    H234666   6.575   4.890   4.944
11575TIP3   OH234667   6.490   4.675   4.745
11575TIP3    H134668   6.554   4.729   4.792
11575TIP3    H234669   6.543   4.614   4.695
11576TIP3   OH234670   7.433   5.138   5.606
11576TIP3    H134671   7.350   5.184   5.617
11576TIP3    H234672   7.462   5.161   5.518
11577TIP3   OH234673   6.879   4.973   5.002
11577TIP3    H134674   6.821   4.998   5.074
11577TIP3    H234675   6.961   4.948   5.043
11578TIP3   OH234676   7.088   5.011   5.928
11578TIP3    H134677   7.102   5.096   5.971
11578TIP3    H234678   7.022   5.028   5.861
11579TIP3   OH234679   6.108   4.966   5.416
11579TIP3    H134680   6.069   4.911   5.349
11579TIP3    H234681   6.186   4.919   5.445
11580TIP3   OH234682   6.240   5.381   5.561
11580TIP3    H134683   6.219   5.347   5.474
11580TIP3    H234684   6.327   5.347   5.580
11581TIP3   OH234685   6.246   4.944   5.767
11581TIP3    H134686   6.280   4.922   5.681
11581TIP3    H234687   6.287   5.028   5.788
11582TIP3   OH234688   6.769   5.582   5.548
11582TIP3    H134689   6.756   5.660   5.602
11582TIP3    H234690   6.755   5.509   5.608
11583TIP3   OH234691   6.380   5.499   6.095
11583TIP3    H134692   6.323   5.561   6.141
11583TIP3    H234693   6.320   5.445   6.044
11584TIP3   OH234694   6.717   4.835   4.825
11584TIP3    H134695   6.774   4.890   4.878
11584TIP3    H234696   6.741   4.854   4.734
11585TIP3   OH234697   6.135   5.054   6.199
11585TIP3    H134698   6.143   5.141   6.238
11585TIP3    H234699   6.042   5.032   6.209
11586TIP3   OH234700   6.462   5.510   5.100
11586TIP3    H134701   6.543   5.560   5.110
11586TIP3    H234702   6.401   5.572   5.059
11587TIP3   OH234703   6.175   5.665   6.181
11587TIP3    H134704   6.144   5.667   6.090
11587TIP3    H234705   6.097   5.644   6.233
11588TIP3   OH234706   7.232   4.073   4.874
11588TIP3    H134707   7.153   4.092   4.924
11588TIP3    H234708   7.248   4.153   4.823
11589TIP3   OH234709   5.974   4.808   5.215
11589TIP3    H134710   5.914   4.863   5.163
11589TIP3    H234711   5.924   4.729   5.234
11590TIP3   OH234712   7.034   5.440   4.421
11590TIP3    H134713   7.039   5.535   4.408
11590TIP3    H234714   7.124   5.410   4.409
11591TIP3   OH234715   5.755   5.197   6.127
11591TIP3    H134716   5.689   5.180   6.061
11591TIP3    H234717   5.792   5.111   6.148
11592TIP3   OH234718   5.611   5.391   5.763
11592TIP3    H134719   5.706   5.389   5.752
11592TIP3    H234720   5.594   5.471   5.813
11593TIP3   OH234721   7.471   5.843   5.817
11593TIP3    H134722   7.477   5.749   5.829
11593TIP3    H234723   7.390   5.868   5.862
11594TIP3   OH234724   6.579   5.628   5.954
11594TIP3    H134725   6.578   5.720   5.982
11594TIP3    H234726   6.510   5.586   6.005
11595TIP3   OH234727   6.343   5.757   4.902
11595TIP3    H134728   6.296   5.737   4.821
11595TIP3    H234729   6.310   5.843   4.929
11596TIP3   OH234730   5.780   5.603   5.289
11596TIP3    H134731   5.826   5.597   5.372
11596TIP3    H234732   5.723   5.527   5.287
11597TIP3   OH234733   6.545   5.658   4.542
11597TIP3    H134734   6.600   5.589   4.505
11597TIP3    H234735   6.576   5.669   4.631
11598TIP3   OH234736   6.594   5.707   4.812
11598TIP3    H134737   6.507   5.717   4.851
11598TIP3    H234738   6.647   5.668   4.882
11599TIP3   OH234739   7.359   4.968   6.093
11599TIP3    H134740   7.300   4.982   6.019
11599TIP3    H234741   7.373   4.873   6.094
11600TIP3   OH234742   5.960   5.380   6.114
11600TIP3    H134743   6.010   5.365   6.195
11600TIP3    H234744   5.887   5.319   6.120
11601TIP3   OH234745   6.353   4.210   5.899
11601TIP3    H134746   6.267   4.174   5.877
11601TIP3    H234747   6.333   4.286   5.954
11602TIP3   OH234748   6.898   4.314   6.088
11602TIP3    H134749   6.966   4.294   6.152
11602TIP3    H234750   6.816   4.302   6.136
11603TIP3   OH234751   7.143   4.755   6.027
11603TIP3    H134752   7.083   4.750   6.101
11603TIP3    H234753   7.116   4.834   5.980
11604TIP3   OH234754   6.795   4.876   4.569
11604TIP3    H134755   6.758   4.853   4.484
11604TIP3    H234756   6.877   4.921   4.548
11605TIP3   OH234757   6.503   4.248   4.873
11605TIP3    H134758   6.468   4.243   4.962
11605TIP3    H234759   6.468   4.170   4.829
11606TIP3   OH234760   6.286   4.722   5.917
11606TIP3    H134761   6.242   4.741   5.999
11606TIP3    H234762   6.275   4.802   5.865
11607TIP3   OH234763   6.176   4.602   5.429
11607TIP3    H134764   6.084   4.582   5.446
11607TIP3    H234765   6.190   4.573   5.338
11608TIP3   OH234766   6.665   4.693   5.159
11608TIP3    H134767   6.612   4.762   5.118
11608TIP3    H234768   6.717   4.657   5.087
11609TIP3   OH234769   6.841   4.970   6.254
11609TIP3    H134770   6.818   4.896   6.309
11609TIP3    H234771   6.936   4.976   6.260
11610TIP3   OH234772   6.803   4.722   5.394
11610TIP3    H134773   6.748   4.735   5.317
11610TIP3    H234774   6.856   4.645   5.374
11611TIP3   OH234775   6.111   4.748   6.130
11611TIP3    H134776   6.140   4.813   6.193
11611TIP3    H234777   6.099   4.668   6.182
11612TIP3   OH234778   6.162   4.229   4.841
11612TIP3    H134779   6.147   4.222   4.936
11612TIP3    H234780   6.087   4.278   4.808
11613TIP3   OH234781   5.702   4.271   5.710
11613TIP3    H134782   5.778   4.299   5.760
11613TIP3    H234783   5.738   4.237   5.628
11614TIP3   OH234784   5.674   4.257   5.228
11614TIP3    H134785   5.716   4.291   5.148
11614TIP3    H234786   5.610   4.323   5.251
11615TIP3   OH234787   6.824   4.939   5.800
11615TIP3    H134788   6.891   4.879   5.768
11615TIP3    H234789   6.797   4.902   5.885
11616TIP3   OH234790   5.933   4.479   5.496
11616TIP3    H134791   5.842   4.504   5.476
11616TIP3    H234792   5.939   4.387   5.472
11617TIP3   OH234793   6.228   4.496   5.174
11617TIP3    H134794   6.298   4.549   5.135
11617TIP3    H234795   6.156   4.501   5.111
11618TIP3   OH234796   6.054   4.506   4.971
11618TIP3    H134797   5.981   4.463   4.927
11618TIP3    H234798   6.105   4.545   4.900
11619TIP3   OH234799   7.166   6.194   5.913
11619TIP3    H134800   7.158   6.212   5.819
11619TIP3    H234801   7.245   6.242   5.940
11620TIP3   OH234802   6.122   5.302   6.338
11620TIP3    H134803   6.202   5.333   6.381
11620TIP3    H234804   6.056   5.301   6.407
11621TIP3   OH234805   6.588   4.741   5.581
11621TIP3    H134806   6.668   4.730   5.531
11621TIP3    H234807   6.608   4.706   5.668
11622TIP3   OH234808   6.123   4.222   5.461
11622TIP3    H134809   6.082   4.155   5.515
11622TIP3    H234810   6.119   4.187   5.372
11623TIP3   OH234811   6.559   4.651   5.890
11623TIP3    H134812   6.474   4.694   5.898
11623TIP3    H234813   6.620   4.711   5.932
11624TIP3   OH234814   6.296   5.044   4.976
11624TIP3    H134815   6.226   4.980   4.962
11624TIP3    H234816   6.280   5.078   5.065
11625TIP3   OH234817   7.196   5.282   5.601
11625TIP3    H134818   7.223   5.330   5.522
11625TIP3    H234819   7.116   5.237   5.576
11626TIP3   OH234820   6.757   4.352   4.844
11626TIP3    H134821   6.663   4.337   4.849
11626TIP3    H234822   6.767   4.446   4.863
11627TIP3   OH234823   6.695   5.362   5.974
11627TIP3    H134824   6.726   5.345   6.063
11627TIP3    H234825   6.659   5.451   5.979
11628TIP3   OH234826   6.825   4.603   4.941
11628TIP3    H134827   6.919   4.609   4.960
11628TIP3    H234828   6.806   4.683   4.892
11629TIP3   OH234829   5.992   5.064   5.651
11629TIP3    H134830   6.029   5.039   5.566
11629TIP3    H234831   6.036   5.008   5.714
11630TIP3   OH234832   6.443   5.195   4.800
11630TIP3    H134833   6.397   5.279   4.802
11630TIP3    H234834   6.391   5.139   4.858
11631TIP3   OH234835   5.873   4.983   6.266
11631TIP3    H134836   5.891   4.971   6.359
11631TIP3    H234837   5.803   4.920   6.246
11632TIP3   OH234838   6.600   5.101   6.284
11632TIP3    H134839   6.540   5.046   6.234
11632TIP3    H234840   6.687   5.068   6.261
11633TIP3   OH234841   6.856   5.624   5.874
11633TIP3    H134842   6.761   5.621   5.882
11633TIP3    H234843   6.886   5.675   5.949
11634TIP3   OH234844   7.264   4.696   4.774
11634TIP3    H134845   7.204   4.649   4.716
11634TIP3    H234846   7.265   4.786   4.740
11635TIP3   OH234847   7.485   5.556   5.853
11635TIP3    H134848   7.389   5.548   5.849
11635TIP3    H234849   7.514   5.525   5.767
11636TIP3   OH234850   6.970   5.513   4.687
11636TIP3    H134851   6.943   5.445   4.749
11636TIP3    H234852   6.982   5.466   4.604
11637TIP3   OH234853   6.965   5.138   5.517
11637TIP3    H134854   6.872   5.117   5.529
11637TIP3    H234855   7.003   5.057   5.483
11638TIP3   OH234856   6.092   5.373   5.276
11638TIP3    H134857   6.094   5.453   5.223
11638TIP3    H234858   5.999   5.355   5.290
11639TIP3   OH234859   5.657   4.676   4.983
11639TIP3    H134860   5.702   4.758   5.001
11639TIP3    H234861   5.579   4.678   5.039
11640TIP3   OH234862   6.223   5.135   5.221
11640TIP3    H134863   6.194   5.225   5.236
11640TIP3    H234864   6.190   5.086   5.296
11641TIP3   OH234865   6.365   5.714   5.745
11641TIP3    H134866   6.403   5.786   5.694
11641TIP3    H234867   6.439   5.676   5.792
11642TIP3   OH234868   6.011   5.610   5.130
11642TIP3    H134869   5.926   5.616   5.175
11642TIP3    H234870   6.045   5.700   5.131
11643TIP3   OH234871   6.749   5.350   5.707
11643TIP3    H134872   6.738   5.347   5.802
11643TIP3    H234873   6.827   5.297   5.690
11644TIP3   OH234874   6.727   5.242   4.590
11644TIP3    H134875   6.781   5.219   4.666
11644TIP3    H234876   6.638   5.214   4.615
11645TIP3   OH234877   6.995   5.881   5.755
11645TIP3    H134878   6.919   5.824   5.750
11645TIP3    H234879   6.983   5.944   5.684
11646TIP3   OH234880   7.062   5.718   4.406
11646TIP3    H134881   7.104   5.789   4.357
11646TIP3    H234882   6.982   5.757   4.442
11647TIP3   OH234883   6.081   4.489   6.272
11647TIP3    H134884   5.986   4.495   6.282
11647TIP3    H234885   6.110   4.434   6.345
11648TIP3   OH234886   6.889   5.172   4.805
11648TIP3    H134887   6.875   5.109   4.875
11648TIP3    H234888   6.984   5.172   4.790
11649TIP3   OH234889   5.803   5.576   5.904
11649TIP3    H134890   5.855   5.504   5.940
11649TIP3    H234891   5.827   5.652   5.958
11650TIP3   OH234892   6.090   5.219   4.589
11650TIP3    H134893   6.103   5.129   4.560
11650TIP3    H234894   6.070   5.212   4.682
11651TIP3   OH234895   6.036   5.228   4.860
11651TIP3    H134896   6.108   5.200   4.917
11651TIP3    H234897   6.036   5.324   4.866
11652TIP3   OH234898   5.770   4.923   5.065
11652TIP3    H134899   5.703   4.963   5.121
11652TIP3    H234900   5.784   4.987   4.996
11653TIP3   OH234901   6.903   4.582   5.988
11653TIP3    H134902   6.986   4.599   5.944
11653TIP3    H234903   6.908   4.490   6.014
11654TIP3   OH234904   6.802   4.311   5.119
11654TIP3    H134905   6.793   4.331   5.026
11654TIP3    H234906   6.845   4.388   5.156
11655TIP3   OH234907   6.299   5.425   4.808
11655TIP3    H134908   6.214   5.447   4.845
11655TIP3    H234909   6.319   5.497   4.747
11656TIP3   OH234910   6.756   4.805   6.029
11656TIP3    H134911   6.786   4.850   6.107
11656TIP3    H234912   6.809   4.725   6.025
11657TIP3   OH234913   6.634   4.235   5.317
11657TIP3    H134914   6.676   4.263   5.398
11657TIP3    H234915   6.691   4.267   5.247
11658TIP3   OH234916   6.045   5.501   4.878
11658TIP3    H134917   6.016   5.568   4.815
11658TIP3    H234918   6.030   5.541   4.963
11659TIP3   OH234919   6.146   4.211   5.122
11659TIP3    H134920   6.144   4.304   5.144
11659TIP3    H234921   6.238   4.187   5.125
11660TIP3   OH234922   7.400   4.693   6.006
11660TIP3    H134923   7.306   4.699   6.020
11660TIP3    H234924   7.411   4.700   5.912
11661TIP3   OH234925   7.046   4.880   5.417
11661TIP3    H134926   6.962   4.834   5.419
11661TIP3    H234927   7.097   4.841   5.488
11662TIP3   OH234928   5.767   5.124   4.867
11662TIP3    H134929   5.830   5.195   4.878
11662TIP3    H234930   5.805   5.067   4.801
11663TIP3   OH234931   5.706   4.406   5.003
11663TIP3    H134932   5.705   4.501   5.001
11663TIP3    H234933   5.629   4.379   4.953
11664TIP3   OH234934   7.020   5.860   5.344
11664TIP3    H134935   6.975   5.904   5.272
11664TIP3    H234936   7.113   5.876   5.328
11665TIP3   OH234937   6.096   4.119   5.871
11665TIP3    H134938   6.062   4.088   5.788
11665TIP3    H234939   6.085   4.046   5.932
11666TIP3   OH234940   5.628   5.341   5.252
11666TIP3    H134941   5.566   5.372   5.319
11666TIP3    H234942   5.598   5.383   5.171
11667TIP3   OH234943   5.794   5.888   6.328
11667TIP3    H134944   5.878   5.890   6.374
11667TIP3    H234945   5.771   5.795   6.325
11668TIP3   OH234946   6.271   5.843   6.373
11668TIP3    H134947   6.366   5.830   6.377
11668TIP3    H234948   6.243   5.785   6.301
11669TIP3   OH234949   6.252   5.421   4.497
11669TIP3    H134950   6.198   5.353   4.537
11669TIP3    H234951   6.328   5.374   4.464
11670TIP3   OH234952   6.910   5.757   6.110
11670TIP3    H134953   6.904   5.687   6.174
11670TIP3    H234954   6.987   5.807   6.136
11671TIP3   OH234955   6.690   5.462   4.413
11671TIP3    H134956   6.728   5.398   4.472
11671TIP3    H234957   6.747   5.460   4.336
11672TIP3   OH234958   5.919   5.291   6.526
11672TIP3    H134959   5.938   5.197   6.532
11672TIP3    H234960   5.834   5.296   6.484
11673TIP3   OH234961   5.902   4.938   4.721
11673TIP3    H134962   5.955   4.910   4.796
11673TIP3    H234963   5.964   4.944   4.648
11674TIP3   OH234964   6.528   5.377   6.299
11674TIP3    H134965   6.487   5.397   6.215
11674TIP3    H234966   6.559   5.287   6.290
11675TIP3   OH234967   6.414   5.138   4.532
11675TIP3    H134968   6.414   5.154   4.626
11675TIP3    H234969   6.413   5.043   4.524
11676TIP3   OH234970   7.020   5.391   5.907
11676TIP3    H134971   7.097   5.428   5.864
11676TIP3    H234972   6.951   5.456   5.893
11677TIP3   OH234973   6.041   5.028   6.513
11677TIP3    H134974   6.117   4.977   6.483
11677TIP3    H234975   6.067   5.060   6.600
11678TIP3   OH234976   6.105   4.846   4.941
11678TIP3    H134977   6.075   4.807   5.023
11678TIP3    H234978   6.141   4.772   4.891
11679TIP3   OH234979   6.373   4.909   6.168
11679TIP3    H134980   6.298   4.968   6.173
11679TIP3    H234981   6.425   4.942   6.095
11680TIP3   OH234982   6.210   4.638   4.784
11680TIP3    H134983   6.179   4.644   4.694
11680TIP3    H234984   6.306   4.644   4.777
11681TIP3   OH234985   6.898   5.311   6.304
11681TIP3    H134986   6.970   5.282   6.248
11681TIP3    H234987   6.889   5.243   6.370
11682TIP3   OH234988   7.025   4.971   4.446
11682TIP3    H134989   7.007   4.922   4.366
11682TIP3    H234990   6.996   5.060   4.428
11683TIP3   OH234991   6.495   4.698   6.295
11683TIP3    H134992   6.500   4.621   6.240
11683TIP3    H234993   6.455   4.765   6.240
11684TIP3   OH234994   6.500   4.483   6.105
11684TIP3    H134995   6.531   4.529   6.027
11684TIP3    H234996   6.408   4.464   6.087
11685TIP3   OH234997   6.523   5.022   5.979
11685TIP3    H134998   6.608   5.025   5.935
11685TIP3    H234999   6.470   5.087   5.932
11686TIP3   OH235000   7.120   4.990   6.363
11686TIP3    H135001   7.144   4.899   6.351
11686TIP3    H235002   7.183   5.039   6.310
11687TIP3   OH235003   7.148   5.252   6.100
11687TIP3    H135004   7.091   5.300   6.040
11687TIP3    H235005   7.236   5.261   6.063
11688TIP3   OH235006   6.378   4.805   6.530
11688TIP3    H135007   6.309   4.740   6.546
11688TIP3    H235008   6.411   4.783   6.443
11689TIP3   OH235009   6.632   4.249   6.173
11689TIP3    H135010   6.587   4.330   6.152
11689TIP3    H235011   6.565   4.181   6.164
11690TIP3   OH235012   6.752   4.750   6.391
11690TIP3    H135013   6.741   4.737   6.485
11690TIP3    H235014   6.667   4.728   6.353
11691TIP3   OH235015   7.006   4.728   6.263
11691TIP3    H135016   6.927   4.709   6.313
11691TIP3    H235017   7.076   4.682   6.309
11692TIP3   OH235018   7.235   4.642   6.401
11692TIP3    H135019   7.244   4.548   6.415
11692TIP3    H235020   7.228   4.679   6.489
11693TIP3   OH235021   6.217   4.585   6.585
11693TIP3    H135022   6.221   4.497   6.548
11693TIP3    H235023   6.253   4.576   6.673
11694TIP3   OH235024   6.727   4.255   6.430
11694TIP3    H135025   6.794   4.187   6.426
11694TIP3    H235026   6.687   4.254   6.343
11695TIP3   OH235027   6.791   4.471   6.590
11695TIP3    H135028   6.771   4.402   6.527
11695TIP3    H235029   6.716   4.531   6.583
11696TIP3   OH235030   6.018   5.702   4.687
11696TIP3    H135031   6.112   5.694   4.670
11696TIP3    H235032   5.985   5.753   4.613
11697TIP3   OH235033   5.497   5.083   4.903
11697TIP3    H135034   5.589   5.105   4.891
11697TIP3    H235035   5.487   4.997   4.862
11698TIP3   OH235036   5.412   5.692   5.319
11698TIP3    H135037   5.344   5.636   5.281
11698TIP3    H235038   5.455   5.635   5.384
11699TIP3   OH235039   5.548   5.541   5.507
11699TIP3    H135040   5.530   5.471   5.570
11699TIP3    H235041   5.598   5.606   5.556
11700TIP3   OH235042   7.274   5.948   5.307
11700TIP3    H135043   7.299   5.977   5.394
11700TIP3    H235044   7.339   5.988   5.249
11701TIP3   OH235045   7.302   5.963   5.590
11701TIP3    H135046   7.256   5.880   5.584
11701TIP3    H235047   7.378   5.945   5.645
11702TIP3   OH235048   7.351   5.651   6.165
11702TIP3    H135049   7.278   5.655   6.227
11702TIP3    H235050   7.391   5.737   6.169
11703TIP3   OH235051   7.168   5.156   4.781
11703TIP3    H135052   7.233   5.220   4.752
11703TIP3    H235053   7.207   5.117   4.859
11704TIP3   OH235054   7.290   5.022   4.988
11704TIP3    H135055   7.226   4.982   5.048
11704TIP3    H235056   7.357   5.059   5.046
11705TIP3   OH235057   7.347   5.417   5.412
11705TIP3    H135058   7.402   5.351   5.370
11705TIP3    H235059   7.342   5.488   5.348
11706TIP3   OH235060   7.175   5.717   5.609
11706TIP3    H135061   7.105   5.756   5.661
11706TIP3    H235062   7.129   5.669   5.539
11707TIP3   OH235063   7.227   4.934   4.629
11707TIP3    H135064   7.158   4.934   4.563
11707TIP3    H235065   7.205   5.007   4.687
11708TIP3   OH235066   7.099   4.603   4.581
11708TIP3    H135067   7.054   4.642   4.506
11708TIP3    H235068   7.079   4.509   4.574
11709TIP3   OH235069   7.103   4.881   5.142
11709TIP3    H135070   7.114   4.786   5.129
11709TIP3    H235071   7.093   4.891   5.237
11710TIP3   OH235072   5.734   4.950   5.878
11710TIP3    H135073   5.727   4.921   5.787
11710TIP3    H235074   5.828   4.954   5.895
11711TIP3   OH235075   7.395   5.306   5.990
11711TIP3    H135076   7.461   5.238   5.983
11711TIP3    H235077   7.418   5.370   5.923
11712TIP3   OH235078   7.575   5.107   6.011
11712TIP3    H135079   7.500   5.056   6.041
11712TIP3    H235080   7.649   5.048   6.020
11713TIP3   OH235081   7.044   4.337   4.567
11713TIP3    H135082   7.117   4.308   4.622
11713TIP3    H235083   6.972   4.280   4.591
11714TIP3   OH235084   7.103   4.596   5.021
11714TIP3    H135085   7.142   4.510   5.039
11714TIP3    H235086   7.159   4.633   4.952
11715TIP3   OH235087   7.360   4.935   5.791
11715TIP3    H135088   7.275   4.896   5.771
11715TIP3    H235089   7.374   4.999   5.722
11716TIP3   OH235090   5.951   4.637   6.552
11716TIP3    H135091   6.046   4.634   6.554
11716TIP3    H235092   5.924   4.554   6.591
11717TIP3   OH235093   7.786   4.508   6.306
11717TIP3    H135094   7.843   4.444   6.264
11717TIP3    H235095   7.752   4.560   6.233
11718TIP3   OH235096   7.212   4.346   5.063
11718TIP3    H135097   7.260   4.335   5.145
11718TIP3    H235098   7.152   4.272   5.060
11719TIP3   OH235099   5.916   4.332   5.874
11719TIP3    H135100   5.974   4.257   5.890
11719TIP3    H235101   5.975   4.407   5.871
11720TIP3   OH235102   5.714   4.605   5.955
11720TIP3    H135103   5.761   4.602   5.871
11720TIP3    H235104   5.735   4.692   5.991
11721TIP3   OH235105   7.649   4.642   6.113
11721TIP3    H135106   7.565   4.686   6.125
11721TIP3    H235107   7.630   4.570   6.053
11722TIP3   OH235108   7.290   4.280   4.694
11722TIP3    H135109   7.329   4.210   4.642
11722TIP3    H235110   7.354   4.351   4.693
11723TIP3   OH235111   5.698   4.117   5.459
11723TIP3    H135112   5.607   4.105   5.486
11723TIP3    H235113   5.693   4.170   5.379
11724TIP3   OH235114   6.857   5.815   4.961
11724TIP3    H135115   6.908   5.801   4.881
11724TIP3    H235116   6.907   5.879   5.012
11725TIP3   OH235117   5.915   4.189   6.269
11725TIP3    H135118   5.868   4.182   6.353
11725TIP3    H235119   5.851   4.228   6.209
11726TIP3   OH235120   5.956   5.616   6.347
11726TIP3    H135121   5.865   5.593   6.328
11726TIP3    H235122   5.966   5.601   6.441
11727TIP3   OH235123   6.139   5.656   5.893
11727TIP3    H135124   6.086   5.727   5.858
11727TIP3    H235125   6.224   5.665   5.850
11728TIP3   OH235126   6.579   5.895   6.033
11728TIP3    H135127   6.619   5.893   6.120
11728TIP3    H235128   6.642   5.944   5.980
11729TIP3   OH235129   6.759   6.047   5.894
11729TIP3    H135130   6.826   5.996   5.849
11729TIP3    H235131   6.807   6.105   5.952
11730TIP3   OH235132   7.560   4.401   5.996
11730TIP3    H135133   7.469   4.398   5.965
11730TIP3    H235134   7.593   4.313   5.981
11731TIP3   OH235135   5.810   5.907   5.922
11731TIP3    H135136   5.722   5.935   5.895
11731TIP3    H235137   5.825   5.952   6.005
11732TIP3   OH235138   6.045   5.887   5.777
11732TIP3    H135139   5.961   5.898   5.822
11732TIP3    H235140   6.029   5.919   5.688
11733TIP3   OH235141   6.472   5.915   5.575
11733TIP3    H135142   6.403   5.930   5.510
11733TIP3    H235143   6.485   6.000   5.617
11734TIP3   OH235144   6.741   5.854   5.628
11734TIP3    H135145   6.648   5.869   5.609
11734TIP3    H235146   6.786   5.926   5.582
11735TIP3   OH235147   6.949   6.044   5.538
11735TIP3    H135148   6.934   6.128   5.493
11735TIP3    H235149   6.975   5.984   5.468
11736TIP3   OH235150   5.725   5.698   5.662
11736TIP3    H135151   5.746   5.673   5.752
11736TIP3    H235152   5.795   5.658   5.610
11737TIP3   OH235153   5.920   5.572   5.522
11737TIP3    H135154   5.932   5.490   5.570
11737TIP3    H235155   6.008   5.610   5.518
11738TIP3   OH235156   6.187   5.664   5.528
11738TIP3    H135157   6.214   5.573   5.514
11738TIP3    H235158   6.230   5.690   5.609
11739TIP3   OH235159   6.725   4.291   5.567
11739TIP3    H135160   6.713   4.246   5.651
11739TIP3    H235161   6.820   4.294   5.555
11740TIP3   OH235162   7.277   4.200   5.511
11740TIP3    H135163   7.319   4.253   5.443
11740TIP3    H235164   7.187   4.232   5.514
11741TIP3   OH235165   7.381   4.300   5.277
11741TIP3    H135166   7.453   4.250   5.239
11741TIP3    H235167   7.407   4.392   5.267
11742TIP3   OH235168   6.005   4.028   5.622
11742TIP3    H135169   5.913   4.002   5.625
11742TIP3    H235170   6.054   3.946   5.621
11743TIP3   OH235171   5.803   3.905   5.280
11743TIP3    H135172   5.825   3.956   5.202
11743TIP3    H235173   5.767   3.968   5.342
11744TIP3   OH235174   6.464   4.143   5.529
11744TIP3    H135175   6.524   4.122   5.457
11744TIP3    H235176   6.506   4.106   5.606
11745TIP3   OH235177   6.991   4.211   5.497
11745TIP3    H135178   7.009   4.178   5.409
11745TIP3    H235179   6.977   4.132   5.550
11746TIP3   OH235180   7.026   4.133   5.054
11746TIP3    H135181   6.943   4.179   5.065
11746TIP3    H235182   7.014   4.049   5.099
11747TIP3   OH235183   5.508   5.477   5.050
11747TIP3    H135184   5.425   5.441   5.020
11747TIP3    H235185   5.504   5.570   5.030
11748TIP3   OH235186   5.913   4.057   5.039
11748TIP3    H135187   5.956   3.994   4.980
11748TIP3    H235188   5.985   4.109   5.074
11749TIP3   OH235189   6.421   4.242   5.139
11749TIP3    H135190   6.491   4.207   5.195
11749TIP3    H235191   6.429   4.337   5.148
11750TIP3   OH235192   6.285   5.656   4.634
11750TIP3    H135193   6.371   5.683   4.601
11750TIP3    H235194   6.259   5.583   4.578
11751TIP3   OH235195   7.003   5.779   4.728
11751TIP3    H135196   6.997   5.684   4.720
11751TIP3    H235197   6.958   5.813   4.651
11752TIP3   OH235198   6.216   4.310   6.519
11752TIP3    H135199   6.178   4.241   6.574
11752TIP3    H235200   6.308   4.313   6.544
11753TIP3   OH235201   6.465   4.308   6.637
11753TIP3    H135202   6.549   4.287   6.597
11753TIP3    H235203   6.451   4.240   6.703
11754TIP3   OH235204   5.588   5.495   4.692
11754TIP3    H135205   5.586   5.520   4.784
11754TIP3    H235206   5.673   5.455   4.679
11755TIP3   OH235207   7.293   4.370   6.425
11755TIP3    H135208   7.310   4.341   6.514
11755TIP3    H235209   7.378   4.368   6.382
11756TIP3   OH235210   7.223   5.924   5.917
11756TIP3    H135211   7.149   5.889   5.867
11756TIP3    H235212   7.207   6.018   5.921
11757TIP3   OH235213   8.493   5.300   4.677
11757TIP3    H135214   8.467   5.391   4.662
11757TIP3    H235215   8.416   5.249   4.653
11758TIP3   OH235216   8.493   5.289   5.067
11758TIP3    H135217   8.524   5.283   5.158
11758TIP3    H235218   8.448   5.206   5.052
11759TIP3   OH235219   7.792   5.189   5.430
11759TIP3    H135220   7.815   5.118   5.489
11759TIP3    H235221   7.867   5.248   5.433
11760TIP3   OH235222   0.241   5.593   4.750
11760TIP3    H135223   0.221   5.531   4.820
11760TIP3    H235224   0.266   5.674   4.796
11761TIP3   OH235225   7.767   5.599   5.151
11761TIP3    H135226   7.754   5.504   5.152
11761TIP3    H235227   7.862   5.611   5.150
11762TIP3   OH235228   7.470   4.804   4.933
11762TIP3    H135229   7.425   4.886   4.954
11762TIP3    H235230   7.401   4.749   4.895
11763TIP3   OH235231   7.530   5.089   5.111
11763TIP3    H135232   7.576   5.014   5.148
11763TIP3    H235233   7.591   5.127   5.048
11764TIP3   OH235234   8.388   6.057   4.760
11764TIP3    H135235   8.433   5.987   4.714
11764TIP3    H235236   8.383   6.027   4.851
11765TIP3   OH235237   8.295   5.523   5.110
11765TIP3    H135238   8.329   5.444   5.067
11765TIP3    H235239   8.374   5.570   5.139
11766TIP3   OH235240   0.209   5.042   5.136
11766TIP3    H135241   0.222   4.953   5.169
11766TIP3    H235242   0.157   5.031   5.057
11767TIP3   OH235243   8.042   4.682   5.107
11767TIP3    H135244   8.025   4.756   5.048
11767TIP3    H235245   7.995   4.609   5.068
11768TIP3   OH235246   0.279   4.764   4.717
11768TIP3    H135247   0.285   4.743   4.811
11768TIP3    H235248   0.259   4.858   4.715
11769TIP3   OH235249   7.680   4.886   5.213
11769TIP3    H135250   7.756   4.868   5.268
11769TIP3    H235251   7.691   4.830   5.137
11770TIP3   OH235252   8.119   5.080   5.007
11770TIP3    H135253   8.210   5.056   5.024
11770TIP3    H235254   8.078   4.999   4.978
11771TIP3   OH235255   8.035   4.667   5.545
11771TIP3    H135256   7.980   4.704   5.475
11771TIP3    H235257   7.986   4.684   5.625
11772TIP3   OH235258   8.395   5.529   4.539
11772TIP3    H135259   8.346   5.499   4.463
11772TIP3    H235260   8.344   5.604   4.572
11773TIP3   OH235261   8.144   5.444   5.336
11773TIP3    H135262   8.084   5.508   5.374
11773TIP3    H235263   8.189   5.492   5.266
11774TIP3   OH235264   7.914   4.784   5.327
11774TIP3    H135265   7.971   4.857   5.352
11774TIP3    H235266   7.960   4.741   5.254
11775TIP3   OH235267   7.970   5.639   5.435
11775TIP3    H135268   7.948   5.725   5.398
11775TIP3    H235269   7.896   5.617   5.491
11776TIP3   OH235270   7.367   5.329   4.671
11776TIP3    H135271   7.325   5.354   4.589
11776TIP3    H235272   7.398   5.412   4.708
11777TIP3   OH235273   0.305   5.843   4.906
11777TIP3    H135274   0.223   5.827   4.953
11777TIP3    H235275   0.295   5.931   4.869
11778TIP3   OH235276   8.382   4.378   5.262
11778TIP3    H135277   8.367   4.284   5.277
11778TIP3    H235278   8.308   4.421   5.305
11779TIP3   OH235279   0.014   5.883   4.582
11779TIP3    H135280   0.062   5.803   4.563
11779TIP3    H235281   0.067   5.953   4.545
11780TIP3   OH235282   0.145   5.649   4.493
11780TIP3    H135283   0.063   5.600   4.501
11780TIP3    H235284   0.192   5.630   4.574
11781TIP3   OH235285   0.535   5.750   5.263
11781TIP3    H135286   0.538   5.673   5.206
11781TIP3    H235287   0.533   5.824   5.202
11782TIP3   OH235288   8.322   5.147   4.514
11782TIP3    H135289   8.240   5.195   4.500
11782TIP3    H235290   8.364   5.145   4.428
11783TIP3   OH235291   8.285   4.933   4.229
11783TIP3    H135292   8.348   4.988   4.275
11783TIP3    H235293   8.338   4.871   4.180
11784TIP3   OH235294   0.168   5.227   4.485
11784TIP3    H135295   0.112   5.257   4.556
11784TIP3    H235296   0.240   5.181   4.529
11785TIP3   OH235297   0.391   5.257   5.388
11785TIP3    H135298   0.398   5.327   5.452
11785TIP3    H235299   0.303   5.267   5.351
11786TIP3   OH235300   7.908   5.225   4.900
11786TIP3    H135301   7.866   5.169   4.835
11786TIP3    H235302   7.982   5.174   4.931
11787TIP3   OH235303   8.038   5.642   5.047
11787TIP3    H135304   8.016   5.600   4.964
11787TIP3    H235305   8.125   5.608   5.068
11788TIP3   OH235306   8.042   5.201   5.253
11788TIP3    H135307   8.076   5.179   5.166
11788TIP3    H235308   8.084   5.284   5.276
11789TIP3   OH235309   0.073   5.834   5.036
11789TIP3    H135310   0.053   5.917   5.080
11789TIP3    H235311   0.050   5.767   5.100
11790TIP3   OH235312   8.171   5.770   5.569
11790TIP3    H135313   8.110   5.824   5.620
11790TIP3    H235314   8.115   5.707   5.523
11791TIP3   OH235315   0.013   5.084   4.308
11791TIP3    H135316   0.066   5.145   4.359
11791TIP3    H235317   0.037   5.103   4.217
11792TIP3   OH235318   7.928   5.314   5.680
11792TIP3    H135319   7.937   5.399   5.723
11792TIP3    H235320   7.837   5.289   5.695
11793TIP3   OH235321   8.261   5.764   4.587
11793TIP3    H135322   8.338   5.819   4.600
11793TIP3    H235323   8.197   5.823   4.546
11794TIP3   OH235324   7.967   5.926   5.666
11794TIP3    H135325   7.936   5.923   5.576
11794TIP3    H235326   7.891   5.897   5.718
11795TIP3   OH235327   7.772   5.070   4.701
11795TIP3    H135328   7.704   5.114   4.650
11795TIP3    H235329   7.735   4.985   4.722
11796TIP3   OH235330   0.324   5.701   3.909
11796TIP3    H135331   0.315   5.794   3.889
11796TIP3    H235332   0.408   5.676   3.870
11797TIP3   OH235333   7.551   5.453   5.613
11797TIP3    H135334   7.486   5.430   5.547
11797TIP3    H235335   7.588   5.369   5.640
11798TIP3   OH235336   7.408   5.650   5.243
11798TIP3    H135337   7.503   5.638   5.235
11798TIP3    H235338   7.398   5.725   5.302
11799TIP3   OH235339   8.368   5.901   5.435
11799TIP3    H135340   8.410   5.947   5.507
11799TIP3    H235341   8.299   5.849   5.477
11800TIP3   OH235342   8.138   6.013   4.389
11800TIP3    H135343   8.094   5.992   4.307
11800TIP3    H235344   8.105   6.099   4.414
11801TIP3   OH235345   7.576   5.859   4.776
11801TIP3    H135346   7.622   5.854   4.859
11801TIP3    H235347   7.524   5.779   4.772
11802TIP3   OH235348   8.340   5.917   4.030
11802TIP3    H135349   8.395   5.849   3.991
11802TIP3    H235350   8.373   5.926   4.119
11803TIP3   OH235351   8.389   5.964   4.301
11803TIP3    H135352   8.302   5.972   4.340
11803TIP3    H235353   8.442   5.924   4.370
11804TIP3   OH235354   7.755   5.637   5.600
11804TIP3    H135355   7.804   5.624   5.681
11804TIP3    H235356   7.682   5.575   5.605
11805TIP3   OH235357   8.153   4.463   5.391
11805TIP3    H135358   8.068   4.429   5.362
11805TIP3    H235359   8.131   4.544   5.437
11806TIP3   OH235360   0.157   4.590   5.571
11806TIP3    H135361   0.222   4.554   5.632
11806TIP3    H235362   0.073   4.572   5.612
11807TIP3   OH235363   0.466   5.010   5.509
11807TIP3    H135364   0.409   5.008   5.586
11807TIP3    H235365   0.442   5.090   5.463
11808TIP3   OH235366   0.091   5.133   4.054
11808TIP3    H135367   0.061   5.105   3.967
11808TIP3    H235368   0.146   5.209   4.036
11809TIP3   OH235369   8.314   4.502   4.361
11809TIP3    H135370   8.278   4.507   4.450
11809TIP3    H235371   8.270   4.426   4.322
11810TIP3   OH235372   8.087   4.980   5.404
11810TIP3    H135373   8.042   4.998   5.487
11810TIP3    H235374   8.073   5.059   5.352
11811TIP3   OH235375   7.970   4.862   4.918
11811TIP3    H135376   7.880   4.838   4.940
11811TIP3    H235377   7.985   4.822   4.832
11812TIP3   OH235378   8.466   4.950   4.644
11812TIP3    H135379   8.409   5.020   4.611
11812TIP3    H235380   8.513   4.919   4.567
11813TIP3   OH235381   0.132   5.218   5.714
11813TIP3    H135382   0.118   5.166   5.793
11813TIP3    H235383   0.222   5.249   5.720
11814TIP3   OH235384   0.118   4.975   4.875
11814TIP3    H135385   0.059   5.007   4.807
11814TIP3    H235386   0.100   4.881   4.880
11815TIP3   OH235387   7.904   5.005   5.613
11815TIP3    H135388   7.945   5.066   5.674
11815TIP3    H235389   7.890   4.925   5.664
11816TIP3   OH235390   7.958   4.487   4.325
11816TIP3    H135391   7.950   4.482   4.421
11816TIP3    H235392   7.881   4.536   4.297
11817TIP3   OH235393   7.499   4.524   5.188
11817TIP3    H135394   7.568   4.558   5.246
11817TIP3    H235395   7.546   4.493   5.111
11818TIP3   OH235396   7.466   4.510   4.712
11818TIP3    H135397   7.513   4.544   4.636
11818TIP3    H235398   7.405   4.580   4.736
11819TIP3   OH235399   0.111   5.227   5.309
11819TIP3    H135400   0.154   5.164   5.250
11819TIP3    H235401   0.089   5.176   5.386
11820TIP3   OH235402   8.296   4.709   4.982
11820TIP3    H135403   8.219   4.695   5.037
11820TIP3    H235404   8.367   4.664   5.028
11821TIP3   OH235405   7.734   4.742   4.984
11821TIP3    H135406   7.641   4.750   4.960
11821TIP3    H235407   7.756   4.651   4.967
11822TIP3   OH235408   7.998   4.734   4.678
11822TIP3    H135409   8.091   4.751   4.658
11822TIP3    H235410   7.952   4.758   4.597
11823TIP3   OH235411   0.215   4.776   5.172
11823TIP3    H135412   0.203   4.786   5.266
11823TIP3    H235413   0.294   4.722   5.163
11824TIP3   OH235414   7.847   4.771   4.452
11824TIP3    H135415   7.775   4.725   4.408
11824TIP3    H235416   7.898   4.808   4.381
11825TIP3   OH235417   7.916   5.557   5.822
11825TIP3    H135418   8.001   5.561   5.866
11825TIP3    H235419   7.852   5.558   5.893
11826TIP3   OH235420   8.385   5.016   5.089
11826TIP3    H135421   8.438   4.951   5.042
11826TIP3    H235422   8.378   4.980   5.178
11827TIP3   OH235423   7.901   4.497   4.961
11827TIP3    H135424   7.865   4.423   5.010
11827TIP3    H235425   7.949   4.457   4.889
11828TIP3   OH235426   8.356   4.917   5.365
11828TIP3    H135427   8.268   4.950   5.383
11828TIP3    H235428   8.414   4.974   5.416
11829TIP3   OH235429   8.094   5.297   4.466
11829TIP3    H135430   8.023   5.235   4.450
11829TIP3    H235431   8.075   5.333   4.553
11830TIP3   OH235432   0.492   5.551   5.078
11830TIP3    H135433   0.499   5.555   4.983
11830TIP3    H235434   0.410   5.505   5.095
11831TIP3   OH235435   0.062   4.609   4.324
11831TIP3    H135436  -0.029   4.581   4.333
11831TIP3    H235437   0.059   4.704   4.335
11832TIP3   OH235438   8.488   5.606   5.468
11832TIP3    H135439   8.527   5.571   5.548
11832TIP3    H235440   8.466   5.697   5.490
11833TIP3   OH235441   0.145   4.869   4.410
11833TIP3    H135442   0.228   4.911   4.432
11833TIP3    H235443   0.096   4.936   4.362
11834TIP3   OH235444   7.789   5.323   5.137
11834TIP3    H135445   7.828   5.294   5.054
11834TIP3    H235446   7.828   5.267   5.203
11835TIP3   OH235447   8.241   5.451   4.291
11835TIP3    H135448   8.195   5.535   4.291
11835TIP3    H235449   8.187   5.394   4.346
11836TIP3   OH235450   7.665   5.244   5.754
11836TIP3    H135451   7.691   5.229   5.845
11836TIP3    H235452   7.600   5.175   5.736
11837TIP3   OH235453   8.400   5.364   5.721
11837TIP3    H135454   8.352   5.291   5.681
11837TIP3    H235455   8.491   5.335   5.724
11838TIP3   OH235456   0.156   5.867   5.386
11838TIP3    H135457   0.065   5.886   5.362
11838TIP3    H235458   0.168   5.910   5.471
11839TIP3   OH235459   0.258   5.778   4.175
11839TIP3    H135460   0.244   5.717   4.247
11839TIP3    H235461   0.279   5.722   4.100
11840TIP3   OH235462   0.253   5.403   5.002
11840TIP3    H135463   0.161   5.385   5.023
11840TIP3    H235464   0.289   5.318   4.978
11841TIP3   OH235465   7.888   5.628   4.761
11841TIP3    H135466   7.887   5.708   4.708
11841TIP3    H235467   7.795   5.609   4.777
11842TIP3   OH235468   7.452   4.933   4.471
11842TIP3    H135469   7.499   5.014   4.490
11842TIP3    H235470   7.377   4.934   4.529
11843TIP3   OH235471   8.024   5.393   4.709
11843TIP3    H135472   7.990   5.481   4.724
11843TIP3    H235473   7.990   5.341   4.781
11844TIP3   OH235474   8.163   5.970   5.233
11844TIP3    H135475   8.202   6.037   5.176
11844TIP3    H235476   8.237   5.936   5.283
11845TIP3   OH235477   7.806   5.868   4.617
11845TIP3    H135478   7.722   5.873   4.662
11845TIP3    H235479   7.839   5.958   4.619
11846TIP3   OH235480   0.043   5.603   5.201
11846TIP3    H135481   0.023   5.602   5.294
11846TIP3    H235482   0.134   5.573   5.195
11847TIP3   OH235483   8.505   5.499   4.087
11847TIP3    H135484   8.561   5.471   4.159
11847TIP3    H235485   8.416   5.476   4.116
11848TIP3   OH235486   7.873   4.747   5.757
11848TIP3    H135487   7.778   4.753   5.763
11848TIP3    H235488   7.899   4.692   5.831
11849TIP3   OH235489   0.186   5.419   4.285
11849TIP3    H135490   0.170   5.351   4.352
11849TIP3    H235491   0.229   5.490   4.333
11850TIP3   OH235492   7.597   5.831   5.393
11850TIP3    H135493   7.647   5.757   5.427
11850TIP3    H235494   7.622   5.905   5.448
11851TIP3   OH235495   7.886   5.476   4.076
11851TIP3    H135496   7.898   5.386   4.045
11851TIP3    H235497   7.865   5.467   4.169
11852TIP3   OH235498   7.830   5.485   4.348
11852TIP3    H135499   7.901   5.456   4.406
11852TIP3    H235500   7.832   5.580   4.353
11853TIP3   OH235501   7.563   5.178   4.551
11853TIP3    H135502   7.498   5.219   4.609
11853TIP3    H235503   7.579   5.243   4.483
11854TIP3   OH235504   0.225   4.822   5.442
11854TIP3    H135505   0.295   4.859   5.496
11854TIP3    H235506   0.197   4.744   5.489
11855TIP3   OH235507   0.079   4.582   4.616
11855TIP3    H135508   0.073   4.585   4.521
11855TIP3    H235509   0.147   4.646   4.638
11856TIP3   OH235510   8.097   5.680   4.296
11856TIP3    H135511   8.012   5.704   4.332
11856TIP3    H235512   8.115   5.747   4.230
11857TIP3   OH235513   8.281   4.747   4.710
11857TIP3    H135514   8.346   4.815   4.693
11857TIP3    H235515   8.283   4.735   4.805
11858TIP3   OH235516   0.053   5.055   5.511
11858TIP3    H135517   0.073   5.111   5.586
11858TIP3    H235518   0.112   4.980   5.521
11859TIP3   OH235519   8.424   4.460   4.808
11859TIP3    H135520   8.450   4.505   4.888
11859TIP3    H235521   8.476   4.502   4.739
11860TIP3   OH235522   7.842   5.758   4.364
11860TIP3    H135523   7.814   5.825   4.301
11860TIP3    H235524   7.827   5.798   4.450
11861TIP3   OH235525   7.944   4.470   4.601
11861TIP3    H135526   7.935   4.558   4.639
11861TIP3    H235527   8.038   4.451   4.607
11862TIP3   OH235528   0.341   5.147   4.923
11862TIP3    H135529   0.263   5.104   4.889
11862TIP3    H235530   0.348   5.116   5.014
11863TIP3   OH235531   7.563   5.382   4.353
11863TIP3    H135532   7.629   5.451   4.365
11863TIP3    H235533   7.601   5.324   4.288
11864TIP3   OH235534   7.502   4.662   4.487
11864TIP3    H135535   7.504   4.757   4.486
11864TIP3    H235536   7.419   4.639   4.446
11865TIP3   OH235537   0.324   6.117   4.833
11865TIP3    H135538   0.274   6.164   4.766
11865TIP3    H235539   0.414   6.119   4.802
11866TIP3   OH235540   7.896   4.375   5.360
11866TIP3    H135541   7.861   4.348   5.275
11866TIP3    H235542   7.881   4.300   5.417
11867TIP3   OH235543   7.426   5.601   4.739
11867TIP3    H135544   7.364   5.629   4.806
11867TIP3    H235545   7.395   5.642   4.659
11868TIP3   OH235546   7.570   6.127   5.800
11868TIP3    H135547   7.650   6.129   5.852
11868TIP3    H235548   7.547   6.034   5.796
11869TIP3   OH235549   8.032   6.130   5.839
11869TIP3    H135550   8.120   6.161   5.819
11869TIP3    H235551   8.020   6.055   5.781
11870TIP3   OH235552   8.049   5.681   3.988
11870TIP3    H135553   7.997   5.608   4.022
11870TIP3    H235554   8.123   5.639   3.943
11871TIP3   OH235555  -0.019   5.724   3.896
11871TIP3    H135556   0.023   5.661   3.954
11871TIP3    H235557   0.031   5.720   3.815
11872TIP3   OH235558   7.715   5.541   6.009
11872TIP3    H135559   7.734   5.448   6.018
11872TIP3    H235560   7.630   5.544   5.965
11873TIP3   OH235561   7.697   5.194   4.208
11873TIP3    H135562   7.750   5.165   4.282
11873TIP3    H235563   7.759   5.201   4.135
11874TIP3   OH235564   8.320   5.617   5.764
11874TIP3    H135565   8.283   5.606   5.676
11874TIP3    H235566   8.361   5.532   5.782
11875TIP3   OH235567   8.209   5.394   4.020
11875TIP3    H135568   8.207   5.408   4.114
11875TIP3    H235569   8.209   5.299   4.010
11876TIP3   OH235570   0.297   5.639   5.341
11876TIP3    H135571   0.381   5.680   5.321
11876TIP3    H235572   0.239   5.713   5.359
11877TIP3   OH235573   7.843   5.276   5.988
11877TIP3    H135574   7.930   5.251   5.956
11877TIP3    H235575   7.857   5.302   6.079
11878TIP3   OH235576   7.901   5.102   4.429
11878TIP3    H135577   7.873   5.065   4.513
11878TIP3    H235578   7.937   5.027   4.381
11879TIP3   OH235579   8.164   5.155   5.647
11879TIP3    H135580   8.099   5.224   5.662
11879TIP3    H235581   8.215   5.186   5.572
11880TIP3   OH235582   8.005   4.897   4.267
11880TIP3    H135583   7.976   4.903   4.176
11880TIP3    H235584   8.101   4.902   4.261
11881TIP3   OH235585   0.160   5.536   5.763
11881TIP3    H135586   0.242   5.582   5.746
11881TIP3    H235587   0.170   5.499   5.850
11882TIP3   OH235588   8.297   4.954   5.779
11882TIP3    H135589   8.297   4.876   5.724
11882TIP3    H235590   8.253   5.021   5.727
11883TIP3   OH235591   8.297   4.740   5.585
11883TIP3    H135592   8.324   4.785   5.505
11883TIP3    H235593   8.204   4.721   5.571
11884TIP3   OH235594   8.317   5.261   5.449
11884TIP3    H135595   8.406   5.283   5.423
11884TIP3    H235596   8.264   5.333   5.414
11885TIP3   OH235597   0.411   5.253   5.757
11885TIP3    H135598   0.434   5.174   5.806
11885TIP3    H235599   0.440   5.325   5.812
11886TIP3   OH235600   0.396   5.486   5.541
11886TIP3    H135601   0.343   5.544   5.486
11886TIP3    H235602   0.486   5.506   5.518
11887TIP3   OH235603   8.175   5.051   6.022
11887TIP3    H135604   8.104   4.987   6.028
11887TIP3    H235605   8.207   5.043   5.932
11888TIP3   OH235606   8.416   4.504   5.662
11888TIP3    H135607   8.369   4.584   5.639
11888TIP3    H235608   8.350   4.435   5.651
11889TIP3   OH235609   0.060   4.997   5.872
11889TIP3    H135610   0.041   5.034   5.959
11889TIP3    H235611  -0.026   4.973   5.837
11890TIP3   OH235612   0.294   4.942   5.720
11890TIP3    H135613   0.216   4.956   5.774
11890TIP3    H235614   0.362   4.917   5.782
11891TIP3   OH235615   0.494   4.881   5.897
11891TIP3    H135616   0.539   4.812   5.946
11891TIP3    H235617   0.472   4.947   5.962
11892TIP3   OH235618   8.007   4.836   6.070
11892TIP3    H135619   8.016   4.748   6.034
11892TIP3    H235620   8.044   4.831   6.158
11893TIP3   OH235621   0.021   4.510   5.914
11893TIP3    H135622   0.080   4.434   5.913
11893TIP3    H235623  -0.020   4.510   5.828
11894TIP3   OH235624   0.078   4.723   6.080
11894TIP3    H135625   0.059   4.659   6.012
11894TIP3    H235626   0.010   4.789   6.070
11895TIP3   OH235627   7.814   5.960   4.175
11895TIP3    H135628   7.908   5.950   4.159
11895TIP3    H235629   7.782   6.009   4.099
11896TIP3   OH235630   7.293   5.340   4.388
11896TIP3    H135631   7.385   5.362   4.376
11896TIP3    H235632   7.284   5.253   4.349
11897TIP3   OH235633   7.206   5.949   4.808
11897TIP3    H135634   7.140   5.892   4.770
11897TIP3    H235635   7.252   5.893   4.872
11898TIP3   OH235636   7.342   5.799   4.996
11898TIP3    H135637   7.329   5.727   5.058
11898TIP3    H235638   7.393   5.863   5.045
11899TIP3   OH235639   0.494   5.960   5.084
11899TIP3    H135640   0.437   6.003   5.147
11899TIP3    H235641   0.434   5.916   5.023
11900TIP3   OH235642   0.372   5.088   4.616
11900TIP3    H135643   0.458   5.046   4.603
11900TIP3    H235644   0.385   5.147   4.690
11901TIP3   OH235645   7.529   5.217   5.357
11901TIP3    H135646   7.524   5.181   5.268
11901TIP3    H235647   7.623   5.215   5.378
11902TIP3   OH235648   7.743   4.894   6.043
11902TIP3    H135649   7.838   4.892   6.040
11902TIP3    H235650   7.718   4.811   6.082
11903TIP3   OH235651   7.714   4.585   5.344
11903TIP3    H135652   7.773   4.514   5.369
11903TIP3    H235653   7.765   4.664   5.357
11904TIP3   OH235654   7.530   4.850   5.452
11904TIP3    H135655   7.564   4.857   5.363
11904TIP3    H235656   7.528   4.940   5.484
11905TIP3   OH235657   7.492   4.358   4.936
11905TIP3    H135658   7.403   4.360   4.972
11905TIP3    H235659   7.489   4.420   4.863
11906TIP3   OH235660   0.154   6.071   4.451
11906TIP3    H135661   0.199   6.060   4.368
11906TIP3    H235662   0.204   6.138   4.497
11907TIP3   OH235663   7.715   4.435   5.757
11907TIP3    H135664   7.666   4.442   5.839
11907TIP3    H235665   7.661   4.482   5.693
11908TIP3   OH235666   7.753   5.867   5.830
11908TIP3    H135667   7.661   5.843   5.814
11908TIP3    H235668   7.762   5.865   5.925
11909TIP3   OH235669   7.934   5.912   5.381
11909TIP3    H135670   7.884   5.985   5.344
11909TIP3    H235671   8.020   5.919   5.338
11910TIP3   OH235672   7.606   6.167   5.406
11910TIP3    H135673   7.517   6.194   5.382
11910TIP3    H235674   7.623   6.210   5.489
11911TIP3   OH235675   7.844   6.146   5.265
11911TIP3    H135676   7.759   6.155   5.309
11911TIP3    H235677   7.827   6.176   5.176
11912TIP3   OH235678   8.259   6.168   5.055
11912TIP3    H135679   8.191   6.185   4.989
11912TIP3    H235680   8.278   6.253   5.093
11913TIP3   OH235681   0.020   6.094   5.112
11913TIP3    H135682  -0.069   6.120   5.089
11913TIP3    H235683   0.075   6.167   5.081
11914TIP3   OH235684   0.162   6.299   5.001
11914TIP3    H135685   0.199   6.386   5.012
11914TIP3    H235686   0.233   6.247   4.963
11915TIP3   OH235687   7.522   5.955   5.151
11915TIP3    H135688   7.543   5.929   5.240
11915TIP3    H235689   7.590   5.915   5.097
11916TIP3   OH235690   7.716   5.829   5.009
11916TIP3    H135691   7.727   5.746   5.056
11916TIP3    H235692   7.805   5.865   5.006
11917TIP3   OH235693   7.984   5.920   5.015
11917TIP3    H135694   8.010   5.829   5.002
11917TIP3    H235695   8.028   5.947   5.096
11918TIP3   OH235696   0.010   4.546   5.056
11918TIP3    H135697  -0.009   4.496   5.136
11918TIP3    H235698   0.105   4.539   5.045
11919TIP3   OH235699   7.802   4.284   5.111
11919TIP3    H135700   7.711   4.254   5.114
11919TIP3    H235701   7.854   4.203   5.108
11920TIP3   OH235702   7.591   4.160   4.762
11920TIP3    H135703   7.620   4.215   4.690
11920TIP3    H235704   7.561   4.221   4.830
11921TIP3   OH235705   8.250   4.318   4.994
11921TIP3    H135706   8.302   4.366   4.929
11921TIP3    H235707   8.272   4.359   5.078
11922TIP3   OH235708   0.259   4.447   4.969
11922TIP3    H135709   0.275   4.417   4.879
11922TIP3    H235710   0.261   4.366   5.021
11923TIP3   OH235711   7.305   5.733   4.537
11923TIP3    H135712   7.221   5.697   4.506
11923TIP3    H235713   7.299   5.826   4.518
11924TIP3   OH235714   7.711   4.317   4.524
11924TIP3    H135715   7.756   4.254   4.467
11924TIP3    H235716   7.781   4.371   4.560
11925TIP3   OH235717   8.221   4.496   4.622
11925TIP3    H135718   8.277   4.448   4.683
11925TIP3    H235719   8.236   4.588   4.644
11926TIP3   OH235720   8.081   5.915   4.121
11926TIP3    H135721   8.167   5.940   4.089
11926TIP3    H235722   8.055   5.841   4.066
11927TIP3   OH235723   0.287   6.042   4.217
11927TIP3    H135724   0.287   5.947   4.207
11927TIP3    H235725   0.260   6.075   4.131
11928TIP3   OH235726   8.012   4.560   6.004
11928TIP3    H135727   7.975   4.493   6.061
11928TIP3    H235728   8.104   4.566   6.030
11929TIP3   OH235729   8.259   4.564   6.124
11929TIP3    H135730   8.346   4.549   6.086
11929TIP3    H235731   8.248   4.494   6.188
11930TIP3   OH235732   7.384   5.752   4.179
11930TIP3    H135733   7.385   5.772   4.272
11930TIP3    H235734   7.469   5.710   4.163
11931TIP3   OH235735   0.953   6.084   6.363
11931TIP3    H135736   0.937   6.178   6.374
11931TIP3    H235737   0.874   6.051   6.320
11932TIP3   OH235738   0.961   6.068   6.746
11932TIP3    H135739   0.990   6.049   6.835
11932TIP3    H235740   0.912   5.990   6.720
11933TIP3   OH235741   1.175   6.403   6.444
11933TIP3    H135742   1.176   6.327   6.502
11933TIP3    H235743   1.216   6.472   6.495
11934TIP3   OH235744   0.894   6.836   6.424
11934TIP3    H135745   0.960   6.785   6.470
11934TIP3    H235746   0.820   6.841   6.485
11935TIP3   OH235747   0.777   6.281   6.800
11935TIP3    H135748   0.814   6.204   6.757
11935TIP3    H235749   0.854   6.334   6.823
11936TIP3   OH235750   1.760   5.632   6.799
11936TIP3    H135751   1.788   5.712   6.844
11936TIP3    H235752   1.782   5.647   6.707
11937TIP3   OH235753   1.157   5.809   6.833
11937TIP3    H135754   1.199   5.726   6.855
11937TIP3    H235755   1.126   5.796   6.743
11938TIP3   OH235756   1.194   5.564   6.420
11938TIP3    H135757   1.261   5.548   6.486
11938TIP3    H235758   1.243   5.597   6.345
11939TIP3   OH235759   7.498   1.834   0.029
11939TIP3    H135760   7.414   1.876   0.010
11939TIP3    H235761   7.516   1.856   0.120
11940TIP3   OH235762   0.860   6.336   6.199
11940TIP3    H135763   0.813   6.279   6.137
11940TIP3    H235764   0.793   6.361   6.263
11941TIP3   OH235765   1.397   5.569   6.597
11941TIP3    H135766   1.384   5.517   6.677
11941TIP3    H235767   1.449   5.644   6.625
11942TIP3   OH235768   1.256   6.630   6.597
11942TIP3    H135769   1.170   6.621   6.639
11942TIP3    H235770   1.256   6.718   6.560
11943TIP3   OH235771   1.553   5.532   6.965
11943TIP3    H135772   1.465   5.557   6.934
11943TIP3    H235773   1.612   5.562   6.896
11944TIP3   OH235774   6.519   1.152  -0.003
11944TIP3    H135775   6.514   1.058   0.015
11944TIP3    H235776   6.473   1.193   0.071
11945TIP3   OH235777   1.012   6.600   6.194
11945TIP3    H135778   1.026   6.583   6.287
11945TIP3    H235779   1.031   6.693   6.183
11946TIP3   OH235780   1.484   6.540   6.945
11946TIP3    H135781   1.473   6.463   6.889
11946TIP3    H235782   1.469   6.615   6.887
11947TIP3   OH235783   0.765   5.973   6.195
11947TIP3    H135784   0.695   5.915   6.224
11947TIP3    H235785   0.800   5.932   6.116
11948TIP3   OH235786   0.755   5.726   5.918
11948TIP3    H135787   0.826   5.777   5.958
11948TIP3    H235788   0.800   5.658   5.868
11949TIP3   OH235789   1.680   6.183   6.790
11949TIP3    H135790   1.597   6.231   6.798
11949TIP3    H235791   1.711   6.203   6.702
11950TIP3   OH235792   1.130   6.023   6.171
11950TIP3    H135793   1.073   6.041   6.246
11950TIP3    H235794   1.212   5.993   6.209
11951TIP3   OH235795   7.025   2.050   0.150
11951TIP3    H135796   7.028   2.129   0.205
11951TIP3    H235797   6.942   2.056   0.103
11952TIP3   OH235798   1.014   6.625   6.710
11952TIP3    H135799   0.990   6.708   6.752
11952TIP3    H235800   1.002   6.560   6.779
11953TIP3   OH235801   0.967   5.880   6.002
11953TIP3    H135802   1.022   5.936   6.056
11953TIP3    H235803   0.991   5.901   5.912
11954TIP3   OH235804   1.479   5.118   6.050
11954TIP3    H135805   1.399   5.134   6.101
11954TIP3    H235806   1.493   5.198   6.001
11955TIP3   OH235807   1.283   6.491   5.627
11955TIP3    H135808   1.287   6.583   5.598
11955TIP3    H235809   1.369   6.456   5.606
11956TIP3   OH235810   7.393   2.878   0.054
11956TIP3    H135811   7.394   2.783   0.069
11956TIP3    H235812   7.313   2.907   0.097
11957TIP3   OH235813   0.795   6.698   5.715
11957TIP3    H135814   0.847   6.628   5.675
11957TIP3    H235815   0.854   6.737   5.780
11958TIP3   OH235816   7.279   2.009   0.328
11958TIP3    H135817   7.197   2.023   0.281
11958TIP3    H235818   7.297   1.916   0.318
11959TIP3   OH235819   6.818   1.357   0.332
11959TIP3    H135820   6.887   1.331   0.393
11959TIP3    H235821   6.736   1.338   0.378
11960TIP3   OH235822   7.045   1.787   0.250
11960TIP3    H135823   6.999   1.781   0.334
11960TIP3    H235824   7.023   1.874   0.216
11961TIP3   OH235825   1.042   5.929   5.747
11961TIP3    H135826   1.002   5.902   5.664
11961TIP3    H235827   1.128   5.963   5.721
11962TIP3   OH235828   0.742   5.304   6.024
11962TIP3    H135829   0.732   5.308   6.120
11962TIP3    H235830   0.715   5.216   6.001
11963TIP3   OH235831   0.921   5.745   6.341
11963TIP3    H135832   0.862   5.810   6.303
11963TIP3    H235833   0.968   5.710   6.265
11964TIP3   OH235834   6.780   1.994   0.471
11964TIP3    H135835   6.751   1.927   0.533
11964TIP3    H235836   6.872   2.009   0.493
11965TIP3   OH235837   1.070   5.760   6.574
11965TIP3    H135838   1.010   5.792   6.506
11965TIP3    H235839   1.109   5.682   6.536
11966TIP3   OH235840   6.744   1.999   0.058
11966TIP3    H135841   6.782   1.935  -0.002
11966TIP3    H235842   6.718   1.948   0.135
11967TIP3   OH235843   0.763   5.469   6.660
11967TIP3    H135844   0.673   5.490   6.686
11967TIP3    H235845   0.813   5.475   6.741
11968TIP3   OH235846   1.240   5.547   6.877
11968TIP3    H135847   1.210   5.562   6.967
11968TIP3    H235848   1.177   5.485   6.841
11969TIP3   OH235849   7.087   3.223   0.112
11969TIP3    H135850   7.069   3.240   0.019
11969TIP3    H235851   7.108   3.309   0.148
11970TIP3   OH235852   0.848   5.793   6.769
11970TIP3    H135853   0.917   5.756   6.713
11970TIP3    H235854   0.863   5.753   6.854
11971TIP3   OH235855   6.503   1.679   0.117
11971TIP3    H135856   6.436   1.748   0.110
11971TIP3    H235857   6.575   1.721   0.163
11972TIP3   OH235858   1.446   6.325   6.778
11972TIP3    H135859   1.472   6.375   6.700
11972TIP3    H235860   1.364   6.283   6.753
11973TIP3   OH235861   1.000   5.403   6.014
11973TIP3    H135862   0.906   5.385   6.021
11973TIP3    H235863   1.010   5.493   6.045
11974TIP3   OH235864   6.603   2.406   0.208
11974TIP3    H135865   6.636   2.400   0.298
11974TIP3    H235866   6.550   2.486   0.208
11975TIP3   OH235867   1.074   5.649   6.121
11975TIP3    H135868   1.168   5.650   6.138
11975TIP3    H235869   1.059   5.727   6.068
11976TIP3   OH235870   0.675   6.249   5.998
11976TIP3    H135871   0.596   6.303   5.995
11976TIP3    H235872   0.645   6.165   6.033
11977TIP3   OH235873   6.561   2.110   0.590
11977TIP3    H135874   6.497   2.067   0.533
11977TIP3    H235875   6.646   2.094   0.548
11978TIP3   OH235876   6.771   2.659   0.102
11978TIP3    H135877   6.676   2.658   0.114
11978TIP3    H235878   6.804   2.709   0.177
11979TIP3   OH235879   1.513   5.741   5.950
11979TIP3    H135880   1.452   5.694   5.894
11979TIP3    H235881   1.514   5.830   5.915
11980TIP3   OH235882   7.401   2.589   0.093
11980TIP3    H135883   7.305   2.586   0.089
11980TIP3    H235884   7.429   2.561   0.006
11981TIP3   OH235885   1.160   6.508   5.906
11981TIP3    H135886   1.234   6.448   5.917
11981TIP3    H235887   1.155   6.523   5.812
11982TIP3   OH235888   1.216   6.185   6.691
11982TIP3    H135889   1.124   6.162   6.708
11982TIP3    H235890   1.252   6.107   6.650
11983TIP3   OH235891   1.013   6.391   6.885
11983TIP3    H135892   0.994   6.401   6.979
11983TIP3    H235893   1.098   6.348   6.882
11984TIP3   OH235894   0.971   6.291   5.762
11984TIP3    H135895   1.015   6.258   5.841
11984TIP3    H235896   0.884   6.251   5.765
11985TIP3   OH235897   1.263   6.903   6.917
11985TIP3    H135898   1.181   6.856   6.934
11985TIP3    H235899   1.236   6.984   6.873
11986TIP3   OH235900   1.310   6.764   5.582
11986TIP3    H135901   1.352   6.828   5.524
11986TIP3    H235902   1.231   6.809   5.613
11987TIP3   OH235903   1.136   6.241   6.001
11987TIP3    H135904   1.118   6.169   6.061
11987TIP3    H235905   1.226   6.226   5.972
11988TIP3   OH235906   6.835   1.596   0.197
11988TIP3    H135907   6.917   1.633   0.229
11988TIP3    H235908   6.825   1.515   0.246
11989TIP3   OH235909   1.058   5.347   6.300
11989TIP3    H135910   1.035   5.370   6.210
11989TIP3    H235911   1.093   5.429   6.336
11990TIP3   OH235912   0.735   5.548   6.399
11990TIP3    H135913   0.806   5.611   6.388
11990TIP3    H235914   0.734   5.528   6.492
11991TIP3   OH235915   6.686   1.835   0.263
11991TIP3    H135916   6.710   1.890   0.338
11991TIP3    H235917   6.740   1.757   0.273
11992TIP3   OH235918   0.892   5.257   6.517
11992TIP3    H135919   0.866   5.338   6.561
11992TIP3    H235920   0.942   5.287   6.440
11993TIP3   OH235921   7.310   1.742   0.244
11993TIP3    H135922   7.215   1.744   0.255
11993TIP3    H235923   7.324   1.694   0.163
11994TIP3   OH235924   1.299   5.941   6.574
11994TIP3    H135925   1.222   5.886   6.587
11994TIP3    H235926   1.369   5.897   6.622
11995TIP3   OH235927   1.271   6.894   6.518
11995TIP3    H135928   1.228   6.942   6.447
11995TIP3    H235929   1.364   6.914   6.508
11996TIP3   OH235930   6.833   2.791   0.330
11996TIP3    H135931   6.820   2.730   0.403
11996TIP3    H235932   6.907   2.845   0.358
11997TIP3   OH235933   0.949   6.515   5.591
11997TIP3    H135934   0.977   6.437   5.639
11997TIP3    H235935   0.993   6.507   5.506
11998TIP3   OH235936   0.691   6.187   5.711
11998TIP3    H135937   0.653   6.206   5.797
11998TIP3    H235938   0.681   6.093   5.700
11999TIP3   OH235939   6.932   2.429   0.139
11999TIP3    H135940   7.009   2.469   0.100
11999TIP3    H235941   6.863   2.495   0.129
12000TIP3   OH235942   0.492   5.704   6.005
12000TIP3    H135943   0.465   5.698   5.913
12000TIP3    H235944   0.588   5.703   6.003
12001TIP3   OH235945   6.801   2.349   0.543
12001TIP3    H135946   6.881   2.331   0.494
12001TIP3    H235947   6.798   2.281   0.610
12002TIP3   OH235948   1.273   6.016   5.625
12002TIP3    H135949   1.257   5.967   5.544
12002TIP3    H235950   1.245   6.105   5.605
12003TIP3   OH235951   6.377   1.475   0.259
12003TIP3    H135952   6.429   1.537   0.208
12003TIP3    H235953   6.340   1.528   0.330
12004TIP3   OH235954   6.497   2.120   0.164
12004TIP3    H135955   6.587   2.098   0.138
12004TIP3    H235956   6.482   2.206   0.125
12005TIP3   OH235957   7.041   2.014   0.582
12005TIP3    H135958   7.090   1.934   0.603
12005TIP3    H235959   7.108   2.075   0.552
12006TIP3   OH235960   7.066   2.275   0.315
12006TIP3    H135961   7.007   2.330   0.264
12006TIP3    H235962   7.153   2.296   0.282
12007TIP3   OH235963   6.555   1.287   0.395
12007TIP3    H135964   6.498   1.359   0.367
12007TIP3    H235965   6.502   1.208   0.386
12008TIP3   OH235966   6.684   1.792   0.632
12008TIP3    H135967   6.717   1.790   0.722
12008TIP3    H235968   6.599   1.747   0.637
12009TIP3   OH235969   6.917   1.730   0.480
12009TIP3    H135970   6.843   1.732   0.541
12009TIP3    H235971   6.992   1.704   0.535
12010TIP3   OH235972   7.147   1.681   0.632
12010TIP3    H135973   7.158   1.587   0.646
12010TIP3    H235974   7.139   1.718   0.720
12011TIP3   OH235975   6.653   1.301   0.653
12011TIP3    H135976   6.713   1.227   0.658
12011TIP3    H235977   6.610   1.293   0.568
12012TIP3   OH235978   6.722   1.515   0.804
12012TIP3    H135979   6.707   1.437   0.750
12012TIP3    H235980   6.637   1.557   0.810
12013TIP3   OH235981   1.524   6.987   6.483
12013TIP3    H135982   1.543   7.015   6.573
12013TIP3    H235983   1.583   7.039   6.429
12014TIP3   OH235984   1.556   7.003   6.761
12014TIP3    H135985   1.510   6.919   6.759
12014TIP3    H235986   1.627   6.990   6.824
12015TIP3   OH235987   7.267   2.678   0.391
12015TIP3    H135988   7.191   2.694   0.446
12015TIP3    H235989   7.312   2.763   0.387
12016TIP3   OH235990   1.413   6.208   5.959
12016TIP3    H135991   1.482   6.265   5.925
12016TIP3    H235992   1.453   6.165   6.034
12017TIP3   OH235993   1.538   6.071   6.161
12017TIP3    H135994   1.476   6.026   6.218
12017TIP3    H235995   1.605   6.105   6.221
12018TIP3   OH235996   1.596   6.461   6.589
12018TIP3    H135997   1.650   6.396   6.545
12018TIP3    H235998   1.592   6.535   6.528
12019TIP3   OH235999   1.434   6.751   6.778
12019TIP3    H136000   1.369   6.800   6.829
12019TIP3    H236001   1.382   6.707   6.710
12020TIP3   OH236002   1.476   5.980   5.807
12020TIP3    H136003   1.407   5.978   5.741
12020TIP3    H236004   1.451   6.054   5.864
12021TIP3   OH236005   1.344   5.648   5.759
12021TIP3    H136006   1.306   5.683   5.678
12021TIP3    H236007   1.326   5.555   5.756
12022TIP3   OH236008   1.352   5.924   6.305
12022TIP3    H136009   1.361   5.829   6.298
12022TIP3    H236010   1.339   5.939   6.399
12023TIP3   OH236011   7.313   2.343   0.222
12023TIP3    H136012   7.382   2.278   0.213
12023TIP3    H236013   7.338   2.414   0.163
12024TIP3   OH236014   7.495   2.143   0.234
12024TIP3    H136015   7.419   2.098   0.273
12024TIP3    H236016   7.568   2.083   0.249
12025TIP3   OH236017   1.292   5.383   5.746
12025TIP3    H136018   1.366   5.351   5.799
12025TIP3    H236019   1.220   5.325   5.768
12026TIP3   OH236020   1.352   5.639   6.196
12026TIP3    H136021   1.390   5.553   6.215
12026TIP3    H236022   1.408   5.675   6.127
12027TIP3   OH236023   1.513   5.815   6.697
12027TIP3    H136024   1.595   5.837   6.653
12027TIP3    H236025   1.523   5.849   6.786
12028TIP3   OH236026   1.581   5.961   6.926
12028TIP3    H136027   1.506   5.992   6.977
12028TIP3    H236028   1.614   6.040   6.883
12029TIP3   OH236029   7.700   1.546   0.541
12029TIP3    H136030   7.759   1.481   0.502
12029TIP3    H236031   7.671   1.599   0.467
12030TIP3   OH236032   1.459   5.390   6.240
12030TIP3    H136033   1.507   5.376   6.321
12030TIP3    H236034   1.398   5.316   6.235
12031TIP3   OH236035   7.565   1.681   0.346
12031TIP3    H136036   7.483   1.724   0.369
12031TIP3    H236037   7.540   1.608   0.290
12032TIP3   OH236038   1.539   5.325   5.871
12032TIP3    H136039   1.576   5.254   5.820
12032TIP3    H236040   1.605   5.394   5.868
12033TIP3   OH236041   1.100   6.849   6.135
12033TIP3    H136042   1.159   6.854   6.059
12033TIP3    H236043   1.133   6.916   6.195
12034TIP3   OH236044   6.718   3.068   0.057
12034TIP3    H136045   6.748   3.013   0.129
12034TIP3    H236046   6.695   3.152   0.097
12035TIP3   OH236047   7.468   1.440   0.227
12035TIP3    H136048   7.378   1.432   0.195
12035TIP3    H236049   7.504   1.352   0.218
12036TIP3   OH236050   0.963   6.898   6.782
12036TIP3    H136051   0.891   6.911   6.844
12036TIP3    H236052   1.013   6.979   6.788
12037TIP3   OH236053   1.216   7.094   6.713
12037TIP3    H136054   1.179   7.169   6.666
12037TIP3    H236055   1.222   7.025   6.647
12038TIP3   OH236056   1.020   5.367   6.800
12038TIP3    H136057   0.969   5.294   6.834
12038TIP3    H236058   1.082   5.326   6.739
12039TIP3   OH236059   1.527   5.251   6.690
12039TIP3    H136060   1.563   5.300   6.616
12039TIP3    H236061   1.433   5.265   6.684
12040TIP3   OH236062   1.627   5.349   6.453
12040TIP3    H136063   1.697   5.295   6.417
12040TIP3    H236064   1.657   5.439   6.441
12041TIP3   OH236065   0.719   5.104   6.689
12041TIP3    H136066   0.765   5.153   6.621
12041TIP3    H236067   0.760   5.133   6.771
12042TIP3   OH236068   1.246   5.252   6.666
12042TIP3    H136069   1.241   5.213   6.579
12042TIP3    H236070   1.234   5.178   6.726
12043TIP3   OH236071   1.275   5.178   6.232
12043TIP3    H136072   1.193   5.225   6.249
12043TIP3    H236073   1.263   5.093   6.274
12044TIP3   OH236074   0.719   5.293   6.290
12044TIP3    H136075   0.709   5.236   6.366
12044TIP3    H236076   0.705   5.381   6.324
12045TIP3   OH236077   1.251   6.822   5.901
12045TIP3    H136078   1.238   6.729   5.883
12045TIP3    H236079   1.211   6.866   5.826
12046TIP3   OH236080   7.208   1.410   0.661
12046TIP3    H136081   7.224   1.381   0.751
12046TIP3    H236082   7.293   1.405   0.618
12047TIP3   OH236083   7.144   2.958   0.142
12047TIP3    H136084   7.072   2.918   0.094
12047TIP3    H236085   7.130   3.052   0.134
12048TIP3   OH236086   2.737   6.336   5.882
12048TIP3    H136087   2.716   6.426   5.855
12048TIP3    H236088   2.676   6.282   5.832
12049TIP3   OH236089   2.042   6.232   6.606
12049TIP3    H136090   2.068   6.163   6.668
12049TIP3    H236091   2.114   6.294   6.608
12050TIP3   OH236092   2.982   6.657   5.917
12050TIP3    H136093   2.975   6.587   5.982
12050TIP3    H236094   3.019   6.731   5.966
12051TIP3   OH236095   2.014   6.644   6.327
12051TIP3    H136096   2.003   6.549   6.330
12051TIP3    H236097   2.108   6.657   6.323
12052TIP3   OH236098   1.718   5.850   6.111
12052TIP3    H136099   1.672   5.932   6.129
12052TIP3    H236100   1.651   5.793   6.073
12053TIP3   OH236101   1.778   6.133   6.289
12053TIP3    H136102   1.825   6.058   6.325
12053TIP3    H236103   1.837   6.168   6.222
12054TIP3   OH236104   2.641   7.106   5.942
12054TIP3    H136105   2.680   7.037   5.887
12054TIP3    H236106   2.630   7.065   6.028
12055TIP3   OH236107   2.536   6.575   6.289
12055TIP3    H136108   2.557   6.518   6.216
12055TIP3    H236109   2.621   6.608   6.319
12056TIP3   OH236110   3.558   5.888   6.283
12056TIP3    H136111   3.583   5.970   6.326
12056TIP3    H236112   3.581   5.902   6.191
12057TIP3   OH236113   2.293   5.727   6.281
12057TIP3    H136114   2.273   5.799   6.221
12057TIP3    H236115   2.247   5.651   6.245
12058TIP3   OH236116   2.988   5.813   5.901
12058TIP3    H136117   3.051   5.804   5.972
12058TIP3    H236118   3.037   5.856   5.830
12059TIP3   OH236119   1.928   5.928   6.392
12059TIP3    H136120   2.007   5.910   6.442
12059TIP3    H236121   1.936   5.874   6.314
12060TIP3   OH236122   2.359   6.123   6.183
12060TIP3    H136123   2.450   6.094   6.182
12060TIP3    H236124   2.309   6.046   6.155
12061TIP3   OH236125   3.630   6.093   6.464
12061TIP3    H136126   3.549   6.139   6.442
12061TIP3    H236127   3.660   6.134   6.545
12062TIP3   OH236128   2.286   5.712   6.721
12062TIP3    H136129   2.228   5.746   6.653
12062TIP3    H236130   2.238   5.726   6.803
12063TIP3   OH236131   2.625   6.550   5.740
12063TIP3    H136132   2.603   6.538   5.648
12063TIP3    H236133   2.588   6.636   5.762
12064TIP3   OH236134   2.390   6.489   6.513
12064TIP3    H136135   2.331   6.553   6.552
12064TIP3    H236136   2.435   6.538   6.443
12065TIP3   OH236137   3.189   5.827   6.085
12065TIP3    H136138   3.182   5.785   6.171
12065TIP3    H236139   3.243   5.904   6.100
12066TIP3   OH236140   2.162   5.826   6.502
12066TIP3    H136141   2.220   5.897   6.529
12066TIP3    H236142   2.209   5.783   6.429
12067TIP3   OH236143   2.220   6.684   6.612
12067TIP3    H136144   2.200   6.770   6.575
12067TIP3    H236145   2.145   6.663   6.668
12068TIP3   OH236146   1.612   6.374   5.848
12068TIP3    H136147   1.578   6.397   5.761
12068TIP3    H236148   1.646   6.456   5.883
12069TIP3   OH236149   3.049   6.884   6.087
12069TIP3    H136150   2.961   6.878   6.126
12069TIP3    H236151   3.050   6.968   6.042
12070TIP3   OH236152   3.350   5.781   6.447
12070TIP3    H136153   3.263   5.808   6.418
12070TIP3    H236154   3.410   5.816   6.382
12071TIP3   OH236155   2.637   5.424   6.437
12071TIP3    H136156   2.629   5.331   6.455
12071TIP3    H236157   2.563   5.464   6.482
12072TIP3   OH236158   2.755   6.933   5.757
12072TIP3    H136159   2.798   6.850   5.738
12072TIP3    H236160   2.814   7.000   5.721
12073TIP3   OH236161   2.888   6.715   5.666
12073TIP3    H136162   2.888   6.637   5.611
12073TIP3    H236163   2.927   6.686   5.748
12074TIP3   OH236164   3.279   6.803   6.435
12074TIP3    H136165   3.282   6.727   6.376
12074TIP3    H236166   3.267   6.877   6.376
12075TIP3   OH236167   2.582   6.204   5.694
12075TIP3    H136168   2.502   6.252   5.673
12075TIP3    H236169   2.625   6.193   5.609
12076TIP3   OH236170   2.536   5.978   5.406
12076TIP3    H136171   2.601   6.032   5.451
12076TIP3    H236172   2.587   5.915   5.356
12077TIP3   OH236173   3.478   6.433   6.278
12077TIP3    H136174   3.398   6.486   6.281
12077TIP3    H236175   3.514   6.449   6.190
12078TIP3   OH236176   2.918   6.276   5.669
12078TIP3    H136177   2.866   6.303   5.744
12078TIP3    H236178   2.999   6.242   5.706
12079TIP3   OH236179   3.161   6.314   6.585
12079TIP3    H136180   3.163   6.393   6.639
12079TIP3    H236181   3.079   6.320   6.536
12080TIP3   OH236182   2.150   6.271   6.078
12080TIP3    H136183   2.107   6.217   6.012
12080TIP3    H236184   2.225   6.220   6.106
12081TIP3   OH236185   2.279   6.688   6.224
12081TIP3    H136186   2.260   6.650   6.139
12081TIP3    H236187   2.366   6.655   6.246
12082TIP3   OH236188   2.293   6.243   6.434
12082TIP3    H136189   2.320   6.224   6.344
12082TIP3    H236190   2.331   6.329   6.454
12083TIP3   OH236191   2.812   6.880   6.215
12083TIP3    H136192   2.800   6.963   6.261
12083TIP3    H236193   2.795   6.814   6.282
12084TIP3   OH236194   2.425   6.801   6.756
12084TIP3    H136195   2.370   6.863   6.804
12084TIP3    H236196   2.363   6.747   6.707
12085TIP3   OH236197   2.758   6.138   5.486
12085TIP3    H136198   2.818   6.192   5.537
12085TIP3    H236199   2.782   6.155   5.395
12086TIP3   OH236200   2.180   6.357   6.859
12086TIP3    H136201   2.189   6.443   6.902
12086TIP3    H236202   2.088   6.334   6.872
12087TIP3   OH236203   2.507   6.811   5.768
12087TIP3    H136204   2.589   6.861   5.773
12087TIP3    H236205   2.447   6.869   5.721
12088TIP3   OH236206   2.220   6.967   6.844
12088TIP3    H136207   2.187   6.968   6.755
12088TIP3    H236208   2.144   6.945   6.898
12089TIP3   OH236209   3.275   5.374   5.536
12089TIP3    H136210   3.197   5.398   5.587
12089TIP3    H236211   3.294   5.452   5.484
12090TIP3   OH236212   2.017   6.116   5.884
12090TIP3    H136213   1.952   6.160   5.829
12090TIP3    H236214   1.984   6.027   5.895
12091TIP3   OH236215   3.080   6.741   5.088
12091TIP3    H136216   3.085   6.835   5.071
12091TIP3    H236217   3.169   6.709   5.073
12092TIP3   OH236218   1.801   6.497   6.790
12092TIP3    H136219   1.734   6.477   6.725
12092TIP3    H236220   1.838   6.412   6.814
12093TIP3   OH236221   1.656   6.694   6.420
12093TIP3    H136222   1.752   6.689   6.415
12093TIP3    H236223   1.639   6.770   6.476
12094TIP3   OH236224   3.515   7.143   6.481
12094TIP3    H136225   3.520   7.049   6.495
12094TIP3    H236226   3.435   7.170   6.525
12095TIP3   OH236227   2.621   6.931   6.614
12095TIP3    H136228   2.622   7.022   6.645
12095TIP3    H236229   2.554   6.888   6.666
12096TIP3   OH236230   2.384   7.053   5.568
12096TIP3    H136231   2.343   7.033   5.483
12096TIP3    H236232   2.354   7.142   5.588
12097TIP3   OH236233   1.824   6.905   5.954
12097TIP3    H136234   1.873   6.900   6.036
12097TIP3    H236235   1.767   6.828   5.955
12098TIP3   OH236236   2.588   6.956   5.206
12098TIP3    H136237   2.643   6.889   5.167
12098TIP3    H236238   2.623   6.967   5.294
12099TIP3   OH236239   2.637   7.007   5.478
12099TIP3    H136240   2.551   7.014   5.519
12099TIP3    H236241   2.692   6.966   5.545
12100TIP3   OH236242   3.408   6.267   6.757
12100TIP3    H136243   3.330   6.280   6.702
12100TIP3    H236244   3.428   6.174   6.749
12101TIP3   OH236245   2.006   6.680   6.776
12101TIP3    H136246   2.054   6.668   6.858
12101TIP3    H236247   1.931   6.620   6.783
12102TIP3   OH236248   2.400   5.508   6.566
12102TIP3    H136249   2.316   5.474   6.536
12102TIP3    H236250   2.378   5.586   6.616
12103TIP3   OH236251   2.939   5.621   6.758
12103TIP3    H136252   3.009   5.596   6.818
12103TIP3    H236253   2.858   5.601   6.805
12104TIP3   OH236254   3.171   6.047   6.674
12104TIP3    H136255   3.129   6.044   6.760
12104TIP3    H236256   3.160   6.138   6.646
12105TIP3   OH236257   2.836   6.180   5.230
12105TIP3    H136258   2.801   6.155   5.145
12105TIP3    H236259   2.922   6.218   5.211
12106TIP3   OH236260   2.546   5.552   5.536
12106TIP3    H136261   2.516   5.551   5.627
12106TIP3    H236262   2.511   5.472   5.499
12107TIP3   OH236263   2.337   6.021   6.584
12107TIP3    H136264   2.288   6.037   6.665
12107TIP3    H236265   2.323   6.100   6.532
12108TIP3   OH236266   2.216   5.908   6.094
12108TIP3    H136267   2.127   5.882   6.116
12108TIP3    H236268   2.232   5.869   6.008
12109TIP3   OH236269   2.704   5.991   5.823
12109TIP3    H136270   2.658   6.061   5.777
12109TIP3    H236271   2.767   5.957   5.759
12110TIP3   OH236272   2.887   6.268   6.909
12110TIP3    H136273   2.863   6.197   6.969
12110TIP3    H236274   2.979   6.287   6.930
12111TIP3   OH236275   2.156   6.047   6.792
12111TIP3    H136276   2.183   6.111   6.858
12111TIP3    H236277   2.143   5.966   6.841
12112TIP3   OH236278   2.204   5.528   5.503
12112TIP3    H136279   2.196   5.525   5.598
12112TIP3    H236280   2.128   5.579   5.474
12113TIP3   OH236281   1.750   5.573   6.370
12113TIP3    H136282   1.823   5.603   6.424
12113TIP3    H236283   1.791   5.537   6.292
12114TIP3   OH236284   1.715   5.553   5.889
12114TIP3    H136285   1.762   5.587   5.813
12114TIP3    H236286   1.654   5.623   5.913
12115TIP3   OH236287   2.899   6.245   6.478
12115TIP3    H136288   2.919   6.152   6.467
12115TIP3    H236289   2.854   6.250   6.562
12116TIP3   OH236290   2.559   5.768   6.175
12116TIP3    H136291   2.477   5.743   6.218
12116TIP3    H236292   2.626   5.716   6.219
12117TIP3   OH236293   1.982   5.785   6.163
12117TIP3    H136294   1.890   5.793   6.137
12117TIP3    H236295   2.005   5.695   6.143
12118TIP3   OH236296   2.247   5.782   5.855
12118TIP3    H136297   2.340   5.794   5.835
12118TIP3    H236298   2.202   5.804   5.773
12119TIP3   OH236299   3.055   5.800   6.364
12119TIP3    H136300   3.016   5.824   6.448
12119TIP3    H236301   2.990   5.744   6.322
12120TIP3   OH236302   2.095   5.817   5.628
12120TIP3    H136303   2.025   5.770   5.582
12120TIP3    H236304   2.149   5.854   5.558
12121TIP3   OH236305   3.213   7.496   6.579
12121TIP3    H136306   3.211   7.519   6.486
12121TIP3    H236307   3.291   7.540   6.613
12122TIP3   OH236308   7.835   2.597   0.061
12122TIP3    H136309   7.914   2.626   0.106
12122TIP3    H236310   7.768   2.596   0.130
12123TIP3   OH236311   2.712   6.036   6.241
12123TIP3    H136312   2.674   5.953   6.212
12123TIP3    H236313   2.693   6.039   6.335
12124TIP3   OH236314   2.150   5.541   6.138
12124TIP3    H136315   2.114   5.467   6.187
12124TIP3    H236316   2.197   5.502   6.065
12125TIP3   OH236317   2.610   5.983   6.521
12125TIP3    H136318   2.520   5.997   6.550
12125TIP3    H236319   2.663   6.023   6.590
12126TIP3   OH236320   2.341   6.344   5.642
12126TIP3    H136321   2.271   6.281   5.628
12126TIP3    H236322   2.326   6.378   5.730
12127TIP3   OH236323   3.254   6.593   6.261
12127TIP3    H136324   3.294   6.637   6.186
12127TIP3    H236325   3.161   6.587   6.239
12128TIP3   OH236326   2.801   5.655   5.510
12128TIP3    H136327   2.707   5.641   5.514
12128TIP3    H236328   2.813   5.748   5.528
12129TIP3   OH236329   2.733   6.662   6.640
12129TIP3    H136330   2.773   6.644   6.725
12129TIP3    H236331   2.702   6.752   6.647
12130TIP3   OH236332   2.874   5.908   5.609
12130TIP3    H136333   2.969   5.909   5.620
12130TIP3    H236334   2.856   5.982   5.551
12131TIP3   OH236335   2.037   6.368   6.315
12131TIP3    H136336   2.073   6.340   6.231
12131TIP3    H236337   2.074   6.307   6.379
12132TIP3   OH236338   2.488   6.495   5.463
12132TIP3    H136339   2.444   6.580   5.467
12132TIP3    H236340   2.437   6.439   5.522
12133TIP3   OH236341   7.585   2.278  -0.011
12133TIP3    H136342   7.604   2.267   0.082
12133TIP3    H236343   7.516   2.214  -0.028
12134TIP3   OH236344   2.646   6.402   6.948
12134TIP3    H136345   2.584   6.342   6.906
12134TIP3    H236346   2.732   6.370   6.922
12135TIP3   OH236347   2.898   6.917   6.540
12135TIP3    H136348   2.803   6.922   6.550
12135TIP3    H236349   2.932   6.971   6.611
12136TIP3   OH236350   3.300   5.989   5.440
12136TIP3    H136351   3.239   5.954   5.374
12136TIP3    H236352   3.315   6.079   5.413
12137TIP3   OH236353   3.529   6.853   6.521
12137TIP3    H136354   3.434   6.850   6.517
12137TIP3    H236355   3.557   6.824   6.434
12138TIP3   OH236356   3.010   6.814   5.348
12138TIP3    H136357   2.994   6.739   5.406
12138TIP3    H236358   3.029   6.774   5.263
12139TIP3   OH236359   2.138   6.673   5.940
12139TIP3    H136360   2.140   6.752   5.886
12139TIP3    H236361   2.045   6.655   5.954
12140TIP3   OH236362   1.701   5.977   5.648
12140TIP3    H136363   1.748   6.058   5.666
12140TIP3    H236364   1.625   5.979   5.706
12141TIP3   OH236365   2.273   6.436   5.888
12141TIP3    H136366   2.241   6.525   5.901
12141TIP3    H236367   2.233   6.386   5.959
12142TIP3   OH236368   2.411   7.014   6.408
12142TIP3    H136369   2.450   7.086   6.358
12142TIP3    H236370   2.483   6.979   6.460
12143TIP3   OH236371   2.054   6.912   5.794
12143TIP3    H136372   1.969   6.917   5.839
12143TIP3    H236373   2.087   7.002   5.794
12144TIP3   OH236374   2.795   6.636   6.380
12144TIP3    H136375   2.765   6.643   6.470
12144TIP3    H236376   2.890   6.621   6.387
12145TIP3   OH236377   2.772   6.543   5.257
12145TIP3    H136378   2.827   6.522   5.333
12145TIP3    H236379   2.685   6.514   5.283
12146TIP3   OH236380   3.038   7.182   6.416
12146TIP3    H136381   2.961   7.127   6.409
12146TIP3    H236382   3.028   7.247   6.346
12147TIP3   OH236383   3.102   7.016   5.069
12147TIP3    H136384   3.127   7.071   4.995
12147TIP3    H236385   3.028   7.060   5.109
12148TIP3   OH236386   7.792   1.785  -0.005
12148TIP3    H136387   7.697   1.790   0.006
12148TIP3    H236388   7.822   1.729   0.066
12149TIP3   OH236389   2.934   6.484   5.479
12149TIP3    H136390   2.922   6.411   5.540
12149TIP3    H236391   3.027   6.481   5.456
12150TIP3   OH236392   1.847   6.876   6.567
12150TIP3    H136393   1.900   6.807   6.606
12150TIP3    H236394   1.862   6.952   6.622
12151TIP3   OH236395   2.132   6.521   5.253
12151TIP3    H136396   2.149   6.432   5.223
12151TIP3    H236397   2.112   6.512   5.346
12152TIP3   OH236398   2.078   6.529   5.526
12152TIP3    H136399   2.155   6.500   5.576
12152TIP3    H236400   2.080   6.624   5.531
12153TIP3   OH236401   1.812   6.221   5.728
12153TIP3    H136402   1.747   6.264   5.785
12153TIP3    H236403   1.829   6.286   5.659
12154TIP3   OH236404   2.961   5.862   6.619
12154TIP3    H136405   3.043   5.900   6.650
12154TIP3    H236406   2.951   5.782   6.670
12155TIP3   OH236407   2.847   5.604   5.785
12155TIP3    H136408   2.835   5.626   5.693
12155TIP3    H236409   2.889   5.682   5.822
12156TIP3   OH236410   2.345   6.726   5.473
12156TIP3    H136411   2.259   6.750   5.508
12156TIP3    H236412   2.365   6.795   5.410
12157TIP3   OH236413   2.530   5.789   5.891
12157TIP3    H136414   2.593   5.855   5.863
12157TIP3    H236415   2.540   5.784   5.986
12158TIP3   OH236416   2.806   6.106   6.695
12158TIP3    H136417   2.828   6.158   6.772
12158TIP3    H236418   2.858   6.026   6.703
12159TIP3   OH236419   2.681   5.514   5.985
12159TIP3    H136420   2.699   5.578   6.054
12159TIP3    H236421   2.737   5.542   5.912
12160TIP3   OH236422   2.089   6.802   5.541
12160TIP3    H136423   2.062   6.869   5.478
12160TIP3    H236424   2.074   6.843   5.626
12161TIP3   OH236425   2.192   5.516   5.779
12161TIP3    H136426   2.185   5.604   5.816
12161TIP3    H236427   2.286   5.495   5.784
12162TIP3   OH236428   3.442   6.003   6.679
12162TIP3    H136429   3.347   5.996   6.679
12162TIP3    H236430   3.468   5.976   6.591
12163TIP3   OH236431   1.811   6.427   5.530
12163TIP3    H136432   1.878   6.495   5.542
12163TIP3    H236433   1.848   6.367   5.465
12164TIP3   OH236434   1.749   5.706   5.667
12164TIP3    H136435   1.752   5.801   5.664
12164TIP3    H236436   1.671   5.682   5.617
12165TIP3   OH236437   3.066   7.157   6.007
12165TIP3    H136438   3.019   7.204   5.938
12165TIP3    H236439   3.158   7.177   5.993
12166TIP3   OH236440   2.139   5.423   6.537
12166TIP3    H136441   2.109   5.391   6.452
12166TIP3    H236442   2.130   5.348   6.596
12167TIP3   OH236443   1.673   6.639   5.915
12167TIP3    H136444   1.618   6.677   5.985
12167TIP3    H236445   1.644   6.684   5.835
12168TIP3   OH236446   7.505   3.163   0.045
12168TIP3    H136447   7.590   3.167   0.088
12168TIP3    H236448   7.482   3.070   0.046
12169TIP3   OH236449   7.991   3.138   0.090
12169TIP3    H136450   8.082   3.112   0.102
12169TIP3    H236451   7.959   3.082   0.020
12170TIP3   OH236452   2.297   6.723   5.162
12170TIP3    H136453   2.243   6.654   5.200
12170TIP3    H236454   2.373   6.677   5.127
12171TIP3   OH236455   2.957   7.055   6.769
12171TIP3    H136456   2.948   6.987   6.836
12171TIP3    H236457   3.033   7.106   6.796
12172TIP3   OH236458   2.734   6.763   5.074
12172TIP3    H136459   2.777   6.702   5.133
12172TIP3    H236460   2.788   6.763   4.996
12173TIP3   OH236461   7.632   2.587   0.250
12173TIP3    H136462   7.649   2.493   0.258
12173TIP3    H236463   7.547   2.592   0.207
12174TIP3   OH236464   1.946   6.240   5.386
12174TIP3    H136465   1.999   6.209   5.460
12174TIP3    H236466   2.007   6.245   5.313
12175TIP3   OH236467   2.573   6.678   6.964
12175TIP3    H136468   2.533   6.697   6.879
12175TIP3    H236469   2.605   6.588   6.956
12176TIP3   OH236470   2.453   6.438   5.195
12176TIP3    H136471   2.458   6.454   5.289
12176TIP3    H236472   2.457   6.343   5.187
12177TIP3   OH236473   3.058   6.688   6.551
12177TIP3    H136474   3.139   6.728   6.520
12177TIP3    H236475   2.995   6.760   6.553
12178TIP3   OH236476   7.754   2.321   0.234
12178TIP3    H136477   7.829   2.267   0.208
12178TIP3    H236478   7.779   2.354   0.320
12179TIP3   OH236479   2.148   6.145   5.604
12179TIP3    H136480   2.124   6.104   5.687
12179TIP3    H236481   2.187   6.075   5.552
12180TIP3   OH236482   2.419   6.213   6.833
12180TIP3    H136483   2.342   6.270   6.837
12180TIP3    H236484   2.469   6.244   6.758
12181TIP3   OH236485   2.256   5.944   5.444
12181TIP3    H136486   2.228   5.947   5.353
12181TIP3    H236487   2.351   5.947   5.440
12182TIP3   OH236488   0.105   2.603   0.026
12182TIP3    H136489   0.193   2.588  -0.008
12182TIP3    H236490   0.097   2.543   0.100
12183TIP3   OH236491   3.066   6.272   5.111
12183TIP3    H136492   3.053   6.224   5.030
12183TIP3    H236493   3.037   6.361   5.091
12184TIP3   OH236494   2.542   6.001   6.959
12184TIP3    H136495   2.544   5.922   6.904
12184TIP3    H236496   2.499   6.067   6.905
12185TIP3   OH236497   2.544   5.790   6.763
12185TIP3    H136498   2.574   5.821   6.677
12185TIP3    H236499   2.453   5.765   6.750
12186TIP3   OH236500   2.566   6.321   6.638
12186TIP3    H136501   2.648   6.331   6.589
12186TIP3    H236502   2.508   6.387   6.600
12187TIP3   OH236503   0.321   2.281   0.079
12187TIP3    H136504   0.366   2.199   0.098
12187TIP3    H236505   0.391   2.342   0.054
12188TIP3   OH236506   3.195   6.545   6.744
12188TIP3    H136507   3.136   6.596   6.688
12188TIP3    H236508   3.283   6.564   6.710
12189TIP3   OH236509   8.087   2.100   0.251
12189TIP3    H136510   8.020   2.033   0.268
12189TIP3    H236511   8.123   2.076   0.165
12190TIP3   OH236512   2.676   5.551   6.835
12190TIP3    H136513   2.629   5.632   6.815
12190TIP3    H236514   2.610   5.482   6.826
12191TIP3   OH236515   8.468   2.046   0.113
12191TIP3    H136516   8.464   2.034   0.208
12191TIP3    H236517   8.381   2.021   0.082
12192TIP3   OH236518   0.209   1.995  -0.033
12192TIP3    H136519   0.135   1.996   0.028
12192TIP3    H236520   0.283   1.966   0.021
12193TIP3   OH236521   0.435   1.937   0.120
12193TIP3    H136522   0.449   1.843   0.135
12193TIP3    H236523   0.429   1.974   0.207
12194TIP3   OH236524   7.929   1.879   0.308
12194TIP3    H136525   7.932   1.790   0.272
12194TIP3    H236526   7.965   1.871   0.396
12195TIP3   OH236527   8.438   1.551   0.153
12195TIP3    H136528   8.505   1.482   0.151
12195TIP3    H236529   8.398   1.547   0.066
12196TIP3   OH236530   8.503   1.767   0.312
12196TIP3    H136531   8.484   1.696   0.250
12196TIP3    H236532   8.427   1.825   0.306
12197TIP3   OH236533   2.063   7.003   5.351
12197TIP3    H136534   2.157   6.994   5.335
12197TIP3    H236535   2.031   7.054   5.277
12198TIP3   OH236536   1.540   6.383   5.569
12198TIP3    H136537   1.631   6.408   5.554
12198TIP3    H236538   1.531   6.298   5.527
12199TIP3   OH236539   1.456   6.991   5.985
12199TIP3    H136540   1.392   6.933   5.945
12199TIP3    H236541   1.500   6.936   6.051
12200TIP3   OH236542   1.593   6.839   6.173
12200TIP3    H136543   1.582   6.771   6.239
12200TIP3    H236544   1.640   6.909   6.218
12201TIP3   OH236545   3.314   7.260   5.969
12201TIP3    H136546   3.349   7.282   6.056
12201TIP3    H236547   3.385   7.280   5.909
12202TIP3   OH236548   3.348   7.266   6.255
12202TIP3    H136549   3.303   7.182   6.248
12202TIP3    H236550   3.426   7.247   6.308
12203TIP3   OH236551   3.387   6.950   6.821
12203TIP3    H136552   3.319   6.955   6.889
12203TIP3    H236553   3.433   7.033   6.827
12204TIP3   OH236554   3.208   6.465   5.442
12204TIP3    H136555   3.276   6.524   5.408
12204TIP3    H236556   3.245   6.428   5.521
12205TIP3   OH236557   3.325   6.341   5.649
12205TIP3    H136558   3.280   6.267   5.689
12205TIP3    H236559   3.412   6.342   5.689
12206TIP3   OH236560   3.392   6.714   6.066
12206TIP3    H136561   3.446   6.647   6.025
12206TIP3    H236562   3.395   6.788   6.006
12207TIP3   OH236563   3.219   7.018   6.273
12207TIP3    H136564   3.150   7.060   6.325
12207TIP3    H236565   3.172   6.972   6.203
12208TIP3   OH236566   3.272   6.237   5.294
12208TIP3    H136567   3.202   6.237   5.228
12208TIP3    H236568   3.250   6.311   5.351
12209TIP3   OH236569   3.129   5.909   5.244
12209TIP3    H136570   3.103   5.942   5.158
12209TIP3    H236571   3.113   5.815   5.240
12210TIP3   OH236572   3.131   6.160   5.813
12210TIP3    H136573   3.147   6.072   5.778
12210TIP3    H236574   3.206   6.177   5.871
12211TIP3   OH236575   1.778   6.255   6.539
12211TIP3    H136576   1.772   6.222   6.449
12211TIP3    H236577   1.872   6.257   6.558
12212TIP3   OH236578   3.442   6.606   6.644
12212TIP3    H136579   3.510   6.538   6.638
12212TIP3    H236580   3.474   6.677   6.589
12213TIP3   OH236581   3.620   6.403   6.661
12213TIP3    H136582   3.547   6.357   6.702
12213TIP3    H236583   3.696   6.347   6.677
12214TIP3   OH236584   3.089   5.642   5.237
12214TIP3    H136585   3.166   5.612   5.285
12214TIP3    H236586   3.021   5.577   5.256
12215TIP3   OH236587   3.155   5.903   5.678
12215TIP3    H136588   3.191   5.816   5.699
12215TIP3    H236589   3.210   5.934   5.606
12216TIP3   OH236590   3.306   6.078   6.179
12216TIP3    H136591   3.388   6.097   6.134
12216TIP3    H236592   3.318   6.114   6.267
12217TIP3   OH236593   3.381   6.217   6.416
12217TIP3    H136594   3.308   6.253   6.466
12217TIP3    H236595   3.417   6.292   6.368
12218TIP3   OH236596   7.663   1.932   0.277
12218TIP3    H136597   7.759   1.929   0.279
12218TIP3    H236598   7.635   1.849   0.314
12219TIP3   OH236599   3.253   5.649   5.729
12219TIP3    H136600   3.304   5.635   5.809
12219TIP3    H236601   3.194   5.574   5.724
12220TIP3   OH236602   1.958   5.634   6.544
12220TIP3    H136603   2.015   5.558   6.555
12220TIP3    H236604   2.017   5.708   6.538
12221TIP3   OH236605   1.757   5.908   6.616
12221TIP3    H136606   1.805   5.902   6.533
12221TIP3    H236607   1.786   5.990   6.655
12222TIP3   OH236608   3.704   5.938   6.806
12222TIP3    H136609   3.625   5.983   6.837
12222TIP3    H236610   3.671   5.877   6.740
12223TIP3   OH236611   3.335   5.580   5.359
12223TIP3    H136612   3.376   5.513   5.305
12223TIP3    H236613   3.397   5.653   5.358
12224TIP3   OH236614   1.741   5.411   6.119
12224TIP3    H136615   1.650   5.405   6.148
12224TIP3    H236616   1.737   5.467   6.042
12225TIP3   OH236617   2.901   7.120   5.627
12225TIP3    H136618   2.943   7.099   5.543
12225TIP3    H236619   2.962   7.179   5.670
12226TIP3   OH236620   7.627   1.487  -0.005
12226TIP3    H136621   7.579   1.478   0.077
12226TIP3    H236622   7.563   1.522  -0.067
12227TIP3   OH236623   7.670   2.905   0.069
12227TIP3    H136624   7.578   2.885   0.051
12227TIP3    H236625   7.679   2.892   0.164
12228TIP3   OH236626   2.183   6.955   6.556
12228TIP3    H136627   2.130   7.027   6.522
12228TIP3    H236628   2.268   6.966   6.513
12229TIP3   OH236629   2.627   7.195   6.694
12229TIP3    H136630   2.664   7.192   6.782
12229TIP3    H236631   2.690   7.246   6.643
12230TIP3   OH236632   2.807   7.349   6.556
12230TIP3    H136633   2.876   7.297   6.515
12230TIP3    H236634   2.853   7.406   6.617
12231TIP3   OH236635   3.595   5.703   6.654
12231TIP3    H136636   3.508   5.702   6.615
12231TIP3    H236637   3.628   5.614   6.641
12232TIP3   OH236638   1.856   7.210   6.586
12232TIP3    H136639   1.769   7.238   6.559
12232TIP3    H236640   1.873   7.258   6.666
12233TIP3   OH236641   2.090   7.188   6.440
12233TIP3    H136642   2.007   7.198   6.488
12233TIP3    H236643   2.071   7.220   6.352
12234TIP3   OH236644   2.518   7.217   6.237
12234TIP3    H136645   2.447   7.235   6.175
12234TIP3    H236646   2.530   7.299   6.285
12235TIP3   OH236647   2.787   7.151   6.287
12235TIP3    H136648   2.695   7.170   6.270
12235TIP3    H236649   2.835   7.223   6.246
12236TIP3   OH236650   2.988   7.343   6.199
12236TIP3    H136651   2.979   7.427   6.154
12236TIP3    H236652   3.019   7.283   6.130
12237TIP3   OH236653   1.771   7.000   6.324
12237TIP3    H136654   1.790   6.975   6.414
12237TIP3    H236655   1.840   6.959   6.272
12238TIP3   OH236656   1.965   6.873   6.185
12238TIP3    H136657   1.976   6.791   6.233
12238TIP3    H236658   2.053   6.910   6.182
12239TIP3   OH236659   2.233   6.968   6.190
12239TIP3    H136660   2.257   6.876   6.177
12239TIP3    H236661   2.275   6.993   6.272
12240TIP3   OH236662   2.781   5.612   6.256
12240TIP3    H136663   2.755   5.548   6.322
12240TIP3    H236664   2.867   5.582   6.226
12241TIP3   OH236665   3.320   5.504   6.176
12241TIP3    H136666   3.361   5.553   6.106
12241TIP3    H236667   3.228   5.531   6.175
12242TIP3   OH236668   3.422   5.600   5.942
12242TIP3    H136669   3.491   5.546   5.905
12242TIP3    H236670   3.453   5.690   5.930
12243TIP3   OH236671   2.050   5.328   6.289
12243TIP3    H136672   1.959   5.298   6.293
12243TIP3    H236673   2.102   5.247   6.286
12244TIP3   OH236674   1.837   5.206   5.939
12244TIP3    H136675   1.868   5.260   5.866
12244TIP3    H236676   1.811   5.268   6.006
12245TIP3   OH236677   2.498   5.368   6.172
12245TIP3    H136678   2.556   5.412   6.109
12245TIP3    H236679   2.528   5.398   6.258
12246TIP3   OH236680   3.028   5.513   6.160
12246TIP3    H136681   3.044   5.481   6.072
12246TIP3    H236682   3.022   5.434   6.214
12247TIP3   OH236683   3.069   5.436   5.718
12247TIP3    H136684   2.988   5.484   5.733
12247TIP3    H236685   3.058   5.353   5.764
12248TIP3   OH236686   1.550   6.781   5.718
12248TIP3    H136687   1.468   6.748   5.681
12248TIP3    H236688   1.551   6.874   5.696
12249TIP3   OH236689   1.960   5.363   5.700
12249TIP3    H136690   2.004   5.299   5.644
12249TIP3    H236691   2.031   5.415   5.736
12250TIP3   OH236692   2.469   5.539   5.803
12250TIP3    H136693   2.527   5.490   5.860
12250TIP3    H236694   2.486   5.631   5.824
12251TIP3   OH236695   2.331   6.958   5.299
12251TIP3    H136696   2.417   6.983   5.267
12251TIP3    H236697   2.304   6.885   5.243
12252TIP3   OH236698   3.042   7.079   5.394
12252TIP3    H136699   3.037   6.984   5.382
12252TIP3    H236700   3.003   7.116   5.315
12253TIP3   OH236701   7.927   1.606   0.244
12253TIP3    H136702   7.890   1.536   0.298
12253TIP3    H236703   8.020   1.608   0.268
12254TIP3   OH236704   8.177   1.602   0.361
12254TIP3    H136705   8.260   1.579   0.320
12254TIP3    H236706   8.162   1.534   0.426
12255TIP3   OH236707   1.632   6.794   5.356
12255TIP3    H136708   1.637   6.826   5.446
12255TIP3    H236709   1.717   6.752   5.340
12256TIP3   OH236710   0.504   1.665   0.149
12256TIP3    H136711   0.518   1.636   0.239
12256TIP3    H236712   0.590   1.656   0.107
12257TIP3   OH236713   3.268   7.226   6.579
12257TIP3    H136714   3.192   7.193   6.531
12257TIP3    H236715   3.253   7.320   6.587
12258TIP3   OH236716   4.542   6.602   5.351
12258TIP3    H136717   4.517   6.692   5.330
12258TIP3    H236718   4.482   6.548   5.301
12259TIP3   OH236719   4.533   6.603   5.733
12259TIP3    H136720   4.570   6.570   5.815
12259TIP3    H236721   4.500   6.526   5.688
12260TIP3   OH236722   3.838   6.501   6.099
12260TIP3    H136723   3.866   6.429   6.156
12260TIP3    H236724   3.919   6.535   6.062
12261TIP3   OH236725   4.777   6.912   5.404
12261TIP3    H136726   4.768   6.834   5.458
12261TIP3    H236727   4.811   6.979   5.463
12262TIP3   OH236728   3.812   6.903   5.818
12262TIP3    H136729   3.802   6.808   5.817
12262TIP3    H236730   3.906   6.917   5.810
12263TIP3   OH236731   4.435   7.360   5.425
12263TIP3    H136732   4.479   7.288   5.380
12263TIP3    H236733   4.427   7.331   5.515
12264TIP3   OH236734   4.339   6.823   5.777
12264TIP3    H136735   4.374   6.744   5.735
12264TIP3    H236736   4.417   6.873   5.802
12265TIP3   OH236737   5.355   6.145   5.774
12265TIP3    H136738   5.382   6.227   5.817
12265TIP3    H236739   5.367   6.163   5.681
12266TIP3   OH236740   4.742   6.317   5.809
12266TIP3    H136741   4.789   6.236   5.826
12266TIP3    H236742   4.719   6.313   5.716
12267TIP3   OH236743   4.088   5.987   5.765
12267TIP3    H136744   4.068   6.061   5.708
12267TIP3    H236745   4.042   5.913   5.726
12268TIP3   OH236746   4.785   6.074   5.395
12268TIP3    H136747   4.856   6.062   5.457
12268TIP3    H236748   4.827   6.112   5.318
12269TIP3   OH236749   4.159   6.383   5.680
12269TIP3    H136750   4.252   6.361   5.690
12269TIP3    H236751   4.120   6.303   5.644
12270TIP3   OH236752   5.425   6.353   5.948
12270TIP3    H136753   5.345   6.397   5.921
12270TIP3    H236754   5.444   6.386   6.036
12271TIP3   OH236755   4.084   5.965   6.215
12271TIP3    H136756   4.034   5.997   6.140
12271TIP3    H236757   4.030   5.988   6.291
12272TIP3   OH236758   4.447   6.836   5.198
12272TIP3    H136759   4.391   6.787   5.138
12272TIP3    H236760   4.393   6.909   5.228
12273TIP3   OH236761   4.192   6.746   6.000
12273TIP3    H136762   4.130   6.811   6.035
12273TIP3    H236763   4.235   6.790   5.927
12274TIP3   OH236764   4.993   6.080   5.572
12274TIP3    H136765   4.971   6.041   5.656
12274TIP3    H236766   5.041   6.160   5.593
12275TIP3   OH236767   3.963   6.068   5.997
12275TIP3    H136768   4.005   6.152   6.012
12275TIP3    H236769   4.002   6.036   5.916
12276TIP3   OH236770   4.017   6.940   6.102
12276TIP3    H136771   3.999   7.025   6.063
12276TIP3    H236772   3.940   6.920   6.155
12277TIP3   OH236773   3.408   6.631   5.333
12277TIP3    H136774   3.372   6.657   5.248
12277TIP3    H236775   3.444   6.712   5.370
12278TIP3   OH236776   4.851   7.147   5.574
12278TIP3    H136777   4.765   7.133   5.615
12278TIP3    H236778   4.844   7.232   5.532
12279TIP3   OH236779   5.146   6.041   5.937
12279TIP3    H136780   5.059   6.068   5.908
12279TIP3    H236781   5.205   6.073   5.869
12280TIP3   OH236782   4.439   5.684   5.926
12280TIP3    H136783   4.424   5.590   5.937
12280TIP3    H236784   4.363   5.725   5.968
12281TIP3   OH236785   4.558   7.184   5.244
12281TIP3    H136786   4.612   7.105   5.241
12281TIP3    H236787   4.613   7.252   5.204
12282TIP3   OH236788   4.699   6.929   5.142
12282TIP3    H136789   4.610   6.899   5.158
12282TIP3    H236790   4.742   6.926   5.227
12283TIP3   OH236791   5.078   7.054   5.917
12283TIP3    H136792   5.066   6.977   5.861
12283TIP3    H236793   5.060   7.129   5.859
12284TIP3   OH236794   4.376   6.464   5.174
12284TIP3    H136795   4.292   6.508   5.159
12284TIP3    H236796   4.391   6.414   5.094
12285TIP3   OH236797   5.272   6.698   5.767
12285TIP3    H136798   5.189   6.744   5.772
12285TIP3    H236799   5.303   6.715   5.678
12286TIP3   OH236800   4.950   6.571   6.063
12286TIP3    H136801   4.948   6.654   6.111
12286TIP3    H236802   4.867   6.569   6.016
12287TIP3   OH236803   3.952   6.530   5.561
12287TIP3    H136804   3.910   6.472   5.498
12287TIP3    H236805   4.024   6.478   5.597
12288TIP3   OH236806   4.080   6.941   5.712
12288TIP3    H136807   4.058   6.899   5.629
12288TIP3    H236808   4.167   6.908   5.734
12289TIP3   OH236809   4.084   6.501   5.928
12289TIP3    H136810   4.110   6.475   5.839
12289TIP3    H236811   4.125   6.586   5.941
12290TIP3   OH236812   4.613   7.137   5.695
12290TIP3    H136813   4.595   7.218   5.743
12290TIP3    H236814   4.596   7.068   5.759
12291TIP3   OH236815   4.220   7.055   6.248
12291TIP3    H136816   4.163   7.119   6.291
12291TIP3    H236817   4.160   7.002   6.196
12292TIP3   OH236818   3.983   6.610   6.359
12292TIP3    H136819   3.987   6.698   6.396
12292TIP3    H236820   3.890   6.592   6.350
12293TIP3   OH236821   4.304   7.066   5.249
12293TIP3    H136822   4.382   7.120   5.264
12293TIP3    H236823   4.240   7.126   5.211
12294TIP3   OH236824   4.015   7.225   6.330
12294TIP3    H136825   3.988   7.225   6.239
12294TIP3    H236826   3.936   7.203   6.380
12295TIP3   OH236827   5.072   5.630   5.025
12295TIP3    H136828   4.992   5.649   5.074
12295TIP3    H236829   5.089   5.710   4.975
12296TIP3   OH236830   3.822   6.371   5.361
12296TIP3    H136831   3.749   6.409   5.312
12296TIP3    H236832   3.786   6.293   5.402
12297TIP3   OH236833   4.874   6.999   4.574
12297TIP3    H136834   4.880   7.093   4.558
12297TIP3    H236835   4.962   6.966   4.556
12298TIP3   OH236836   3.595   6.754   6.278
12298TIP3    H136837   3.543   6.729   6.202
12298TIP3    H236838   3.638   6.673   6.306
12299TIP3   OH236839   3.457   6.948   5.915
12299TIP3    H136840   3.548   6.929   5.892
12299TIP3    H236841   3.462   7.024   5.972
12300TIP3   OH236842   5.313   7.402   5.967
12300TIP3    H136843   5.316   7.307   5.978
12300TIP3    H236844   5.233   7.428   6.012
12301TIP3   OH236845   4.423   7.175   6.102
12301TIP3    H136846   4.428   7.267   6.128
12301TIP3    H236847   4.351   7.139   6.154
12302TIP3   OH236848   4.183   7.316   5.051
12302TIP3    H136849   4.135   7.296   4.970
12302TIP3    H236850   4.150   7.402   5.077
12303TIP3   OH236851   3.621   7.160   5.440
12303TIP3    H136852   3.669   7.154   5.523
12303TIP3    H236853   3.573   7.078   5.434
12304TIP3   OH236854   4.385   7.216   4.693
12304TIP3    H136855   4.440   7.147   4.656
12304TIP3    H236856   4.416   7.226   4.782
12305TIP3   OH236857   4.434   7.265   4.964
12305TIP3    H136858   4.346   7.275   5.001
12305TIP3    H236859   4.485   7.226   5.035
12306TIP3   OH236860   5.203   6.529   6.240
12306TIP3    H136861   5.123   6.544   6.190
12306TIP3    H236862   5.220   6.435   6.232
12307TIP3   OH236863   3.800   6.940   6.268
12307TIP3    H136864   3.853   6.921   6.346
12307TIP3    H236865   3.728   6.877   6.273
12308TIP3   OH236866   4.199   5.762   6.051
12308TIP3    H136867   4.113   5.730   6.023
12308TIP3    H236868   4.180   5.844   6.097
12309TIP3   OH236869   4.736   5.876   6.247
12309TIP3    H136870   4.803   5.849   6.309
12309TIP3    H236871   4.653   5.857   6.292
12310TIP3   OH236872   4.972   6.307   6.165
12310TIP3    H136873   4.923   6.304   6.247
12310TIP3    H236874   4.950   6.392   6.127
12311TIP3   OH236875   4.651   6.487   4.691
12311TIP3    H136876   4.613   6.421   4.634
12311TIP3    H236877   4.744   6.488   4.667
12312TIP3   OH236878   4.343   5.803   5.023
12312TIP3    H136879   4.313   5.807   5.114
12312TIP3    H236880   4.306   5.722   4.988
12313TIP3   OH236881   4.134   6.279   6.072
12313TIP3    H136882   4.081   6.294   6.150
12313TIP3    H236883   4.120   6.356   6.017
12314TIP3   OH236884   4.020   6.166   5.575
12314TIP3    H136885   3.928   6.144   5.593
12314TIP3    H236886   4.038   6.125   5.490
12315TIP3   OH236887   4.500   6.253   5.310
12315TIP3    H136888   4.455   6.327   5.271
12315TIP3    H236889   4.554   6.217   5.239
12316TIP3   OH236890   4.683   6.525   6.399
12316TIP3    H136891   4.658   6.453   6.457
12316TIP3    H236892   4.776   6.540   6.417
12317TIP3   OH236893   4.660   6.275   5.545
12317TIP3    H136894   4.603   6.312   5.479
12317TIP3    H236895   4.694   6.195   5.506
12318TIP3   OH236896   3.952   6.309   6.278
12318TIP3    H136897   3.986   6.371   6.343
12318TIP3    H236898   3.941   6.227   6.327
12319TIP3   OH236899   3.999   5.784   4.990
12319TIP3    H136900   3.993   5.783   5.085
12319TIP3    H236901   3.925   5.837   4.961
12320TIP3   OH236902   3.545   5.822   5.864
12320TIP3    H136903   3.613   5.862   5.919
12320TIP3    H236904   3.589   5.804   5.781
12321TIP3   OH236905   3.508   5.809   5.376
12321TIP3    H136906   3.555   5.846   5.301
12321TIP3    H236907   3.448   5.879   5.404
12322TIP3   OH236908   4.677   6.519   5.973
12322TIP3    H136909   4.706   6.451   5.912
12322TIP3    H236910   4.644   6.470   6.049
12323TIP3   OH236911   4.347   5.977   5.645
12323TIP3    H136912   4.263   5.982   5.692
12323TIP3    H236913   4.413   5.987   5.713
12324TIP3   OH236914   3.783   6.050   5.615
12324TIP3    H136915   3.712   6.071   5.676
12324TIP3    H236916   3.798   5.956   5.627
12325TIP3   OH236917   4.048   6.034   5.338
12325TIP3    H136918   4.139   6.053   5.316
12325TIP3    H236919   3.999   6.059   5.259
12326TIP3   OH236920   4.836   6.058   5.849
12326TIP3    H136921   4.804   6.075   5.938
12326TIP3    H236922   4.770   6.001   5.811
12327TIP3   OH236923   3.894   6.069   5.114
12327TIP3    H136924   3.822   6.026   5.068
12327TIP3    H236925   3.946   6.109   5.044
12328TIP3   OH236926   5.009   7.750   6.065
12328TIP3    H136927   5.003   7.772   5.972
12328TIP3    H236928   5.088   7.795   6.096
12329TIP3   OH236929   3.961   6.863   6.488
12329TIP3    H136930   4.042   6.891   6.531
12329TIP3    H236931   3.897   6.860   6.559
12330TIP3   OH236932   4.427   6.310   5.739
12330TIP3    H136933   4.503   6.280   5.688
12330TIP3    H236934   4.439   6.270   5.825
12331TIP3   OH236935   3.952   5.796   5.628
12331TIP3    H136936   3.917   5.718   5.672
12331TIP3    H236937   3.989   5.763   5.546
12332TIP3   OH236938   4.403   6.209   6.038
12332TIP3    H136939   4.314   6.245   6.046
12332TIP3    H236940   4.458   6.273   6.082
12333TIP3   OH236941   4.131   6.607   5.124
12333TIP3    H136942   4.065   6.539   5.111
12333TIP3    H236943   4.116   6.638   5.214
12334TIP3   OH236944   5.038   6.838   5.752
12334TIP3    H136945   5.063   6.885   5.673
12334TIP3    H236946   4.955   6.795   5.730
12335TIP3   OH236947   4.588   5.921   4.985
12335TIP3    H136948   4.495   5.899   4.994
12335TIP3    H236949   4.594   6.012   5.014
12336TIP3   OH236950   4.539   6.918   6.125
12336TIP3    H136951   4.565   6.906   6.216
12336TIP3    H236952   4.501   7.006   6.123
12337TIP3   OH236953   4.661   6.163   5.103
12337TIP3    H136954   4.754   6.183   5.090
12337TIP3    H236955   4.615   6.216   5.038
12338TIP3   OH236956   3.837   6.632   5.796
12338TIP3    H136957   3.867   6.602   5.710
12338TIP3    H236958   3.849   6.556   5.853
12339TIP3   OH236959   4.283   6.752   4.947
12339TIP3    H136960   4.238   6.837   4.953
12339TIP3    H236961   4.232   6.694   5.003
12340TIP3   OH236962   3.711   6.549   6.419
12340TIP3    H136963   3.737   6.536   6.510
12340TIP3    H236964   3.649   6.478   6.401
12341TIP3   OH236965   4.441   6.657   6.435
12341TIP3    H136966   4.379   6.604   6.386
12341TIP3    H236967   4.527   6.626   6.407
12342TIP3   OH236968   4.700   7.182   6.024
12342TIP3    H136969   4.604   7.177   6.031
12342TIP3    H236970   4.726   7.234   6.100
12343TIP3   OH236971   5.099   6.233   4.935
12343TIP3    H136972   5.039   6.201   4.867
12343TIP3    H236973   5.134   6.315   4.899
12344TIP3   OH236974   5.327   7.113   6.003
12344TIP3    H136975   5.232   7.107   6.000
12344TIP3    H236976   5.356   7.081   5.918
12345TIP3   OH236977   4.813   7.077   4.837
12345TIP3    H136978   4.771   7.014   4.897
12345TIP3    H236979   4.822   7.030   4.755
12346TIP3   OH236980   4.802   6.704   5.675
12346TIP3    H136981   4.709   6.683   5.686
12346TIP3    H236982   4.840   6.626   5.635
12347TIP3   OH236983   3.933   6.930   5.426
12347TIP3    H136984   3.932   7.010   5.374
12347TIP3    H236985   3.840   6.909   5.439
12348TIP3   OH236986   3.497   6.232   5.135
12348TIP3    H136987   3.546   6.312   5.155
12348TIP3    H236988   3.422   6.234   5.194
12349TIP3   OH236989   4.070   6.697   5.372
12349TIP3    H136990   4.035   6.784   5.391
12349TIP3    H236991   4.037   6.642   5.443
12350TIP3   OH236992   4.203   7.271   5.901
12350TIP3    H136993   4.235   7.354   5.865
12350TIP3    H236994   4.280   7.233   5.944
12351TIP3   OH236995   3.849   7.172   5.279
12351TIP3    H136996   3.766   7.175   5.326
12351TIP3    H236997   3.883   7.262   5.283
12352TIP3   OH236998   4.590   6.907   5.857
12352TIP3    H136999   4.580   6.903   5.952
12352TIP3    H237000   4.665   6.850   5.838
12353TIP3   OH237001   4.568   6.794   4.742
12353TIP3    H137002   4.611   6.716   4.778
12353TIP3    H237003   4.475   6.780   4.759
12354TIP3   OH237004   4.836   7.437   5.904
12354TIP3    H137005   4.760   7.380   5.901
12354TIP3    H237006   4.823   7.501   5.834
12355TIP3   OH237007   4.903   7.277   4.557
12355TIP3    H137008   4.944   7.347   4.507
12355TIP3    H237009   4.822   7.315   4.592
12356TIP3   OH237010   3.919   6.054   6.423
12356TIP3    H137011   3.824   6.055   6.430
12356TIP3    H237012   3.948   5.995   6.493
12357TIP3   OH237013   4.772   6.686   5.024
12357TIP3    H137014   4.677   6.674   5.027
12357TIP3    H237015   4.785   6.780   5.027
12358TIP3   OH237016   3.638   7.136   6.059
12358TIP3    H137017   3.690   7.059   6.084
12358TIP3    H237018   3.679   7.209   6.105
12359TIP3   OH237019   3.929   6.777   4.740
12359TIP3    H137020   3.943   6.688   4.710
12359TIP3    H237021   3.909   6.768   4.834
12360TIP3   OH237022   3.874   6.785   5.012
12360TIP3    H137023   3.949   6.752   5.062
12360TIP3    H237024   3.879   6.880   5.022
12361TIP3   OH237025   3.607   6.477   5.215
12361TIP3    H137026   3.543   6.518   5.273
12361TIP3    H237027   3.625   6.543   5.149
12362TIP3   OH237028   4.764   6.114   6.108
12362TIP3    H137029   4.844   6.153   6.143
12362TIP3    H237030   4.751   6.035   6.159
12363TIP3   OH237031   4.645   5.864   5.268
12363TIP3    H137032   4.626   5.888   5.178
12363TIP3    H237033   4.683   5.944   5.306
12364TIP3   OH237034   4.140   6.984   4.959
12364TIP3    H137035   4.055   7.006   4.996
12364TIP3    H237036   4.159   7.055   4.897
12365TIP3   OH237037   4.331   6.044   5.373
12365TIP3    H137038   4.390   6.116   5.351
12365TIP3    H237039   4.335   6.038   5.469
12366TIP3   OH237040   4.600   6.361   6.180
12366TIP3    H137041   4.625   6.413   6.257
12366TIP3    H237042   4.653   6.282   6.187
12367TIP3   OH237043   4.475   5.770   5.473
12367TIP3    H137044   4.456   5.846   5.528
12367TIP3    H237045   4.535   5.804   5.406
12368TIP3   OH237046   3.886   7.060   5.028
12368TIP3    H137047   3.857   7.128   4.966
12368TIP3    H237048   3.871   7.099   5.114
12369TIP3   OH237049   3.988   5.772   5.267
12369TIP3    H137050   3.980   5.861   5.301
12369TIP3    H237051   4.082   5.752   5.272
12370TIP3   OH237052   5.238   6.262   6.162
12370TIP3    H137053   5.142   6.262   6.171
12370TIP3    H237054   5.254   6.229   6.074
12371TIP3   OH237055   4.884   6.467   5.572
12371TIP3    H137056   4.818   6.401   5.549
12371TIP3    H237057   4.962   6.416   5.592
12372TIP3   OH237058   3.609   6.685   5.016
12372TIP3    H137059   3.679   6.749   5.030
12372TIP3    H237060   3.645   6.623   4.952
12373TIP3   OH237061   3.547   5.961   5.153
12373TIP3    H137062   3.551   6.056   5.151
12373TIP3    H237063   3.468   5.939   5.103
12374TIP3   OH237064   4.861   7.418   5.494
12374TIP3    H137065   4.816   7.462   5.422
12374TIP3    H237066   4.954   7.434   5.477
12375TIP3   OH237067   3.936   5.680   6.023
12375TIP3    H137068   3.906   5.652   5.937
12375TIP3    H237069   3.923   5.604   6.080
12376TIP3   OH237070   3.474   6.910   5.402
12376TIP3    H137071   3.405   6.932   5.464
12376TIP3    H237072   3.444   6.947   5.319
12377TIP3   OH237073   3.635   7.446   6.476
12377TIP3    H137074   3.720   7.448   6.522
12377TIP3    H237075   3.613   7.353   6.472
12378TIP3   OH237076   4.113   7.409   6.512
12378TIP3    H137077   4.205   7.388   6.526
12378TIP3    H237078   4.085   7.346   6.445
12379TIP3   OH237079   4.093   6.978   4.649
12379TIP3    H137080   4.037   6.912   4.689
12379TIP3    H237081   4.168   6.929   4.617
12380TIP3   OH237082   4.752   7.314   6.261
12380TIP3    H137083   4.744   7.245   6.326
12380TIP3    H237084   4.829   7.364   6.288
12381TIP3   OH237085   4.530   7.018   4.565
12381TIP3    H137086   4.569   6.955   4.625
12381TIP3    H237087   4.587   7.016   4.488
12382TIP3   OH237088   3.761   6.849   6.677
12382TIP3    H137089   3.780   6.755   6.686
12382TIP3    H237090   3.676   6.852   6.633
12383TIP3   OH237091   3.743   6.496   4.874
12383TIP3    H137092   3.795   6.464   4.948
12383TIP3    H237093   3.805   6.502   4.801
12384TIP3   OH237094   4.368   6.934   6.452
12384TIP3    H137095   4.328   6.956   6.367
12384TIP3    H237096   4.399   6.844   6.441
12385TIP3   OH237097   4.256   6.694   4.681
12385TIP3    H137098   4.256   6.710   4.775
12385TIP3    H237099   4.258   6.599   4.671
12386TIP3   OH237100   4.863   6.950   6.060
12386TIP3    H137101   4.938   6.989   6.015
12386TIP3    H237102   4.791   7.011   6.046
12387TIP3   OH237103   3.879   6.584   6.663
12387TIP3    H137104   3.956   6.537   6.629
12387TIP3    H237105   3.907   6.615   6.749
12388TIP3   OH237106   3.942   6.405   5.092
12388TIP3    H137107   3.917   6.371   5.177
12388TIP3    H237108   3.980   6.330   5.045
12389TIP3   OH237109   4.219   6.468   6.323
12389TIP3    H137110   4.142   6.525   6.327
12389TIP3    H237111   4.267   6.499   6.246
12390TIP3   OH237112   4.049   6.201   4.930
12390TIP3    H137113   4.022   6.206   4.838
12390TIP3    H237114   4.145   6.206   4.927
12391TIP3   OH237115   4.735   6.869   6.457
12391TIP3    H137116   4.809   6.841   6.403
12391TIP3    H237117   4.729   6.803   6.526
12392TIP3   OH237118   4.898   6.539   4.580
12392TIP3    H137119   4.870   6.486   4.506
12392TIP3    H237120   4.855   6.624   4.566
12393TIP3   OH237121   4.340   6.255   6.444
12393TIP3    H137122   4.342   6.178   6.387
12393TIP3    H237123   4.299   6.323   6.391
12394TIP3   OH237124   4.344   6.042   6.255
12394TIP3    H137125   4.371   6.086   6.174
12394TIP3    H237126   4.252   6.019   6.240
12395TIP3   OH237127   4.368   6.582   6.130
12395TIP3    H137128   4.451   6.589   6.085
12395TIP3    H237129   4.310   6.644   6.085
12396TIP3   OH237130   4.952   6.545   6.508
12396TIP3    H137131   4.998   6.461   6.513
12396TIP3    H237132   5.016   6.604   6.469
12397TIP3   OH237133   4.992   6.801   6.244
12397TIP3    H137134   4.933   6.853   6.189
12397TIP3    H237135   5.079   6.818   6.208
12398TIP3   OH237136   4.221   6.363   6.679
12398TIP3    H137137   4.149   6.303   6.693
12398TIP3    H237138   4.253   6.343   6.591
12399TIP3   OH237139   4.473   5.807   6.324
12399TIP3    H137140   4.428   5.888   6.299
12399TIP3    H237141   4.407   5.738   6.310
12400TIP3   OH237142   4.598   6.306   6.540
12400TIP3    H137143   4.587   6.296   6.634
12400TIP3    H237144   4.512   6.284   6.503
12401TIP3   OH237145   4.840   6.260   6.396
12401TIP3    H137146   4.764   6.261   6.454
12401TIP3    H237147   4.912   6.230   6.451
12402TIP3   OH237148   5.070   6.201   6.547
12402TIP3    H137149   5.082   6.107   6.561
12402TIP3    H237150   5.065   6.238   6.635
12403TIP3   OH237151   4.051   6.150   6.731
12403TIP3    H137152   4.058   6.063   6.691
12403TIP3    H237153   4.089   6.139   6.818
12404TIP3   OH237154   4.562   5.815   6.581
12404TIP3    H137155   4.629   5.747   6.580
12404TIP3    H237156   4.525   5.813   6.493
12405TIP3   OH237157   4.632   6.029   6.741
12405TIP3    H137158   4.613   5.961   6.677
12405TIP3    H237159   4.558   6.089   6.734
12406TIP3   OH237160   3.860   7.265   4.839
12406TIP3    H137161   3.953   7.252   4.824
12406TIP3    H237162   3.829   7.311   4.761
12407TIP3   OH237163   3.338   6.642   5.050
12407TIP3    H137164   3.430   6.664   5.039
12407TIP3    H237165   3.329   6.554   5.013
12408TIP3   OH237166   3.248   7.253   5.469
12408TIP3    H137167   3.185   7.193   5.428
12408TIP3    H237168   3.295   7.198   5.532
12409TIP3   OH237169   3.382   7.105   5.659
12409TIP3    H137170   3.374   7.029   5.717
12409TIP3    H237171   3.439   7.166   5.707
12410TIP3   OH237172   5.115   7.507   5.457
12410TIP3    H137173   5.140   7.536   5.545
12410TIP3    H237174   5.180   7.548   5.400
12411TIP3   OH237175   5.145   7.521   5.740
12411TIP3    H137176   5.096   7.439   5.733
12411TIP3    H237177   5.218   7.500   5.798
12412TIP3   OH237178   5.189   7.203   6.313
12412TIP3    H137179   5.118   7.209   6.376
12412TIP3    H237180   5.232   7.289   6.317
12413TIP3   OH237181   5.194   6.976   5.566
12413TIP3    H137182   5.239   6.903   5.522
12413TIP3    H237183   5.179   7.040   5.497
12414TIP3   OH237184   5.015   7.275   5.760
12414TIP3    H137185   4.946   7.315   5.812
12414TIP3    H237186   4.969   7.227   5.691
12415TIP3   OH237187   4.943   6.162   4.724
12415TIP3    H137188   4.885   6.201   4.658
12415TIP3    H237189   4.924   6.068   4.719
12416TIP3   OH237190   4.917   6.430   5.241
12416TIP3    H137191   4.928   6.335   5.251
12416TIP3    H237192   4.990   6.468   5.291
12417TIP3   OH237193   3.573   6.506   6.028
12417TIP3    H137194   3.564   6.443   5.958
12417TIP3    H237195   3.667   6.514   6.042
12418TIP3   OH237196   5.237   6.863   6.138
12418TIP3    H137197   5.306   6.798   6.127
12418TIP3    H237198   5.257   6.930   6.072
12419TIP3   OH237199   5.420   6.663   6.149
12419TIP3    H137200   5.344   6.619   6.187
12419TIP3    H237201   5.493   6.603   6.165
12420TIP3   OH237202   4.887   5.895   4.716
12420TIP3    H137203   4.953   5.863   4.777
12420TIP3    H237204   4.808   5.845   4.737
12421TIP3   OH237205   4.954   6.151   5.168
12421TIP3    H137206   4.987   6.063   5.189
12421TIP3    H237207   5.008   6.179   5.093
12422TIP3   OH237208   5.107   6.322   5.667
12422TIP3    H137209   5.187   6.346   5.621
12422TIP3    H237210   5.115   6.361   5.753
12423TIP3   OH237211   5.176   6.474   5.900
12423TIP3    H137212   5.098   6.504   5.946
12423TIP3    H237213   5.208   6.552   5.854
12424TIP3   OH237214   3.781   6.185   6.696
12424TIP3    H137215   3.877   6.192   6.699
12424TIP3    H237216   3.762   6.104   6.745
12425TIP3   OH237217   5.627   6.066   6.455
12425TIP3    H137218   5.685   6.001   6.414
12425TIP3    H237219   5.595   6.119   6.382
12426TIP3   OH237220   5.056   5.899   5.213
12426TIP3    H137221   5.100   5.887   5.296
12426TIP3    H237222   4.992   5.828   5.209
12427TIP3   OH237223   3.751   5.890   6.038
12427TIP3    H137224   3.816   5.820   6.042
12427TIP3    H237225   3.802   5.970   6.026
12428TIP3   OH237226   3.559   6.152   6.111
12428TIP3    H137227   3.560   6.158   6.016
12428TIP3    H237228   3.604   6.231   6.141
12429TIP3   OH237229   5.491   6.200   6.262
12429TIP3    H137230   5.408   6.245   6.281
12429TIP3    H237231   5.466   6.128   6.204
12430TIP3   OH237232   5.133   5.836   4.848
12430TIP3    H137233   5.169   5.768   4.792
12430TIP3    H237234   5.196   5.907   4.843
12431TIP3   OH237235   3.535   5.660   5.600
12431TIP3    H137236   3.446   5.664   5.633
12431TIP3    H237237   3.537   5.721   5.526
12432TIP3   OH237238   4.700   7.371   5.111
12432TIP3    H137239   4.751   7.363   5.031
12432TIP3    H237240   4.747   7.436   5.163
12433TIP3   OH237241   3.756   5.750   6.422
12433TIP3    H137242   3.704   5.746   6.503
12433TIP3    H237243   3.696   5.788   6.357
12434TIP3   OH237244   3.793   7.182   6.499
12434TIP3    H137245   3.705   7.152   6.480
12434TIP3    H237246   3.810   7.153   6.589
12435TIP3   OH237247   3.979   7.208   6.048
12435TIP3    H137248   3.923   7.271   6.003
12435TIP3    H237249   4.066   7.220   6.009
12436TIP3   OH237250   4.434   7.435   6.176
12436TIP3    H137251   4.468   7.456   6.263
12436TIP3    H237252   4.478   7.496   6.117
12437TIP3   OH237253   4.622   7.592   6.050
12437TIP3    H137254   4.697   7.541   6.016
12437TIP3    H237255   4.662   7.658   6.106
12438TIP3   OH237256   5.393   5.964   6.141
12438TIP3    H137257   5.305   5.962   6.104
12438TIP3    H237258   5.425   5.874   6.130
12439TIP3   OH237259   3.644   7.469   6.073
12439TIP3    H137260   3.558   7.504   6.050
12439TIP3    H237261   3.657   7.495   6.164
12440TIP3   OH237262   3.858   7.402   5.910
12440TIP3    H137263   3.785   7.439   5.959
12440TIP3    H237264   3.872   7.464   5.838
12441TIP3   OH237265   4.308   7.493   5.751
12441TIP3    H137266   4.247   7.512   5.679
12441TIP3    H237267   4.296   7.567   5.812
12442TIP3   OH237268   4.577   7.410   5.767
12442TIP3    H137269   4.484   7.434   5.768
12442TIP3    H237270   4.622   7.492   5.743
12443TIP3   OH237271   4.797   7.605   5.690
12443TIP3    H137272   4.778   7.687   5.644
12443TIP3    H237273   4.817   7.542   5.620
12444TIP3   OH237274   3.563   7.253   5.816
12444TIP3    H137275   3.590   7.233   5.905
12444TIP3    H237276   3.634   7.219   5.761
12445TIP3   OH237277   3.760   7.131   5.673
12445TIP3    H137278   3.773   7.049   5.720
12445TIP3    H237279   3.848   7.170   5.670
12446TIP3   OH237280   4.028   7.221   5.676
12446TIP3    H137281   4.055   7.129   5.666
12446TIP3    H237282   4.068   7.249   5.758
12447TIP3   OH237283   4.607   5.881   5.770
12447TIP3    H137284   4.559   5.812   5.815
12447TIP3    H237285   4.674   5.836   5.719
12448TIP3   OH237286   5.120   5.761   5.664
12448TIP3    H137287   5.157   5.812   5.592
12448TIP3    H237288   5.026   5.782   5.662
12449TIP3   OH237289   5.221   5.859   5.430
12449TIP3    H137290   5.291   5.807   5.391
12449TIP3    H237291   5.248   5.950   5.416
12450TIP3   OH237292   3.845   5.584   5.779
12450TIP3    H137293   3.754   5.555   5.779
12450TIP3    H237294   3.896   5.502   5.774
12451TIP3   OH237295   3.637   5.460   5.426
12451TIP3    H137296   3.667   5.514   5.352
12451TIP3    H237297   3.607   5.524   5.491
12452TIP3   OH237298   4.297   5.619   5.658
12452TIP3    H137299   4.350   5.667   5.594
12452TIP3    H237300   4.313   5.663   5.741
12453TIP3   OH237301   4.838   5.766   5.642
12453TIP3    H137302   4.834   5.734   5.552
12453TIP3    H237303   4.825   5.689   5.696
12454TIP3   OH237304   4.867   5.693   5.206
12454TIP3    H137305   4.785   5.741   5.218
12454TIP3    H237306   4.852   5.608   5.248
12455TIP3   OH237307   3.347   7.035   5.199
12455TIP3    H137308   3.264   7.001   5.169
12455TIP3    H237309   3.344   7.129   5.178
12456TIP3   OH237310   3.756   5.614   5.191
12456TIP3    H137311   3.802   5.555   5.131
12456TIP3    H237312   3.825   5.671   5.225
12457TIP3   OH237313   4.265   5.795   5.289
12457TIP3    H137314   4.326   5.748   5.346
12457TIP3    H237315   4.280   5.887   5.308
12458TIP3   OH237316   4.125   7.214   4.783
12458TIP3    H137317   4.211   7.240   4.751
12458TIP3    H237318   4.099   7.140   4.728
12459TIP3   OH237319   4.844   7.342   4.878
12459TIP3    H137320   4.841   7.247   4.869
12459TIP3    H237321   4.799   7.375   4.800
12460TIP3   OH237322   4.075   5.882   6.661
12460TIP3    H137323   4.035   5.805   6.702
12460TIP3    H237324   4.167   5.877   6.688
12461TIP3   OH237325   4.330   5.837   6.791
12461TIP3    H137326   4.393   5.857   6.722
12461TIP3    H237327   4.368   5.761   6.836
12462TIP3   OH237328   3.434   7.062   4.848
12462TIP3    H137329   3.436   7.063   4.944
12462TIP3    H237330   3.515   7.017   4.823
12463TIP3   OH237331   5.133   5.930   6.575
12463TIP3    H137332   5.149   5.900   6.664
12463TIP3    H237333   5.219   5.926   6.532
12464TIP3   OH237334   5.066   7.481   6.066
12464TIP3    H137335   4.990   7.447   6.018
12464TIP3    H237336   5.048   7.575   6.073
12465TIP3   OH237337   6.336   6.858   4.827
12465TIP3    H137338   6.308   6.948   4.809
12465TIP3    H237339   6.262   6.804   4.800
12466TIP3   OH237340   6.337   6.852   5.218
12466TIP3    H137341   6.370   6.830   5.305
12466TIP3    H237342   6.292   6.773   5.188
12467TIP3   OH237343   5.636   6.748   5.572
12467TIP3    H137344   5.659   6.678   5.633
12467TIP3    H237345   5.714   6.802   5.566
12468TIP3   OH237346   6.580   7.161   4.897
12468TIP3    H137347   6.562   7.089   4.957
12468TIP3    H237348   6.609   7.233   4.954
12469TIP3   OH237349   5.610   7.161   5.304
12469TIP3    H137350   5.597   7.067   5.304
12469TIP3    H237351   5.705   7.173   5.300
12470TIP3   OH237352   5.317   6.373   5.100
12470TIP3    H137353   5.298   6.448   5.156
12470TIP3    H237354   5.238   6.319   5.104
12471TIP3   OH237355   6.232   7.618   4.914
12471TIP3    H137356   6.274   7.546   4.867
12471TIP3    H237357   6.214   7.583   5.001
12472TIP3   OH237358   6.136   7.080   5.262
12472TIP3    H137359   6.168   7.002   5.217
12472TIP3    H237360   6.215   7.128   5.288
12473TIP3   OH237361   7.149   6.401   5.260
12473TIP3    H137362   7.176   6.481   5.304
12473TIP3    H237363   7.170   6.416   5.168
12474TIP3   OH237364   6.549   6.579   5.290
12474TIP3    H137365   6.589   6.496   5.314
12474TIP3    H237366   6.514   6.565   5.203
12475TIP3   OH237367   5.889   6.240   5.251
12475TIP3    H137368   5.866   6.314   5.195
12475TIP3    H237369   5.840   6.166   5.215
12476TIP3   OH237370   6.583   6.331   4.880
12476TIP3    H137371   6.650   6.317   4.947
12476TIP3    H237372   6.631   6.367   4.805
12477TIP3   OH237373   5.524   6.435   5.385
12477TIP3    H137374   5.611   6.409   5.416
12477TIP3    H237375   5.522   6.408   5.293
12478TIP3   OH237376   5.958   6.639   5.159
12478TIP3    H137377   6.049   6.616   5.174
12478TIP3    H237378   5.917   6.558   5.128
12479TIP3   OH237379   7.220   6.610   5.429
12479TIP3    H137380   7.135   6.652   5.412
12479TIP3    H237381   7.244   6.638   5.517
12480TIP3   OH237382   5.880   6.222   5.699
12480TIP3    H137383   5.826   6.255   5.627
12480TIP3    H237384   5.828   6.241   5.778
12481TIP3   OH237385   6.231   7.082   4.695
12481TIP3    H137386   6.183   7.053   4.617
12481TIP3    H237387   6.184   7.160   4.724
12482TIP3   OH237388   5.988   7.004   5.487
12482TIP3    H137389   5.926   7.067   5.524
12482TIP3    H237390   6.029   7.050   5.414
12483TIP3   OH237391   6.786   6.338   5.058
12483TIP3    H137392   6.769   6.291   5.140
12483TIP3    H237393   6.838   6.414   5.084
12484TIP3   OH237394   5.764   6.331   5.477
12484TIP3    H137395   5.819   6.406   5.501
12484TIP3    H237396   5.809   6.291   5.402
12485TIP3   OH237397   5.814   7.198   5.588
12485TIP3    H137398   5.791   7.283   5.549
12485TIP3    H237399   5.738   7.175   5.642
12486TIP3   OH237400   5.228   6.888   4.813
12486TIP3    H137401   5.162   6.915   4.749
12486TIP3    H237402   5.247   6.968   4.862
12487TIP3   OH237403   6.646   7.404   5.062
12487TIP3    H137404   6.561   7.391   5.103
12487TIP3    H237405   6.639   7.489   5.018
12488TIP3   OH237406   6.941   6.299   5.425
12488TIP3    H137407   6.854   6.326   5.395
12488TIP3    H237408   7.000   6.330   5.356
12489TIP3   OH237409   6.234   5.941   5.413
12489TIP3    H137410   6.220   5.847   5.426
12489TIP3    H237411   6.159   5.982   5.456
12490TIP3   OH237412   6.351   7.444   4.736
12490TIP3    H137413   6.398   7.362   4.721
12490TIP3    H237414   6.406   7.511   4.694
12491TIP3   OH237415   6.496   7.231   4.644
12491TIP3    H137416   6.443   7.157   4.615
12491TIP3    H237417   6.535   7.201   4.726
12492TIP3   OH237418   6.855   7.312   5.397
12492TIP3    H137419   6.848   7.234   5.342
12492TIP3    H237420   6.844   7.386   5.337
12493TIP3   OH237421   6.165   6.707   4.664
12493TIP3    H137422   6.084   6.755   4.646
12493TIP3    H237423   6.210   6.703   4.580
12494TIP3   OH237424   6.126   6.493   4.376
12494TIP3    H137425   6.190   6.544   4.426
12494TIP3    H237426   6.179   6.429   4.329
12495TIP3   OH237427   7.069   6.955   5.249
12495TIP3    H137428   6.986   7.001   5.259
12495TIP3    H237429   7.094   6.970   5.158
12496TIP3   OH237430   6.515   6.790   4.635
12496TIP3    H137431   6.459   6.814   4.708
12496TIP3    H237432   6.598   6.764   4.676
12497TIP3   OH237433   6.744   6.817   5.542
12497TIP3    H137434   6.748   6.893   5.599
12497TIP3    H237435   6.659   6.824   5.499
12498TIP3   OH237436   5.749   6.785   5.046
12498TIP3    H137437   5.706   6.728   4.982
12498TIP3    H237438   5.822   6.733   5.080
12499TIP3   OH237439   5.880   7.203   5.196
12499TIP3    H137440   5.853   7.158   5.116
12499TIP3    H237441   5.966   7.166   5.217
12500TIP3   OH237442   5.897   6.753   5.412
12500TIP3    H137443   5.915   6.735   5.319
12500TIP3    H237444   5.928   6.842   5.425
12501TIP3   OH237445   6.409   7.394   5.185
12501TIP3    H137446   6.394   7.472   5.239
12501TIP3    H237447   6.393   7.321   5.245
12502TIP3   OH237448   6.016   7.314   5.732
12502TIP3    H137449   5.959   7.376   5.777
12502TIP3    H237450   5.956   7.260   5.681
12503TIP3   OH237451   6.356   6.648   4.461
12503TIP3    H137452   6.412   6.705   4.513
12503TIP3    H237453   6.378   6.668   4.370
12504TIP3   OH237454   5.774   6.868   5.838
12504TIP3    H137455   5.781   6.955   5.878
12504TIP3    H237456   5.681   6.846   5.844
12505TIP3   OH237457   6.100   7.322   4.733
12505TIP3    H137458   6.177   7.377   4.751
12505TIP3    H237459   6.035   7.383   4.698
12506TIP3   OH237460   5.810   7.481   5.819
12506TIP3    H137461   5.778   7.481   5.729
12506TIP3    H237462   5.733   7.458   5.871
12507TIP3   OH237463   6.868   5.887   4.511
12507TIP3    H137464   6.788   5.905   4.561
12507TIP3    H237465   6.883   5.968   4.461
12508TIP3   OH237466   5.617   6.627   4.846
12508TIP3    H137467   5.547   6.669   4.796
12508TIP3    H237468   5.574   6.553   4.889
12509TIP3   OH237469   6.676   7.255   4.065
12509TIP3    H137470   6.685   7.349   4.047
12509TIP3    H237471   6.763   7.219   4.049
12510TIP3   OH237472   5.393   7.011   5.762
12510TIP3    H137473   5.327   6.995   5.696
12510TIP3    H237474   5.430   6.925   5.781
12511TIP3   OH237475   5.246   7.212   5.387
12511TIP3    H137476   5.340   7.194   5.384
12511TIP3    H237477   5.237   7.284   5.450
12512TIP3   OH237478   6.214   7.442   5.590
12512TIP3    H137479   6.215   7.533   5.619
12512TIP3    H237480   6.144   7.401   5.640
12513TIP3   OH237481   5.986   7.577   4.534
12513TIP3    H137482   5.932   7.553   4.459
12513TIP3    H237483   5.949   7.659   4.566
12514TIP3   OH237484   5.418   7.417   4.926
12514TIP3    H137485   5.462   7.411   5.010
12514TIP3    H237486   5.367   7.336   4.919
12515TIP3   OH237487   6.185   7.476   4.178
12515TIP3    H137488   6.237   7.403   4.144
12515TIP3    H237489   6.210   7.481   4.270
12516TIP3   OH237490   6.236   7.526   4.447
12516TIP3    H137491   6.146   7.541   4.477
12516TIP3    H237492   6.278   7.477   4.517
12517TIP3   OH237493   7.019   6.790   5.714
12517TIP3    H137494   6.932   6.806   5.677
12517TIP3    H237495   7.031   6.696   5.709
12518TIP3   OH237496   5.598   7.195   5.752
12518TIP3    H137497   5.647   7.178   5.832
12518TIP3    H237498   5.524   7.134   5.756
12519TIP3   OH237499   5.995   6.021   5.540
12519TIP3    H137500   5.911   5.986   5.510
12519TIP3    H237501   5.973   6.100   5.588
12520TIP3   OH237502   6.531   6.132   5.734
12520TIP3    H137503   6.599   6.105   5.796
12520TIP3    H237504   6.449   6.113   5.779
12521TIP3   OH237505   6.769   6.561   5.653
12521TIP3    H137506   6.720   6.561   5.735
12521TIP3    H237507   6.747   6.646   5.613
12522TIP3   OH237508   6.431   6.691   4.203
12522TIP3    H137509   6.395   6.667   4.118
12522TIP3    H237510   6.514   6.734   4.182
12523TIP3   OH237511   6.142   6.064   4.511
12523TIP3    H137512   6.110   6.066   4.601
12523TIP3    H237513   6.104   5.984   4.473
12524TIP3   OH237514   5.932   6.533   5.560
12524TIP3    H137515   5.879   6.549   5.638
12524TIP3    H237516   5.920   6.610   5.506
12525TIP3   OH237517   5.813   6.421   5.066
12525TIP3    H137518   5.723   6.399   5.090
12525TIP3    H237519   5.825   6.381   4.980
12526TIP3   OH237520   6.304   6.508   4.798
12526TIP3    H137521   6.251   6.577   4.758
12526TIP3    H237522   6.358   6.474   4.727
12527TIP3   OH237523   6.478   6.782   5.888
12527TIP3    H137524   6.454   6.710   5.946
12527TIP3    H237525   6.572   6.795   5.903
12528TIP3   OH237526   6.460   6.532   5.032
12528TIP3    H137527   6.396   6.562   4.967
12528TIP3    H237528   6.497   6.452   4.994
12529TIP3   OH237529   5.752   6.562   5.765
12529TIP3    H137530   5.766   6.628   5.832
12529TIP3    H237531   5.734   6.482   5.813
12530TIP3   OH237532   5.797   6.043   4.476
12530TIP3    H137533   5.790   6.039   4.571
12530TIP3    H237534   5.721   6.094   4.448
12531TIP3   OH237535   5.342   6.081   5.343
12531TIP3    H137536   5.412   6.117   5.399
12531TIP3    H237537   5.388   6.051   5.264
12532TIP3   OH237538   5.312   6.064   4.863
12532TIP3    H137539   5.352   6.105   4.786
12532TIP3    H237540   5.249   6.129   4.894
12533TIP3   OH237541   6.468   6.777   5.456
12533TIP3    H137542   6.503   6.709   5.397
12533TIP3    H237543   6.439   6.729   5.533
12534TIP3   OH237544   6.144   6.240   5.131
12534TIP3    H137545   6.061   6.240   5.179
12534TIP3    H237546   6.211   6.238   5.200
12535TIP3   OH237547   5.578   6.306   5.132
12535TIP3    H137548   5.485   6.320   5.111
12535TIP3    H237549   5.593   6.213   5.115
12536TIP3   OH237550   5.841   6.292   4.828
12536TIP3    H137551   5.932   6.310   4.806
12536TIP3    H237552   5.792   6.316   4.749
12537TIP3   OH237553   6.630   6.316   5.334
12537TIP3    H137554   6.601   6.332   5.424
12537TIP3    H237555   6.564   6.257   5.298
12538TIP3   OH237556   5.689   6.327   4.602
12538TIP3    H137557   5.616   6.283   4.558
12538TIP3    H237558   5.741   6.364   4.531
12539TIP3   OH237559   5.759   7.119   5.975
12539TIP3    H137560   5.838   7.150   6.020
12539TIP3    H237561   5.692   7.115   6.044
12540TIP3   OH237562   6.224   6.572   5.231
12540TIP3    H137563   6.295   6.529   5.183
12540TIP3    H237564   6.226   6.531   5.317
12541TIP3   OH237565   5.745   6.054   5.112
12541TIP3    H137566   5.707   5.980   5.160
12541TIP3    H237567   5.787   6.014   5.036
12542TIP3   OH237568   6.199   6.472   5.515
12542TIP3    H137569   6.110   6.503   5.531
12542TIP3    H237570   6.254   6.531   5.566
12543TIP3   OH237571   5.935   6.856   4.614
12543TIP3    H137572   5.865   6.792   4.600
12543TIP3    H237573   5.918   6.891   4.702
12544TIP3   OH237574   6.833   7.092   5.235
12544TIP3    H137575   6.857   7.140   5.155
12544TIP3    H237576   6.750   7.050   5.213
12545TIP3   OH237577   6.392   6.171   4.476
12545TIP3    H137578   6.299   6.151   4.487
12545TIP3    H237579   6.400   6.262   4.504
12546TIP3   OH237580   6.337   7.181   5.609
12546TIP3    H137581   6.359   7.155   5.698
12546TIP3    H237582   6.294   7.266   5.619
12547TIP3   OH237583   6.462   6.419   4.581
12547TIP3    H137584   6.557   6.424   4.597
12547TIP3    H237585   6.443   6.497   4.529
12548TIP3   OH237586   5.641   6.891   5.288
12548TIP3    H137587   5.667   6.854   5.204
12548TIP3    H237588   5.646   6.818   5.350
12549TIP3   OH237589   6.078   7.009   4.436
12549TIP3    H137590   6.033   7.093   4.440
12549TIP3    H237591   6.027   6.952   4.494
12550TIP3   OH237592   5.510   6.795   5.901
12550TIP3    H137593   5.522   6.780   5.995
12550TIP3    H237594   5.438   6.737   5.876
12551TIP3   OH237595   6.235   6.915   5.921
12551TIP3    H137596   6.170   6.858   5.879
12551TIP3    H237597   6.319   6.881   5.892
12552TIP3   OH237598   6.489   7.442   5.499
12552TIP3    H137599   6.394   7.434   5.511
12552TIP3    H237600   6.520   7.484   5.579
12553TIP3   OH237601   6.902   6.511   4.411
12553TIP3    H137602   6.842   6.463   4.353
12553TIP3    H237603   6.902   6.600   4.376
12554TIP3   OH237604   7.105   7.325   5.489
12554TIP3    H137605   7.013   7.339   5.470
12554TIP3    H237606   7.145   7.306   5.404
12555TIP3   OH237607   6.615   7.339   4.330
12555TIP3    H137608   6.585   7.275   4.395
12555TIP3    H237609   6.625   7.289   4.250
12556TIP3   OH237610   6.600   6.955   5.155
12556TIP3    H137611   6.508   6.933   5.171
12556TIP3    H237612   6.636   6.877   5.113
12557TIP3   OH237613   5.728   7.186   4.910
12557TIP3    H137614   5.723   7.267   4.859
12557TIP3    H237615   5.636   7.164   4.929
12558TIP3   OH237616   5.281   6.495   4.625
12558TIP3    H137617   5.340   6.567   4.645
12558TIP3    H237618   5.194   6.529   4.646
12559TIP3   OH237619   5.866   6.953   4.857
12559TIP3    H137620   5.831   7.040   4.875
12559TIP3    H237621   5.832   6.898   4.927
12560TIP3   OH237622   6.002   7.529   5.383
12560TIP3    H137623   6.041   7.600   5.332
12560TIP3    H237624   6.076   7.490   5.430
12561TIP3   OH237625   5.646   7.426   4.766
12561TIP3    H137626   5.562   7.430   4.813
12561TIP3    H237627   5.679   7.516   4.768
12562TIP3   OH237628   6.387   7.162   5.343
12562TIP3    H137629   6.374   7.164   5.438
12562TIP3    H237630   6.464   7.107   5.330
12563TIP3   OH237631   6.362   7.060   4.227
12563TIP3    H137632   6.417   7.035   4.301
12563TIP3    H237633   6.275   7.028   4.250
12564TIP3   OH237634   6.618   7.704   5.402
12564TIP3    H137635   6.549   7.638   5.390
12564TIP3    H237636   6.611   7.760   5.325
12565TIP3   OH237637   6.701   7.535   4.035
12565TIP3    H137638   6.751   7.609   3.999
12565TIP3    H237639   6.611   7.550   4.004
12566TIP3   OH237640   5.715   6.305   5.910
12566TIP3    H137641   5.620   6.310   5.917
12566TIP3    H237642   5.742   6.247   5.982
12567TIP3   OH237643   6.526   6.985   4.436
12567TIP3    H137644   6.510   6.924   4.508
12567TIP3    H237645   6.621   6.986   4.425
12568TIP3   OH237646   5.438   7.389   5.541
12568TIP3    H137647   5.489   7.314   5.573
12568TIP3    H237648   5.461   7.461   5.600
12569TIP3   OH237649   5.728   7.033   4.225
12569TIP3    H137650   5.739   6.943   4.197
12569TIP3    H237651   5.707   7.027   4.319
12570TIP3   OH237652   5.673   7.043   4.495
12570TIP3    H137653   5.738   7.011   4.558
12570TIP3    H237654   5.675   7.138   4.505
12571TIP3   OH237655   5.408   6.731   4.695
12571TIP3    H137656   5.347   6.772   4.755
12571TIP3    H237657   5.423   6.796   4.627
12572TIP3   OH237658   6.561   6.369   5.594
12572TIP3    H137659   6.640   6.408   5.632
12572TIP3    H237660   6.546   6.290   5.645
12573TIP3   OH237661   6.441   6.120   4.758
12573TIP3    H137662   6.426   6.141   4.667
12573TIP3    H237663   6.480   6.199   4.796
12574TIP3   OH237664   5.938   7.242   4.443
12574TIP3    H137665   5.853   7.260   4.483
12574TIP3    H237666   5.953   7.315   4.384
12575TIP3   OH237667   6.127   6.303   4.861
12575TIP3    H137668   6.189   6.374   4.844
12575TIP3    H237669   6.130   6.293   4.956
12576TIP3   OH237670   6.398   6.619   5.666
12576TIP3    H137671   6.418   6.671   5.744
12576TIP3    H237672   6.450   6.539   5.677
12577TIP3   OH237673   6.270   6.027   4.961
12577TIP3    H137674   6.257   6.102   5.019
12577TIP3    H237675   6.331   6.058   4.894
12578TIP3   OH237676   5.685   7.316   4.515
12578TIP3    H137677   5.654   7.382   4.453
12578TIP3    H237678   5.667   7.354   4.601
12579TIP3   OH237679   5.786   6.028   4.751
12579TIP3    H137680   5.777   6.116   4.788
12579TIP3    H237681   5.879   6.008   4.758
12580TIP3   OH237682   7.034   6.518   5.645
12580TIP3    H137683   6.939   6.520   5.656
12580TIP3    H237684   7.047   6.474   5.561
12581TIP3   OH237685   6.687   6.712   5.036
12581TIP3    H137686   6.610   6.656   5.047
12581TIP3    H237687   6.757   6.667   5.083
12582TIP3   OH237688   5.402   6.940   4.502
12582TIP3    H137689   5.467   7.009   4.515
12582TIP3    H237690   5.442   6.882   4.437
12583TIP3   OH237691   5.338   6.222   4.641
12583TIP3    H137692   5.334   6.318   4.641
12583TIP3    H237693   5.260   6.194   4.592
12584TIP3   OH237694   6.657   7.674   4.976
12584TIP3    H137695   6.615   7.717   4.902
12584TIP3    H237696   6.751   7.691   4.963
12585TIP3   OH237697   5.736   5.935   5.509
12585TIP3    H137698   5.703   5.906   5.424
12585TIP3    H237699   5.722   5.860   5.567
12586TIP3   OH237700   5.272   7.169   4.893
12586TIP3    H137701   5.206   7.192   4.959
12586TIP3    H237702   5.236   7.203   4.811
12587TIP3   OH237703   5.433   7.700   5.962
12587TIP3    H137704   5.517   7.699   6.009
12587TIP3    H237705   5.406   7.608   5.960
12588TIP3   OH237706   5.916   7.652   6.008
12588TIP3    H137707   6.010   7.633   6.002
12588TIP3    H237708   5.876   7.601   5.938
12589TIP3   OH237709   5.890   7.234   4.135
12589TIP3    H137710   5.831   7.170   4.175
12589TIP3    H237711   5.965   7.182   4.104
12590TIP3   OH237712   6.545   7.548   5.747
12590TIP3    H137713   6.522   7.481   5.812
12590TIP3    H237714   6.631   7.580   5.774
12591TIP3   OH237715   6.331   7.279   4.053
12591TIP3    H137716   6.362   7.208   4.110
12591TIP3    H237717   6.382   7.269   3.973
12592TIP3   OH237718   5.556   7.103   6.162
12592TIP3    H137719   5.575   7.010   6.167
12592TIP3    H237720   5.471   7.109   6.119
12593TIP3   OH237721   5.541   6.753   4.359
12593TIP3    H137722   5.591   6.722   4.435
12593TIP3    H237723   5.605   6.758   4.288
12594TIP3   OH237724   6.168   7.190   5.933
12594TIP3    H137725   6.122   7.206   5.850
12594TIP3    H237726   6.197   7.099   5.926
12595TIP3   OH237727   6.053   6.954   4.167
12595TIP3    H137728   6.051   6.969   4.262
12595TIP3    H237729   6.051   6.859   4.159
12596TIP3   OH237730   6.650   7.205   5.543
12596TIP3    H137731   6.724   7.247   5.500
12596TIP3    H237732   6.577   7.266   5.529
12597TIP3   OH237733   5.679   6.845   6.151
12597TIP3    H137734   5.752   6.789   6.123
12597TIP3    H237735   5.705   6.875   6.238
12598TIP3   OH237736   5.742   6.661   4.580
12598TIP3    H137737   5.712   6.628   4.665
12598TIP3    H237738   5.776   6.584   4.535
12599TIP3   OH237739   6.018   6.732   5.812
12599TIP3    H137740   5.937   6.782   5.814
12599TIP3    H237741   6.063   6.761   5.733
12600TIP3   OH237742   5.847   6.455   4.417
12600TIP3    H137743   5.818   6.461   4.326
12600TIP3    H237744   5.942   6.460   4.413
12601TIP3   OH237745   6.532   7.126   5.947
12601TIP3    H137746   6.615   7.108   5.903
12601TIP3    H237747   6.525   7.059   6.015
12602TIP3   OH237748   6.663   6.786   4.083
12602TIP3    H137749   6.645   6.737   4.003
12602TIP3    H237750   6.632   6.875   4.064
12603TIP3   OH237751   6.137   6.514   5.930
12603TIP3    H137752   6.136   6.436   5.875
12603TIP3    H237753   6.095   6.582   5.877
12604TIP3   OH237754   6.139   6.300   5.739
12604TIP3    H137755   6.166   6.341   5.657
12604TIP3    H237756   6.047   6.277   5.726
12605TIP3   OH237757   6.166   6.839   5.615
12605TIP3    H137758   6.248   6.845   5.566
12605TIP3    H237759   6.107   6.900   5.571
12606TIP3   OH237760   6.749   6.800   5.998
12606TIP3    H137761   6.792   6.714   5.990
12606TIP3    H237762   6.817   6.863   5.973
12607TIP3   OH237763   6.779   7.034   5.704
12607TIP3    H137764   6.721   7.093   5.655
12607TIP3    H237765   6.867   7.054   5.670
12608TIP3   OH237766   6.017   6.619   6.166
12608TIP3    H137767   5.949   6.554   6.182
12608TIP3    H237768   6.049   6.598   6.078
12609TIP3   OH237769   6.268   6.063   5.810
12609TIP3    H137770   6.223   6.145   5.787
12609TIP3    H237771   6.202   5.995   5.799
12610TIP3   OH237772   6.393   6.563   6.027
12610TIP3    H137773   6.380   6.550   6.121
12610TIP3    H237774   6.308   6.542   5.988
12611TIP3   OH237775   6.636   6.519   5.885
12611TIP3    H137776   6.559   6.517   5.942
12611TIP3    H237777   6.708   6.487   5.939
12612TIP3   OH237778   6.865   6.461   6.037
12612TIP3    H137779   6.877   6.367   6.051
12612TIP3    H237780   6.859   6.498   6.126
12613TIP3   OH237781   5.854   6.400   6.221
12613TIP3    H137782   5.857   6.311   6.184
12613TIP3    H237783   5.890   6.390   6.309
12614TIP3   OH237784   6.364   6.071   6.067
12614TIP3    H137785   6.430   6.001   6.063
12614TIP3    H237786   6.323   6.069   5.981
12615TIP3   OH237787   6.431   6.287   6.225
12615TIP3    H137788   6.409   6.217   6.164
12615TIP3    H237789   6.355   6.346   6.221
12616TIP3   OH237790   5.656   7.519   4.325
12616TIP3    H137791   5.749   7.509   4.307
12616TIP3    H237792   5.621   7.567   4.250
12617TIP3   OH237793   5.129   6.901   4.526
12617TIP3    H137794   5.222   6.922   4.526
12617TIP3    H237795   5.124   6.811   4.492
12618TIP3   OH237796   5.049   7.508   4.959
12618TIP3    H137797   4.982   7.451   4.921
12618TIP3    H237798   5.093   7.452   5.024
12619TIP3   OH237799   5.182   7.357   5.148
12619TIP3    H137800   5.172   7.284   5.210
12619TIP3    H237801   5.232   7.423   5.197
12620TIP3   OH237802   6.911   7.762   4.940
12620TIP3    H137803   6.931   7.787   5.030
12620TIP3    H237804   6.972   7.813   4.887
12621TIP3   OH237805   6.944   7.770   5.218
12621TIP3    H137806   6.902   7.684   5.220
12621TIP3    H237807   6.967   7.788   5.309
12622TIP3   OH237808   6.805   6.971   4.418
12622TIP3    H137809   6.871   7.034   4.388
12622TIP3    H237810   6.844   6.931   4.496
12623TIP3   OH237811   6.929   6.839   4.623
12623TIP3    H137812   6.864   6.796   4.679
12623TIP3    H237813   6.994   6.873   4.684
12624TIP3   OH237814   6.979   7.229   5.042
12624TIP3    H137815   7.034   7.164   4.999
12624TIP3    H237816   6.975   7.303   4.981
12625TIP3   OH237817   6.807   7.537   5.247
12625TIP3    H137818   6.739   7.570   5.307
12625TIP3    H237819   6.759   7.491   5.179
12626TIP3   OH237820   6.864   6.749   4.267
12626TIP3    H137821   6.795   6.748   4.200
12626TIP3    H237822   6.840   6.822   4.324
12627TIP3   OH237823   6.737   6.417   4.218
12627TIP3    H137824   6.691   6.454   4.142
12627TIP3    H237825   6.717   6.323   4.213
12628TIP3   OH237826   6.742   6.695   4.768
12628TIP3    H137827   6.749   6.600   4.759
12628TIP3    H237828   6.727   6.710   4.861
12629TIP3   OH237829   5.358   6.756   5.515
12629TIP3    H137830   5.331   6.707   5.437
12629TIP3    H237831   5.454   6.755   5.512
12630TIP3   OH237832   7.021   7.098   5.610
12630TIP3    H137833   7.103   7.056   5.635
12630TIP3    H237834   7.048   7.180   5.568
12631TIP3   OH237835   7.241   6.934   5.660
12631TIP3    H137836   7.158   6.894   5.686
12631TIP3    H237837   7.303   6.861   5.659
12632TIP3   OH237838   6.682   6.151   4.204
12632TIP3    H137839   6.753   6.121   4.260
12632TIP3    H237840   6.608   6.095   4.227
12633TIP3   OH237841   6.741   6.410   4.658
12633TIP3    H137842   6.779   6.324   4.676
12633TIP3    H237843   6.797   6.446   4.589
12634TIP3   OH237844   6.902   6.584   5.157
12634TIP3    H137845   6.984   6.607   5.114
12634TIP3    H237846   6.911   6.619   5.246
12635TIP3   OH237847   6.970   6.731   5.386
12635TIP3    H137848   6.893   6.758   5.436
12635TIP3    H237849   7.001   6.811   5.344
12636TIP3   OH237850   5.588   6.452   6.192
12636TIP3    H137851   5.683   6.449   6.192
12636TIP3    H237852   5.561   6.368   6.229
12637TIP3   OH237853   7.425   6.311   5.941
12637TIP3    H137854   7.477   6.244   5.896
12637TIP3    H237855   7.392   6.366   5.871
12638TIP3   OH237856   6.848   6.160   4.701
12638TIP3    H137857   6.896   6.146   4.782
12638TIP3    H237858   6.787   6.087   4.696
12639TIP3   OH237859   5.549   6.142   5.517
12639TIP3    H137860   5.614   6.072   5.526
12639TIP3    H237861   5.601   6.222   5.512
12640TIP3   OH237862   5.355   6.414   5.600
12640TIP3    H137863   5.398   6.408   5.514
12640TIP3    H237864   5.360   6.506   5.623
12641TIP3   OH237865   7.288   6.450   5.756
12641TIP3    H137866   7.211   6.495   5.790
12641TIP3    H237867   7.253   6.386   5.694
12642TIP3   OH237868   6.928   6.094   4.332
12642TIP3    H137869   6.965   6.024   4.280
12642TIP3    H237870   6.993   6.164   4.329
12643TIP3   OH237871   5.334   5.917   5.090
12643TIP3    H137872   5.244   5.915   5.122
12643TIP3    H237873   5.331   5.976   5.015
12644TIP3   OH237874   6.490   7.633   4.594
12644TIP3    H137875   6.562   7.596   4.542
12644TIP3    H237876   6.532   7.687   4.660
12645TIP3   OH237877   5.553   6.002   5.906
12645TIP3    H137878   5.504   5.999   5.989
12645TIP3    H237879   5.492   6.043   5.844
12646TIP3   OH237880   5.593   7.433   5.988
12646TIP3    H137881   5.502   7.409   5.966
12646TIP3    H237882   5.602   7.410   6.080
12647TIP3   OH237883   5.775   7.470   5.531
12647TIP3    H137884   5.722   7.541   5.496
12647TIP3    H237885   5.860   7.480   5.488
12648TIP3   OH237886   6.221   7.709   5.670
12648TIP3    H137887   6.253   7.708   5.760
12648TIP3    H237888   6.288   7.758   5.621
12649TIP3   OH237889   6.415   7.854   5.537
12649TIP3    H137890   6.475   7.797   5.489
12649TIP3    H237891   6.460   7.938   5.543
12650TIP3   OH237892   7.187   6.217   5.627
12650TIP3    H137893   7.099   6.210   5.591
12650TIP3    H237894   7.224   6.129   5.617
12651TIP3   OH237895   5.447   7.724   5.557
12651TIP3    H137896   5.359   7.753   5.532
12651TIP3    H237897   5.462   7.765   5.643
12652TIP3   OH237898   5.682   7.702   5.413
12652TIP3    H137899   5.599   7.712   5.460
12652TIP3    H237900   5.664   7.733   5.324
12653TIP3   OH237901   6.109   7.730   5.209
12653TIP3    H137902   6.038   7.745   5.147
12653TIP3    H237903   6.121   7.814   5.253
12654TIP3   OH237904   6.375   7.668   5.261
12654TIP3    H137905   6.283   7.684   5.242
12654TIP3    H237906   6.421   7.740   5.220
12655TIP3   OH237907   6.579   7.854   5.173
12655TIP3    H137908   6.565   7.936   5.127
12655TIP3    H237909   6.610   7.793   5.105
12656TIP3   OH237910   5.363   7.514   5.301
12656TIP3    H137911   5.384   7.487   5.391
12656TIP3    H237912   5.430   7.473   5.247
12657TIP3   OH237913   5.557   7.387   5.159
12657TIP3    H137914   5.567   7.305   5.207
12657TIP3    H237915   5.646   7.423   5.155
12658TIP3   OH237916   5.826   7.478   5.164
12658TIP3    H137917   5.850   7.386   5.152
12658TIP3    H237918   5.868   7.504   5.246
12659TIP3   OH237919   6.399   6.136   5.252
12659TIP3    H137920   6.354   6.068   5.302
12659TIP3    H237921   6.469   6.090   5.205
12660TIP3   OH237922   6.915   6.019   5.150
12660TIP3    H137923   6.952   6.069   5.077
12660TIP3    H237924   6.821   6.037   5.146
12661TIP3   OH237925   7.016   6.118   4.914
12661TIP3    H137926   7.086   6.064   4.878
12661TIP3    H237927   7.046   6.208   4.902
12662TIP3   OH237928   5.643   5.842   5.263
12662TIP3    H137929   5.551   5.814   5.265
12662TIP3    H237930   5.693   5.760   5.259
12663TIP3   OH237931   5.436   5.718   4.915
12663TIP3    H137932   5.461   5.773   4.841
12663TIP3    H237933   5.403   5.779   4.981
12664TIP3   OH237934   6.092   5.876   5.144
12664TIP3    H137935   6.147   5.925   5.083
12664TIP3    H237936   6.109   5.917   5.229
12665TIP3   OH237937   6.634   6.023   5.128
12665TIP3    H137938   6.633   5.986   5.039
12665TIP3    H237939   6.622   5.947   5.185
12666TIP3   OH237940   6.663   5.949   4.692
12666TIP3    H137941   6.580   5.994   4.707
12666TIP3    H237942   6.652   5.864   4.735
12667TIP3   OH237943   5.145   7.289   4.686
12667TIP3    H137944   5.062   7.253   4.653
12667TIP3    H237945   5.139   7.383   4.669
12668TIP3   OH237946   5.552   5.875   4.673
12668TIP3    H137947   5.598   5.812   4.617
12668TIP3    H237948   5.622   5.929   4.710
12669TIP3   OH237949   6.062   6.053   4.775
12669TIP3    H137950   6.119   6.004   4.834
12669TIP3    H237951   6.079   6.145   4.797
12670TIP3   OH237952   5.922   7.469   4.269
12670TIP3    H137953   6.006   7.498   4.233
12670TIP3    H237954   5.896   7.396   4.213
12671TIP3   OH237955   6.599   7.606   4.339
12671TIP3    H137956   6.646   7.523   4.345
12671TIP3    H237957   6.518   7.584   4.294
12672TIP3   OH237958   5.853   6.124   6.157
12672TIP3    H137959   5.815   6.055   6.213
12672TIP3    H237960   5.945   6.127   6.182
12673TIP3   OH237961   6.102   6.122   6.274
12673TIP3    H137962   6.185   6.100   6.233
12673TIP3    H237963   6.088   6.054   6.340
12674TIP3   OH237964   5.225   7.312   4.330
12674TIP3    H137965   5.223   7.330   4.424
12674TIP3    H237966   5.310   7.269   4.316
12675TIP3   OH237967   6.928   6.189   6.061
12675TIP3    H137968   6.945   6.158   6.150
12675TIP3    H237969   7.013   6.184   6.017
12676TIP3   OH237970   8.121   7.107   4.325
12676TIP3    H137971   8.089   7.195   4.306
12676TIP3    H237972   8.054   7.048   4.290
12677TIP3   OH237973   8.092   7.113   4.714
12677TIP3    H137974   8.155   7.069   4.770
12677TIP3    H237975   8.065   7.047   4.650
12678TIP3   OH237976   7.425   6.981   5.051
12678TIP3    H137977   7.449   6.916   5.118
12678TIP3    H237978   7.502   7.037   5.044
12679TIP3   OH237979   7.403   7.413   4.784
12679TIP3    H137980   7.390   7.318   4.787
12679TIP3    H237981   7.498   7.425   4.786
12680TIP3   OH237982   7.106   6.619   4.571
12680TIP3    H137983   7.060   6.701   4.590
12680TIP3    H237984   7.039   6.563   4.532
12681TIP3   OH237985   7.168   6.903   4.749
12681TIP3    H137986   7.214   6.827   4.786
12681TIP3    H237987   7.227   6.936   4.681
12682TIP3   OH237988   7.916   7.323   4.731
12682TIP3    H137989   7.977   7.251   4.714
12682TIP3    H237990   7.970   7.390   4.774
12683TIP3   OH237991   8.364   6.828   4.751
12683TIP3    H137992   8.386   6.738   4.773
12683TIP3    H237993   8.312   6.821   4.671
12684TIP3   OH237994   7.680   6.497   4.743
12684TIP3    H137995   7.663   6.570   4.683
12684TIP3    H237996   7.634   6.423   4.704
12685TIP3   OH237997   8.379   6.589   4.371
12685TIP3    H137998   8.447   6.567   4.435
12685TIP3    H237999   8.427   6.625   4.296
12686TIP3   OH238000   7.315   6.696   4.852
12686TIP3    H138001   7.395   6.681   4.902
12686TIP3    H238002   7.325   6.643   4.774
12687TIP3   OH238003   7.755   6.893   4.642
12687TIP3    H138004   7.847   6.870   4.657
12687TIP3    H238005   7.715   6.811   4.611
12688TIP3   OH238006   7.671   6.481   5.181
12688TIP3    H138007   7.614   6.516   5.112
12688TIP3    H238008   7.623   6.497   5.262
12689TIP3   OH238009   7.995   7.317   4.194
12689TIP3    H138010   7.959   7.305   4.106
12689TIP3    H238011   7.969   7.405   4.219
12690TIP3   OH238012   7.775   7.241   4.951
12690TIP3    H138013   7.718   7.314   4.973
12690TIP3    H238014   7.831   7.274   4.881
12691TIP3   OH238015   0.083   6.568   4.553
12691TIP3    H138016   0.040   6.535   4.632
12691TIP3    H238017   0.133   6.644   4.584
12692TIP3   OH238018   7.550   6.597   4.962
12692TIP3    H138019   7.609   6.667   4.989
12692TIP3    H238020   7.596   6.554   4.889
12693TIP3   OH238021   7.004   7.143   4.309
12693TIP3    H138022   6.965   7.167   4.225
12693TIP3    H238023   7.039   7.225   4.344
12694TIP3   OH238024   8.023   6.195   4.893
12694TIP3    H138025   8.014   6.101   4.912
12694TIP3    H238026   7.950   6.236   4.939
12695TIP3   OH238027   8.234   7.473   4.146
12695TIP3    H138028   8.201   7.393   4.105
12695TIP3    H238029   8.305   7.443   4.202
12696TIP3   OH238030   7.960   6.963   4.150
12696TIP3    H138031   7.882   7.015   4.131
12696TIP3    H238032   8.005   6.957   4.066
12697TIP3   OH238033   7.923   6.748   3.862
12697TIP3    H138034   7.987   6.801   3.910
12697TIP3    H238035   7.976   6.684   3.814
12698TIP3   OH238036   8.302   7.029   4.135
12698TIP3    H138037   8.250   7.052   4.212
12698TIP3    H238038   8.387   7.004   4.170
12699TIP3   OH238039   7.542   7.039   4.539
12699TIP3    H138040   7.501   6.984   4.473
12699TIP3    H238041   7.618   6.989   4.569
12700TIP3   OH238042   7.677   7.452   4.685
12700TIP3    H138043   7.644   7.421   4.601
12700TIP3    H238044   7.760   7.407   4.697
12701TIP3   OH238045   7.677   6.998   4.886
12701TIP3    H138046   7.708   6.974   4.798
12701TIP3    H238047   7.720   7.082   4.904
12702TIP3   OH238048   8.144   6.904   3.946
12702TIP3    H138049   8.203   6.953   4.003
12702TIP3    H238050   8.172   6.925   3.857
12703TIP3   OH238051   7.516   7.151   5.270
12703TIP3    H138052   7.469   7.214   5.216
12703TIP3    H238053   7.446   7.105   5.318
12704TIP3   OH238054   7.899   7.583   4.220
12704TIP3    H138055   7.952   7.652   4.259
12704TIP3    H238056   7.829   7.630   4.174
12705TIP3   OH238057   0.157   6.147   3.995
12705TIP3    H138058   0.080   6.154   4.051
12705TIP3    H238059   0.180   6.237   3.973
12706TIP3   OH238060   7.407   6.885   4.342
12706TIP3    H138061   7.341   6.928   4.288
12706TIP3    H238062   7.374   6.797   4.357
12707TIP3   OH238063   7.179   7.244   5.242
12707TIP3    H138064   7.111   7.233   5.176
12707TIP3    H238065   7.201   7.155   5.269
12708TIP3   OH238066   7.043   7.465   4.877
12708TIP3    H138067   7.139   7.456   4.877
12708TIP3    H238068   7.026   7.542   4.931
12709TIP3   OH238069   7.726   7.858   4.033
12709TIP3    H138070   7.722   7.813   3.949
12709TIP3    H238071   7.808   7.908   4.030
12710TIP3   OH238072   7.211   7.670   4.410
12710TIP3    H138073   7.258   7.668   4.493
12710TIP3    H238074   7.166   7.586   4.406
12711TIP3   OH238075   7.361   7.441   5.190
12711TIP3    H138076   7.432   7.450   5.253
12711TIP3    H238077   7.307   7.370   5.224
12712TIP3   OH238078   7.789   6.276   5.027
12712TIP3    H138079   7.704   6.243   4.997
12712TIP3    H238080   7.768   6.356   5.075
12713TIP3   OH238081   8.306   6.391   5.204
12713TIP3    H138082   8.377   6.386   5.269
12713TIP3    H238083   8.227   6.368   5.253
12714TIP3   OH238084   8.228   6.957   3.694
12714TIP3    H138085   8.187   6.926   3.613
12714TIP3    H238086   8.309   6.998   3.665
12715TIP3   OH238087   7.934   6.322   3.996
12715TIP3    H138088   7.904   6.322   4.087
12715TIP3    H238089   7.899   6.241   3.960
12716TIP3   OH238090   7.727   6.787   5.045
12716TIP3    H138091   7.678   6.806   5.125
12716TIP3    H238092   7.710   6.862   4.988
12717TIP3   OH238093   7.606   6.675   4.554
12717TIP3    H138094   7.516   6.651   4.576
12717TIP3    H238095   7.621   6.636   4.468
12718TIP3   OH238096   8.096   6.762   4.278
12718TIP3    H138097   8.044   6.831   4.237
12718TIP3    H238098   8.152   6.729   4.208
12719TIP3   OH238099   8.240   6.784   4.511
12719TIP3    H138100   8.178   6.809   4.442
12719TIP3    H238101   8.287   6.710   4.475
12720TIP3   OH238102   7.542   6.813   5.250
12720TIP3    H138103   7.594   6.872   5.305
12720TIP3    H238104   7.529   6.735   5.303
12721TIP3   OH238105   7.592   6.298   3.963
12721TIP3    H138106   7.586   6.294   4.058
12721TIP3    H238107   7.516   6.350   3.936
12722TIP3   OH238108   7.139   6.341   4.831
12722TIP3    H138109   7.211   6.373   4.885
12722TIP3    H238110   7.181   6.308   4.752
12723TIP3   OH238111   7.104   6.324   4.349
12723TIP3    H138112   7.151   6.357   4.273
12723TIP3    H238113   7.043   6.394   4.373
12724TIP3   OH238114   7.937   6.497   4.618
12724TIP3    H138115   7.857   6.497   4.670
12724TIP3    H238116   8.008   6.493   4.683
12725TIP3   OH238117   7.369   6.555   4.624
12725TIP3    H138118   7.278   6.562   4.598
12725TIP3    H238119   7.394   6.465   4.603
12726TIP3   OH238120   7.637   6.550   4.314
12726TIP3    H138121   7.729   6.565   4.295
12726TIP3    H238122   7.592   6.573   4.232
12727TIP3   OH238123   8.391   6.563   4.801
12727TIP3    H138124   8.368   6.578   4.892
12727TIP3    H238125   8.326   6.499   4.770
12728TIP3   OH238126   7.483   6.587   4.089
12728TIP3    H138127   7.412   6.541   4.043
12728TIP3    H238128   7.537   6.623   4.018
12729TIP3   OH238129   8.014   6.817   4.712
12729TIP3    H138130   8.088   6.783   4.663
12729TIP3    H238131   8.023   6.778   4.799
12730TIP3   OH238132   7.538   6.312   4.598
12730TIP3    H138133   7.503   6.237   4.646
12730TIP3    H238134   7.588   6.273   4.527
12731TIP3   OH238135   7.994   6.723   4.997
12731TIP3    H138136   7.904   6.751   5.014
12731TIP3    H238137   8.044   6.757   5.071
12732TIP3   OH238138   7.730   7.115   4.097
12732TIP3    H138139   7.661   7.050   4.084
12732TIP3    H238140   7.715   7.150   4.185
12733TIP3   OH238141   8.188   6.423   3.971
12733TIP3    H138142   8.094   6.407   3.975
12733TIP3    H238143   8.197   6.517   3.989
12734TIP3   OH238144   8.257   6.675   4.067
12734TIP3    H138145   8.352   6.679   4.082
12734TIP3    H238146   8.240   6.749   4.009
12735TIP3   OH238147   7.429   7.138   4.774
12735TIP3    H138148   7.466   7.111   4.690
12735TIP3    H238149   7.460   7.073   4.837
12736TIP3   OH238150   7.875   7.264   3.916
12736TIP3    H138151   7.830   7.348   3.922
12736TIP3    H238152   7.827   7.206   3.975
12737TIP3   OH238153   7.290   7.031   5.398
12737TIP3    H138154   7.285   7.011   5.491
12737TIP3    H238155   7.219   6.982   5.358
12738TIP3   OH238156   7.527   7.445   4.406
12738TIP3    H138157   7.528   7.524   4.352
12738TIP3    H238158   7.435   7.422   4.415
12739TIP3   OH238159   7.089   6.747   4.107
12739TIP3    H138160   7.136   6.827   4.127
12739TIP3    H238161   7.013   6.748   4.166
12740TIP3   OH238162   7.655   7.206   4.342
12740TIP3    H138163   7.627   7.295   4.362
12740TIP3    H238164   7.625   7.154   4.416
12741TIP3   OH238165   7.444   7.679   4.254
12741TIP3    H138166   7.360   7.687   4.298
12741TIP3    H238167   7.481   7.767   4.256
12742TIP3   OH238168   8.077   7.305   3.702
12742TIP3    H138169   8.159   7.287   3.748
12742TIP3    H238170   8.008   7.279   3.764
12743TIP3   OH238171   7.513   6.560   5.397
12743TIP3    H138172   7.418   6.568   5.407
12743TIP3    H238173   7.540   6.498   5.465
12744TIP3   OH238174   8.332   7.224   3.947
12744TIP3    H138175   8.291   7.171   4.016
12744TIP3    H238176   8.414   7.179   3.929
12745TIP3   OH238177   7.251   7.639   5.032
12745TIP3    H138178   7.288   7.560   5.071
12745TIP3    H238179   7.248   7.702   5.104
12746TIP3   OH238180   7.514   7.291   3.714
12746TIP3    H138181   7.539   7.204   3.684
12746TIP3    H238182   7.497   7.281   3.807
12747TIP3   OH238183   7.466   7.297   3.987
12747TIP3    H138184   7.540   7.268   4.040
12747TIP3    H238185   7.468   7.393   3.993
12748TIP3   OH238186   7.201   6.990   4.187
12748TIP3    H138187   7.136   7.032   4.245
12748TIP3    H238188   7.219   7.056   4.120
12749TIP3   OH238189   8.344   6.622   5.062
12749TIP3    H138190   8.357   6.680   5.137
12749TIP3    H238191   8.318   6.538   5.101
12750TIP3   OH238192   8.234   6.378   4.247
12750TIP3    H138193   8.221   6.396   4.154
12750TIP3    H238194   8.275   6.457   4.282
12751TIP3   OH238195   7.731   7.492   3.940
12751TIP3    H138196   7.644   7.511   3.975
12751TIP3    H238197   7.749   7.565   3.881
12752TIP3   OH238198   7.920   6.560   4.348
12752TIP3    H138199   7.983   6.629   4.328
12752TIP3    H238200   7.925   6.551   4.443
12753TIP3   OH238201   8.066   6.282   4.447
12753TIP3    H138202   8.056   6.356   4.506
12753TIP3    H238203   8.126   6.314   4.379
12754TIP3   OH238204   7.475   7.570   4.002
12754TIP3    H138205   7.448   7.638   3.940
12754TIP3    H238206   7.465   7.611   4.088
12755TIP3   OH238207   7.581   6.285   4.238
12755TIP3    H138208   7.574   6.373   4.276
12755TIP3    H238209   7.675   6.264   4.244
12756TIP3   OH238210   8.505   6.934   4.516
12756TIP3    H138211   8.412   6.914   4.525
12756TIP3    H238212   8.534   6.952   4.606
12757TIP3   OH238213   7.201   7.197   3.990
12757TIP3    H138214   7.269   7.263   4.002
12757TIP3    H238215   7.237   7.137   3.925
12758TIP3   OH238216   7.138   6.475   4.126
12758TIP3    H138217   7.141   6.571   4.123
12758TIP3    H238218   7.056   6.452   4.082
12759TIP3   OH238219   7.527   6.193   4.996
12759TIP3    H138220   7.497   6.161   4.911
12759TIP3    H238221   7.518   6.118   5.055
12760TIP3   OH238222   7.069   7.416   4.375
12760TIP3    H138223   7.005   7.441   4.443
12760TIP3    H238224   7.036   7.458   4.295
12761TIP3   OH238225   7.684   7.488   3.622
12761TIP3    H138226   7.627   7.421   3.660
12761TIP3    H238227   7.758   7.439   3.588
12762TIP3   OH238228   7.335   7.009   3.847
12762TIP3    H138229   7.388   6.978   3.921
12762TIP3    H238230   7.397   7.015   3.775
12763TIP3   OH238231   7.806   7.195   3.653
12763TIP3    H138232   7.821   7.215   3.746
12763TIP3    H238233   7.829   7.103   3.645
12764TIP3   OH238234   7.536   6.917   4.064
12764TIP3    H138235   7.513   6.879   4.149
12764TIP3    H238236   7.575   6.844   4.015
12765TIP3   OH238237   7.789   6.976   5.292
12765TIP3    H138238   7.754   7.052   5.337
12765TIP3    H238239   7.833   7.012   5.215
12766TIP3   OH238240   7.644   6.713   3.904
12766TIP3    H138241   7.616   6.717   3.813
12766TIP3    H238242   7.739   6.716   3.900
12767TIP3   OH238243   7.890   6.763   5.450
12767TIP3    H138244   7.931   6.698   5.393
12767TIP3    H238245   7.866   6.835   5.392
12768TIP3   OH238246   7.934   6.541   5.219
12768TIP3    H138247   7.961   6.582   5.136
12768TIP3    H238248   7.840   6.527   5.209
12769TIP3   OH238249   8.063   6.321   5.316
12769TIP3    H138250   8.018   6.400   5.286
12769TIP3    H238251   8.001   6.250   5.299
12770TIP3   OH238252   7.639   6.653   5.714
12770TIP3    H138253   7.645   6.575   5.658
12770TIP3    H238254   7.709   6.641   5.778
12771TIP3   OH238255   8.163   6.324   5.573
12771TIP3    H138256   8.230   6.258   5.555
12771TIP3    H238257   8.115   6.333   5.490
12772TIP3   OH238258   7.443   7.773   3.816
12772TIP3    H138259   7.537   7.758   3.808
12772TIP3    H238260   7.420   7.821   3.736
12773TIP3   OH238261   6.931   7.154   4.026
12773TIP3    H138262   7.023   7.177   4.014
12773TIP3    H238263   6.922   7.067   3.987
12774TIP3   OH238264   6.842   7.752   4.433
12774TIP3    H138265   6.806   7.680   4.382
12774TIP3    H238266   6.893   7.710   4.502
12775TIP3   OH238267   6.972   7.623   4.632
12775TIP3    H138268   6.964   7.550   4.693
12775TIP3    H238269   7.026   7.687   4.678
12776TIP3   OH238270   8.499   6.687   3.716
12776TIP3    H138271   8.487   6.707   3.623
12776TIP3    H238272   8.490   6.592   3.720
12777TIP3   OH238273   0.035   6.942   4.246
12777TIP3    H138274   0.045   6.849   4.230
12777TIP3    H238275   0.037   6.951   4.341
12778TIP3   OH238276   7.162   7.024   4.995
12778TIP3    H138277   7.152   6.990   4.906
12778TIP3    H238278   7.256   7.020   5.013
12779TIP3   OH238279   8.466   6.415   3.720
12779TIP3    H138280   8.532   6.350   3.747
12779TIP3    H238281   8.387   6.364   3.704
12780TIP3   OH238282   0.034   6.667   4.151
12780TIP3    H138283   0.067   6.579   4.169
12780TIP3    H238284   0.082   6.695   4.073
12781TIP3   OH238285   7.373   6.696   5.665
12781TIP3    H138286   7.468   6.699   5.676
12781TIP3    H238287   7.346   6.615   5.709
12782TIP3   OH238288   0.124   6.416   4.201
12782TIP3    H138289   0.185   6.393   4.271
12782TIP3    H238290   0.068   6.340   4.192
12783TIP3   OH238291   7.346   6.404   5.006
12783TIP3    H138292   7.405   6.328   5.015
12783TIP3    H238293   7.405   6.479   4.998
12784TIP3   OH238294   7.145   6.679   5.076
12784TIP3    H138295   7.192   6.670   4.993
12784TIP3    H238296   7.181   6.758   5.116
12785TIP3   OH238297   7.129   6.180   4.578
12785TIP3    H138298   7.039   6.175   4.608
12785TIP3    H238299   7.126   6.237   4.502
12786TIP3   OH238300   7.349   6.262   5.395
12786TIP3    H138301   7.301   6.255   5.477
12786TIP3    H238302   7.285   6.298   5.333
12787TIP3   OH238303   7.160   7.764   4.788
12787TIP3    H138304   7.184   7.738   4.876
12787TIP3    H238305   7.227   7.725   4.732
12788TIP3   OH238306   7.345   7.635   4.641
12788TIP3    H138307   7.358   7.554   4.689
12788TIP3    H238308   7.433   7.672   4.631
12789TIP3   OH238309   7.602   7.714   4.642
12789TIP3    H138310   7.642   7.627   4.648
12789TIP3    H238311   7.642   7.763   4.714
12790TIP3   OH238312   8.186   6.380   4.732
12790TIP3    H138313   8.141   6.314   4.784
12790TIP3    H238314   8.258   6.333   4.689
12791TIP3   OH238315   0.221   6.275   4.636
12791TIP3    H138316   0.251   6.326   4.561
12791TIP3    H238317   0.127   6.293   4.641
12792TIP3   OH238318   0.324   6.369   4.393
12792TIP3    H138319   0.390   6.311   4.356
12792TIP3    H238320   0.361   6.457   4.386
12793TIP3   OH238321   7.439   6.098   4.750
12793TIP3    H138322   7.348   6.069   4.753
12793TIP3    H238323   7.490   6.017   4.747
12794TIP3   OH238324   7.226   5.975   4.400
12794TIP3    H138325   7.257   6.029   4.328
12794TIP3    H238326   7.199   6.038   4.467
12795TIP3   OH238327   7.886   6.136   4.632
12795TIP3    H138328   7.942   6.182   4.569
12795TIP3    H238329   7.913   6.171   4.717
12796TIP3   OH238330   8.434   6.277   4.613
12796TIP3    H138331   8.434   6.239   4.526
12796TIP3    H238332   8.422   6.202   4.672
12797TIP3   OH238333   8.455   6.201   4.180
12797TIP3    H138334   8.371   6.245   4.191
12797TIP3    H238335   8.444   6.116   4.223
12798TIP3   OH238336   6.932   7.554   4.184
12798TIP3    H138337   6.855   7.518   4.141
12798TIP3    H238338   6.937   7.644   4.154
12799TIP3   OH238339   7.349   6.132   4.160
12799TIP3    H138340   7.394   6.068   4.104
12799TIP3    H238341   7.420   6.185   4.196
12800TIP3   OH238342   7.857   6.310   4.262
12800TIP3    H138343   7.914   6.259   4.319
12800TIP3    H238344   7.876   6.401   4.284
12801TIP3   OH238345   7.710   7.717   3.778
12801TIP3    H138346   7.775   7.775   3.738
12801TIP3    H238347   7.696   7.648   3.713
12802TIP3   OH238348   7.644   6.373   5.637
12802TIP3    H138349   7.605   6.303   5.689
12802TIP3    H238350   7.735   6.375   5.665
12803TIP3   OH238351   7.895   6.358   5.743
12803TIP3    H138352   7.978   6.370   5.697
12803TIP3    H238353   7.909   6.282   5.799
12804TIP3   OH238354   7.024   7.563   3.821
12804TIP3    H138355   7.039   7.588   3.912
12804TIP3    H238356   7.106   7.521   3.794
12805TIP3   OH238357   1.392   7.435   6.419
12805TIP3    H138358   1.420   7.513   6.465
12805TIP3    H238359   1.423   7.447   6.329
12806TIP3   OH238360   0.835   7.326   6.048
12806TIP3    H138361   0.894   7.348   6.120
12806TIP3    H238362   0.857   7.388   5.979
12807TIP3   OH238363   1.468   7.632   6.595
12807TIP3    H138364   1.414   7.707   6.571
12807TIP3    H238365   1.445   7.613   6.686
12808TIP3   OH238366   1.025   7.393   6.234
12808TIP3    H138367   1.048   7.315   6.284
12808TIP3    H238368   1.089   7.459   6.261
12809TIP3   OH238369   1.192   7.353   6.597
12809TIP3    H138370   1.110   7.390   6.565
12809TIP3    H238371   1.256   7.373   6.528
12810TIP3   OH238372   1.120   6.933   5.686
12810TIP3    H138373   1.040   6.954   5.735
12810TIP3    H238374   1.138   7.012   5.635
12811TIP3   OH238375   1.155   7.555   5.583
12811TIP3    H138376   1.092   7.511   5.526
12811TIP3    H238377   1.154   7.646   5.552
12812TIP3   OH238378   1.263   7.537   6.793
12812TIP3    H138379   1.186   7.528   6.849
12812TIP3    H238380   1.251   7.469   6.726
12813TIP3   OH238381   0.924   7.740   6.220
12813TIP3    H138382   0.868   7.662   6.220
12813TIP3    H238383   1.007   7.709   6.255
12814TIP3   OH238384   0.927   7.826   5.253
12814TIP3    H138385   0.879   7.780   5.184
12814TIP3    H238386   0.913   7.919   5.234
12815TIP3   OH238387   1.055   8.005   5.592
12815TIP3    H138388   1.125   8.066   5.566
12815TIP3    H238389   1.088   7.965   5.673
12816TIP3   OH238390   1.180   7.878   5.795
12816TIP3    H138391   1.121   7.833   5.856
12816TIP3    H238392   1.249   7.914   5.850
12817TIP3   OH238393   1.116   7.789   5.442
12817TIP3    H138394   1.048   7.787   5.375
12817TIP3    H238395   1.092   7.862   5.499
12818TIP3   OH238396   0.984   7.464   5.393
12818TIP3    H138397   0.936   7.508   5.323
12818TIP3    H238398   0.968   7.370   5.378
12819TIP3   OH238399   1.016   7.732   5.955
12819TIP3    H138400   0.998   7.642   5.930
12819TIP3    H238401   0.979   7.741   6.042
12820TIP3   OH238402   0.946   7.194   5.380
12820TIP3    H138403   1.021   7.174   5.436
12820TIP3    H238404   0.875   7.138   5.412
12821TIP3   OH238405   0.998   7.464   5.855
12821TIP3    H138406   1.036   7.376   5.865
12821TIP3    H238407   1.031   7.495   5.771
12822TIP3   OH238408   1.152   7.635   6.337
12822TIP3    H138409   1.234   7.665   6.298
12822TIP3    H238410   1.156   7.666   6.428
12823TIP3   OH238411   7.401   3.380   0.165
12823TIP3    H138412   7.425   3.300   0.118
12823TIP3    H238413   7.349   3.430   0.102
12824TIP3   OH238414   1.108   7.203   5.870
12824TIP3    H138415   1.149   7.196   5.956
12824TIP3    H238416   1.040   7.135   5.871
12825TIP3   OH238417   1.611   7.449   6.866
12825TIP3    H138418   1.551   7.508   6.912
12825TIP3    H238419   1.554   7.381   6.829
12826TIP3   OH238420   1.184   7.138   5.512
12826TIP3    H138421   1.222   7.072   5.454
12826TIP3    H238422   1.245   7.211   5.508
12827TIP3   OH238423   1.437   7.252   6.774
12827TIP3    H138424   1.345   7.236   6.751
12827TIP3    H238425   1.477   7.164   6.776
12828TIP3   OH238426   1.182   7.051   6.319
12828TIP3    H138427   1.220   7.101   6.248
12828TIP3    H238428   1.089   7.074   6.319
12829TIP3   OH238429   1.266   7.163   6.090
12829TIP3    H138430   1.336   7.109   6.053
12829TIP3    H238431   1.296   7.253   6.077
12830TIP3   OH238432   0.920   7.090   6.299
12830TIP3    H138433   0.841   7.115   6.251
12830TIP3    H238434   0.899   7.003   6.335
12831TIP3   OH238435   0.915   6.987   5.864
12831TIP3    H138436   0.834   7.032   5.839
12831TIP3    H238437   0.897   6.950   5.950
12832TIP3   OH238438   5.209   0.123   5.506
12832TIP3    H138439   5.180   0.212   5.487
12832TIP3    H238440   5.143   0.067   5.466
12833TIP3   OH238441   5.189   0.145   5.891
12833TIP3    H138442   5.244   0.119   5.965
12833TIP3    H238443   5.199   0.074   5.827
12834TIP3   OH238444   4.537   0.051   6.251
12834TIP3    H138445   4.548  -0.025   6.308
12834TIP3    H238446   4.618   0.053   6.199
12835TIP3   OH238447   5.434   0.443   5.574
12835TIP3    H138448   5.439   0.368   5.633
12835TIP3    H238449   5.475   0.515   5.623
12836TIP3   OH238450   4.561   0.358   6.059
12836TIP3    H138451   4.505   0.304   6.003
12836TIP3    H238452   4.634   0.383   6.002
12837TIP3   OH238453   1.357   7.658   5.750
12837TIP3    H138454   1.320   7.744   5.770
12837TIP3    H238455   1.285   7.609   5.710
12838TIP3   OH238456   1.419   7.946   5.914
12838TIP3    H138457   1.462   7.875   5.960
12838TIP3    H238458   1.489   8.007   5.891
12839TIP3   OH238459   5.034   0.366   5.933
12839TIP3    H138460   5.078   0.287   5.903
12839TIP3    H238461   5.105   0.426   5.954
12840TIP3   OH238462   3.190   7.703   5.921
12840TIP3    H138463   3.219   7.782   5.966
12840TIP3    H238464   3.220   7.713   5.831
12841TIP3   OH238465   2.539   7.828   5.896
12841TIP3    H138466   2.610   7.786   5.944
12841TIP3    H238467   2.580   7.904   5.855
12842TIP3   OH238468   1.936   7.543   5.913
12842TIP3    H138469   1.905   7.614   5.857
12842TIP3    H238470   1.892   7.465   5.880
12843TIP3   OH238471   2.615   7.634   5.562
12843TIP3    H138472   2.689   7.624   5.621
12843TIP3    H238473   2.652   7.669   5.481
12844TIP3   OH238474   1.563   7.741   6.033
12844TIP3    H138475   1.643   7.721   6.081
12844TIP3    H238476   1.570   7.691   5.952
12845TIP3   OH238477   1.986   7.936   5.828
12845TIP3    H138478   2.077   7.909   5.835
12845TIP3    H238479   1.941   7.860   5.792
12846TIP3   OH238480   3.263   7.911   6.095
12846TIP3    H138481   3.182   7.957   6.073
12846TIP3    H238482   3.282   7.938   6.185
12847TIP3   OH238483   1.923   7.524   6.358
12847TIP3    H138484   1.865   7.560   6.291
12847TIP3    H238485   1.875   7.537   6.440
12848TIP3   OH238486   5.093   0.328   5.365
12848TIP3    H138487   5.054   0.330   5.278
12848TIP3    H238488   5.126   0.417   5.378
12849TIP3   OH238489   4.865   0.298   6.155
12849TIP3    H138490   4.818   0.372   6.193
12849TIP3    H238491   4.910   0.335   6.079
12850TIP3   OH238492   2.827   7.648   5.731
12850TIP3    H138493   2.858   7.577   5.787
12850TIP3    H238494   2.889   7.719   5.745
12851TIP3   OH238495   1.802   7.638   6.138
12851TIP3    H138496   1.858   7.711   6.164
12851TIP3    H238497   1.848   7.597   6.064
12852TIP3   OH238498   4.093   0.143   5.491
12852TIP3    H138499   4.053   0.144   5.404
12852TIP3    H238500   4.104   0.236   5.513
12853TIP3   OH238501   2.989   7.596   6.083
12853TIP3    H138502   2.909   7.644   6.061
12853TIP3    H238503   3.054   7.627   6.020
12854TIP3   OH238504   2.275   7.250   6.069
12854TIP3    H138505   2.270   7.156   6.085
12854TIP3    H238506   2.201   7.287   6.116
12855TIP3   OH238507   5.462   0.458   5.290
12855TIP3    H138508   5.431   0.379   5.246
12855TIP3    H238509   5.471   0.432   5.382
12856TIP3   OH238510   5.749   0.595   6.082
12856TIP3    H138511   5.725   0.514   6.037
12856TIP3    H238512   5.686   0.659   6.050
12857TIP3   OH238513   5.047  -0.011   5.332
12857TIP3    H138514   4.967   0.040   5.316
12857TIP3    H238515   5.091  -0.013   5.247
12858TIP3   OH238516   2.172   7.792   5.043
12858TIP3    H138517   2.236   7.844   5.092
12858TIP3    H238518   2.226   7.728   4.996
12859TIP3   OH238519   5.948   0.237   5.914
12859TIP3    H138520   5.865   0.284   5.922
12859TIP3    H238521   5.981   0.261   5.827
12860TIP3   OH238522   5.390   0.068   5.307
12860TIP3    H138523   5.335   0.090   5.382
12860TIP3    H238524   5.474   0.044   5.345
12861TIP3   OH238525   5.623   0.116   6.215
12861TIP3    H138526   5.626   0.193   6.272
12861TIP3    H238527   5.542   0.128   6.165
12862TIP3   OH238528   4.627   0.075   5.703
12862TIP3    H138529   4.583   0.017   5.641
12862TIP3    H238530   4.700   0.024   5.737
12863TIP3   OH238531   4.767   0.447   5.910
12863TIP3    H138532   4.730   0.448   5.822
12863TIP3    H238533   4.861   0.434   5.896
12864TIP3   OH238534   4.752   0.056   6.076
12864TIP3    H138535   4.782   0.036   5.987
12864TIP3    H238536   4.794   0.139   6.097
12865TIP3   OH238537   2.397   7.946   5.126
12865TIP3    H138538   2.454   8.003   5.177
12865TIP3    H238539   2.422   7.961   5.035
12866TIP3   OH238540   2.922   7.197   5.174
12866TIP3    H138541   2.840   7.217   5.218
12866TIP3    H238542   2.944   7.277   5.126
12867TIP3   OH238543   1.658   7.926   5.518
12867TIP3    H138544   1.597   7.974   5.462
12867TIP3    H238545   1.611   7.845   5.541
12868TIP3   OH238546   5.881   0.074   6.393
12868TIP3    H138547   5.798   0.090   6.349
12868TIP3    H238548   5.896  -0.020   6.384
12869TIP3   OH238549   2.039   7.323   6.202
12869TIP3    H138550   1.955   7.288   6.173
12869TIP3    H238551   2.017   7.402   6.252
12870TIP3   OH238552   2.576   7.431   6.399
12870TIP3    H138553   2.645   7.407   6.461
12870TIP3    H238554   2.494   7.414   6.446
12871TIP3   OH238555   2.808   7.868   6.307
12871TIP3    H138556   2.765   7.861   6.392
12871TIP3    H238557   2.789   7.957   6.278
12872TIP3   OH238558   2.474   7.974   4.868
12872TIP3    H138559   2.441   7.954   4.781
12872TIP3    H238560   2.535   8.047   4.855
12873TIP3   OH238561   2.184   7.366   5.173
12873TIP3    H138562   2.151   7.366   5.263
12873TIP3    H238563   2.149   7.286   5.134
12874TIP3   OH238564   1.973   7.839   6.215
12874TIP3    H138565   1.934   7.858   6.300
12874TIP3    H238566   1.960   7.920   6.164
12875TIP3   OH238567   1.853   7.719   5.728
12875TIP3    H138568   1.762   7.698   5.750
12875TIP3    H238569   1.866   7.682   5.641
12876TIP3   OH238570   2.335   7.790   5.453
12876TIP3    H138571   2.293   7.868   5.419
12876TIP3    H238572   2.404   7.770   5.390
12877TIP3   OH238573   5.359   0.066   6.532
12877TIP3    H138574   5.339   0.002   6.599
12877TIP3    H238575   5.447   0.098   6.554
12878TIP3   OH238576   1.795   7.858   6.432
12878TIP3    H138577   1.842   7.901   6.504
12878TIP3    H238578   1.768   7.774   6.469
12879TIP3   OH238579   1.841   7.342   5.140
12879TIP3    H138580   1.832   7.340   5.236
12879TIP3    H238581   1.767   7.395   5.110
12880TIP3   OH238582   1.390   7.382   6.013
12880TIP3    H138583   1.462   7.419   6.064
12880TIP3    H238584   1.429   7.365   5.927
12881TIP3   OH238585   1.353   7.369   5.526
12881TIP3    H138586   1.398   7.405   5.449
12881TIP3    H238587   1.292   7.438   5.552
12882TIP3   OH238588   5.348   0.041   6.103
12882TIP3    H138589   5.357  -0.049   6.072
12882TIP3    H238590   5.313   0.032   6.192
12883TIP3   OH238591   2.201   7.587   5.824
12883TIP3    H138592   2.107   7.592   5.842
12883TIP3    H238593   2.234   7.520   5.884
12884TIP3   OH238594   1.618   7.601   5.801
12884TIP3    H138595   1.526   7.613   5.775
12884TIP3    H238596   1.638   7.511   5.777
12885TIP3   OH238597   1.884   7.596   5.489
12885TIP3    H138598   1.976   7.610   5.464
12885TIP3    H238599   1.835   7.617   5.410
12886TIP3   OH238600   2.656   7.611   5.995
12886TIP3    H138601   2.646   7.626   6.089
12886TIP3    H238602   2.668   7.517   5.987
12887TIP3   OH238603   1.734   7.626   5.266
12887TIP3    H138604   1.662   7.583   5.219
12887TIP3    H238605   1.787   7.665   5.196
12888TIP3   OH238606   1.793   7.355   5.775
12888TIP3    H138607   1.754   7.281   5.823
12888TIP3    H238608   1.829   7.316   5.696
12889TIP3   OH238609   2.245   7.760   6.194
12889TIP3    H138610   2.158   7.800   6.193
12889TIP3    H238611   2.302   7.826   6.231
12890TIP3   OH238612   4.815   0.130   5.284
12890TIP3    H138613   4.739   0.073   5.269
12890TIP3    H238614   4.794   0.175   5.366
12891TIP3   OH238615   5.711   0.375   5.914
12891TIP3    H138616   5.745   0.429   5.843
12891TIP3    H238617   5.616   0.378   5.904
12892TIP3   OH238618   2.439   7.469   5.148
12892TIP3    H138619   2.344   7.455   5.151
12892TIP3    H238620   2.450   7.562   5.167
12893TIP3   OH238621   5.207   0.373   6.316
12893TIP3    H138622   5.266   0.390   6.390
12893TIP3    H238623   5.169   0.459   6.296
12894TIP3   OH238624   2.513   7.720   5.246
12894TIP3    H138625   2.608   7.728   5.258
12894TIP3    H238626   2.490   7.797   5.194
12895TIP3   OH238627   4.476   0.109   5.932
12895TIP3    H138628   4.530   0.109   5.853
12895TIP3    H238629   4.538   0.089   6.003
12896TIP3   OH238630   4.923   0.317   5.120
12896TIP3    H138631   4.885   0.389   5.170
12896TIP3    H238632   4.891   0.238   5.164
12897TIP3   OH238633   5.101   0.175   6.571
12897TIP3    H138634   5.089   0.195   6.478
12897TIP3    H238635   5.195   0.166   6.582
12898TIP3   OH238636   2.939   7.815   5.093
12898TIP3    H138637   2.914   7.744   5.033
12898TIP3    H238638   2.928   7.895   5.041
12899TIP3   OH238639   6.003   0.649   6.158
12899TIP3    H138640   5.908   0.652   6.143
12899TIP3    H238641   6.039   0.629   6.071
12900TIP3   OH238642   5.477   0.253   5.764
12900TIP3    H138643   5.411   0.264   5.833
12900TIP3    H238644   5.493   0.159   5.761
12901TIP3   OH238645   1.342   7.790   5.286
12901TIP3    H138646   1.387   7.873   5.302
12901TIP3    H238647   1.265   7.793   5.342
12902TIP3   OH238648   4.742   0.249   5.523
12902TIP3    H138649   4.708   0.334   5.550
12902TIP3    H238650   4.711   0.188   5.589
12903TIP3   OH238651   5.273   0.275   4.862
12903TIP3    H138652   5.308   0.269   4.951
12903TIP3    H238653   5.194   0.328   4.871
12904TIP3   OH238654   1.765   7.600   6.576
12904TIP3    H138655   1.670   7.598   6.587
12904TIP3    H238656   1.799   7.545   6.646
12905TIP3   OH238657   5.400   0.254   5.109
12905TIP3    H138658   5.392   0.184   5.174
12905TIP3    H238659   5.493   0.258   5.088
12906TIP3   OH238660   4.590   0.273   4.934
12906TIP3    H138661   4.628   0.189   4.907
12906TIP3    H238662   4.625   0.288   5.022
12907TIP3   OH238663   4.295   0.020   5.360
12907TIP3    H138664   4.229   0.052   5.422
12907TIP3    H238665   4.301   0.088   5.293
12908TIP3   OH238666   2.614   7.660   6.253
12908TIP3    H138667   2.679   7.713   6.299
12908TIP3    H238668   2.595   7.588   6.312
12909TIP3   OH238669   2.481   7.421   5.422
12909TIP3    H138670   2.469   7.439   5.329
12909TIP3    H238671   2.520   7.501   5.457
12910TIP3   OH238672   2.172   7.596   5.533
12910TIP3    H138673   2.229   7.662   5.494
12910TIP3    H238674   2.177   7.612   5.627
12911TIP3   OH238675   2.443   7.916   6.329
12911TIP3    H138676   2.457   7.981   6.399
12911TIP3    H238677   2.495   7.840   6.357
12912TIP3   OH238678   2.320   7.327   5.621
12912TIP3    H138679   2.312   7.407   5.671
12912TIP3    H238680   2.376   7.350   5.547
12913TIP3   OH238681   1.828   7.330   5.417
12913TIP3    H138682   1.820   7.419   5.450
12913TIP3    H238683   1.921   7.310   5.421
12914TIP3   OH238684   3.075   7.822   6.312
12914TIP3    H138685   2.980   7.821   6.317
12914TIP3    H238686   3.095   7.785   6.226
12915TIP3   OH238687   2.709   7.980   5.734
12915TIP3    H138688   2.683   7.909   5.674
12915TIP3    H238689   2.798   7.957   5.761
12916TIP3   OH238690   4.286   0.232   5.175
12916TIP3    H138691   4.307   0.325   5.162
12916TIP3    H238692   4.337   0.187   5.107
12917TIP3   OH238693   1.387   7.519   5.301
12917TIP3    H138694   1.393   7.615   5.303
12917TIP3    H238695   1.301   7.502   5.263
12918TIP3   OH238696   1.778   7.238   6.172
12918TIP3    H138697   1.746   7.207   6.088
12918TIP3    H238698   1.767   7.164   6.232
12919TIP3   OH238699   4.412   0.033   5.026
12919TIP3    H138700   4.458   0.001   5.103
12919TIP3    H238701   4.480   0.039   4.958
12920TIP3   OH238702   4.865   0.213   4.842
12920TIP3    H138703   4.899   0.234   4.929
12920TIP3    H238704   4.894   0.123   4.826
12921TIP3   OH238705   1.779   7.958   5.240
12921TIP3    H138706   1.752   7.917   5.322
12921TIP3    H238707   1.820   7.886   5.190
12922TIP3   OH238708   4.889   0.004   6.458
12922TIP3    H138709   4.909   0.069   6.525
12922TIP3    H238710   4.940   0.029   6.382
12923TIP3   OH238711   1.893   7.755   5.084
12923TIP3    H138712   1.864   7.757   4.993
12923TIP3    H238713   1.989   7.762   5.078
12924TIP3   OH238714   5.404   0.388   6.560
12924TIP3    H138715   5.496   0.416   6.561
12924TIP3    H238716   5.387   0.359   6.650
12925TIP3   OH238717   5.541   0.081   4.740
12925TIP3    H138718   5.517   0.027   4.665
12925TIP3    H238719   5.521   0.170   4.713
12926TIP3   OH238720   2.188   7.811   6.582
12926TIP3    H138721   2.188   7.729   6.533
12926TIP3    H238722   2.145   7.874   6.524
12927TIP3   OH238723   2.183   7.595   6.404
12927TIP3    H138724   2.211   7.640   6.325
12927TIP3    H238725   2.091   7.574   6.389
12928TIP3   OH238726   5.046   0.127   6.274
12928TIP3    H138727   5.131   0.165   6.255
12928TIP3    H238728   4.983   0.191   6.240
12929TIP3   OH238729   5.639   0.082   6.630
12929TIP3    H138730   5.688   0.001   6.643
12929TIP3    H238731   5.706   0.150   6.629
12930TIP3   OH238732   5.662   0.346   6.366
12930TIP3    H138733   5.601   0.409   6.326
12930TIP3    H238734   5.748   0.372   6.332
12931TIP3   OH238735   2.046   7.911   6.800
12931TIP3    H138736   1.990   7.834   6.812
12931TIP3    H238737   2.092   7.895   6.718
12932TIP3   OH238738   2.313   7.361   6.473
12932TIP3    H138739   2.268   7.443   6.452
12932TIP3    H238740   2.246   7.294   6.464
12933TIP3   OH238741   2.445   7.861   6.678
12933TIP3    H138742   2.428   7.844   6.771
12933TIP3    H238743   2.361   7.847   6.636
12934TIP3   OH238744   2.679   7.802   6.534
12934TIP3    H138745   2.605   7.818   6.593
12934TIP3    H238746   2.752   7.779   6.592
12935TIP3   OH238747   2.905   7.751   6.692
12935TIP3    H138748   2.922   7.658   6.703
12935TIP3    H238749   2.903   7.785   6.782
12936TIP3   OH238750   1.897   7.698   6.880
12936TIP3    H138751   1.880   7.616   6.834
12936TIP3    H238752   1.942   7.673   6.960
12937TIP3   OH238753   2.411   7.368   6.730
12937TIP3    H138754   2.477   7.299   6.725
12937TIP3    H238755   2.368   7.366   6.644
12938TIP3   OH238756   2.478   7.584   6.887
12938TIP3    H138757   2.462   7.511   6.828
12938TIP3    H238758   2.401   7.640   6.878
12939TIP3   OH238759   4.024   0.136   5.214
12939TIP3    H138760   4.102   0.182   5.183
12939TIP3    H238761   4.012   0.065   5.151
12940TIP3   OH238762   5.673   0.250   5.086
12940TIP3    H138763   5.739   0.310   5.051
12940TIP3    H238764   5.716   0.209   5.162
12941TIP3   OH238765   5.808   0.123   5.284
12941TIP3    H138766   5.744   0.084   5.344
12941TIP3    H238767   5.876   0.158   5.341
12942TIP3   OH238768   5.855   0.512   5.726
12942TIP3    H138769   5.912   0.459   5.671
12942TIP3    H238770   5.845   0.595   5.678
12943TIP3   OH238771   5.742   0.036   4.924
12943TIP3    H138772   5.674   0.039   4.856
12943TIP3    H238773   5.720   0.108   4.983
12944TIP3   OH238774   2.787   7.722   4.871
12944TIP3    H138775   2.722   7.759   4.811
12944TIP3    H238776   2.768   7.628   4.872
12945TIP3   OH238777   2.786   7.997   5.433
12945TIP3    H138778   2.797   7.904   5.414
12945TIP3    H238779   2.791   8.003   5.528
12946TIP3   OH238780   4.257   0.023   6.186
12946TIP3    H138781   4.247   0.029   6.091
12946TIP3    H238782   4.345   0.056   6.203
12947TIP3   OH238783   5.914   0.409   6.290
12947TIP3    H138784   5.984   0.344   6.277
12947TIP3    H238785   5.928   0.473   6.220
12948TIP3   OH238786   6.096   0.205   6.296
12948TIP3    H138787   6.021   0.163   6.338
12948TIP3    H238788   6.170   0.148   6.318
12949TIP3   OH238789   2.739   7.454   4.871
12949TIP3    H138790   2.818   7.437   4.922
12949TIP3    H238791   2.674   7.392   4.905
12950TIP3   OH238792   2.787   7.725   5.327
12950TIP3    H138793   2.816   7.637   5.350
12950TIP3    H238794   2.843   7.750   5.253
12951TIP3   OH238795   2.952   7.890   5.821
12951TIP3    H138796   3.035   7.910   5.776
12951TIP3    H238797   2.963   7.927   5.909
12952TIP3   OH238798   5.846   0.021   6.050
12952TIP3    H138799   5.772   0.054   6.101
12952TIP3    H238800   5.881   0.098   6.006
12953TIP3   OH238801   3.464   7.622   6.603
12953TIP3    H138802   3.524   7.557   6.566
12953TIP3    H238803   3.438   7.676   6.529
12954TIP3   OH238804   2.853   7.472   5.404
12954TIP3    H138805   2.924   7.450   5.463
12954TIP3    H238806   2.814   7.388   5.381
12955TIP3   OH238807   1.595   7.448   6.188
12955TIP3    H138808   1.655   7.373   6.195
12955TIP3    H238809   1.652   7.524   6.177
12956TIP3   OH238810   1.392   7.747   6.258
12956TIP3    H138811   1.440   7.726   6.178
12956TIP3    H238812   1.398   7.842   6.266
12957TIP3   OH238813   3.336   7.763   6.407
12957TIP3    H138814   3.255   7.804   6.438
12957TIP3    H238815   3.307   7.690   6.353
12958TIP3   OH238816   1.377   7.220   5.752
12958TIP3    H138817   1.287   7.219   5.784
12958TIP3    H238818   1.375   7.281   5.678
12959TIP3   OH238819   1.598   7.300   6.553
12959TIP3    H138820   1.551   7.293   6.636
12959TIP3    H238821   1.535   7.340   6.493
12960TIP3   OH238822   3.235   7.520   6.292
12960TIP3    H138823   3.145   7.512   6.259
12960TIP3    H238824   3.271   7.431   6.283
12961TIP3   OH238825   2.443   7.457   5.894
12961TIP3    H138826   2.405   7.392   5.953
12961TIP3    H238827   2.516   7.410   5.852
12962TIP3   OH238828   2.957   7.330   5.825
12962TIP3    H138829   3.001   7.367   5.748
12962TIP3    H238830   2.864   7.338   5.805
12963TIP3   OH238831   3.061   7.415   5.586
12963TIP3    H138832   3.127   7.358   5.546
12963TIP3    H238833   3.092   7.504   5.568
12964TIP3   OH238834   1.688   7.144   5.926
12964TIP3    H138835   1.596   7.116   5.928
12964TIP3    H238836   1.738   7.062   5.923
12965TIP3   OH238837   1.482   7.019   5.579
12965TIP3    H138838   1.508   7.073   5.504
12965TIP3    H238839   1.449   7.082   5.643
12966TIP3   OH238840   2.137   7.178   5.808
12966TIP3    H138841   2.196   7.219   5.745
12966TIP3    H238842   2.164   7.213   5.893
12967TIP3   OH238843   2.665   7.330   5.796
12967TIP3    H138844   2.677   7.298   5.707
12967TIP3    H238845   2.657   7.250   5.849
12968TIP3   OH238846   2.705   7.242   5.349
12968TIP3    H138847   2.622   7.288   5.360
12968TIP3    H238848   2.693   7.158   5.393
12969TIP3   OH238849   1.596   7.172   5.340
12969TIP3    H138850   1.642   7.112   5.280
12969TIP3    H238851   1.665   7.228   5.375
12970TIP3   OH238852   2.103   7.351   5.438
12970TIP3    H138853   2.162   7.298   5.492
12970TIP3    H238854   2.122   7.441   5.463
12971TIP3   OH238855   1.908   7.432   6.796
12971TIP3    H138856   1.849   7.388   6.857
12971TIP3    H238857   1.995   7.422   6.834
12972TIP3   OH238858   2.152   7.412   6.930
12972TIP3    H138859   2.236   7.390   6.890
12972TIP3    H238860   2.137   7.343   6.995
12973TIP3   OH238861   2.975   7.485   6.725
12973TIP3    H138862   2.990   7.456   6.815
12973TIP3    H238863   3.061   7.482   6.684
12974TIP3   OH238864   7.010   0.384   4.987
12974TIP3    H138865   6.976   0.471   4.965
12974TIP3    H238866   6.940   0.324   4.959
12975TIP3   OH238867   7.012   0.394   5.367
12975TIP3    H138868   7.046   0.371   5.454
12975TIP3    H238869   6.969   0.314   5.336
12976TIP3   OH238870   6.308   0.293   5.733
12976TIP3    H138871   6.341   0.225   5.791
12976TIP3    H238872   6.384   0.349   5.716
12977TIP3   OH238873   7.227   0.697   5.058
12977TIP3    H138874   7.226   0.626   5.122
12977TIP3    H238875   7.281   0.765   5.098
12978TIP3   OH238876   6.339   0.638   5.533
12978TIP3    H138877   6.304   0.556   5.498
12978TIP3    H238878   6.419   0.653   5.483
12979TIP3   OH238879   3.151   7.914   5.237
12979TIP3    H138880   3.109   7.998   5.254
12979TIP3    H238881   3.085   7.863   5.189
12980TIP3   OH238882   6.044   0.190   5.413
12980TIP3    H138883   6.092   0.115   5.447
12980TIP3    H238884   6.112   0.246   5.375
12981TIP3   OH238885   6.827   0.612   5.407
12981TIP3    H138886   6.870   0.534   5.371
12981TIP3    H238887   6.900   0.668   5.435
12982TIP3   OH238888   4.990   7.959   5.409
12982TIP3    H138889   5.017   8.039   5.454
12982TIP3    H238890   5.012   7.975   5.317
12983TIP3   OH238891   7.224   0.124   5.441
12983TIP3    H138892   7.263   0.040   5.466
12983TIP3    H238893   7.189   0.109   5.353
12984TIP3   OH238894   3.722   7.798   5.406
12984TIP3    H138895   3.707   7.871   5.347
12984TIP3    H238896   3.676   7.724   5.366
12985TIP3   OH238897   4.424   7.887   5.029
12985TIP3    H138898   4.490   7.874   5.097
12985TIP3    H238899   4.473   7.924   4.956
12986TIP3   OH238900   3.360   7.996   5.518
12986TIP3    H138901   3.442   7.982   5.566
12986TIP3    H238902   3.371   7.947   5.437
12987TIP3   OH238903   6.631   0.182   5.314
12987TIP3    H138904   6.724   0.163   5.326
12987TIP3    H238905   6.593   0.100   5.282
12988TIP3   OH238906   7.894   0.153   5.580
12988TIP3    H138907   7.810   0.196   5.563
12988TIP3    H238908   7.917   0.178   5.669
12989TIP3   OH238909   3.716   7.776   5.847
12989TIP3    H138910   3.666   7.811   5.774
12989TIP3    H238911   3.663   7.795   5.924
12990TIP3   OH238912   6.886   0.587   4.853
12990TIP3    H138913   6.854   0.586   4.763
12990TIP3    H238914   6.919   0.676   4.865
12991TIP3   OH238915   6.659   0.549   5.637
12991TIP3    H138916   6.594   0.612   5.669
12991TIP3    H238917   6.697   0.591   5.559
12992TIP3   OH238918   4.626   7.896   5.209
12992TIP3    H138919   4.612   7.848   5.291
12992TIP3    H238920   4.678   7.973   5.234
12993TIP3   OH238921   3.596   7.893   5.628
12993TIP3    H138922   3.652   7.967   5.652
12993TIP3    H238923   3.641   7.852   5.554
12994TIP3   OH238924   6.486   0.759   5.743
12994TIP3    H138925   6.445   0.755   5.657
12994TIP3    H238926   6.412   0.757   5.804
12995TIP3   OH238927   5.880   0.395   4.978
12995TIP3    H138928   5.846   0.404   4.889
12995TIP3    H238929   5.896   0.485   5.006
12996TIP3   OH238930   4.781   7.859   5.574
12996TIP3    H138931   4.694   7.887   5.546
12996TIP3    H238932   4.840   7.890   5.506
12997TIP3   OH238933   4.069   7.498   5.554
12997TIP3    H138934   4.066   7.405   5.578
12997TIP3    H238935   3.999   7.538   5.604
12998TIP3   OH238936   7.258   0.717   4.772
12998TIP3    H138937   7.236   0.640   4.720
12998TIP3    H238938   7.265   0.683   4.862
12999TIP3   OH238939   7.544   0.852   5.558
12999TIP3    H138940   7.531   0.775   5.502
12999TIP3    H238941   7.569   0.922   5.497
13000TIP3   OH238942   6.842   0.242   4.814
13000TIP3    H138943   6.762   0.294   4.804
13000TIP3    H238944   6.887   0.252   4.729
13001TIP3   OH238945   6.800   0.037   4.530
13001TIP3    H138946   6.864   0.088   4.579
13001TIP3    H238947   6.852  -0.029   4.484
13002TIP3   OH238948   7.745   0.496   5.401
13002TIP3    H138949   7.663   0.543   5.410
13002TIP3    H238950   7.776   0.517   5.313
13003TIP3   OH238951   7.189   0.320   4.791
13003TIP3    H138952   7.133   0.345   4.865
13003TIP3    H238953   7.273   0.298   4.831
13004TIP3   OH238954   7.420   0.372   5.699
13004TIP3    H138955   7.421   0.454   5.747
13004TIP3    H238956   7.335   0.371   5.655
13005TIP3   OH238957   6.426   0.325   5.194
13005TIP3    H138958   6.387   0.267   5.128
13005TIP3    H238959   6.501   0.276   5.228
13006TIP3   OH238960   6.560   0.694   5.396
13006TIP3    H138961   6.522   0.694   5.309
13006TIP3    H238962   6.654   0.692   5.381
13007TIP3   OH238963   6.549   0.308   5.553
13007TIP3    H138964   6.586   0.280   5.469
13007TIP3    H238965   6.594   0.390   5.573
13008TIP3   OH238966   6.734   0.763   5.879
13008TIP3    H138967   6.702   0.851   5.903
13008TIP3    H238968   6.663   0.726   5.826
13009TIP3   OH238969   7.033   0.190   4.605
13009TIP3    H138970   7.085   0.246   4.662
13009TIP3    H238971   7.061   0.212   4.517
13010TIP3   OH238972   6.445   0.412   5.990
13010TIP3    H138973   6.454   0.499   6.028
13010TIP3    H238974   6.351   0.393   5.994
13011TIP3   OH238975   4.708   7.447   4.660
13011TIP3    H138976   4.629   7.464   4.711
13011TIP3    H238977   4.722   7.527   4.610
13012TIP3   OH238978   6.291   0.168   4.998
13012TIP3    H138979   6.227   0.216   4.946
13012TIP3    H238980   6.243   0.091   5.030
13013TIP3   OH238981   6.085   0.557   5.919
13013TIP3    H138982   6.008   0.553   5.862
13013TIP3    H238983   6.111   0.466   5.932
13014TIP3   OH238984   7.679   0.333   5.872
13014TIP3    H138985   7.595   0.345   5.827
13014TIP3    H238986   7.696   0.239   5.867
13015TIP3   OH238987   6.277   0.756   5.918
13015TIP3    H138988   6.327   0.719   5.990
13015TIP3    H238989   6.203   0.697   5.908
13016TIP3   OH238990   3.836   7.577   5.690
13016TIP3    H138991   3.751   7.544   5.663
13016TIP3    H238992   3.817   7.655   5.742
13017TIP3   OH238993   7.446   0.113   5.808
13017TIP3    H138994   7.391   0.108   5.886
13017TIP3    H238995   7.419   0.193   5.764
13018TIP3   OH238996   7.123   0.218   4.347
13018TIP3    H138997   7.068   0.246   4.274
13018TIP3    H238998   7.193   0.283   4.350
13019TIP3   OH238999   3.985   7.622   4.664
13019TIP3    H139000   3.952   7.623   4.753
13019TIP3    H239001   3.950   7.542   4.625
13020TIP3   OH239002   6.596   0.080   5.699
13020TIP3    H139003   6.555   0.099   5.783
13020TIP3    H239004   6.586   0.160   5.648
13021TIP3   OH239005   3.651   7.978   5.219
13021TIP3    H139006   3.561   7.955   5.240
13021TIP3    H239007   3.666   7.939   5.132
13022TIP3   OH239008   6.978   0.046   4.948
13022TIP3    H139009   6.926   0.115   4.906
13022TIP3    H239010   7.035   0.015   4.878
13023TIP3   OH239011   7.158   0.313   6.043
13023TIP3    H139012   7.161   0.249   6.114
13023TIP3    H239013   7.246   0.350   6.039
13024TIP3   OH239014   7.138   0.076   5.182
13024TIP3    H139015   7.073   0.108   5.120
13024TIP3    H239016   7.172  -0.004   5.143
13025TIP3   OH239017   6.425   0.108   5.915
13025TIP3    H139018   6.436   0.180   5.977
13025TIP3    H239019   6.407   0.032   5.970
13026TIP3   OH239020   3.650   7.596   4.620
13026TIP3    H139021   3.634   7.609   4.713
13026TIP3    H239022   3.564   7.611   4.579
13027TIP3   OH239023   3.186   7.639   5.508
13027TIP3    H139024   3.255   7.673   5.565
13027TIP3    H239025   3.219   7.654   5.419
13028TIP3   OH239026   7.148   0.321   5.608
13028TIP3    H139027   7.179   0.254   5.548
13028TIP3    H239028   7.115   0.272   5.683
13029TIP3   OH239029   3.982   7.803   5.283
13029TIP3    H139030   3.904   7.800   5.339
13029TIP3    H239031   4.055   7.792   5.344
13030TIP3   OH239032   3.414   7.856   5.289
13030TIP3    H139033   3.323   7.864   5.261
13030TIP3    H239034   3.440   7.768   5.263
13031TIP3   OH239035   3.683   7.849   4.980
13031TIP3    H139036   3.777   7.864   4.966
13031TIP3    H239037   3.643   7.871   4.897
13032TIP3   OH239038   4.470   7.876   5.490
13032TIP3    H139039   4.440   7.890   5.580
13032TIP3    H239040   4.407   7.816   5.452
13033TIP3   OH239041   3.536   7.876   4.748
13033TIP3    H139042   3.448   7.882   4.712
13033TIP3    H239043   3.592   7.918   4.683
13034TIP3   OH239044   6.435   0.659   6.130
13034TIP3    H139045   6.516   0.687   6.173
13034TIP3    H239046   6.370   0.658   6.201
13035TIP3   OH239047   6.895   0.121   5.375
13035TIP3    H139048   6.967   0.071   5.337
13035TIP3    H239049   6.890   0.090   5.466
13036TIP3   OH239050   3.579   7.612   5.259
13036TIP3    H139051   3.547   7.537   5.309
13036TIP3    H239052   3.642   7.575   5.198
13037TIP3   OH239053   6.876   0.042   5.635
13037TIP3    H139054   6.790   0.036   5.675
13037TIP3    H239055   6.934   0.068   5.706
13038TIP3   OH239056   6.611   0.386   4.773
13038TIP3    H139057   6.533   0.332   4.757
13038TIP3    H239058   6.590   0.433   4.854
13039TIP3   OH239059   7.509   0.633   5.392
13039TIP3    H139060   7.538   0.682   5.315
13039TIP3    H239061   7.426   0.593   5.366
13040TIP3   OH239062   4.227   7.739   4.609
13040TIP3    H139063   4.139   7.713   4.634
13040TIP3    H239064   4.240   7.824   4.653
13041TIP3   OH239065   7.020   0.744   5.761
13041TIP3    H139066   7.051   0.693   5.836
13041TIP3    H239067   6.936   0.780   5.791
13042TIP3   OH239068   4.305   7.976   4.730
13042TIP3    H139069   4.399   7.981   4.748
13042TIP3    H239070   4.287   8.057   4.681
13043TIP3   OH239071   6.285   0.378   5.426
13043TIP3    H139072   6.333   0.373   5.344
13043TIP3    H239073   6.345   0.340   5.492
13044TIP3   OH239074   6.719   0.576   4.608
13044TIP3    H139075   6.681   0.647   4.660
13044TIP3    H239076   6.687   0.496   4.650
13045TIP3   OH239077   6.186   0.327   6.052
13045TIP3    H139078   6.191   0.318   6.148
13045TIP3    H239079   6.111   0.274   6.027
13046TIP3   OH239080   6.915   0.445   6.075
13046TIP3    H139081   6.851   0.408   6.015
13046TIP3    H239082   6.999   0.410   6.046
13047TIP3   OH239083   7.580   0.062   4.566
13047TIP3    H139084   7.520   0.011   4.512
13047TIP3    H239085   7.576   0.150   4.529
13048TIP3   OH239086   7.799   0.891   5.649
13048TIP3    H139087   7.705   0.905   5.640
13048TIP3    H239088   7.831   0.879   5.560
13049TIP3   OH239089   7.272   0.503   5.297
13049TIP3    H139090   7.182   0.480   5.319
13049TIP3    H239091   7.310   0.423   5.260
13050TIP3   OH239092   5.973   0.035   4.765
13050TIP3    H139093   6.016   0.117   4.787
13050TIP3    H239094   5.898   0.030   4.824
13051TIP3   OH239095   6.535   0.506   5.012
13051TIP3    H139096   6.498   0.589   5.043
13051TIP3    H239097   6.510   0.442   5.078
13052TIP3   OH239098   7.067   0.707   5.491
13052TIP3    H139099   7.055   0.718   5.585
13052TIP3    H239100   7.149   0.658   5.483
13053TIP3   OH239101   6.994   0.478   4.375
13053TIP3    H139102   7.080   0.496   4.413
13053TIP3    H239103   6.955   0.564   4.364
13054TIP3   OH239104   3.563   7.870   6.074
13054TIP3    H139105   3.467   7.871   6.069
13054TIP3    H239106   3.583   7.793   6.128
13055TIP3   OH239107   7.197   0.515   4.594
13055TIP3    H139108   7.194   0.443   4.657
13055TIP3    H239109   7.287   0.515   4.562
13056TIP3   OH239110   6.381   0.527   4.423
13056TIP3    H139111   6.426   0.447   4.395
13056TIP3    H239112   6.424   0.552   4.505
13057TIP3   OH239113   6.089   0.278   4.849
13057TIP3    H139114   6.020   0.309   4.908
13057TIP3    H239115   6.095   0.346   4.783
13058TIP3   OH239116   4.397   7.927   5.748
13058TIP3    H139117   4.479   7.937   5.795
13058TIP3    H239118   4.346   7.865   5.801
13059TIP3   OH239119   4.283   7.680   4.908
13059TIP3    H139120   4.269   7.706   4.817
13059TIP3    H239121   4.323   7.757   4.949
13060TIP3   OH239122   3.964   7.862   5.014
13060TIP3    H139123   4.027   7.931   4.994
13060TIP3    H239124   3.970   7.849   5.108
13061TIP3   OH239125   7.078   0.162   5.816
13061TIP3    H139126   7.102   0.206   5.898
13061TIP3    H239127   7.127   0.079   5.819
13062TIP3   OH239128   4.112   7.583   5.110
13062TIP3    H139129   4.111   7.652   5.176
13062TIP3    H239130   4.171   7.616   5.042
13063TIP3   OH239131   3.620   7.589   4.897
13063TIP3    H139132   3.621   7.675   4.938
13063TIP3    H239133   3.710   7.558   4.904
13064TIP3   OH239134   7.709   0.062   5.796
13064TIP3    H139135   7.614   0.066   5.809
13064TIP3    H239136   7.720   0.015   5.714
13065TIP3   OH239137   7.361   0.257   5.190
13065TIP3    H139138   7.285   0.201   5.201
13065TIP3    H239139   7.431   0.212   5.237
13066TIP3   OH239140   6.081   0.490   4.661
13066TIP3    H139141   6.105   0.582   4.651
13066TIP3    H239142   6.133   0.444   4.595
13067TIP3   OH239143   3.568   7.495   5.662
13067TIP3    H139144   3.542   7.462   5.576
13067TIP3    H239145   3.563   7.418   5.720
13068TIP3   OH239146   6.229   0.639   6.315
13068TIP3    H139147   6.256   0.547   6.313
13068TIP3    H239148   6.147   0.641   6.266
13069TIP3   OH239149   6.209   0.288   4.514
13069TIP3    H139150   6.257   0.260   4.592
13069TIP3    H239151   6.276   0.297   4.446
13070TIP3   OH239152   6.853   0.709   6.117
13070TIP3    H139153   6.819   0.728   6.029
13070TIP3    H239154   6.890   0.621   6.109
13071TIP3   OH239155   6.650   0.468   4.332
13071TIP3    H139156   6.704   0.494   4.407
13071TIP3    H239157   6.677   0.378   4.314
13072TIP3   OH239158   7.331   0.738   5.693
13072TIP3    H139159   7.399   0.791   5.651
13072TIP3    H239160   7.252   0.793   5.690
13073TIP3   OH239161   6.346   0.391   6.303
13073TIP3    H139162   6.406   0.323   6.275
13073TIP3    H239163   6.380   0.421   6.388
13074TIP3   OH239164   6.405   0.203   4.725
13074TIP3    H139165   6.383   0.167   4.811
13074TIP3    H239166   6.448   0.131   4.679
13075TIP3   OH239167   6.682   0.266   5.982
13075TIP3    H139168   6.608   0.327   5.978
13075TIP3    H239169   6.736   0.288   5.906
13076TIP3   OH239170   6.523  -0.001   4.571
13076TIP3    H139171   6.495   0.001   4.479
13076TIP3    H239172   6.618   0.007   4.567
13077TIP3   OH239173   7.208   0.654   6.090
13077TIP3    H139174   7.291   0.637   6.045
13077TIP3    H239175   7.209   0.595   6.165
13078TIP3   OH239176   3.946   7.909   5.937
13078TIP3    H139177   4.031   7.874   5.911
13078TIP3    H239178   3.882   7.857   5.888
13079TIP3   OH239179   6.831   0.387   5.783
13079TIP3    H139180   6.909   0.376   5.729
13079TIP3    H239181   6.777   0.450   5.734
13080TIP3   OH239182   7.426   0.350   6.146
13080TIP3    H139183   7.467   0.264   6.155
13080TIP3    H239184   7.497   0.407   6.117
13081TIP3   OH239185   7.463   0.597   5.878
13081TIP3    H139186   7.405   0.649   5.822
13081TIP3    H239187   7.551   0.615   5.844
13082TIP3   OH239188   7.311   0.056   6.040
13082TIP3    H139189   7.257  -0.021   6.057
13082TIP3    H239190   7.393   0.038   6.086
13083TIP3   OH239191   4.707   8.014   6.180
13083TIP3    H139192   4.722   7.920   6.194
13083TIP3    H239193   4.702   8.051   6.268
13084TIP3   OH239194   3.765   7.959   6.322
13084TIP3    H139195   3.729   7.870   6.319
13084TIP3    H239196   3.777   7.977   6.415
13085TIP3   OH239197   4.264   7.824   6.359
13085TIP3    H139198   4.283   7.774   6.280
13085TIP3    H239199   4.179   7.863   6.344
13086TIP3   OH239200   5.816   0.394   4.703
13086TIP3    H139201   5.895   0.439   4.672
13086TIP3    H239202   5.804   0.322   4.642
13087TIP3   OH239203   7.686   1.037   5.942
13087TIP3    H139204   7.609   1.004   5.988
13087TIP3    H239205   7.737   1.081   6.009
13088TIP3   OH239206   7.474   0.506   4.590
13088TIP3    H139207   7.538   0.567   4.554
13088TIP3    H239208   7.519   0.465   4.664
13089TIP3   OH239209   7.610   0.370   4.780
13089TIP3    H139210   7.545   0.333   4.839
13089TIP3    H239211   7.676   0.409   4.837
13090TIP3   OH239212   7.644   0.768   5.199
13090TIP3    H139213   7.708   0.712   5.154
13090TIP3    H239214   7.646   0.851   5.150
13091TIP3   OH239215   7.533   0.302   4.418
13091TIP3    H139216   7.472   0.324   4.347
13091TIP3    H239217   7.514   0.366   4.487
13092TIP3   OH239218   4.579   7.973   4.388
13092TIP3    H139219   4.547   8.028   4.316
13092TIP3    H239220   4.555   7.884   4.363
13093TIP3   OH239221   7.416   0.237   4.923
13093TIP3    H139222   7.425   0.142   4.915
13093TIP3    H239223   7.402   0.251   5.017
13094TIP3   OH239224   6.045   0.308   5.666
13094TIP3    H139225   6.039   0.280   5.574
13094TIP3    H239226   6.140   0.314   5.682
13095TIP3   OH239227   7.709   0.662   5.782
13095TIP3    H139228   7.781   0.600   5.772
13095TIP3    H239229   7.730   0.734   5.722
13096TIP3   OH239230   7.901   0.468   5.793
13096TIP3    H139231   7.822   0.424   5.825
13096TIP3    H239232   7.970   0.402   5.803
13097TIP3   OH239233   4.520   7.710   4.348
13097TIP3    H139234   4.594   7.683   4.402
13097TIP3    H239235   4.449   7.652   4.375
13098TIP3   OH239236   4.581   7.968   4.809
13098TIP3    H139237   4.620   7.881   4.825
13098TIP3    H239238   4.638   8.007   4.742
13099TIP3   OH239239   7.577   0.128   5.308
13099TIP3    H139240   7.659   0.151   5.264
13099TIP3    H239241   7.586   0.162   5.397
13100TIP3   OH239242   7.644   0.275   5.537
13100TIP3    H139243   7.568   0.306   5.587
13100TIP3    H239244   7.677   0.353   5.493
13101TIP3   OH239245   3.440   8.013   6.343
13101TIP3    H139246   3.534   8.001   6.331
13101TIP3    H239247   3.409   7.930   6.380
13102TIP3   OH239248   5.260   7.873   6.086
13102TIP3    H139249   5.321   7.811   6.048
13102TIP3    H239250   5.231   7.927   6.012
13103TIP3   OH239251   4.689   7.718   4.850
13103TIP3    H139252   4.737   7.705   4.931
13103TIP3    H239253   4.628   7.644   4.847
13104TIP3   OH239254   3.391   7.708   5.681
13104TIP3    H139255   3.447   7.631   5.683
13104TIP3    H239256   3.451   7.781   5.665
13105TIP3   OH239257   3.194   7.981   5.740
13105TIP3    H139258   3.243   7.974   5.659
13105TIP3    H239259   3.214   8.069   5.773
13106TIP3   OH239260   5.127   8.012   5.897
13106TIP3    H139261   5.045   8.058   5.916
13106TIP3    H239262   5.102   7.941   5.839
13107TIP3   OH239263   4.765   7.654   4.478
13107TIP3    H139264   4.806   7.583   4.430
13107TIP3    H239265   4.831   7.723   4.479
13108TIP3   OH239266   3.394   7.577   6.064
13108TIP3    H139267   3.342   7.561   6.143
13108TIP3    H239268   3.330   7.602   5.998
13109TIP3   OH239269   5.031   7.774   5.777
13109TIP3    H139270   4.941   7.765   5.747
13109TIP3    H239271   5.068   7.686   5.769
13110TIP3   OH239272   4.229   7.688   5.389
13110TIP3    H139273   4.190   7.624   5.449
13110TIP3    H239274   4.307   7.646   5.355
13111TIP3   OH239275   4.756   7.575   5.298
13111TIP3    H139276   4.793   7.626   5.226
13111TIP3    H239277   4.663   7.596   5.296
13112TIP3   OH239278   4.856   7.675   5.064
13112TIP3    H139279   4.927   7.621   5.029
13112TIP3    H239280   4.886   7.765   5.052
13113TIP3   OH239281   3.484   7.397   5.413
13113TIP3    H139282   3.394   7.365   5.418
13113TIP3    H239283   3.538   7.318   5.409
13114TIP3   OH239284   3.280   7.270   5.085
13114TIP3    H139285   3.313   7.302   5.001
13114TIP3    H239286   3.197   7.316   5.097
13115TIP3   OH239287   3.928   7.441   5.298
13115TIP3    H139288   3.986   7.486   5.236
13115TIP3    H239289   3.960   7.468   5.384
13116TIP3   OH239290   4.474   7.581   5.279
13116TIP3    H139291   4.473   7.544   5.191
13116TIP3    H239292   4.463   7.506   5.337
13117TIP3   OH239293   4.504   7.506   4.843
13117TIP3    H139294   4.420   7.551   4.858
13117TIP3    H239295   4.493   7.421   4.886
13118TIP3   OH239296   3.378   7.464   4.813
13118TIP3    H139297   3.413   7.398   4.754
13118TIP3    H239298   3.455   7.506   4.851
13119TIP3   OH239299   3.901   7.611   4.926
13119TIP3    H139300   3.957   7.560   4.984
13119TIP3    H239301   3.919   7.702   4.950
13120TIP3   OH239302   3.693   7.692   6.317
13120TIP3    H139303   3.651   7.620   6.365
13120TIP3    H239304   3.786   7.684   6.338
13121TIP3   OH239305   3.946   7.677   6.423
13121TIP3    H139306   4.028   7.640   6.391
13121TIP3    H239307   3.921   7.619   6.495
13122TIP3   OH239308   4.775   7.751   6.216
13122TIP3    H139309   4.789   7.717   6.304
13122TIP3    H239310   4.859   7.742   6.173
13123TIP3   OH239311   0.305   0.638   4.475
13123TIP3    H139312   0.276   0.726   4.451
13123TIP3    H239313   0.235   0.581   4.444
13124TIP3   OH239314   0.295   0.646   4.855
13124TIP3    H139315   0.331   0.624   4.941
13124TIP3    H239316   0.253   0.566   4.825
13125TIP3   OH239317   8.103   0.547   5.219
13125TIP3    H139318   8.132   0.479   5.281
13125TIP3    H239319   8.178   0.607   5.214
13126TIP3   OH239320   0.524   0.950   4.549
13126TIP3    H139321   0.519   0.879   4.613
13126TIP3    H239322   0.580   1.015   4.590
13127TIP3   OH239323   8.131   0.899   5.012
13127TIP3    H139324   8.102   0.812   4.984
13127TIP3    H239325   8.214   0.913   4.968
13128TIP3   OH239326   7.784   0.158   4.723
13128TIP3    H139327   7.742   0.241   4.745
13128TIP3    H239328   7.717   0.107   4.679
13129TIP3   OH239329   7.842   0.450   4.905
13129TIP3    H139330   7.890   0.373   4.937
13129TIP3    H239331   7.909   0.503   4.862
13130TIP3   OH239332   0.120   0.869   4.885
13130TIP3    H139333   0.160   0.788   4.854
13130TIP3    H239334   0.195   0.927   4.903
13131TIP3   OH239335   1.115   0.201   4.904
13131TIP3    H139336   1.124   0.280   4.958
13131TIP3    H239337   1.146   0.227   4.818
13132TIP3   OH239338   0.517   0.381   4.927
13132TIP3    H139339   0.559   0.299   4.951
13132TIP3    H239340   0.483   0.366   4.839
13133TIP3   OH239341   8.357   0.040   4.891
13133TIP3    H139342   8.336   0.114   4.834
13133TIP3    H239343   8.308  -0.033   4.854
13134TIP3   OH239344   0.552   0.132   4.521
13134TIP3    H139345   0.623   0.118   4.584
13134TIP3    H239346   0.594   0.175   4.447
13135TIP3   OH239347   7.991   0.241   5.004
13135TIP3    H139348   8.071   0.223   5.054
13135TIP3    H239349   8.000   0.189   4.925
13136TIP3   OH239350   8.428   0.439   4.797
13136TIP3    H139351   8.520   0.416   4.811
13136TIP3    H239352   8.387   0.358   4.767
13137TIP3   OH239353   8.349   0.025   5.331
13137TIP3    H139354   8.293   0.061   5.262
13137TIP3    H239355   8.300   0.040   5.412
13138TIP3   OH239356   0.192   0.842   4.334
13138TIP3    H139357   0.141   0.839   4.253
13138TIP3    H239358   0.212   0.934   4.347
13139TIP3   OH239359   8.455   0.807   5.125
13139TIP3    H139360   8.400   0.870   5.173
13139TIP3    H239361   8.485   0.855   5.048
13140TIP3   OH239362   0.765   0.134   4.697
13140TIP3    H139363   0.726   0.102   4.778
13140TIP3    H239364   0.810   0.214   4.722
13141TIP3   OH239365   8.226   0.139   5.113
13141TIP3    H139366   8.281   0.213   5.138
13141TIP3    H239367   8.273   0.098   5.040
13142TIP3   OH239368   8.280   1.012   5.234
13142TIP3    H139369   8.248   1.012   5.144
13142TIP3    H239370   8.201   1.011   5.288
13143TIP3   OH239371   7.673   0.650   4.465
13143TIP3    H139372   7.625   0.644   4.383
13143TIP3    H239373   7.691   0.743   4.476
13144TIP3   OH239374   0.894   0.082   5.047
13144TIP3    H139375   0.813   0.120   5.013
13144TIP3    H239376   0.963   0.124   4.996
13145TIP3   OH239377   5.870   7.754   5.050
13145TIP3    H139378   5.857   7.660   5.065
13145TIP3    H239379   5.795   7.795   5.093
13146TIP3   OH239380   0.554   0.966   4.265
13146TIP3    H139381   0.519   0.890   4.219
13146TIP3    H239382   0.561   0.937   4.356
13147TIP3   OH239383   0.136   0.499   4.305
13147TIP3    H139384   0.056   0.550   4.293
13147TIP3    H239385   0.180   0.503   4.220
13148TIP3   OH239386   0.097   0.292   4.017
13148TIP3    H139387   0.160   0.345   4.065
13148TIP3    H239388   0.151   0.229   3.968
13149TIP3   OH239389   0.485   0.579   4.281
13149TIP3    H139390   0.429   0.602   4.355
13149TIP3    H239391   0.570   0.559   4.321
13150TIP3   OH239392   8.223   0.582   4.680
13150TIP3    H139393   8.181   0.525   4.616
13150TIP3    H239394   8.297   0.532   4.713
13151TIP3   OH239395   8.357   0.955   4.882
13151TIP3    H139396   8.314   0.951   4.796
13151TIP3    H239397   8.450   0.941   4.862
13152TIP3   OH239398   8.348   0.564   5.039
13152TIP3    H139399   8.384   0.540   4.954
13152TIP3    H239400   8.391   0.646   5.062
13153TIP3   OH239401   8.419   0.981   5.479
13153TIP3    H139402   8.507   1.010   5.454
13153TIP3    H239403   8.371   0.975   5.397
13154TIP3   OH239404   0.325   0.445   4.099
13154TIP3    H139405   0.380   0.504   4.150
13154TIP3    H239406   0.351   0.460   4.008
13155TIP3   OH239407   8.238   0.666   5.469
13155TIP3    H139408   8.240   0.752   5.512
13155TIP3    H239409   8.147   0.638   5.478
13156TIP3   OH239410   8.085   0.426   4.489
13156TIP3    H139411   8.020   0.472   4.435
13156TIP3    H239412   8.042   0.343   4.512
13157TIP3   OH239413   7.878   0.813   5.401
13157TIP3    H139414   7.809   0.792   5.338
13157TIP3    H239415   7.912   0.728   5.428
13158TIP3   OH239416   8.059   1.019   5.397
13158TIP3    H139417   8.105   0.982   5.472
13158TIP3    H239418   7.986   0.959   5.381
13159TIP3   OH239419   5.631   7.835   5.175
13159TIP3    H139420   5.546   7.801   5.147
13159TIP3    H239421   5.610   7.915   5.225
13160TIP3   OH239422   6.163   7.945   5.374
13160TIP3    H139423   6.224   7.918   5.442
13160TIP3    H239424   6.076   7.930   5.411
13161TIP3   OH239425   0.401   0.473   3.840
13161TIP3    H139426   0.371   0.452   3.751
13161TIP3    H239427   0.443   0.558   3.832
13162TIP3   OH239428   5.781   7.875   4.148
13162TIP3    H139429   5.747   7.879   4.238
13162TIP3    H239430   5.740   7.797   4.110
13163TIP3   OH239431   8.397   0.339   5.188
13163TIP3    H139432   8.355   0.357   5.273
13163TIP3    H239433   8.382   0.419   5.137
13164TIP3   OH239434   8.282   0.220   4.705
13164TIP3    H139435   8.192   0.197   4.727
13164TIP3    H239436   8.296   0.181   4.618
13165TIP3   OH239437   0.275   0.304   4.434
13165TIP3    H139438   0.221   0.373   4.395
13165TIP3    H239439   0.328   0.272   4.361
13166TIP3   OH239440   0.427   0.332   4.672
13166TIP3    H139441   0.367   0.368   4.606
13166TIP3    H239442   0.459   0.251   4.632
13167TIP3   OH239443   8.217   0.362   5.401
13167TIP3    H139444   8.259   0.423   5.461
13167TIP3    H239445   8.205   0.282   5.453
13168TIP3   OH239446   5.436   7.858   4.113
13168TIP3    H139447   5.427   7.853   4.209
13168TIP3    H239448   5.360   7.908   4.084
13169TIP3   OH239449   4.980   7.898   4.983
13169TIP3    H139450   5.051   7.931   5.038
13169TIP3    H239451   5.023   7.869   4.902
13170TIP3   OH239452   4.943   7.883   4.499
13170TIP3    H139453   4.990   7.916   4.423
13170TIP3    H239454   4.885   7.954   4.525
13171TIP3   OH239455   0.409   0.570   5.091
13171TIP3    H139456   0.459   0.510   5.036
13171TIP3    H239457   0.387   0.520   5.169
13172TIP3   OH239458   0.114   0.039   4.770
13172TIP3    H139459   0.031   0.039   4.817
13172TIP3    H239460   0.181   0.041   4.838
13173TIP3   OH239461   8.046   0.099   4.775
13173TIP3    H139462   7.954   0.108   4.750
13173TIP3    H239463   8.068   0.009   4.753
13174TIP3   OH239464   8.312   0.094   4.464
13174TIP3    H139465   8.404   0.111   4.441
13174TIP3    H239466   8.263   0.116   4.385
13175TIP3   OH239467   0.598   0.116   4.959
13175TIP3    H139468   0.583   0.129   5.052
13175TIP3    H239469   0.527   0.058   4.931
13176TIP3   OH239470   8.159   0.127   4.241
13176TIP3    H139471   8.086   0.083   4.196
13176TIP3    H239472   8.211   0.165   4.170
13177TIP3   OH239473   8.191   0.907   5.603
13177TIP3    H139474   8.282   0.937   5.594
13177TIP3    H239475   8.175   0.908   5.698
13178TIP3   OH239476   0.193   0.372   4.867
13178TIP3    H139477   0.266   0.330   4.821
13178TIP3    H239478   0.194   0.333   4.954
13179TIP3   OH239479   5.380   7.868   4.749
13179TIP3    H139480   5.343   7.794   4.798
13179TIP3    H239481   5.424   7.828   4.675
13180TIP3   OH239482   0.166   0.270   5.148
13180TIP3    H139483   0.078   0.305   5.165
13180TIP3    H239484   0.224   0.324   5.201
13181TIP3   OH239485   8.407   0.644   4.261
13181TIP3    H139486   8.332   0.587   4.244
13181TIP3    H239487   8.384   0.690   4.342
13182TIP3   OH239488   6.030   7.983   4.115
13182TIP3    H139489   5.936   7.962   4.123
13182TIP3    H239490   6.036   8.076   4.138
13183TIP3   OH239491   0.433   0.220   4.216
13183TIP3    H139492   0.528   0.230   4.229
13183TIP3    H239493   0.407   0.297   4.167
13184TIP3   OH239494   8.084   0.638   4.914
13184TIP3    H139495   8.133   0.630   4.832
13184TIP3    H239496   8.139   0.596   4.979
13185TIP3   OH239497   8.517   0.829   4.094
13185TIP3    H139498   8.478   0.902   4.142
13185TIP3    H239499   8.482   0.751   4.137
13186TIP3   OH239500   7.977   0.590   5.542
13186TIP3    H139501   7.985   0.570   5.635
13186TIP3    H239502   7.908   0.532   5.511
13187TIP3   OH239503   0.864   0.312   4.052
13187TIP3    H139504   0.814   0.262   3.989
13187TIP3    H239505   0.865   0.401   4.017
13188TIP3   OH239506   0.534   0.766   4.770
13188TIP3    H139507   0.451   0.719   4.785
13188TIP3    H239508   0.597   0.697   4.752
13189TIP3   OH239509   7.757   0.289   4.255
13189TIP3    H139510   7.806   0.370   4.270
13189TIP3    H239511   7.680   0.297   4.310
13190TIP3   OH239512   8.332   0.764   4.501
13190TIP3    H139513   8.291   0.845   4.531
13190TIP3    H239514   8.308   0.698   4.566
13191TIP3   OH239515   0.378   0.947   4.978
13191TIP3    H139516   0.356   0.892   5.053
13191TIP3    H239517   0.436   0.894   4.925
13192TIP3   OH239518   0.361   0.777   3.837
13192TIP3    H139519   0.398   0.778   3.925
13192TIP3    H239520   0.286   0.837   3.842
13193TIP3   OH239521   8.188   0.105   5.543
13193TIP3    H139522   8.093   0.112   5.555
13193TIP3    H239523   8.217   0.051   5.617
13194TIP3   OH239524   0.491   0.765   4.081
13194TIP3    H139525   0.486   0.696   4.147
13194TIP3    H239526   0.584   0.771   4.060
13195TIP3   OH239527   8.181   0.786   3.909
13195TIP3    H139528   8.222   0.704   3.883
13195TIP3    H239529   8.213   0.801   3.998
13196TIP3   OH239530   7.883   0.532   4.334
13196TIP3    H139531   7.817   0.566   4.395
13196TIP3    H239532   7.895   0.602   4.270
13197TIP3   OH239533   0.551   0.159   5.224
13197TIP3    H139534   0.585   0.220   5.289
13197TIP3    H239535   0.522   0.084   5.275
13198TIP3   OH239536   6.086   7.932   4.395
13198TIP3    H139537   6.062   7.954   4.305
13198TIP3    H239538   6.117   8.015   4.432
13199TIP3   OH239539   0.100   0.102   4.499
13199TIP3    H139540   0.160   0.174   4.480
13199TIP3    H239541   0.101   0.094   4.594
13200TIP3   OH239542   0.348   0.413   5.309
13200TIP3    H139543   0.316   0.445   5.393
13200TIP3    H239544   0.431   0.370   5.330
13201TIP3   OH239545   5.909   7.842   4.599
13201TIP3    H139546   5.893   7.918   4.655
13201TIP3    H239547   5.969   7.874   4.532
13202TIP3   OH239548   5.422   7.843   4.389
13202TIP3    H139549   5.414   7.931   4.425
13202TIP3    H239550   5.516   7.823   4.395
13203TIP3   OH239551   0.657   0.513   4.675
13203TIP3    H139552   0.579   0.459   4.692
13203TIP3    H239553   0.726   0.471   4.726
13204TIP3   OH239554   7.885   0.747   4.151
13204TIP3    H139555   7.907   0.839   4.139
13204TIP3    H239556   7.935   0.702   4.083
13205TIP3   OH239557   7.815   0.021   4.277
13205TIP3    H139558   7.816   0.117   4.277
13205TIP3    H239559   7.736  -0.002   4.227
13206TIP3   OH239560   5.369   7.751   5.147
13206TIP3    H139561   5.338   7.719   5.062
13206TIP3    H239562   5.359   7.676   5.206
13207TIP3   OH239563   8.015   0.869   5.822
13207TIP3    H139564   8.051   0.784   5.795
13207TIP3    H239565   7.938   0.880   5.767
13208TIP3   OH239566   8.004   0.547   4.000
13208TIP3    H139567   8.051   0.514   4.077
13208TIP3    H239568   8.072   0.552   3.932
13209TIP3   OH239569   8.456   0.725   3.815
13209TIP3    H139570   8.494   0.752   3.899
13209TIP3    H239571   8.487   0.636   3.803
13210TIP3   OH239572   8.164   0.639   5.798
13210TIP3    H139573   8.226   0.576   5.762
13210TIP3    H239574   8.143   0.605   5.885
13211TIP3   OH239575   8.206   0.457   4.214
13211TIP3    H139576   8.178   0.419   4.298
13211TIP3    H239577   8.244   0.384   4.166
13212TIP3   OH239578   8.473   0.514   5.434
13212TIP3    H139579   8.405   0.581   5.445
13212TIP3    H239580   8.535   0.553   5.373
13213TIP3   OH239581   8.318   0.254   4.057
13213TIP3    H139582   8.288   0.256   3.966
13213TIP3    H239583   8.413   0.262   4.051
13214TIP3   OH239584   0.647   0.592   3.712
13214TIP3    H139585   0.613   0.541   3.638
13214TIP3    H239586   0.625   0.682   3.691
13215TIP3   OH239587   0.090   0.308   5.571
13215TIP3    H139588   0.098   0.232   5.513
13215TIP3    H239589   0.051   0.376   5.515
13216TIP3   OH239590   0.108   0.100   5.374
13216TIP3    H139591   0.136   0.142   5.293
13216TIP3    H239592   0.016   0.077   5.360
13217TIP3   OH239593   0.128   0.628   5.243
13217TIP3    H139594   0.211   0.636   5.196
13217TIP3    H239595   0.073   0.697   5.206
13218TIP3   OH239596   8.478   0.420   5.797
13218TIP3    H139597   8.407   0.359   5.816
13218TIP3    H239598   8.512   0.391   5.712
13219TIP3   OH239599   5.904   7.877   5.442
13219TIP3    H139600   5.857   7.958   5.422
13219TIP3    H239601   5.837   7.808   5.434
13220TIP3   OH239602   0.363   0.363   5.595
13220TIP3    H139603   0.393   0.384   5.684
13220TIP3    H239604   0.271   0.339   5.606
13221TIP3   OH239605   8.324   0.194   5.846
13221TIP3    H139606   8.326   0.104   5.815
13221TIP3    H239607   8.354   0.189   5.937
13222TIP3   OH239608   5.999   7.878   5.701
13222TIP3    H139609   6.067   7.812   5.696
13222TIP3    H239610   5.958   7.878   5.614
13223TIP3   OH239611   0.378   0.074   5.876
13223TIP3    H139612   0.362   0.003   5.813
13223TIP3    H239613   0.307   0.136   5.861
13224TIP3   OH239614   7.613   0.681   4.166
13224TIP3    H139615   7.705   0.689   4.139
13224TIP3    H239616   7.584   0.598   4.128
13225TIP3   OH239617   0.765   0.762   4.059
13225TIP3    H139618   0.829   0.824   4.025
13225TIP3    H239619   0.808   0.722   4.135
13226TIP3   OH239620   0.897   0.632   4.256
13226TIP3    H139621   0.837   0.596   4.321
13226TIP3    H239622   0.969   0.668   4.308
13227TIP3   OH239623   0.830   0.544   3.905
13227TIP3    H139624   0.765   0.549   3.835
13227TIP3    H239625   0.810   0.620   3.961
13228TIP3   OH239626   0.714   0.213   3.853
13228TIP3    H139627   0.661   0.263   3.791
13228TIP3    H239628   0.685   0.123   3.842
13229TIP3   OH239629   0.712   0.499   4.410
13229TIP3    H139630   0.718   0.403   4.402
13229TIP3    H239631   0.698   0.513   4.503
13230TIP3   OH239632   7.840   0.573   5.152
13230TIP3    H139633   7.833   0.538   5.063
13230TIP3    H239634   7.934   0.574   5.170
13231TIP3   OH239635   6.307   7.963   3.845
13231TIP3    H139636   6.368   7.907   3.894
13231TIP3    H239637   6.223   7.917   3.850
13232TIP3   OH239638   0.717   0.224   4.301
13232TIP3    H139639   0.782   0.163   4.336
13232TIP3    H239640   0.758   0.260   4.222
13233TIP3   OH239641   0.875   0.385   4.794
13233TIP3    H139642   0.954   0.411   4.748
13233TIP3    H239643   0.886   0.421   4.882
13234TIP3   OH239644   8.054   0.246   5.815
13234TIP3    H139645   8.148   0.257   5.829
13234TIP3    H239646   8.033   0.163   5.859
13235TIP3   OH239647   5.187   7.961   5.156
13235TIP3    H139648   5.246   7.886   5.166
13235TIP3    H239649   5.246   8.037   5.149
13236TIP3   OH239650   7.820   0.222   5.226
13236TIP3    H139651   7.869   0.216   5.144
13236TIP3    H239652   7.850   0.304   5.266
13237TIP3   OH239653   4.970   7.736   4.726
13237TIP3    H139654   4.880   7.733   4.759
13237TIP3    H239655   4.966   7.795   4.652
13238TIP3   OH239656   5.189   7.819   5.544
13238TIP3    H139657   5.141   7.811   5.627
13238TIP3    H239658   5.126   7.857   5.483
13239TIP3   OH239659   6.814   8.019   5.240
13239TIP3    H139660   6.720   8.004   5.241
13239TIP3    H239661   6.853   7.932   5.238
13240TIP3   OH239662   6.036   7.950   4.890
13240TIP3    H139663   5.989   7.884   4.941
13240TIP3    H239664   6.105   7.901   4.845
13241TIP3   OH239665   6.554   7.825   4.771
13241TIP3    H139666   6.584   7.903   4.723
13241TIP3    H239667   6.461   7.842   4.786
13242TIP3   OH239668   6.637   7.924   4.496
13242TIP3    H139669   6.722   7.881   4.509
13242TIP3    H239670   6.657   8.018   4.496
13243TIP3   OH239671   5.280   7.655   4.899
13243TIP3    H139672   5.189   7.626   4.903
13243TIP3    H239673   5.331   7.574   4.897
13244TIP3   OH239674   5.066   7.534   4.549
13244TIP3    H139675   5.097   7.588   4.477
13244TIP3    H239676   5.039   7.596   4.617
13245TIP3   OH239677   5.729   7.692   4.780
13245TIP3    H139678   5.785   7.743   4.722
13245TIP3    H239679   5.746   7.729   4.867
13246TIP3   OH239680   6.276   7.835   4.765
13246TIP3    H139681   6.258   7.801   4.678
13246TIP3    H239682   6.260   7.762   4.824
13247TIP3   OH239683   6.355   7.763   4.346
13247TIP3    H139684   6.279   7.817   4.327
13247TIP3    H239685   6.319   7.681   4.379
13248TIP3   OH239686   5.188   7.690   4.310
13248TIP3    H139687   5.233   7.627   4.254
13248TIP3    H239688   5.259   7.744   4.347
13249TIP3   OH239689   5.699   7.867   4.412
13249TIP3    H139690   5.754   7.817   4.472
13249TIP3    H239691   5.716   7.959   4.435
13250TIP3   OH239692   5.490   7.933   5.795
13250TIP3    H139693   5.454   7.863   5.849
13250TIP3    H239694   5.583   7.937   5.820
13251TIP3   OH239695   5.737   7.940   5.920
13251TIP3    H139696   5.822   7.920   5.880
13251TIP3    H239697   5.723   7.870   5.984
13252TIP3   OH239698   1.070   0.410   4.211
13252TIP3    H139699   1.036   0.497   4.232
13252TIP3    H239700   1.000   0.368   4.161
13253TIP3   OH239701   1.139   0.691   4.369
13253TIP3    H139702   1.188   0.631   4.425
13253TIP3    H239703   1.205   0.747   4.328
13254TIP3   OH239704   1.624   0.295   4.397
13254TIP3    H139705   1.626   0.369   4.337
13254TIP3    H239706   1.580   0.225   4.348
13255TIP3   OH239707   1.296   0.497   4.498
13255TIP3    H139708   1.388   0.510   4.518
13255TIP3    H239709   1.296   0.437   4.423
13256TIP3   OH239710   0.975   0.912   3.969
13256TIP3    H139711   0.951   0.943   3.882
13256TIP3    H239712   1.019   0.986   4.011
13257TIP3   OH239713   1.349   0.658   3.927
13257TIP3    H139714   1.371   0.749   3.947
13257TIP3    H239715   1.302   0.626   4.004
13258TIP3   OH239716   1.560   0.451   4.171
13258TIP3    H139717   1.476   0.431   4.211
13258TIP3    H239718   1.541   0.523   4.110
13259TIP3   OH239719   1.527   0.061   3.592
13259TIP3    H139720   1.536   0.056   3.687
13259TIP3    H239721   1.501   0.151   3.575
13260TIP3   OH239722   1.124   0.132   4.464
13260TIP3    H139723   1.174   0.167   4.538
13260TIP3    H239724   1.174   0.160   4.386
13261TIP3   OH239725   1.099   0.123   4.008
13261TIP3    H139726   1.133   0.153   3.924
13261TIP3    H239727   1.030   0.186   4.029
13262TIP3   OH239728   1.327   0.345   4.274
13262TIP3    H139729   1.239   0.356   4.238
13262TIP3    H239730   1.359   0.264   4.234
13263TIP3   OH239731   1.419   0.359   3.740
13263TIP3    H139732   1.335   0.334   3.700
13263TIP3    H239733   1.421   0.455   3.733
13264TIP3   OH239734   1.503   0.112   4.226
13264TIP3    H139735   1.474   0.036   4.277
13264TIP3    H239736   1.568   0.077   4.166
13265TIP3   OH239737   1.052   0.539   3.746
13265TIP3    H139738   1.098   0.621   3.763
13265TIP3    H239739   0.975   0.542   3.802
13266TIP3   OH239740   1.524   0.082   3.869
13266TIP3    H139741   1.503   0.173   3.886
13266TIP3    H239742   1.615   0.072   3.898
13267TIP3   OH239743   1.102   0.269   3.762
13267TIP3    H139744   1.103   0.365   3.764
13267TIP3    H239745   1.013   0.247   3.735
13268TIP3   OH239746   7.134   8.010   4.644
13268TIP3    H139747   7.137   7.977   4.554
13268TIP3    H239748   7.154   7.934   4.698
13269TIP3   OH239749   0.883   0.911   3.650
13269TIP3    H139750   0.961   0.962   3.629
13269TIP3    H239751   0.889   0.834   3.595
13270TIP3   OH239752   1.306   0.211   4.652
13270TIP3    H139753   1.361   0.133   4.653
13270TIP3    H239754   1.368   0.284   4.654
13271TIP3   OH239755   1.119   0.487   4.713
13271TIP3    H139756   1.174   0.470   4.636
13271TIP3    H239757   1.141   0.576   4.739
13272TIP3   OH239758   1.323   0.054   5.042
13272TIP3    H139759   1.265   0.054   5.118
13272TIP3    H239760   1.273   0.097   4.973
13273TIP3   OH239761   7.081   7.909   4.380
13273TIP3    H139762   6.991   7.879   4.388
13273TIP3    H239763   7.134   7.829   4.380
13274TIP3   OH239764   6.868   7.807   4.027
13274TIP3    H139765   6.894   7.827   3.937
13274TIP3    H239766   6.853   7.892   4.067
13275TIP3   OH239767   7.509   7.942   4.294
13275TIP3    H139768   7.580   7.990   4.251
13275TIP3    H239769   7.496   7.989   4.376
13276TIP3   OH239770   6.978   7.930   3.795
13276TIP3    H139771   7.029   7.877   3.733
13276TIP3    H239772   7.043   7.990   3.833
13277TIP3   OH239773   1.792   0.093   3.924
13277TIP3    H139774   1.838   0.021   3.882
13277TIP3    H239775   1.830   0.172   3.886
13278TIP3   OH239776   7.447   5.753   1.018
13278TIP3    H139777   7.455   5.845   0.991
13278TIP3    H239778   7.532   5.715   0.998
13279TIP3   OH239779   6.988   5.980   1.096
13279TIP3    H139780   7.041   5.903   1.074
13279TIP3    H239781   6.964   5.967   1.188
13280TIP3   OH239782   7.202   5.245   1.153
13280TIP3    H139783   7.163   5.209   1.073
13280TIP3    H239784   7.295   5.255   1.132
13281TIP3   OH239785   7.359   5.815   1.269
13281TIP3    H139786   7.372   5.728   1.308
13281TIP3    H239787   7.395   5.806   1.180
13282TIP3   OH239788   7.474   6.026   0.994
13282TIP3    H139789   7.520   6.089   0.938
13282TIP3    H239790   7.395   6.072   1.021
13283TIP3   OH239791   6.649   5.719   1.055
13283TIP3    H139792   6.663   5.638   1.103
13283TIP3    H239793   6.728   5.729   1.001
13284TIP3   OH239794   7.120   5.757   0.992
13284TIP3    H139795   7.204   5.743   1.036
13284TIP3    H239796   7.142   5.766   0.900
13285TIP3   OH239797   7.436   5.288   1.025
13285TIP3    H139798   7.428   5.222   0.956
13285TIP3    H239799   7.413   5.370   0.982
13286TIP3   OH239800   7.654   5.321   1.194
13286TIP3    H139801   7.576   5.295   1.145
13286TIP3    H239802   7.642   5.284   1.281
13287TIP3   OH239803   7.399   6.096   1.311
13287TIP3    H139804   7.398   6.001   1.299
13287TIP3    H239805   7.366   6.131   1.229
13288TIP3   OH239806   0.378   5.620   1.284
13288TIP3    H139807   0.359   5.708   1.253
13288TIP3    H239808   0.322   5.563   1.232
13289TIP3   OH239809   0.604   5.883   1.326
13289TIP3    H139810   0.541   5.844   1.386
13289TIP3    H239811   0.625   5.968   1.366
13290TIP3   OH239812   0.285   6.360   1.331
13290TIP3    H139813   0.342   6.290   1.298
13290TIP3    H239814   0.291   6.352   1.426
13291TIP3   OH239815   0.295   5.832   1.134
13291TIP3    H139816   0.255   5.808   1.050
13291TIP3    H239817   0.252   5.913   1.159
13292TIP3   OH239818   7.772   5.644   1.242
13292TIP3    H139819   7.727   5.636   1.158
13292TIP3    H239820   7.794   5.736   1.249
13293TIP3   OH239821   0.680   6.122   1.435
13293TIP3    H139822   0.608   6.132   1.497
13293TIP3    H239823   0.707   6.211   1.413
13294TIP3   OH239824   0.431   6.190   1.173
13294TIP3    H139825   0.477   6.110   1.147
13294TIP3    H239826   0.483   6.261   1.136
13295TIP3   OH239827   0.563   5.975   1.071
13295TIP3    H139828   0.519   5.906   1.021
13295TIP3    H239829   0.579   5.935   1.157
13296TIP3   OH239830   0.237   5.487   1.092
13296TIP3    H139831   0.152   5.528   1.073
13296TIP3    H239832   0.277   5.475   1.006
13297TIP3   OH239833   0.196   5.241   0.820
13297TIP3    H139834   0.263   5.295   0.863
13297TIP3    H239835   0.245   5.181   0.765
13298TIP3   OH239836   0.565   5.562   1.083
13298TIP3    H139837   0.502   5.598   1.145
13298TIP3    H239838   0.624   5.510   1.137
13299TIP3   OH239839   0.464   6.160   1.610
13299TIP3    H139840   0.528   6.221   1.646
13299TIP3    H239841   0.476   6.080   1.662
13300TIP3   OH239842   0.422   5.410   0.895
13300TIP3    H139843   0.477   5.469   0.945
13300TIP3    H239844   0.445   5.427   0.803
13301TIP3   OH239845   0.169   6.077   1.172
13301TIP3    H139846   0.246   6.128   1.196
13301TIP3    H239847   0.110   6.140   1.132
13302TIP3   OH239848   8.195   5.357   1.250
13302TIP3    H139849   8.119   5.406   1.217
13302TIP3    H239850   8.161   5.306   1.323
13303TIP3   OH239851   0.742   6.008   0.500
13303TIP3    H139852   0.747   6.102   0.485
13303TIP3    H239853   0.831   5.976   0.484
13304TIP3   OH239854   0.047   6.322   0.979
13304TIP3    H139855   0.003   6.304   0.896
13304TIP3    H239856   0.017   6.409   1.004
13305TIP3   OH239857   7.970   6.161   1.334
13305TIP3    H139858   7.987   6.108   1.411
13305TIP3    H239859   7.890   6.125   1.296
13306TIP3   OH239860   0.252   6.224   0.619
13306TIP3    H139861   0.308   6.156   0.582
13306TIP3    H239862   0.284   6.234   0.709
13307TIP3   OH239863   0.299   6.272   0.890
13307TIP3    H139864   0.213   6.282   0.929
13307TIP3    H239865   0.353   6.235   0.960
13308TIP3   OH239866   0.498   5.452   0.640
13308TIP3    H139867   0.461   5.418   0.559
13308TIP3    H239868   0.584   5.485   0.616
13309TIP3   OH239869   0.330   5.258   1.206
13309TIP3    H139870   0.297   5.342   1.176
13309TIP3    H239871   0.394   5.232   1.139
13310TIP3   OH239872   8.394   5.052   1.270
13310TIP3    H139873   8.483   5.042   1.237
13310TIP3    H239874   8.340   5.061   1.192
13311TIP3   OH239875   8.243   5.061   1.035
13311TIP3    H139876   8.180   5.033   0.968
13311TIP3    H239877   8.309   5.110   0.986
13312TIP3   OH239878   8.494   5.608   1.037
13312TIP3    H139879   8.427   5.542   1.021
13312TIP3    H239880   8.471   5.645   1.123
13313TIP3   OH239881   0.442   4.966   0.855
13313TIP3    H139882   0.380   4.914   0.906
13313TIP3    H239883   0.464   5.040   0.911
13314TIP3   OH239884   0.505   5.177   1.011
13314TIP3    H139885   0.595   5.186   1.043
13314TIP3    H239886   0.490   5.255   0.958
13315TIP3   OH239887   0.153   5.763   0.878
13315TIP3    H139888   0.107   5.847   0.879
13315TIP3    H239889   0.097   5.704   0.929
13316TIP3   OH239890   0.682   6.076   0.766
13316TIP3    H139891   0.644   6.009   0.822
13316TIP3    H239892   0.691   6.033   0.681
13317TIP3   OH239893   8.272   5.947   1.327
13317TIP3    H139894   8.332   6.016   1.301
13317TIP3    H239895   8.188   5.973   1.290
13318TIP3   OH239896   7.873   5.244   1.055
13318TIP3    H139897   7.931   5.318   1.072
13318TIP3    H239898   7.793   5.264   1.104
13319TIP3   OH239899   8.425   5.719   1.272
13319TIP3    H139900   8.383   5.801   1.298
13319TIP3    H239901   8.470   5.689   1.351
13320TIP3   OH239902   8.213   6.193   1.194
13320TIP3    H139903   8.126   6.199   1.232
13320TIP3    H239904   8.249   6.282   1.200
13321TIP3   OH239905   0.427   5.812   0.661
13321TIP3    H139906   0.480   5.789   0.738
13321TIP3    H239907   0.340   5.779   0.682
13322TIP3   OH239908   0.769   6.285   0.482
13322TIP3    H139909   0.810   6.357   0.433
13322TIP3    H239910   0.689   6.323   0.517
13323TIP3   OH239911   0.579   5.748   0.879
13323TIP3    H139912   0.568   5.684   0.949
13323TIP3    H239913   0.673   5.746   0.860
13324TIP3   OH239914   8.296   5.785   0.668
13324TIP3    H139915   8.309   5.696   0.637
13324TIP3    H239916   8.275   5.776   0.761
13325TIP3   OH239917   8.237   5.794   0.940
13325TIP3    H139918   8.309   5.761   0.994
13325TIP3    H239919   8.244   5.889   0.946
13326TIP3   OH239920   7.978   5.490   1.144
13326TIP3    H139921   7.904   5.526   1.193
13326TIP3    H239922   7.995   5.555   1.075
13327TIP3   OH239923   8.507   5.991   0.883
13327TIP3    H139924   8.421   6.013   0.920
13327TIP3    H239925   8.527   6.062   0.823
13328TIP3   OH239926   0.173   5.036   1.226
13328TIP3    H139927   0.216   5.120   1.207
13328TIP3    H239928   0.199   5.016   1.316
13329TIP3   OH239929   8.253   6.068   0.953
13329TIP3    H139930   8.226   6.133   0.888
13329TIP3    H239931   8.241   6.113   1.037
13330TIP3   OH239932   7.971   5.692   0.941
13330TIP3    H139933   8.040   5.757   0.953
13330TIP3    H239934   8.008   5.630   0.878
13331TIP3   OH239935   7.903   4.958   1.017
13331TIP3    H139936   7.905   5.051   1.038
13331TIP3    H239937   7.838   4.922   1.078
13332TIP3   OH239938   0.753   6.389   1.381
13332TIP3    H139939   0.688   6.440   1.333
13332TIP3    H239940   0.824   6.451   1.399
13333TIP3   OH239941   7.832   5.898   1.310
13333TIP3    H139942   7.800   5.941   1.389
13333TIP3    H239943   7.797   5.950   1.238
13334TIP3   OH239944   8.460   5.986   0.575
13334TIP3    H139945   8.404   5.919   0.615
13334TIP3    H239946   8.535   5.938   0.542
13335TIP3   OH239947   0.397   6.030   0.488
13335TIP3    H139948   0.431   5.963   0.547
13335TIP3    H239949   0.456   6.026   0.412
13336TIP3   OH239950   8.110   5.504   0.802
13336TIP3    H139951   8.163   5.471   0.874
13336TIP3    H239952   8.171   5.511   0.728
13337TIP3   OH239953   0.122   5.707   0.609
13337TIP3    H139954   0.121   5.721   0.703
13337TIP3    H239955   0.123   5.612   0.599
13338TIP3   OH239956   8.305   5.415   1.006
13338TIP3    H139957   8.279   5.387   1.094
13338TIP3    H239958   8.343   5.336   0.966
13339TIP3   OH239959   8.415   5.202   0.866
13339TIP3    H139960   8.385   5.206   0.775
13339TIP3    H239961   8.510   5.206   0.859
13340TIP3   OH239962   0.725   5.534   0.514
13340TIP3    H139963   0.706   5.487   0.433
13340TIP3    H239964   0.696   5.624   0.497
13341TIP3   OH239965   8.225   6.269   0.763
13341TIP3    H139966   8.319   6.260   0.747
13341TIP3    H239967   8.193   6.319   0.689
13342TIP3   OH239968   7.699   5.646   0.969
13342TIP3    H139969   7.791   5.670   0.959
13342TIP3    H239970   7.693   5.559   0.930
13343TIP3   OH239971   7.626   6.248   1.385
13343TIP3    H139972   7.547   6.211   1.345
13343TIP3    H239973   7.658   6.179   1.443
13344TIP3   OH239974   0.972   6.564   1.370
13344TIP3    H139975   0.984   6.625   1.443
13344TIP3    H239976   0.962   6.620   1.293
13345TIP3   OH239977   0.847   5.726   0.848
13345TIP3    H139978   0.906   5.793   0.812
13345TIP3    H239979   0.906   5.660   0.885
13346TIP3   OH239980   0.918   5.515   0.697
13346TIP3    H139981   0.858   5.489   0.627
13346TIP3    H239982   0.877   5.591   0.737
13347TIP3   OH239983   0.736   5.168   0.658
13347TIP3    H139984   0.779   5.231   0.600
13347TIP3    H239985   0.765   5.082   0.626
13348TIP3   OH239986   0.564   6.379   1.037
13348TIP3    H139987   0.617   6.370   0.957
13348TIP3    H239988   0.610   6.447   1.088
13349TIP3   OH239989   0.215   6.501   1.578
13349TIP3    H139990   0.128   6.485   1.542
13349TIP3    H239991   0.207   6.479   1.671
13350TIP3   OH239992   0.442   6.467   1.723
13350TIP3    H139993   0.391   6.478   1.643
13350TIP3    H239994   0.529   6.500   1.701
13351TIP3   OH239995   0.602   6.621   1.565
13351TIP3    H139996   0.621   6.714   1.556
13351TIP3    H239997   0.688   6.580   1.577
13352TIP3   OH239998   7.714   6.059   1.131
13352TIP3    H139999   7.636   6.017   1.096
13352TIP3    H240000   7.710   6.148   1.098
13353TIP3   OH240001  -0.008   6.222   0.710
13353TIP3    H140002   0.078   6.248   0.677
13353TIP3    H240003  -0.033   6.149   0.654
13354TIP3   OH240004   0.709   6.344   0.804
13354TIP3    H140005   0.704   6.249   0.796
13354TIP3    H240006   0.664   6.377   0.727
13355TIP3   OH240007   7.796   6.059   0.769
13355TIP3    H140008   7.804   6.090   0.860
13355TIP3    H240009   7.880   6.017   0.751
13356TIP3   OH240010   1.048   5.893   0.789
13356TIP3    H140011   1.049   5.895   0.693
13356TIP3    H240012   1.077   5.981   0.815
13357TIP3   OH240013   1.829   6.601   0.452
13357TIP3    H140014   1.781   6.559   0.381
13357TIP3    H240015   1.778   6.679   0.474
13358TIP3   OH240016   1.224   6.433   0.821
13358TIP3    H140017   1.307   6.402   0.857
13358TIP3    H240018   1.159   6.370   0.852
13359TIP3   OH240019   2.043   6.479   0.089
13359TIP3    H140020   2.062   6.390   0.061
13359TIP3    H240021   2.098   6.492   0.166
13360TIP3   OH240022   1.133   5.497   0.537
13360TIP3    H140023   1.170   5.585   0.544
13360TIP3    H240024   1.062   5.496   0.601
13361TIP3   OH240025   1.524   6.443   0.670
13361TIP3    H140026   1.465   6.412   0.738
13361TIP3    H240027   1.527   6.538   0.682
13362TIP3   OH240028   1.592   6.039   0.128
13362TIP3    H140029   1.609   5.948   0.105
13362TIP3    H240030   1.574   6.036   0.222
13363TIP3   OH240031   1.535   6.061   0.393
13363TIP3    H140032   1.556   6.024   0.479
13363TIP3    H240033   1.541   6.156   0.405
13364TIP3   OH240034   1.212   5.756   0.593
13364TIP3    H140035   1.222   5.773   0.687
13364TIP3    H240036   1.280   5.810   0.552
13365TIP3   OH240037   1.806   6.251   0.360
13365TIP3    H140038   1.727   6.272   0.408
13365TIP3    H240039   1.812   6.318   0.292
13366TIP3   OH240040   1.551   6.329   0.427
13366TIP3    H140041   1.515   6.398   0.370
13366TIP3    H240042   1.539   6.363   0.516
13367TIP3   OH240043   1.266   5.977   0.404
13367TIP3    H140044   1.335   6.041   0.420
13367TIP3    H240045   1.307   5.911   0.348
13368TIP3   OH240046   1.212   5.229   0.500
13368TIP3    H140047   1.189   5.316   0.535
13368TIP3    H240048   1.203   5.171   0.575
13369TIP3   OH240049   1.113   6.150   0.830
13369TIP3    H140050   1.029   6.196   0.828
13369TIP3    H240051   1.159   6.181   0.752
13370TIP3   OH240052   1.752   6.248   0.057
13370TIP3    H140053   1.694   6.182   0.094
13370TIP3    H240054   1.824   6.199   0.018
13371TIP3   OH240055   7.830   2.254   6.893
13371TIP3    H140056   7.904   2.258   6.954
13371TIP3    H240057   7.871   2.255   6.806
13372TIP3   OH240058   1.408   5.770   0.280
13372TIP3    H140059   1.445   5.731   0.359
13372TIP3    H240060   1.481   5.777   0.219
13373TIP3   OH240061   1.888   5.961   0.099
13373TIP3    H140062   1.894   5.983   0.192
13373TIP3    H240063   1.889   5.865   0.097
13374TIP3   OH240064   1.511   6.538   0.251
13374TIP3    H140065   1.604   6.527   0.233
13374TIP3    H240066   1.476   6.582   0.173
13375TIP3   OH240067   0.997   5.912   0.454
13375TIP3    H140068   1.090   5.934   0.451
13375TIP3    H240069   0.994   5.821   0.425
13376TIP3   OH240070   0.904   6.522   0.881
13376TIP3    H140071   0.841   6.461   0.843
13376TIP3    H240072   0.956   6.468   0.942
13377TIP3   OH240073   1.047   6.374   1.060
13377TIP3    H140074   1.038   6.299   1.119
13377TIP3    H240075   1.105   6.434   1.106
13378TIP3   OH240076   1.005   6.297   0.623
13378TIP3    H140077   0.923   6.268   0.584
13378TIP3    H240078   1.008   6.391   0.605
13379TIP3   OH240079   1.774   6.485   0.188
13379TIP3    H140080   1.865   6.503   0.163
13379TIP3    H240081   1.747   6.413   0.132
13380TIP3   OH240082   1.090   6.322   0.257
13380TIP3    H140083   1.084   6.340   0.351
13380TIP3    H240084   1.175   6.278   0.247
13381TIP3   OH240085   5.286   7.294   1.079
13381TIP3    H140086   5.283   7.389   1.091
13381TIP3    H240087   5.378   7.271   1.092
13382TIP3   OH240088   5.328   7.603   1.135
13382TIP3    H140089   5.370   7.681   1.099
13382TIP3    H240090   5.235   7.614   1.115
13383TIP3   OH240091   6.753   7.167   1.427
13383TIP3    H140092   6.725   7.257   1.413
13383TIP3    H240093   6.692   7.114   1.376
13384TIP3   OH240094   6.974   7.496   1.451
13384TIP3    H140095   6.988   7.413   1.497
13384TIP3    H240096   7.003   7.563   1.513
13385TIP3   OH240097   6.623   7.926   1.492
13385TIP3    H140098   6.667   7.863   1.435
13385TIP3    H240099   6.634   7.890   1.581
13386TIP3   OH240100   6.621   7.380   1.300
13386TIP3    H140101   6.602   7.362   1.208
13386TIP3    H240102   6.598   7.473   1.311
13387TIP3   OH240103   6.766   7.769   1.320
13387TIP3    H140104   6.804   7.684   1.299
13387TIP3    H240105   6.825   7.833   1.279
13388TIP3   OH240106   6.875   7.546   1.207
13388TIP3    H140107   6.878   7.465   1.156
13388TIP3    H240108   6.915   7.523   1.291
13389TIP3   OH240109   6.588   7.026   1.262
13389TIP3    H140110   6.505   7.069   1.243
13389TIP3    H240111   6.627   7.010   1.176
13390TIP3   OH240112   6.540   6.799   0.967
13390TIP3    H140113   6.604   6.854   1.012
13390TIP3    H240114   6.594   6.736   0.917
13391TIP3   OH240115   6.914   7.106   1.209
13391TIP3    H140116   6.868   7.117   1.292
13391TIP3    H240117   6.999   7.068   1.233
13392TIP3   OH240118   6.759   6.956   1.045
13392TIP3    H140119   6.814   7.014   1.097
13392TIP3    H240120   6.783   6.974   0.955
13393TIP3   OH240121   6.522   7.642   1.330
13393TIP3    H140122   6.593   7.706   1.318
13393TIP3    H240123   6.447   7.681   1.286
13394TIP3   OH240124   7.281   6.195   1.086
13394TIP3    H140125   7.195   6.210   1.126
13394TIP3    H240126   7.298   6.276   1.037
13395TIP3   OH240127   7.082   7.564   0.652
13395TIP3    H140128   7.084   7.657   0.630
13395TIP3    H240129   7.171   7.533   0.637
13396TIP3   OH240130   6.392   7.880   1.129
13396TIP3    H140131   6.347   7.857   1.048
13396TIP3    H240132   6.362   7.968   1.150
13397TIP3   OH240133   6.592   7.783   0.766
13397TIP3    H140134   6.646   7.714   0.728
13397TIP3    H240135   6.627   7.793   0.855
13398TIP3   OH240136   6.643   7.831   1.037
13398TIP3    H140137   6.556   7.841   1.077
13398TIP3    H240138   6.694   7.783   1.103
13399TIP3   OH240139   6.842   6.998   0.792
13399TIP3    H140140   6.805   6.975   0.707
13399TIP3    H240141   6.924   7.043   0.772
13400TIP3   OH240142   6.559   6.375   1.100
13400TIP3    H140143   6.504   6.405   1.172
13400TIP3    H240144   6.516   6.295   1.068
13401TIP3   OH240145   6.792   6.848   1.360
13401TIP3    H140146   6.708   6.887   1.334
13401TIP3    H240147   6.812   6.785   1.291
13402TIP3   OH240148   6.240   6.385   1.066
13402TIP3    H140149   6.211   6.327   1.137
13402TIP3    H240150   6.159   6.425   1.034
13403TIP3   OH240151   6.079   6.623   1.171
13403TIP3    H140152   6.022   6.620   1.094
13403TIP3    H240153   6.162   6.659   1.138
13404TIP3   OH240154   6.350   7.161   1.202
13404TIP3    H140155   6.282   7.109   1.160
13404TIP3    H240156   6.309   7.196   1.281
13405TIP3   OH240157   6.809   6.472   1.059
13405TIP3    H140158   6.715   6.458   1.071
13405TIP3    H240159   6.822   6.565   1.077
13406TIP3   OH240160   6.889   6.720   1.141
13406TIP3    H140161   6.983   6.723   1.159
13406TIP3    H240162   6.871   6.801   1.094
13407TIP3   OH240163   6.497   7.321   1.029
13407TIP3    H140164   6.451   7.404   1.030
13407TIP3    H240165   6.444   7.264   1.085
13408TIP3   OH240166   7.309   6.813   1.000
13408TIP3    H140167   7.250   6.774   0.936
13408TIP3    H240168   7.318   6.904   0.972
13409TIP3   OH240169   7.022   7.635   0.915
13409TIP3    H140170   6.988   7.565   0.970
13409TIP3    H240171   7.033   7.596   0.829
13410TIP3   OH240172   6.039   7.752   1.308
13410TIP3    H140173   5.991   7.744   1.391
13410TIP3    H240174   6.083   7.836   1.314
13411TIP3   OH240175   6.773   7.363   0.815
13411TIP3    H140176   6.826   7.344   0.893
13411TIP3    H240177   6.684   7.338   0.841
13412TIP3   OH240178   7.113   7.841   0.631
13412TIP3    H140179   7.156   7.909   0.579
13412TIP3    H240180   7.030   7.880   0.659
13413TIP3   OH240181   6.937   7.315   1.036
13413TIP3    H140182   6.920   7.242   1.095
13413TIP3    H240183   7.030   7.307   1.014
13414TIP3   OH240184   6.141   7.341   0.816
13414TIP3    H140185   6.152   7.251   0.785
13414TIP3    H240186   6.119   7.331   0.909
13415TIP3   OH240187   6.083   7.350   1.088
13415TIP3    H140188   6.130   7.333   1.169
13415TIP3    H240189   6.082   7.445   1.080
13416TIP3   OH240190   6.888   6.449   1.320
13416TIP3    H140191   6.862   6.456   1.228
13416TIP3    H240192   6.828   6.509   1.366
13417TIP3   OH240193   6.355   7.552   1.038
13417TIP3    H140194   6.264   7.568   1.066
13417TIP3    H240195   6.370   7.617   0.969
13418TIP3   OH240196   6.091   7.619   1.081
13418TIP3    H140197   6.066   7.686   1.017
13418TIP3    H240198   6.069   7.657   1.166
13419TIP3   OH240199   5.814   7.265   1.095
13419TIP3    H140200   5.886   7.327   1.103
13419TIP3    H240201   5.848   7.194   1.042
13420TIP3   OH240202   1.400   0.002   1.595
13420TIP3    H140203   1.363   0.044   1.517
13420TIP3    H240204   1.494  -0.002   1.578
13421TIP3   OH240205   6.302   7.545   0.727
13421TIP3    H140206   6.247   7.475   0.763
13421TIP3    H240207   6.376   7.500   0.688
13422TIP3   OH240208   6.736   7.589   0.633
13422TIP3    H140209   6.786   7.528   0.688
13422TIP3    H240210   6.785   7.594   0.551
13423TIP3   OH240211   5.952   7.069   0.948
13423TIP3    H140212   6.011   7.043   1.019
13423TIP3    H240213   6.009   7.077   0.871
13424TIP3   OH240214   6.463   7.261   0.759
13424TIP3    H140215   6.463   7.277   0.853
13424TIP3    H240216   6.460   7.166   0.751
13425TIP3   OH240217   6.161   6.984   1.109
13425TIP3    H140218   6.132   6.965   1.198
13425TIP3    H240219   6.196   6.901   1.076
13426TIP3   OH240220   6.266   6.746   1.005
13426TIP3    H140221   6.237   6.756   0.914
13426TIP3    H240222   6.361   6.755   1.001
13427TIP3   OH240223   7.074   7.092   0.674
13427TIP3    H140224   7.056   7.045   0.593
13427TIP3    H240225   7.045   7.182   0.657
13428TIP3   OH240226   6.067   7.831   0.911
13428TIP3    H140227   6.161   7.823   0.895
13428TIP3    H240228   6.035   7.881   0.835
13429TIP3   OH240229   5.546   7.213   1.106
13429TIP3    H140230   5.640   7.229   1.105
13429TIP3    H240231   5.538   7.120   1.083
13430TIP3   OH240232   1.672   0.055   1.550
13430TIP3    H140233   1.692   0.125   1.613
13430TIP3    H240234   1.720   0.079   1.471
13431TIP3   OH240235   7.213   7.284   1.003
13431TIP3    H140236   7.275   7.348   0.968
13431TIP3    H240237   7.257   7.246   1.079
13432TIP3   OH240238   7.349   7.157   1.199
13432TIP3    H140239   7.282   7.108   1.245
13432TIP3    H240240   7.410   7.184   1.267
13433TIP3   OH240241   7.386   7.543   1.623
13433TIP3    H140242   7.456   7.480   1.610
13433TIP3    H240243   7.405   7.615   1.563
13434TIP3   OH240244   7.276   7.057   0.857
13434TIP3    H140245   7.208   7.056   0.790
13434TIP3    H240246   7.253   7.132   0.913
13435TIP3   OH240247   7.144   6.727   0.806
13435TIP3    H140248   7.103   6.767   0.729
13435TIP3    H240249   7.123   6.634   0.799
13436TIP3   OH240250   7.146   6.988   1.287
13436TIP3    H140251   7.151   6.895   1.264
13436TIP3    H240252   7.161   6.991   1.382
13437TIP3   OH240253   7.091   6.462   0.792
13437TIP3    H140254   7.164   6.432   0.846
13437TIP3    H240255   7.019   6.403   0.815
13438TIP3   OH240256   7.160   6.720   1.218
13438TIP3    H140257   7.194   6.638   1.255
13438TIP3    H240258   7.223   6.743   1.149
13439TIP3   OH240259   7.257   6.458   1.275
13439TIP3    H140260   7.287   6.435   1.364
13439TIP3    H240261   7.192   6.392   1.254
13440TIP3   OH240262   7.337   6.405   0.917
13440TIP3    H140263   7.379   6.338   0.863
13440TIP3    H240264   7.399   6.478   0.917
13441TIP3   OH240265   6.917   7.943   1.187
13441TIP3    H140266   6.958   7.925   1.102
13441TIP3    H240267   6.969   8.015   1.223
13442TIP3   OH240268   7.064   6.255   1.243
13442TIP3    H140269   6.992   6.317   1.255
13442TIP3    H240270   7.033   6.174   1.283
13443TIP3   OH240271   5.596   7.630   1.264
13443TIP3    H140272   5.523   7.618   1.203
13443TIP3    H240273   5.567   7.702   1.321
13444TIP3   OH240274   6.334   7.781   0.861
13444TIP3    H140275   6.420   7.808   0.827
13444TIP3    H240276   6.307   7.709   0.805
13445TIP3   OH240277   7.052   7.902   0.953
13445TIP3    H140278   7.046   7.807   0.943
13445TIP3    H240279   7.009   7.937   0.875
13446TIP3   OH240280   5.639   7.618   0.925
13446TIP3    H140281   5.647   7.642   1.018
13446TIP3    H240282   5.722   7.576   0.904
13447TIP3   OH240283   0.042   7.424   0.905
13447TIP3    H140284   0.014   7.513   0.884
13447TIP3    H240285  -0.030   7.368   0.876
13448TIP3   OH240286   0.039   7.420   1.298
13448TIP3    H140287   0.076   7.395   1.382
13448TIP3    H240288   0.000   7.340   1.264
13449TIP3   OH240289   7.863   7.361   1.648
13449TIP3    H140290   7.873   7.287   1.707
13449TIP3    H240291   7.941   7.360   1.593
13450TIP3   OH240292   0.287   7.723   0.975
13450TIP3    H140293   0.271   7.652   1.037
13450TIP3    H240294   0.317   7.796   1.029
13451TIP3   OH240295   7.815   7.729   1.387
13451TIP3    H140296   7.798   7.635   1.379
13451TIP3    H240297   7.909   7.739   1.375
13452TIP3   OH240298   7.530   6.944   1.147
13452TIP3    H140299   7.474   7.021   1.155
13452TIP3    H240300   7.471   6.870   1.163
13453TIP3   OH240301   7.580   7.213   1.340
13453TIP3    H140302   7.624   7.139   1.381
13453TIP3    H240303   7.637   7.237   1.267
13454TIP3   OH240304   2.773   0.168   0.991
13454TIP3    H140305   2.814   0.101   0.936
13454TIP3    H240306   2.760   0.125   1.076
13455TIP3   OH240307   8.345   7.645   1.339
13455TIP3    H140308   8.376   7.565   1.296
13455TIP3    H240309   8.425   7.693   1.362
13456TIP3   OH240310   0.849   6.987   1.321
13456TIP3    H140311   0.876   7.067   1.366
13456TIP3    H240312   0.873   7.002   1.229
13457TIP3   OH240313   0.254   7.144   1.367
13457TIP3    H140314   0.297   7.061   1.388
13457TIP3    H240315   0.222   7.132   1.278
13458TIP3   OH240316   8.094   6.797   1.336
13458TIP3    H140317   8.075   6.878   1.288
13458TIP3    H240318   8.046   6.729   1.288
13459TIP3   OH240319   0.291   6.896   0.956
13459TIP3    H140320   0.358   6.879   1.022
13459TIP3    H240321   0.339   6.932   0.882
13460TIP3   OH240322   7.729   7.012   1.441
13460TIP3    H140323   7.784   6.973   1.509
13460TIP3    H240324   7.745   6.958   1.363
13461TIP3   OH240325   8.160   7.208   1.244
13461TIP3    H140326   8.253   7.190   1.251
13461TIP3    H240327   8.121   7.125   1.216
13462TIP3   OH240328   0.913   7.184   1.503
13462TIP3    H140329   0.831   7.230   1.485
13462TIP3    H240330   0.903   7.150   1.592
13463TIP3   OH240331   8.430   7.642   0.777
13463TIP3    H140332   8.391   7.622   0.692
13463TIP3    H240333   8.386   7.723   0.804
13464TIP3   OH240334   8.202   7.580   1.566
13464TIP3    H140335   8.136   7.644   1.593
13464TIP3    H240336   8.244   7.620   1.490
13465TIP3   OH240337   0.494   6.902   1.136
13465TIP3    H140338   0.464   6.866   1.220
13465TIP3    H240339   0.545   6.979   1.160
13466TIP3   OH240340   7.948   6.895   1.559
13466TIP3    H140341   8.012   6.967   1.559
13466TIP3    H240342   7.979   6.836   1.490
13467TIP3   OH240343   8.014   7.759   1.666
13467TIP3    H140344   7.983   7.842   1.629
13467TIP3    H240345   7.953   7.742   1.738
13468TIP3   OH240346   7.412   7.453   0.896
13468TIP3    H140347   7.375   7.474   0.811
13468TIP3    H240348   7.444   7.536   0.930
13469TIP3   OH240349   0.353   7.969   1.140
13469TIP3    H140350   0.265   7.958   1.177
13469TIP3    H240351   0.349   8.051   1.092
13470TIP3   OH240352   0.651   6.896   1.502
13470TIP3    H140353   0.560   6.901   1.472
13470TIP3    H240354   0.702   6.923   1.426
13471TIP3   OH240355   8.444   6.499   1.465
13471TIP3    H140356   8.453   6.407   1.491
13471TIP3    H240357   8.420   6.545   1.546
13472TIP3   OH240358   0.057   8.011   0.808
13472TIP3    H140359   0.102   7.929   0.792
13472TIP3    H240360   0.114   8.078   0.770
13473TIP3   OH240361   0.199   7.795   0.724
13473TIP3    H140362   0.161   7.717   0.684
13473TIP3    H240363   0.236   7.764   0.806
13474TIP3   OH240364   0.573   7.879   1.478
13474TIP3    H140365   0.567   7.799   1.425
13474TIP3    H240366   0.560   7.950   1.416
13475TIP3   OH240367   8.373   7.273   0.740
13475TIP3    H140368   8.293   7.323   0.722
13475TIP3    H240369   8.419   7.269   0.656
13476TIP3   OH240370   8.334   7.059   0.454
13476TIP3    H140371   8.398   7.110   0.503
13476TIP3    H240372   8.386   6.994   0.406
13477TIP3   OH240373   0.778   7.524   1.326
13477TIP3    H140374   0.695   7.570   1.336
13477TIP3    H240375   0.804   7.541   1.236
13478TIP3   OH240376   0.222   7.355   0.713
13478TIP3    H140377   0.166   7.380   0.786
13478TIP3    H240378   0.305   7.329   0.753
13479TIP3   OH240379   0.453   7.387   1.630
13479TIP3    H140380   0.456   7.465   1.686
13479TIP3    H240381   0.368   7.393   1.586
13480TIP3   OH240382   7.955   7.350   1.123
13480TIP3    H140383   7.913   7.293   1.058
13480TIP3    H240384   8.028   7.298   1.158
13481TIP3   OH240385   8.082   7.762   1.275
13481TIP3    H140386   8.058   7.728   1.189
13481TIP3    H240387   8.170   7.726   1.291
13482TIP3   OH240388   8.079   7.348   1.479
13482TIP3    H140389   8.109   7.314   1.395
13482TIP3    H240390   8.130   7.428   1.493
13483TIP3   OH240391   0.113   7.964   1.262
13483TIP3    H140392   0.099   8.038   1.320
13483TIP3    H240393   0.100   7.887   1.318
13484TIP3   OH240394   8.225   7.907   1.758
13484TIP3    H140395   8.179   7.951   1.829
13484TIP3    H240396   8.163   7.843   1.724
13485TIP3   OH240397   0.062   7.214   0.537
13485TIP3    H140398   0.119   7.271   0.589
13485TIP3    H240399   0.085   7.234   0.447
13486TIP3   OH240400   8.306   7.892   0.816
13486TIP3    H140401   8.387   7.942   0.823
13486TIP3    H240402   8.245   7.951   0.770
13487TIP3   OH240403   0.575   6.453   0.588
13487TIP3    H140404   0.495   6.471   0.638
13487TIP3    H240405   0.590   6.533   0.538
13488TIP3   OH240406   7.819   7.195   0.930
13488TIP3    H140407   7.752   7.237   0.877
13488TIP3    H240408   7.783   7.109   0.950
13489TIP3   OH240409   0.378   7.820   0.135
13489TIP3    H140410   0.383   7.915   0.121
13489TIP3    H240411   0.468   7.789   0.123
13490TIP3   OH240412   7.459   7.777   1.463
13490TIP3    H140413   7.553   7.762   1.450
13490TIP3    H240414   7.456   7.858   1.515
13491TIP3   OH240415   3.653   0.212   1.530
13491TIP3    H140416   3.657   0.117   1.540
13491TIP3    H240417   3.569   0.236   1.569
13492TIP3   OH240418   2.775   0.001   1.651
13492TIP3    H140419   2.773   0.091   1.686
13492TIP3    H240420   2.695  -0.040   1.686
13493TIP3   OH240421   2.521   0.123   0.616
13493TIP3    H140422   2.474   0.102   0.535
13493TIP3    H240423   2.487   0.209   0.641
13494TIP3   OH240424   7.623   7.983   1.002
13494TIP3    H140425   7.670   7.974   1.085
13494TIP3    H240426   7.573   7.902   0.993
13495TIP3   OH240427   2.723   0.025   0.256
13495TIP3    H140428   2.778  -0.044   0.218
13495TIP3    H240429   2.755   0.036   0.345
13496TIP3   OH240430   2.771   0.074   0.526
13496TIP3    H140431   2.684   0.083   0.564
13496TIP3    H240432   2.824   0.033   0.595
13497TIP3   OH240433   0.720   7.356   1.772
13497TIP3    H140434   0.628   7.372   1.753
13497TIP3    H240435   0.728   7.260   1.774
13498TIP3   OH240436   0.478   7.138   1.755
13498TIP3    H140437   0.447   7.158   1.843
13498TIP3    H240438   0.454   7.215   1.703
13499TIP3   OH240439   0.139   7.256   0.281
13499TIP3    H140440   0.102   7.233   0.196
13499TIP3    H240441   0.221   7.301   0.259
13500TIP3   OH240442   8.348   6.630   0.587
13500TIP3    H140443   8.316   6.632   0.677
13500TIP3    H240444   8.311   6.550   0.550
13501TIP3   OH240445   8.125   7.093   1.563
13501TIP3    H140446   8.164   7.087   1.651
13501TIP3    H240447   8.117   7.187   1.547
13502TIP3   OH240448   8.021   6.984   1.149
13502TIP3    H140449   7.932   6.960   1.173
13502TIP3    H240450   8.035   6.945   1.063
13503TIP3   OH240451   0.010   7.073   0.874
13503TIP3    H140452  -0.041   7.142   0.834
13503TIP3    H240453   0.065   7.039   0.803
13504TIP3   OH240454   0.172   7.099   1.107
13504TIP3    H140455   0.105   7.128   1.045
13504TIP3    H240456   0.207   7.018   1.068
13505TIP3   OH240457   8.005   6.609   0.552
13505TIP3    H140458   7.997   6.605   0.647
13505TIP3    H240459   7.929   6.660   0.524
13506TIP3   OH240460   7.505   6.693   1.312
13506TIP3    H140461   7.555   6.710   1.392
13506TIP3    H240462   7.553   6.624   1.268
13507TIP3   OH240463   7.517   6.635   0.939
13507TIP3    H140464   7.561   6.671   0.863
13507TIP3    H240465   7.458   6.705   0.968
13508TIP3   OH240466   0.180   7.346   1.531
13508TIP3    H140467   0.210   7.275   1.475
13508TIP3    H240468   0.156   7.303   1.614
13509TIP3   OH240469   8.350   6.807   1.206
13509TIP3    H140470   8.269   6.803   1.256
13509TIP3    H240471   8.419   6.805   1.272
13510TIP3   OH240472   7.785   6.868   1.214
13510TIP3    H140473   7.695   6.879   1.184
13510TIP3    H240474   7.806   6.777   1.193
13511TIP3   OH240475   8.048   6.859   0.905
13511TIP3    H140476   8.140   6.876   0.885
13511TIP3    H240477   8.001   6.883   0.825
13512TIP3   OH240478   0.345   6.883   1.395
13512TIP3    H140479   0.332   6.891   1.489
13512TIP3    H240480   0.278   6.821   1.366
13513TIP3   OH240481   7.896   6.895   0.679
13513TIP3    H140482   7.824   6.850   0.634
13513TIP3    H240483   7.948   6.932   0.608
13514TIP3   OH240484   3.354   0.555   1.614
13514TIP3    H140485   3.353   0.573   1.520
13514TIP3    H240486   3.392   0.633   1.654
13515TIP3   OH240487   8.429   7.154   1.293
13515TIP3    H140488   8.500   7.099   1.259
13515TIP3    H240489   8.425   7.131   1.386
13516TIP3   OH240490   7.951   6.628   1.176
13516TIP3    H140491   7.910   6.553   1.221
13516TIP3    H240492   7.999   6.589   1.103
13517TIP3   OH240493   8.418   7.078   1.555
13517TIP3    H140494   8.331   7.044   1.573
13517TIP3    H240495   8.475   7.030   1.614
13518TIP3   OH240496   8.141   7.423   0.691
13518TIP3    H140497   8.072   7.358   0.677
13518TIP3    H240498   8.124   7.458   0.778
13519TIP3   OH240499   0.541   7.660   1.315
13519TIP3    H140500   0.566   7.708   1.236
13519TIP3    H240501   0.459   7.617   1.291
13520TIP3   OH240502   0.099   6.736   0.555
13520TIP3    H140503   0.006   6.716   0.564
13520TIP3    H240504   0.107   6.828   0.580
13521TIP3   OH240505   0.055   7.748   1.679
13521TIP3    H140506   0.041   7.693   1.756
13521TIP3    H240507   0.002   7.826   1.696
13522TIP3   OH240508   0.170   6.985   0.657
13522TIP3    H140509   0.264   6.990   0.673
13522TIP3    H240510   0.150   7.063   0.605
13523TIP3   OH240511   7.833   7.462   1.345
13523TIP3    H140512   7.871   7.426   1.265
13523TIP3    H240513   7.862   7.401   1.414
13524TIP3   OH240514   8.287   7.575   0.515
13524TIP3    H140515   8.242   7.659   0.517
13524TIP3    H240516   8.235   7.518   0.572
13525TIP3   OH240517   3.039  -0.003   1.580
13525TIP3    H140518   2.946  -0.024   1.585
13525TIP3    H240519   3.054   0.059   1.650
13526TIP3   OH240520   0.610   7.077   0.487
13526TIP3    H140521   0.550   7.029   0.430
13526TIP3    H240522   0.609   7.167   0.453
13527TIP3   OH240523   0.819   7.946   1.563
13527TIP3    H140524   0.725   7.928   1.552
13527TIP3    H240525   0.860   7.910   1.485
13528TIP3   OH240526   0.315   7.893   0.401
13528TIP3    H140527   0.286   7.824   0.462
13528TIP3    H240528   0.326   7.848   0.317
13529TIP3   OH240529   0.305   7.522   1.232
13529TIP3    H140530   0.214   7.497   1.248
13529TIP3    H240531   0.344   7.445   1.191
13530TIP3   OH240532   7.937   7.755   0.996
13530TIP3    H140533   7.937   7.833   0.939
13530TIP3    H240534   7.845   7.729   0.999
13531TIP3   OH240535   7.502   7.056   0.697
13531TIP3    H140536   7.548   7.137   0.716
13531TIP3    H240537   7.426   7.057   0.756
13532TIP3   OH240538   8.071   7.519   0.934
13532TIP3    H140539   8.039   7.606   0.954
13532TIP3    H240540   8.037   7.464   1.005
13533TIP3   OH240541   2.539   0.083   1.456
13533TIP3    H140542   2.575   0.155   1.404
13533TIP3    H240543   2.616   0.040   1.494
13534TIP3   OH240544   2.188  -0.023   0.845
13534TIP3    H140545   2.103  -0.016   0.887
13534TIP3    H240546   2.222   0.067   0.845
13535TIP3   OH240547   0.098   7.730   1.414
13535TIP3    H140548   0.091   7.729   1.510
13535TIP3    H240549   0.168   7.668   1.395
13536TIP3   OH240550   0.071   7.623   0.304
13536TIP3    H140551   0.124   7.600   0.380
13536TIP3    H240552  -0.018   7.594   0.328
13537TIP3   OH240553   3.166   0.251   1.470
13537TIP3    H140554   3.092   0.193   1.453
13537TIP3    H240555   3.164   0.314   1.398
13538TIP3   OH240556   3.240   0.084   0.119
13538TIP3    H140557   3.279   0.153   0.066
13538TIP3    H240558   3.160   0.123   0.156
13539TIP3   OH240559   0.233   7.554   0.518
13539TIP3    H140560   0.219   7.490   0.587
13539TIP3    H240561   0.328   7.554   0.504
13540TIP3   OH240562   7.653   7.964   1.601
13540TIP3    H140563   7.704   7.884   1.607
13540TIP3    H240564   7.640   7.991   1.692
13541TIP3   OH240565   7.935   7.600   0.302
13541TIP3    H140566   7.947   7.509   0.273
13541TIP3    H240567   7.913   7.592   0.395
13542TIP3   OH240568   7.879   7.609   0.574
13542TIP3    H140569   7.951   7.578   0.629
13542TIP3    H240570   7.883   7.704   0.580
13543TIP3   OH240571   7.611   7.301   0.778
13543TIP3    H140572   7.546   7.342   0.834
13543TIP3    H240573   7.627   7.366   0.709
13544TIP3   OH240574   0.297   6.921   1.656
13544TIP3    H140575   0.353   6.968   1.718
13544TIP3    H240576   0.214   6.909   1.701
13545TIP3   OH240577   0.149   6.686   0.836
13545TIP3    H140578   0.133   6.707   0.744
13545TIP3    H240579   0.187   6.765   0.873
13546TIP3   OH240580   8.146   7.807   0.522
13546TIP3    H140581   8.060   7.829   0.559
13546TIP3    H240582   8.163   7.876   0.458
13547TIP3   OH240583   8.333   6.870   0.937
13547TIP3    H140584   8.396   6.940   0.919
13547TIP3    H240585   8.336   6.859   1.032
13548TIP3   OH240586   0.128   7.219   1.767
13548TIP3    H140587   0.146   7.268   1.848
13548TIP3    H240588   0.146   7.128   1.789
13549TIP3   OH240589   8.476   6.592   1.035
13549TIP3    H140590   8.466   6.665   1.096
13549TIP3    H240591   8.538   6.624   0.970
13550TIP3   OH240592   7.891   7.882   0.591
13550TIP3    H140593   7.862   7.948   0.528
13550TIP3    H240594   7.875   7.922   0.677
13551TIP3   OH240595   7.992   6.595   0.829
13551TIP3    H140596   7.984   6.683   0.865
13551TIP3    H240597   8.086   6.575   0.834
13552TIP3   OH240598   0.735   7.071   1.702
13552TIP3    H140599   0.645   7.090   1.727
13552TIP3    H240600   0.728   7.006   1.632
13553TIP3   OH240601   0.393   7.281   1.113
13553TIP3    H140602   0.318   7.223   1.121
13553TIP3    H240603   0.464   7.236   1.159
13554TIP3   OH240604   7.612   7.506   0.581
13554TIP3    H140605   7.678   7.574   0.590
13554TIP3    H240606   7.648   7.447   0.515
13555TIP3   OH240607   7.550   6.785   0.714
13555TIP3    H140608   7.553   6.880   0.714
13555TIP3    H240609   7.468   6.764   0.670
13556TIP3   OH240610   3.198   0.227   1.059
13556TIP3    H140611   3.153   0.271   0.987
13556TIP3    H240612   3.291   0.241   1.042
13557TIP3   OH240613   7.478   7.732   0.967
13557TIP3    H140614   7.409   7.753   1.030
13557TIP3    H240615   7.447   7.769   0.884
13558TIP3   OH240616   8.097   7.801   0.213
13558TIP3    H140617   8.041   7.733   0.251
13558TIP3    H240618   8.173   7.753   0.178
13559TIP3   OH240619   3.107   0.104   1.835
13559TIP3    H140620   3.146   0.018   1.822
13559TIP3    H240621   3.178   0.166   1.819
13560TIP3   OH240622   0.035   7.843   0.126
13560TIP3    H140623   0.073   7.778   0.185
13560TIP3    H240624   0.091   7.840   0.048
13561TIP3   OH240625   7.747   7.319   0.435
13561TIP3    H140626   7.799   7.288   0.510
13561TIP3    H240627   7.810   7.325   0.363
13562TIP3   OH240628   8.259   7.519   0.246
13562TIP3    H140629   8.258   7.534   0.340
13562TIP3    H240630   8.258   7.424   0.237
13563TIP3   OH240631   0.370   7.777   1.635
13563TIP3    H140632   0.444   7.809   1.584
13563TIP3    H240633   0.296   7.830   1.606
13564TIP3   OH240634   7.950   7.226   0.656
13564TIP3    H140635   7.922   7.188   0.739
13564TIP3    H240636   7.986   7.152   0.607
13565TIP3   OH240637   8.054   7.022   0.494
13565TIP3    H140638   8.026   7.027   0.403
13565TIP3    H240639   8.150   7.026   0.489
13566TIP3   OH240640   0.371   7.351   0.160
13566TIP3    H140641   0.352   7.302   0.080
13566TIP3    H240642   0.340   7.440   0.142
13567TIP3   OH240643   8.372   7.421   1.720
13567TIP3    H140644   8.445   7.378   1.676
13567TIP3    H240645   8.333   7.477   1.653
13568TIP3   OH240646   0.499   7.602   1.800
13568TIP3    H140647   0.439   7.662   1.755
13568TIP3    H240648   0.586   7.632   1.774
13569TIP3   OH240649   2.197   0.071   0.403
13569TIP3    H140650   2.290   0.062   0.385
13569TIP3    H240651   2.162   0.118   0.328
13570TIP3   OH240652   7.342   7.462   0.619
13570TIP3    H140653   7.433   7.485   0.603
13570TIP3    H240654   7.332   7.377   0.575
13571TIP3   OH240655   1.587   0.059   1.034
13571TIP3    H140656   1.523   0.002   0.993
13571TIP3    H240657   1.632   0.003   1.098
13572TIP3   OH240658   7.387   7.924   1.224
13572TIP3    H140659   7.379   7.850   1.284
13572TIP3    H240660   7.445   7.986   1.269
13573TIP3   OH240661   3.453   0.312   1.020
13573TIP3    H140662   3.476   0.345   1.106
13573TIP3    H240663   3.513   0.356   0.960
13574TIP3   OH240664   3.477   0.330   1.301
13574TIP3    H140665   3.434   0.245   1.296
13574TIP3    H240666   3.554   0.315   1.355
13575TIP3   OH240667   0.512   7.536   0.495
13575TIP3    H140668   0.576   7.601   0.464
13575TIP3    H240669   0.552   7.497   0.572
13576TIP3   OH240670   0.636   7.404   0.700
13576TIP3    H140671   0.571   7.362   0.756
13576TIP3    H240672   0.700   7.440   0.761
13577TIP3   OH240673   0.694   7.799   1.129
13577TIP3    H140674   0.746   7.731   1.085
13577TIP3    H240675   0.689   7.871   1.066
13578TIP3   OH240676   3.352   0.085   1.320
13578TIP3    H140677   3.281   0.120   1.374
13578TIP3    H240678   3.308   0.036   1.250
13579TIP3   OH240679   0.571   7.314   0.343
13579TIP3    H140680   0.503   7.313   0.276
13579TIP3    H240681   0.548   7.388   0.400
13580TIP3   OH240682   0.445   6.982   0.294
13580TIP3    H140683   0.400   7.021   0.220
13580TIP3    H240684   0.424   6.889   0.289
13581TIP3   OH240685   0.449   7.261   0.844
13581TIP3    H140686   0.456   7.166   0.836
13581TIP3    H240687   0.434   7.276   0.938
13582TIP3   OH240688   7.592   7.381   1.563
13582TIP3    H140689   7.582   7.324   1.487
13582TIP3    H240690   7.682   7.367   1.591
13583TIP3   OH240691   0.738   7.698   1.703
13583TIP3    H140692   0.806   7.631   1.696
13583TIP3    H240693   0.778   7.776   1.665
13584TIP3   OH240694   0.934   7.503   1.703
13584TIP3    H140695   0.859   7.446   1.721
13584TIP3    H240696   0.983   7.506   1.785
13585TIP3   OH240697   0.389   6.717   0.280
13585TIP3    H140698   0.460   6.686   0.337
13585TIP3    H240699   0.314   6.662   0.303
13586TIP3   OH240700   0.449   6.977   0.735
13586TIP3    H140701   0.486   6.890   0.752
13586TIP3    H240702   0.504   7.012   0.665
13587TIP3   OH240703   0.606   7.152   1.231
13587TIP3    H140704   0.689   7.173   1.189
13587TIP3    H240705   0.614   7.187   1.320
13588TIP3   OH240706   0.668   7.301   1.457
13588TIP3    H140707   0.596   7.331   1.513
13588TIP3    H240708   0.704   7.381   1.420
13589TIP3   OH240709   0.555   6.726   0.776
13589TIP3    H140710   0.602   6.714   0.859
13589TIP3    H240711   0.494   6.653   0.772
13590TIP3   OH240712   0.635   6.660   0.409
13590TIP3    H140713   0.673   6.590   0.356
13590TIP3    H240714   0.700   6.730   0.406
13591TIP3   OH240715   7.530   6.468   1.151
13591TIP3    H140716   7.439   6.476   1.180
13591TIP3    H240717   7.538   6.531   1.079
13592TIP3   OH240718   3.036   0.181   0.676
13592TIP3    H140719   3.085   0.167   0.594
13592TIP3    H240720   3.087   0.247   0.722
13593TIP3   OH240721   2.313   0.016   1.607
13593TIP3    H140722   2.260   0.087   1.572
13593TIP3    H240723   2.399   0.028   1.567
13594TIP3   OH240724   2.782   0.255   1.753
13594TIP3    H140725   2.835   0.261   1.832
13594TIP3    H240726   2.828   0.309   1.689
13595TIP3   OH240727   2.949   0.409   1.606
13595TIP3    H140728   3.001   0.353   1.549
13595TIP3    H240729   3.010   0.479   1.633
13596TIP3   OH240730   1.992   0.299   1.625
13596TIP3    H140731   1.910   0.335   1.591
13596TIP3    H240732   1.973   0.279   1.717
13597TIP3   OH240733   2.227   0.254   1.490
13597TIP3    H140734   2.145   0.272   1.536
13597TIP3    H240735   2.211   0.283   1.400
13598TIP3   OH240736   2.649   0.281   1.289
13598TIP3    H140737   2.582   0.294   1.222
13598TIP3    H240738   2.662   0.368   1.327
13599TIP3   OH240739   2.918   0.225   1.347
13599TIP3    H140740   2.826   0.236   1.323
13599TIP3    H240741   2.965   0.289   1.292
13600TIP3   OH240742   3.124   0.409   1.251
13600TIP3    H140743   3.111   0.493   1.207
13600TIP3    H240744   3.152   0.350   1.181
13601TIP3   OH240745   1.903   0.067   1.371
13601TIP3    H140746   1.931   0.044   1.460
13601TIP3    H240747   1.970   0.029   1.315
13602TIP3   OH240748   7.764   7.953   1.236
13602TIP3    H140749   7.776   7.871   1.284
13602TIP3    H240750   7.852   7.989   1.228
13603TIP3   OH240751   2.363   0.031   1.240
13603TIP3    H140752   2.391  -0.059   1.223
13603TIP3    H240753   2.407   0.055   1.322
13604TIP3   OH240754   0.105   6.700   1.318
13604TIP3    H140755   0.063   6.628   1.365
13604TIP3    H240756   0.183   6.661   1.278
13605TIP3   OH240757   0.626   6.579   1.222
13605TIP3    H140758   0.657   6.636   1.152
13605TIP3    H240759   0.534   6.603   1.234
13606TIP3   OH240760   0.720   6.689   0.991
13606TIP3    H140761   0.788   6.634   0.953
13606TIP3    H240762   0.750   6.779   0.977
13607TIP3   OH240763   7.847   6.408   1.295
13607TIP3    H140764   7.758   6.386   1.323
13607TIP3    H240765   7.897   6.329   1.310
13608TIP3   OH240766   7.641   6.278   0.984
13608TIP3    H140767   7.672   6.334   0.913
13608TIP3    H240768   7.608   6.339   1.050
13609TIP3   OH240769   8.302   6.450   1.225
13609TIP3    H140770   8.351   6.496   1.157
13609TIP3    H240771   8.344   6.476   1.307
13610TIP3   OH240772   0.338   6.589   1.204
13610TIP3    H140773   0.343   6.555   1.115
13610TIP3    H240774   0.323   6.512   1.258
13611TIP3   OH240775   0.370   6.514   0.769
13611TIP3    H140776   0.287   6.560   0.783
13611TIP3    H240777   0.359   6.429   0.812
13612TIP3   OH240778   7.352   7.857   0.763
13612TIP3    H140779   7.270   7.819   0.733
13612TIP3    H240780   7.345   7.950   0.739
13613TIP3   OH240781   7.759   6.437   0.752
13613TIP3    H140782   7.805   6.377   0.694
13613TIP3    H240783   7.828   6.493   0.788
13614TIP3   OH240784   8.268   6.619   0.852
13614TIP3    H140785   8.328   6.571   0.909
13614TIP3    H240786   8.284   6.711   0.872
13615TIP3   OH240787   2.464   0.023   0.348
13615TIP3    H140788   2.549   0.049   0.314
13615TIP3    H240789   2.437  -0.050   0.291
13616TIP3   OH240790   3.180   0.145   0.442
13616TIP3    H140791   3.174   0.050   0.433
13616TIP3    H240792   3.135   0.180   0.365
13617TIP3   OH240793   7.438   7.878   0.411
13617TIP3    H140794   7.438   7.898   0.504
13617TIP3    H240795   7.522   7.836   0.395
13618TIP3   OH240796   3.402   0.284   1.620
13618TIP3    H140797   3.324   0.261   1.569
13618TIP3    H240798   3.393   0.378   1.634
13619TIP3   OH240799   1.833   7.673   0.398
13619TIP3    H140800   1.814   7.765   0.382
13619TIP3    H240801   1.760   7.625   0.358
13620TIP3   OH240802   1.823   7.670   0.782
13620TIP3    H140803   1.902   7.625   0.811
13620TIP3    H240804   1.788   7.614   0.712
13621TIP3   OH240805   1.136   7.576   1.137
13621TIP3    H140806   1.162   7.507   1.198
13621TIP3    H240807   1.217   7.623   1.118
13622TIP3   OH240808   2.081   7.976   0.458
13622TIP3    H140809   2.077   7.903   0.519
13622TIP3    H240810   2.114   8.049   0.510
13623TIP3   OH240811   1.114   7.981   0.867
13623TIP3    H140812   1.101   7.886   0.868
13623TIP3    H240813   1.209   7.991   0.858
13624TIP3   OH240814   0.814   7.186   0.647
13624TIP3    H140815   0.767   7.268   0.666
13624TIP3    H240816   0.747   7.129   0.610
13625TIP3   OH240817   0.874   7.471   0.827
13625TIP3    H140818   0.921   7.396   0.862
13625TIP3    H240819   0.932   7.506   0.759
13626TIP3   OH240820   4.566   0.423   0.477
13626TIP3    H140821   4.608   0.354   0.425
13626TIP3    H240822   4.563   0.388   0.566
13627TIP3   OH240823   1.639   7.903   0.823
13627TIP3    H140824   1.676   7.819   0.796
13627TIP3    H240825   1.716   7.959   0.838
13628TIP3   OH240826   1.383   7.069   0.803
13628TIP3    H140827   1.358   7.142   0.747
13628TIP3    H240828   1.334   6.994   0.767
13629TIP3   OH240829   2.058   7.193   0.419
13629TIP3    H140830   2.115   7.130   0.463
13629TIP3    H240831   2.110   7.227   0.347
13630TIP3   OH240832   1.023   7.265   0.927
13630TIP3    H140833   1.106   7.251   0.973
13630TIP3    H240834   1.030   7.211   0.848
13631TIP3   OH240835   1.461   7.459   0.725
13631TIP3    H140836   1.552   7.430   0.737
13631TIP3    H240837   1.416   7.382   0.692
13632TIP3   OH240838   1.381   7.100   1.277
13632TIP3    H140839   1.327   7.098   1.198
13632TIP3    H240840   1.354   7.022   1.326
13633TIP3   OH240841   1.728   7.896   0.263
13633TIP3    H140842   1.688   7.880   0.177
13633TIP3    H240843   1.686   7.977   0.294
13634TIP3   OH240844   1.476   7.832   1.037
13634TIP3    H140845   1.421   7.899   1.078
13634TIP3    H240846   1.528   7.879   0.972
13635TIP3   OH240847   1.259   7.165   1.029
13635TIP3    H140848   1.321   7.232   1.058
13635TIP3    H240849   1.306   7.117   0.960
13636TIP3   OH240850   4.150   0.013   1.156
13636TIP3    H140851   4.129   0.098   1.118
13636TIP3    H240852   4.073  -0.009   1.209
13637TIP3   OH240853   0.711   7.710   0.385
13637TIP3    H140854   0.669   7.732   0.302
13637TIP3    H240855   0.741   7.793   0.420
13638TIP3   OH240856   4.984   0.215   0.618
13638TIP3    H140857   4.902   0.193   0.662
13638TIP3    H240858   4.969   0.301   0.581
13639TIP3   OH240859   4.686   0.254   0.293
13639TIP3    H140860   4.733   0.172   0.278
13639TIP3    H240861   4.743   0.321   0.256
13640TIP3   OH240862   4.830   0.037   0.210
13640TIP3    H140863   4.787  -0.041   0.173
13640TIP3    H240864   4.865   0.007   0.294
13641TIP3   OH240865   1.666   7.537   0.220
13641TIP3    H140866   1.586   7.586   0.206
13641TIP3    H240867   1.711   7.537   0.135
13642TIP3   OH240868   7.299   3.306   6.881
13642TIP3    H140869   7.360   3.360   6.931
13642TIP3    H240870   7.355   3.245   6.833
13643TIP3   OH240871   2.015   7.612   0.202
13643TIP3    H140872   1.959   7.636   0.275
13643TIP3    H240873   2.099   7.590   0.241
13644TIP3   OH240874   1.250   7.605   0.614
13644TIP3    H140875   1.209   7.549   0.548
13644TIP3    H240876   1.324   7.555   0.646
13645TIP3   OH240877   1.380   8.019   0.762
13645TIP3    H140878   1.358   7.984   0.675
13645TIP3    H240879   1.468   7.985   0.779
13646TIP3   OH240880   1.378   7.586   0.966
13646TIP3    H140881   1.412   7.557   0.881
13646TIP3    H240882   1.416   7.673   0.979
13647TIP3   OH240883   4.745   0.213   0.738
13647TIP3    H140884   4.733   0.291   0.793
13647TIP3    H240885   4.731   0.139   0.797
13648TIP3   OH240886   4.353   0.138   1.297
13648TIP3    H140887   4.287   0.194   1.338
13648TIP3    H240888   4.301   0.074   1.247
13649TIP3   OH240889   1.859   7.470   0.023
13649TIP3    H140890   1.914   7.528   0.075
13649TIP3    H240891   1.882   7.490  -0.068
13650TIP3   OH240892   1.260   7.701   1.398
13650TIP3    H140893   1.257   7.788   1.439
13650TIP3    H240894   1.170   7.669   1.404
13651TIP3   OH240895   4.437   0.132   0.299
13651TIP3    H140896   4.517   0.183   0.311
13651TIP3    H240897   4.375   0.193   0.260
13652TIP3   OH240898   4.146   0.288   1.383
13652TIP3    H140899   4.111   0.294   1.294
13652TIP3    H240900   4.069   0.272   1.438
13653TIP3   OH240901   2.245   6.740  -0.002
13653TIP3    H140902   2.235   6.757   0.091
13653TIP3    H240903   2.310   6.804  -0.031
13654TIP3   OH240904   1.115   7.451   0.415
13654TIP3    H140905   1.049   7.496   0.363
13654TIP3    H240906   1.077   7.366   0.434
13655TIP3   OH240907   7.842   4.070   6.563
13655TIP3    H140908   7.847   4.164   6.548
13655TIP3    H240909   7.932   4.039   6.551
13656TIP3   OH240910   0.896   7.835   1.328
13656TIP3    H140911   0.829   7.815   1.262
13656TIP3    H240912   0.931   7.749   1.352
13657TIP3   OH240913   3.585   0.015   0.961
13657TIP3    H140914   3.680   0.008   0.950
13657TIP3    H240915   3.572   0.094   1.014
13658TIP3   OH240916   4.536   0.268   1.147
13658TIP3    H140917   4.574   0.325   1.213
13658TIP3    H240918   4.470   0.217   1.195
13659TIP3   OH240919   4.316   0.379   0.103
13659TIP3    H140920   4.271   0.360   0.021
13659TIP3    H240921   4.284   0.465   0.128
13660TIP3   OH240922   3.754   0.226   0.489
13660TIP3    H140923   3.800   0.220   0.573
13660TIP3    H240924   3.701   0.147   0.485
13661TIP3   OH240925   7.352   4.288   6.684
13661TIP3    H140926   7.407   4.219   6.646
13661TIP3    H240927   7.385   4.298   6.773
13662TIP3   OH240928   4.567   0.330   0.014
13662TIP3    H140929   4.480   0.339   0.052
13662TIP3    H240930   4.620   0.292   0.085
13663TIP3   OH240931   1.097   8.018   1.319
13663TIP3    H140932   1.139   8.002   1.404
13663TIP3    H240933   1.023   7.958   1.317
13664TIP3   OH240934   0.644   6.194   1.453
13664TIP3    H140935   0.708   6.131   1.486
13664TIP3    H240936   0.654   6.270   1.510
13665TIP3   OH240937   7.601   3.501   6.706
13665TIP3    H140938   7.565   3.482   6.619
13665TIP3    H240939   7.683   3.548   6.688
13666TIP3   OH240940   1.646   6.878   0.071
13666TIP3    H140941   1.614   6.885   0.161
13666TIP3    H240942   1.601   6.801   0.035
13667TIP3   OH240943   1.430   7.360   1.111
13667TIP3    H140944   1.381   7.372   1.192
13667TIP3    H240945   1.417   7.442   1.063
13668TIP3   OH240946   1.307   7.251   0.621
13668TIP3    H140947   1.218   7.225   0.646
13668TIP3    H240948   1.322   7.209   0.537
13669TIP3   OH240949   1.789   7.334   0.354
13669TIP3    H140950   1.742   7.404   0.311
13669TIP3    H240951   1.856   7.307   0.291
13670TIP3   OH240952   1.937   7.374   0.592
13670TIP3    H140953   1.878   7.410   0.525
13670TIP3    H240954   1.978   7.298   0.550
13671TIP3   OH240955   1.244   7.400   1.317
13671TIP3    H140956   1.268   7.460   1.388
13671TIP3    H240957   1.216   7.320   1.362
13672TIP3   OH240958   1.304   6.868   0.039
13672TIP3    H140959   1.294   6.862   0.134
13672TIP3    H240960   1.227   6.916   0.009
13673TIP3   OH240961   0.844   6.909   0.902
13673TIP3    H140962   0.914   6.941   0.958
13673TIP3    H240963   0.888   6.873   0.825
13674TIP3   OH240964   0.811   6.891   0.425
13674TIP3    H140965   0.858   6.925   0.349
13674TIP3    H240966   0.750   6.960   0.449
13675TIP3   OH240967   1.634   7.052   0.703
13675TIP3    H140968   1.545   7.046   0.738
13675TIP3    H240969   1.685   7.091   0.774
13676TIP3   OH240970   1.077   7.123   0.697
13676TIP3    H140971   0.985   7.130   0.673
13676TIP3    H240972   1.099   7.032   0.678
13677TIP3   OH240973   1.345   7.117   0.388
13677TIP3    H140974   1.436   7.134   0.362
13677TIP3    H240975   1.294   7.138   0.310
13678TIP3   OH240976   1.191   7.151   0.167
13678TIP3    H140977   1.119   7.105   0.124
13678TIP3    H240978   1.243   7.187   0.095
13679TIP3   OH240979   1.234   7.929   1.554
13679TIP3    H140980   1.309   7.978   1.587
13679TIP3    H240981   1.194   7.890   1.631
13680TIP3   OH240982   1.726   7.370   0.774
13680TIP3    H140983   1.804   7.366   0.718
13680TIP3    H240984   1.760   7.371   0.863
13681TIP3   OH240985   1.245   6.879   0.664
13681TIP3    H140986   1.202   6.815   0.720
13681TIP3    H240987   1.285   6.827   0.594
13682TIP3   OH240988   1.435   7.681   0.178
13682TIP3    H140989   1.365   7.616   0.163
13682TIP3    H240990   1.418   7.715   0.265
13683TIP3   OH240991   1.887   7.000   0.036
13683TIP3    H140992   1.794   6.981   0.052
13683TIP3    H240993   1.898   7.091   0.062
13684TIP3   OH240994   1.780   7.995   1.132
13684TIP3    H140995   1.793   7.947   1.213
13684TIP3    H240996   1.772   8.087   1.159
13685TIP3   OH240997   1.969   7.244   0.130
13685TIP3    H140998   2.064   7.256   0.136
13685TIP3    H240999   1.938   7.321   0.083
13686TIP3   OH241000   1.133   7.704   0.847
13686TIP3    H141001   1.169   7.678   0.763
13686TIP3    H241002   1.174   7.646   0.911
13687TIP3   OH241003   1.583   7.831   0.002
13687TIP3    H141004   1.539   7.916   0.003
13687TIP3    H241005   1.530   7.775   0.059
13688TIP3   OH241006   1.004   7.610   1.459
13688TIP3    H141007   0.998   7.581   1.551
13688TIP3    H241008   0.936   7.560   1.414
13689TIP3   OH241009   4.814   0.275   1.082
13689TIP3    H141010   4.722   0.271   1.056
13689TIP3    H241011   4.815   0.336   1.156
13690TIP3   OH241012   8.070   3.329   6.923
13690TIP3    H141013   8.014   3.283   6.861
13690TIP3    H241014   8.077   3.418   6.888
13691TIP3   OH241015   7.779   4.142   6.828
13691TIP3    H141016   7.750   4.073   6.887
13691TIP3    H241017   7.791   4.098   6.744
13692TIP3   OH241018   2.090   7.780   0.649
13692TIP3    H141019   2.006   7.777   0.694
13692TIP3    H241020   2.120   7.689   0.648
13693TIP3   OH241021   4.067  -0.004   0.478
13693TIP3    H141022   4.068   0.075   0.424
13693TIP3    H241023   3.974  -0.024   0.489
13694TIP3   OH241024   0.798   7.313   0.186
13694TIP3    H141025   0.844   7.395   0.205
13694TIP3    H241026   0.721   7.315   0.243
13695TIP3   OH241027   1.366   7.773   0.422
13695TIP3    H141028   1.335   7.862   0.438
13695TIP3    H241029   1.331   7.722   0.495
13696TIP3   OH241030   4.338   0.336   0.943
13696TIP3    H141031   4.376   0.403   0.887
13696TIP3    H241032   4.413   0.301   0.992
13697TIP3   OH241033   3.985   0.234   0.331
13697TIP3    H141034   3.900   0.240   0.375
13697TIP3    H241035   4.018   0.324   0.332
13698TIP3   OH241036   1.892   7.996   0.889
13698TIP3    H141037   1.855   7.994   0.978
13698TIP3    H241038   1.973   7.946   0.896
13699TIP3   OH241039   7.533   3.871   6.731
13699TIP3    H141040   7.586   3.848   6.807
13699TIP3    H241041   7.443   3.846   6.756
13700TIP3   OH241042   7.869   4.346   6.546
13700TIP3    H141043   7.906   4.411   6.486
13700TIP3    H241044   7.791   4.388   6.583
13701TIP3   OH241045   2.026   7.809   0.004
13701TIP3    H141046   2.015   7.745   0.075
13701TIP3    H241047   2.121   7.810  -0.011
13702TIP3   OH241048   3.774   0.200   1.105
13702TIP3    H141049   3.826   0.128   1.140
13702TIP3    H241050   3.799   0.276   1.157
13703TIP3   OH241051   6.898   3.849   6.729
13703TIP3    H141052   6.910   3.759   6.700
13703TIP3    H241053   6.877   3.842   6.822
13704TIP3   OH241054   1.175   7.865   0.061
13704TIP3    H141055   1.247   7.836   0.117
13704TIP3    H241056   1.177   7.961   0.067
13705TIP3   OH241057   0.908   7.559   0.265
13705TIP3    H141058   0.843   7.599   0.322
13705TIP3    H241059   0.924   7.624   0.196
13706TIP3   OH241060   1.940   6.961   0.319
13706TIP3    H141061   1.924   6.971   0.225
13706TIP3    H241062   1.964   7.049   0.348
13707TIP3   OH241063   7.107   4.055   6.948
13707TIP3    H141064   7.022   4.077   6.985
13707TIP3    H241065   7.126   4.127   6.887
13708TIP3   OH241066   1.633   7.124   0.428
13708TIP3    H141067   1.687   7.199   0.404
13708TIP3    H241068   1.625   7.129   0.524
13709TIP3   OH241069   1.771   6.873   0.521
13709TIP3    H141070   1.734   6.954   0.557
13709TIP3    H241071   1.833   6.903   0.454
13710TIP3   OH241072   4.020   0.124   0.078
13710TIP3    H141073   3.991   0.191   0.015
13710TIP3    H241074   4.005   0.164   0.164
13711TIP3   OH241075   1.286   6.851   0.314
13711TIP3    H141076   1.277   6.938   0.353
13711TIP3    H241077   1.380   6.831   0.319
13712TIP3   OH241078   2.201   7.493   0.596
13712TIP3    H141079   2.113   7.464   0.619
13712TIP3    H241080   2.238   7.525   0.678
13713TIP3   OH241081   0.907   7.762   0.067
13713TIP3    H141082   0.972   7.832   0.078
13713TIP3    H241083   0.946   7.704   0.002
13714TIP3   OH241084   0.847   7.042   0.200
13714TIP3    H141085   0.847   7.137   0.200
13714TIP3    H241086   0.764   7.018   0.159
13715TIP3   OH241087   4.981   0.490   0.549
13715TIP3    H141088   4.947   0.537   0.473
13715TIP3    H241089   5.074   0.479   0.531
13716TIP3   OH241090   1.387   6.637   0.978
13716TIP3    H141091   1.306   6.681   0.953
13716TIP3    H241092   1.376   6.616   1.071
13717TIP3   OH241093   0.771   7.982   0.453
13717TIP3    H141094   0.707   8.009   0.519
13717TIP3    H241095   0.740   8.023   0.372
13718TIP3   OH241096   3.767   0.496   1.502
13718TIP3    H141097   3.832   0.490   1.572
13718TIP3    H241098   3.724   0.410   1.503
13719TIP3   OH241099   7.060   4.052   6.638
13719TIP3    H141100   7.006   3.983   6.677
13719TIP3    H241101   7.135   4.005   6.603
13720TIP3   OH241102   7.497   4.093   6.552
13720TIP3    H141103   7.539   4.030   6.609
13720TIP3    H241104   7.550   4.093   6.472
13721TIP3   OH241105   6.709   3.569   6.863
13721TIP3    H141106   6.762   3.539   6.937
13721TIP3    H241107   6.772   3.575   6.790
13722TIP3   OH241108   7.221   3.769   6.673
13722TIP3    H141109   7.221   3.784   6.767
13722TIP3    H241110   7.218   3.674   6.664
13723TIP3   OH241111   1.246   7.481   0.143
13723TIP3    H141112   1.216   7.445   0.226
13723TIP3    H241113   1.281   7.406   0.095
13724TIP3   OH241114   1.500   7.573   1.387
13724TIP3    H141115   1.414   7.615   1.386
13724TIP3    H241116   1.540   7.599   1.304
13725TIP3   OH241117   7.017   3.270   6.921
13725TIP3    H141118   6.987   3.277   6.830
13725TIP3    H241119   7.113   3.276   6.914
13726TIP3   OH241120   7.833   3.599   6.588
13726TIP3    H141121   7.816   3.552   6.506
13726TIP3    H241122   7.804   3.688   6.571
13727TIP3   OH241123   1.634   7.651   1.163
13727TIP3    H141124   1.715   7.651   1.111
13727TIP3    H241125   1.578   7.716   1.121
13728TIP3   OH241126   6.826   4.332   6.829
13728TIP3    H141127   6.920   4.324   6.813
13728TIP3    H241128   6.793   4.382   6.754
13729TIP3   OH241129   0.637   7.719   0.103
13729TIP3    H141130   0.729   7.742   0.090
13729TIP3    H241131   0.628   7.633   0.062
13730TIP3   OH241132   3.384   0.316   0.521
13730TIP3    H141133   3.318   0.258   0.482
13730TIP3    H241134   3.429   0.260   0.585
13731TIP3   OH241135   3.520   0.165   0.709
13731TIP3    H141136   3.506   0.094   0.771
13731TIP3    H241137   3.571   0.230   0.757
13732TIP3   OH241138   7.971   3.788   6.920
13732TIP3    H141139   8.030   3.856   6.887
13732TIP3    H241140   8.018   3.750   6.994
13733TIP3   OH241141   2.431   7.665   0.191
13733TIP3    H141142   2.360   7.616   0.232
13733TIP3    H241143   2.456   7.730   0.258
13734TIP3   OH241144   5.243  -0.004   0.545
13734TIP3    H141145   5.336   0.002   0.570
13734TIP3    H241146   5.214   0.087   0.540
13735TIP3   OH241147   5.162   0.370   0.770
13735TIP3    H141148   5.124   0.371   0.858
13735TIP3    H241149   5.109   0.306   0.723
13736TIP3   OH241150   8.031   3.562   6.776
13736TIP3    H141151   7.966   3.560   6.705
13736TIP3    H241152   8.008   3.640   6.826
13737TIP3   OH241153   7.903   3.239   6.732
13737TIP3    H141154   7.874   3.286   6.653
13737TIP3    H241155   7.884   3.147   6.713
13738TIP3   OH241156   2.245   7.517   0.324
13738TIP3    H141157   2.251   7.424   0.302
13738TIP3    H241158   2.230   7.518   0.419
13739TIP3   OH241159   0.871   7.591   1.075
13739TIP3    H141160   0.865   7.558   0.985
13739TIP3    H241161   0.965   7.595   1.093
13740TIP3   OH241162   7.860   2.973   6.707
13740TIP3    H141163   7.938   2.943   6.754
13740TIP3    H241164   7.791   2.912   6.734
13741TIP3   OH241165   2.248   7.250   0.208
13741TIP3    H141166   2.279   7.161   0.221
13741TIP3    H241167   2.303   7.285   0.138
13742TIP3   OH241168   1.044   6.984   1.077
13742TIP3    H141169   1.107   6.915   1.098
13742TIP3    H241170   1.098   7.062   1.063
13743TIP3   OH241171   0.852   7.245   1.151
13743TIP3    H141172   0.901   7.238   1.068
13743TIP3    H241173   0.882   7.327   1.189
13744TIP3   OH241174   8.105   2.903   6.839
13744TIP3    H141175   8.146   2.849   6.772
13744TIP3    H241176   8.161   2.980   6.845
13745TIP3   OH241177   0.837   6.746   0.654
13745TIP3    H141178   0.746   6.741   0.685
13745TIP3    H241179   0.833   6.803   0.578
13746TIP3   OH241180   4.832   0.437   0.162
13746TIP3    H141181   4.882   0.425   0.081
13746TIP3    H241182   4.878   0.507   0.209
13747TIP3   OH241183   0.995   6.810   1.465
13747TIP3    H141184   0.975   6.828   1.557
13747TIP3    H241185   0.939   6.871   1.416
13748TIP3   OH241186   3.932   0.237   1.559
13748TIP3    H141187   3.845   0.220   1.521
13748TIP3    H241188   3.925   0.207   1.649
13749TIP3   OH241189   4.113   0.283   1.095
13749TIP3    H141190   4.061   0.354   1.059
13749TIP3    H241191   4.198   0.290   1.052
13750TIP3   OH241192   3.785   0.531   1.124
13750TIP3    H141193   3.696   0.557   1.099
13750TIP3    H241194   3.803   0.582   1.203
13751TIP3   OH241195   4.021   0.514   0.979
13751TIP3    H141196   3.937   0.523   1.024
13751TIP3    H241197   4.005   0.544   0.890
13752TIP3   OH241198   4.435   0.528   0.767
13752TIP3    H141199   4.369   0.550   0.701
13752TIP3    H241200   4.456   0.611   0.809
13753TIP3   OH241201   4.700   0.473   0.831
13753TIP3    H141202   4.611   0.491   0.802
13753TIP3    H241203   4.751   0.549   0.801
13754TIP3   OH241204   4.851   0.680   0.711
13754TIP3    H141205   4.930   0.729   0.733
13754TIP3    H241206   4.882   0.606   0.660
13755TIP3   OH241207   3.699   0.322   0.863
13755TIP3    H141208   3.720   0.297   0.953
13755TIP3    H241209   3.767   0.282   0.810
13756TIP3   OH241210   3.894   0.195   0.724
13756TIP3    H141211   3.906   0.113   0.771
13756TIP3    H241212   3.982   0.232   0.718
13757TIP3   OH241213   4.159   0.288   0.727
13757TIP3    H141214   4.188   0.198   0.712
13757TIP3    H241215   4.204   0.314   0.808
13758TIP3   OH241216   1.128   6.686   0.814
13758TIP3    H141217   1.035   6.664   0.823
13758TIP3    H241218   1.172   6.601   0.810
13759TIP3   OH241219   0.932   6.541   0.474
13759TIP3    H141220   0.962   6.597   0.403
13759TIP3    H241221   0.907   6.601   0.544
13760TIP3   OH241222   1.570   6.717   0.707
13760TIP3    H141223   1.605   6.801   0.680
13760TIP3    H241224   1.541   6.731   0.797
13761TIP3   OH241225   2.132   6.771   0.239
13761TIP3    H141226   2.075   6.836   0.280
13761TIP3    H241227   2.144   6.703   0.307
13762TIP3   OH241228   3.482   0.101   0.250
13762TIP3    H141229   3.399   0.064   0.220
13762TIP3    H241230   3.477   0.194   0.229
13763TIP3   OH241231   1.054   6.699   0.236
13763TIP3    H141232   1.100   6.634   0.182
13763TIP3    H241233   1.124   6.752   0.274
13764TIP3   OH241234   1.562   6.879   0.332
13764TIP3    H141235   1.611   6.825   0.394
13764TIP3    H241236   1.580   6.969   0.357
13765TIP3   OH241237   7.093   4.286   6.775
13765TIP3    H141238   7.179   4.313   6.743
13765TIP3    H241239   7.067   4.213   6.718
13766TIP3   OH241240   7.810   4.409   6.869
13766TIP3    H141241   7.803   4.313   6.860
13766TIP3    H241242   7.765   4.443   6.792
13767TIP3   OH241243   6.395   4.126   6.833
13767TIP3    H141244   6.396   4.148   6.926
13767TIP3    H241245   6.480   4.083   6.818
13768TIP3   OH241246   2.593   7.432   0.192
13768TIP3    H141247   2.556   7.520   0.183
13768TIP3    H241248   2.555   7.382   0.119
13769TIP3   OH241249   8.157   3.971   6.817
13769TIP3    H141250   8.122   3.991   6.730
13769TIP3    H241251   8.194   4.053   6.848
13770TIP3   OH241252   0.031   3.644   6.778
13770TIP3    H141253  -0.030   3.715   6.759
13770TIP3    H241254   0.078   3.672   6.856
13771TIP3   OH241255   5.359   0.289   0.464
13771TIP3    H141256   5.450   0.272   0.440
13771TIP3    H241257   5.356   0.270   0.558
13772TIP3   OH241258   0.417   4.626   6.537
13772TIP3    H141259   0.386   4.612   6.448
13772TIP3    H241260   0.381   4.712   6.562
13773TIP3   OH241261   5.549   0.486  -0.019
13773TIP3    H141262   5.583   0.466   0.068
13773TIP3    H241263   5.492   0.413  -0.040
13774TIP3   OH241264   0.210   3.200   6.476
13774TIP3    H141265   0.247   3.114   6.493
13774TIP3    H241266   0.165   3.191   6.392
13775TIP3   OH241267   8.265   3.127   6.856
13775TIP3    H141268   8.311   3.158   6.778
13775TIP3    H241269   8.212   3.201   6.884
13776TIP3   OH241270   0.106   3.439   6.569
13776TIP3    H141271   0.076   3.350   6.547
13776TIP3    H241272   0.191   3.447   6.527
13777TIP3   OH241273   0.356   3.954   6.605
13777TIP3    H141274   0.311   3.872   6.585
13777TIP3    H241275   0.347   3.964   6.700
13778TIP3   OH241276   0.503   4.078   6.400
13778TIP3    H141277   0.482   4.167   6.427
13778TIP3    H241278   0.475   4.023   6.474
13779TIP3   OH241279   0.198   4.267   6.867
13779TIP3    H141280   0.181   4.346   6.816
13779TIP3    H241281   0.124   4.261   6.927
13780TIP3   OH241282   8.249   3.564   6.599
13780TIP3    H141283   8.311   3.632   6.623
13780TIP3    H241284   8.183   3.565   6.668
13781TIP3   OH241285   0.320   4.028   6.885
13781TIP3    H141286   0.287   4.115   6.867
13781TIP3    H241287   0.257   3.990   6.946
13782TIP3   OH241288   0.106   4.506   6.754
13782TIP3    H141289   0.021   4.514   6.798
13782TIP3    H241290   0.154   4.586   6.779
13783TIP3   OH241291   0.189   4.104   6.217
13783TIP3    H141292   0.194   4.013   6.189
13783TIP3    H241293   0.170   4.099   6.311
13784TIP3   OH241294   0.140   4.113   6.487
13784TIP3    H141295   0.218   4.078   6.530
13784TIP3    H241296   0.146   4.208   6.501
13785TIP3   OH241297   8.349   3.825   6.683
13785TIP3    H141298   8.284   3.866   6.740
13785TIP3    H241299   8.366   3.890   6.615
13786TIP3   OH241300   0.407   4.325   6.457
13786TIP3    H141301   0.317   4.345   6.483
13786TIP3    H241302   0.430   4.395   6.396
13787TIP3   OH241303   0.144   4.389   6.504
13787TIP3    H141304   0.115   4.452   6.438
13787TIP3    H241305   0.129   4.433   6.588
13788TIP3   OH241306   8.370   4.021   6.483
13788TIP3    H141307   8.439   4.086   6.498
13788TIP3    H241308   8.408   3.959   6.421
13789TIP3   OH241309   8.302   3.286   6.638
13789TIP3    H141310   8.341   3.374   6.633
13789TIP3    H241311   8.233   3.287   6.572
13790TIP3   OH241312   8.235   4.236   6.880
13790TIP3    H141313   8.171   4.266   6.944
13790TIP3    H241314   8.205   4.273   6.797
13791TIP3   OH241315   0.353   4.302   6.131
13791TIP3    H141316   0.288   4.239   6.163
13791TIP3    H241317   0.437   4.258   6.141
13792TIP3   OH241318   0.008   3.827   6.346
13792TIP3    H141319   0.050   3.788   6.423
13792TIP3    H241320   0.078   3.832   6.280
13793TIP3   OH241321   0.495   4.009   6.143
13793TIP3    H141322   0.514   4.042   6.231
13793TIP3    H241323   0.424   3.946   6.156
13794TIP3   OH241324   0.207   3.722   6.570
13794TIP3    H141325   0.149   3.679   6.633
13794TIP3    H241326   0.247   3.650   6.521
13795TIP3   OH241327   0.324   3.524   6.413
13795TIP3    H141328   0.284   3.525   6.325
13795TIP3    H241329   0.417   3.511   6.396
13796TIP3   OH241330   0.108   4.586   6.315
13796TIP3    H141331   0.204   4.587   6.306
13796TIP3    H241332   0.077   4.637   6.240
13797TIP3   OH241333   8.102   3.970   6.534
13797TIP3    H141334   8.192   3.996   6.516
13797TIP3    H241335   8.093   3.883   6.494
13798TIP3   OH241336   5.179   0.573   0.004
13798TIP3    H141337   5.112   0.518  -0.036
13798TIP3    H241338   5.227   0.515   0.063
13799TIP3   OH241339   5.317   0.412   0.179
13799TIP3    H141340   5.289   0.344   0.241
13799TIP3    H241341   5.362   0.476   0.234
13800TIP3   OH241342   8.110   4.368   6.681
13800TIP3    H141343   8.028   4.329   6.650
13800TIP3    H241344   8.107   4.458   6.651
13801TIP3   OH241345  -0.003   2.982   6.654
13801TIP3    H141346   0.077   2.929   6.646
13801TIP3    H241347   0.013   3.037   6.731
13802TIP3   OH241348   0.377   4.540   6.270
13802TIP3    H141349   0.462   4.561   6.232
13802TIP3    H241350   0.343   4.469   6.216
13803TIP3   OH241351   8.190   4.378   6.320
13803TIP3    H141352   8.195   4.410   6.410
13803TIP3    H241353   8.276   4.338   6.304
13804TIP3   OH241354   7.540   1.069   1.348
13804TIP3    H141355   7.568   1.015   1.274
13804TIP3    H241356   7.618   1.119   1.374
13805TIP3   OH241357   7.236   0.340   1.133
13805TIP3    H141358   7.308   0.399   1.157
13805TIP3    H241359   7.277   0.275   1.075
13806TIP3   OH241360   7.450   0.501   1.189
13806TIP3    H141361   7.449   0.593   1.215
13806TIP3    H241362   7.473   0.502   1.096
13807TIP3   OH241363   7.758   1.110   0.800
13807TIP3    H141364   7.764   1.203   0.780
13807TIP3    H241365   7.847   1.077   0.786
13808TIP3   OH241366   7.061   1.423   1.267
13808TIP3    H141367   7.019   1.414   1.181
13808TIP3    H241368   7.037   1.511   1.296
13809TIP3   OH241369   7.273   1.328   0.918
13809TIP3    H141370   7.327   1.258   0.881
13809TIP3    H241371   7.303   1.337   1.008
13810TIP3   OH241372   7.322   1.381   1.190
13810TIP3    H141373   7.234   1.380   1.228
13810TIP3    H241374   7.377   1.343   1.259
13811TIP3   OH241375   7.519   0.555   0.939
13811TIP3    H141376   7.477   0.525   0.859
13811TIP3    H241377   7.605   0.588   0.911
13812TIP3   OH241378   7.180   0.863   1.129
13812TIP3    H141379   7.148   0.952   1.144
13812TIP3    H241380   7.154   0.814   1.207
13813TIP3   OH241381   7.995   0.361   1.131
13813TIP3    H141382   7.926   0.316   1.082
13813TIP3    H241383   7.998   0.449   1.094
13814TIP3   OH241384   7.699   1.176   1.060
13814TIP3    H141385   7.660   1.099   1.101
13814TIP3    H241386   7.715   1.150   0.969
13815TIP3   OH241387   7.440   0.912   0.967
13815TIP3    H141388   7.496   0.892   1.042
13815TIP3    H241389   7.352   0.886   0.995
13816TIP3   OH241390   7.784   1.386   0.783
13816TIP3    H141391   7.824   1.455   0.730
13816TIP3    H241392   7.704   1.426   0.818
13817TIP3   OH241393   7.617   0.866   1.178
13817TIP3    H141394   7.599   0.804   1.249
13817TIP3    H241395   7.711   0.855   1.160
13818TIP3   OH241396   6.814   0.886   0.969
13818TIP3    H141397   6.840   0.800   0.937
13818TIP3    H241398   6.773   0.870   1.053
13819TIP3   OH241399   7.064   1.105   1.174
13819TIP3    H141400   7.012   1.125   1.252
13819TIP3    H241401   7.045   1.176   1.113
13820TIP3   OH241402   6.630   1.204   1.216
13820TIP3    H141403   6.652   1.266   1.147
13820TIP3    H241404   6.698   1.215   1.282
13821TIP3   OH241405   6.973   1.088   0.871
13821TIP3    H141406   6.917   1.022   0.914
13821TIP3    H241407   7.047   1.037   0.837
13822TIP3   OH241408   7.416   1.132   0.790
13822TIP3    H141409   7.451   1.064   0.846
13822TIP3    H241410   7.468   1.127   0.710
13823TIP3   OH241411   6.593   0.642   1.036
13823TIP3    H141412   6.625   0.700   1.105
13823TIP3    H241413   6.671   0.618   0.986
13824TIP3   OH241414   7.119   0.795   0.876
13824TIP3    H141415   7.131   0.821   0.967
13824TIP3    H241416   7.129   0.700   0.876
13825TIP3   OH241417   6.879   0.361   1.139
13825TIP3    H141418   6.879   0.348   1.044
13825TIP3    H241419   6.971   0.364   1.163
13826TIP3   OH241420   7.753   0.639   0.823
13826TIP3    H141421   7.735   0.589   0.744
13826TIP3    H241422   7.720   0.727   0.803
13827TIP3   OH241423   6.747   1.383   1.049
13827TIP3    H141424   6.841   1.369   1.038
13827TIP3    H241425   6.723   1.441   0.977
13828TIP3   OH241426   7.888   0.846   1.154
13828TIP3    H141427   7.955   0.902   1.115
13828TIP3    H241428   7.917   0.834   1.245
13829TIP3   OH241429   8.016   0.654   1.325
13829TIP3    H141430   7.945   0.675   1.386
13829TIP3    H241431   7.974   0.602   1.257
13830TIP3   OH241432   7.945   0.612   1.016
13830TIP3    H141433   7.881   0.602   0.946
13830TIP3    H241434   7.924   0.696   1.056
13831TIP3   OH241435   7.810   0.273   0.952
13831TIP3    H141436   7.772   0.302   0.870
13831TIP3    H241437   7.796   0.178   0.953
13832TIP3   OH241438   4.931   8.020   0.948
13832TIP3    H141439   5.004   7.989   1.002
13832TIP3    H241440   4.855   7.975   0.984
13833TIP3   OH241441   5.179   7.970   1.071
13833TIP3    H141442   5.217   7.895   1.025
13833TIP3    H241443   5.248   8.036   1.071
13834TIP3   OH241444   7.614   1.429   1.359
13834TIP3    H141445   7.640   1.442   1.268
13834TIP3    H241446   7.634   1.511   1.402
13835TIP3   OH241447   7.011   1.327   0.998
13835TIP3    H141448   7.099   1.348   0.967
13835TIP3    H241449   6.984   1.253   0.943
13836TIP3   OH241450   7.725   1.447   1.104
13836TIP3    H141451   7.720   1.352   1.093
13836TIP3    H241452   7.679   1.482   1.028
13837TIP3   OH241453   0.719   0.967   1.054
13837TIP3    H141454   0.690   1.057   1.037
13837TIP3    H241455   0.644   0.913   1.027
13838TIP3   OH241456   0.701   0.971   1.428
13838TIP3    H141457   0.751   0.951   1.507
13838TIP3    H241458   0.660   0.888   1.404
13839TIP3   OH241459   0.962   1.269   1.123
13839TIP3    H141460   0.945   1.198   1.185
13839TIP3    H241461   0.993   1.341   1.178
13840TIP3   OH241462  -0.007   1.281   1.524
13840TIP3    H141463  -0.023   1.187   1.525
13840TIP3    H241464   0.088   1.289   1.520
13841TIP3   OH241465   8.230   0.497   1.260
13841TIP3    H141466   8.177   0.573   1.283
13841TIP3    H241467   8.177   0.422   1.287
13842TIP3   OH241468   8.383   0.737   1.465
13842TIP3    H141469   8.322   0.748   1.538
13842TIP3    H241470   8.331   0.758   1.387
13843TIP3   OH241471   0.612   1.725   1.139
13843TIP3    H141472   0.655   1.657   1.087
13843TIP3    H241473   0.600   1.685   1.225
13844TIP3   OH241474   0.519   1.193   1.466
13844TIP3    H141475   0.554   1.111   1.431
13844TIP3    H241476   0.594   1.235   1.508
13845TIP3   OH241477   1.532   0.522   1.466
13845TIP3    H141478   1.550   0.607   1.507
13845TIP3    H241479   1.554   0.534   1.374
13846TIP3   OH241480   0.919   0.671   1.520
13846TIP3    H141481   0.963   0.589   1.541
13846TIP3    H241482   0.893   0.661   1.428
13847TIP3   OH241483   0.307   0.334   1.440
13847TIP3    H141484   0.270   0.419   1.416
13847TIP3    H241485   0.241   0.270   1.412
13848TIP3   OH241486   0.964   0.442   1.106
13848TIP3    H141487   1.031   0.428   1.172
13848TIP3    H241488   1.011   0.476   1.030
13849TIP3   OH241489   0.340   0.751   1.388
13849TIP3    H141490   0.432   0.726   1.395
13849TIP3    H241491   0.296   0.672   1.355
13850TIP3   OH241492   1.597   0.726   1.657
13850TIP3    H141493   1.515   0.764   1.626
13850TIP3    H241494   1.588   0.723   1.752
13851TIP3   OH241495   0.610   1.190   0.924
13851TIP3    H141496   0.565   1.164   0.844
13851TIP3    H241497   0.564   1.269   0.953
13852TIP3   OH241498   1.167   0.448   1.284
13852TIP3    H141499   1.166   0.389   1.359
13852TIP3    H241500   1.220   0.523   1.312
13853TIP3   OH241501   8.087   1.001   1.046
13853TIP3    H141502   8.053   1.023   0.959
13853TIP3    H241503   8.121   1.084   1.080
13854TIP3   OH241504   1.033   1.512   1.287
13854TIP3    H141505   0.947   1.498   1.326
13854TIP3    H241506   1.026   1.596   1.242
13855TIP3   OH241507   1.305   0.447   1.633
13855TIP3    H141508   1.218   0.466   1.600
13855TIP3    H241509   1.364   0.478   1.563
13856TIP3   OH241510   0.734   1.555   0.958
13856TIP3    H141511   0.779   1.472   0.943
13856TIP3    H241512   0.792   1.621   0.920
13857TIP3   OH241513   0.877   1.338   0.870
13857TIP3    H141514   0.827   1.263   0.839
13857TIP3    H241515   0.915   1.309   0.953
13858TIP3   OH241516   1.255   1.421   1.630
13858TIP3    H141517   1.243   1.343   1.576
13858TIP3    H241518   1.236   1.494   1.571
13859TIP3   OH241519   0.547   0.817   0.890
13859TIP3    H141520   0.467   0.866   0.872
13859TIP3    H241521   0.592   0.812   0.806
13860TIP3   OH241522   0.509   0.603   0.603
13860TIP3    H141523   0.573   0.654   0.652
13860TIP3    H241524   0.561   0.538   0.556
13861TIP3   OH241525   1.449   1.061   1.480
13861TIP3    H141526   1.367   1.109   1.488
13861TIP3    H241527   1.481   1.082   1.392
13862TIP3   OH241528   0.897   0.900   0.861
13862TIP3    H141529   0.840   0.924   0.934
13862TIP3    H241530   0.980   0.874   0.903
13863TIP3   OH241531   1.124   0.968   1.745
13863TIP3    H141532   1.116   1.062   1.762
13863TIP3    H241533   1.044   0.946   1.697
13864TIP3   OH241534   0.133   0.901   1.270
13864TIP3    H141535   0.087   0.838   1.214
13864TIP3    H241536   0.202   0.849   1.311
13865TIP3   OH241537   0.261   1.311   1.423
13865TIP3    H141538   0.240   1.265   1.342
13865TIP3    H241539   0.345   1.273   1.451
13866TIP3   OH241540   0.261   0.880   1.618
13866TIP3    H141541   0.280   0.828   1.540
13866TIP3    H241542   0.347   0.905   1.653
13867TIP3   OH241543   0.795   1.501   1.407
13867TIP3    H141544   0.769   1.583   1.450
13867TIP3    H241545   0.768   1.432   1.468
13868TIP3   OH241546   0.736   0.759   0.687
13868TIP3    H141547   0.793   0.815   0.739
13868TIP3    H241548   0.759   0.779   0.596
13869TIP3   OH241549   0.481   1.435   0.962
13869TIP3    H141550   0.560   1.487   0.975
13869TIP3    H241551   0.418   1.495   0.923
13870TIP3   OH241552   1.255   0.001   0.738
13870TIP3    H141553   1.172   0.019   0.784
13870TIP3    H241554   1.265   0.073   0.677
13871TIP3   OH241555   8.493   0.736   1.075
13871TIP3    H141556   8.424   0.777   1.024
13871TIP3    H241557   8.454   0.654   1.106
13872TIP3   OH241558   1.050   1.349   0.285
13872TIP3    H141559   1.052   1.445   0.277
13872TIP3    H241560   1.141   1.322   0.271
13873TIP3   OH241561   1.489   1.768   1.683
13873TIP3    H141562   1.494   1.673   1.691
13873TIP3    H241563   1.404   1.791   1.720
13874TIP3   OH241564   0.360   1.682   0.766
13874TIP3    H141565   0.314   1.662   0.685
13874TIP3    H241566   0.329   1.769   0.791
13875TIP3   OH241567   8.295   1.529   1.147
13875TIP3    H141568   8.349   1.522   1.226
13875TIP3    H241569   8.242   1.450   1.147
13876TIP3   OH241570   0.562   1.581   0.407
13876TIP3    H141571   0.619   1.513   0.369
13876TIP3    H241572   0.594   1.592   0.496
13877TIP3   OH241573   0.610   1.627   0.679
13877TIP3    H141574   0.523   1.638   0.716
13877TIP3    H241575   0.662   1.587   0.750
13878TIP3   OH241576   0.813   0.804   0.432
13878TIP3    H141577   0.776   0.778   0.348
13878TIP3    H241578   0.898   0.844   0.409
13879TIP3   OH241579   0.520   0.175   0.736
13879TIP3    H141580   0.487   0.175   0.826
13879TIP3    H241581   0.484   0.095   0.697
13880TIP3   OH241582   0.195   0.538   1.293
13880TIP3    H141583   0.106   0.516   1.322
13880TIP3    H241584   0.204   0.497   1.207
13881TIP3   OH241585   0.687   0.620   1.022
13881TIP3    H141586   0.635   0.689   0.982
13881TIP3    H241587   0.741   0.586   0.951
13882TIP3   OH241588   0.842   0.641   1.254
13882TIP3    H141589   0.780   0.674   1.189
13882TIP3    H241590   0.878   0.561   1.216
13883TIP3   OH241591   0.178   0.153   0.700
13883TIP3    H141592   0.172   0.149   0.795
13883TIP3    H241593   0.102   0.204   0.673
13884TIP3   OH241594   8.203   0.186   1.091
13884TIP3    H141595   8.244   0.219   1.012
13884TIP3    H241596   8.136   0.251   1.113
13885TIP3   OH241597   0.870   0.912   1.635
13885TIP3    H141598   0.886   0.823   1.606
13885TIP3    H241599   0.834   0.903   1.724
13886TIP3   OH241600   0.554   0.367   1.334
13886TIP3    H141601   0.464   0.359   1.366
13886TIP3    H241602   0.607   0.368   1.414
13887TIP3   OH241603   8.467   0.393   1.344
13887TIP3    H141604   8.385   0.436   1.319
13887TIP3    H241605   8.483   0.330   1.275
13888TIP3   OH241606   0.222   0.407   1.053
13888TIP3    H141607   0.314   0.421   1.030
13888TIP3    H241608   0.174   0.426   0.973
13889TIP3   OH241609   1.015   0.421   1.578
13889TIP3    H141610   0.989   0.425   1.670
13889TIP3    H241611   0.949   0.366   1.537
13890TIP3   OH241612   0.068   0.438   0.828
13890TIP3    H141613  -0.002   0.392   0.783
13890TIP3    H241614   0.121   0.476   0.758
13891TIP3   OH241615   1.211   2.108   1.761
13891TIP3    H141616   1.199   2.129   1.668
13891TIP3    H241617   1.232   2.192   1.802
13892TIP3   OH241618   0.611   0.687   1.440
13892TIP3    H141619   0.676   0.647   1.383
13892TIP3    H241620   0.631   0.654   1.527
13893TIP3   OH241621   0.149   0.167   1.276
13893TIP3    H141622   0.107   0.105   1.336
13893TIP3    H241623   0.204   0.111   1.220
13894TIP3   OH241624   0.315   0.966   0.839
13894TIP3    H141625   0.245   0.901   0.826
13894TIP3    H241626   0.300   1.001   0.926
13895TIP3   OH241627   1.217   1.204   1.464
13895TIP3    H141628   1.242   1.254   1.386
13895TIP3    H241629   1.133   1.164   1.442
13896TIP3   OH241630   0.775   0.275   0.714
13896TIP3    H141631   0.681   0.258   0.715
13896TIP3    H241632   0.782   0.370   0.730
13897TIP3   OH241633   0.844   0.531   0.808
13897TIP3    H141634   0.939   0.534   0.820
13897TIP3    H241635   0.824   0.607   0.753
13898TIP3   OH241636   0.018   1.011   1.498
13898TIP3    H141637   0.054   0.984   1.414
13898TIP3    H241638   0.021   0.933   1.552
13899TIP3   OH241639   0.461   1.118   0.664
13899TIP3    H141640   0.415   1.203   0.667
13899TIP3    H241641   0.410   1.061   0.721
13900TIP3   OH241642   0.881   1.521   1.774
13900TIP3    H141643   0.807   1.562   1.729
13900TIP3    H241644   0.916   1.590   1.830
13901TIP3   OH241645   1.285   0.622   0.638
13901TIP3    H141646   1.225   0.574   0.580
13901TIP3    H241647   1.285   0.712   0.603
13902TIP3   OH241648   1.496   1.492   1.718
13902TIP3    H141649   1.402   1.475   1.706
13902TIP3    H241650   1.538   1.454   1.641
13903TIP3   OH241651   0.992   1.432   0.552
13903TIP3    H141652   0.962   1.381   0.627
13903TIP3    H241653   0.991   1.370   0.479
13904TIP3   OH241654   0.983   1.071   1.374
13904TIP3    H141655   0.893   1.047   1.396
13904TIP3    H241656   1.020   0.992   1.334
13905TIP3   OH241657   0.110   1.297   1.139
13905TIP3    H141658   0.109   1.377   1.086
13905TIP3    H241659   0.017   1.275   1.150
13906TIP3   OH241660   8.171   0.599   0.851
13906TIP3    H141661   8.222   0.678   0.869
13906TIP3    H241662   8.098   0.603   0.912
13907TIP3   OH241663   0.247   1.064   1.080
13907TIP3    H141664   0.214   1.151   1.102
13907TIP3    H241665   0.215   1.008   1.151
13908TIP3   OH241666   0.374   1.644   1.595
13908TIP3    H141667   0.424   1.714   1.553
13908TIP3    H241668   0.440   1.591   1.640
13909TIP3   OH241669   0.028   1.537   0.993
13909TIP3    H141670  -0.057   1.542   1.036
13909TIP3    H241671   0.061   1.627   0.995
13910TIP3   OH241672   0.773   1.274   1.572
13910TIP3    H141673   0.791   1.265   1.665
13910TIP3    H241674   0.844   1.226   1.529
13911TIP3   OH241675   0.745   1.169   0.453
13911TIP3    H141676   0.799   1.144   0.528
13911TIP3    H241677   0.657   1.139   0.477
13912TIP3   OH241678   1.008   1.802   1.611
13912TIP3    H141679   0.924   1.760   1.592
13912TIP3    H241680   1.013   1.874   1.549
13913TIP3   OH241681   0.907   1.097   0.664
13913TIP3    H141682   0.892   1.034   0.734
13913TIP3    H241683   1.002   1.097   0.652
13914TIP3   OH241684   0.107   1.143   0.453
13914TIP3    H141685   0.121   1.053   0.424
13914TIP3    H241686   0.088   1.135   0.547
13915TIP3   OH241687   0.052   1.153   0.725
13915TIP3    H141688   0.123   1.121   0.780
13915TIP3    H241689   0.056   1.248   0.732
13916TIP3   OH241690   8.283   0.844   0.928
13916TIP3    H141691   8.220   0.888   0.985
13916TIP3    H241692   8.302   0.909   0.860
13917TIP3   OH241693   0.822   0.230   0.986
13917TIP3    H141694   0.806   0.247   0.893
13917TIP3    H241695   0.860   0.311   1.019
13918TIP3   OH241696   0.319   1.350   0.672
13918TIP3    H141697   0.233   1.372   0.709
13918TIP3    H241698   0.337   1.422   0.611
13919TIP3   OH241699   0.510   0.416   1.071
13919TIP3    H141700   0.570   0.487   1.047
13919TIP3    H241701   0.519   0.408   1.166
13920TIP3   OH241702   0.654   0.145   1.185
13920TIP3    H141703   0.635   0.224   1.235
13920TIP3    H241704   0.716   0.172   1.118
13921TIP3   OH241705   0.065   1.426   0.741
13921TIP3    H141706   0.036   1.493   0.679
13921TIP3    H241707   0.050   1.466   0.827
13922TIP3   OH241708   0.167   0.137   0.974
13922TIP3    H141709   0.155   0.221   1.018
13922TIP3    H241710   0.262   0.122   0.978
13923TIP3   OH241711   1.068   0.822   1.264
13923TIP3    H141712   0.991   0.766   1.271
13923TIP3    H241713   1.137   0.775   1.312
13924TIP3   OH241714   8.286   1.051   0.729
13924TIP3    H141715   8.354   1.118   0.741
13924TIP3    H241716   8.324   0.990   0.666
13925TIP3   OH241717   8.226   0.328   0.860
13925TIP3    H141718   8.224   0.423   0.863
13925TIP3    H241719   8.144   0.303   0.817
13926TIP3   OH241720   1.040   1.783   1.210
13926TIP3    H141721   0.993   1.826   1.139
13926TIP3    H241722   1.132   1.799   1.191
13927TIP3   OH241723   8.147   1.269   1.116
13927TIP3    H141724   8.082   1.298   1.179
13927TIP3    H241725   8.120   1.309   1.033
13928TIP3   OH241726   0.271   1.345   0.362
13928TIP3    H141727   0.214   1.278   0.402
13928TIP3    H241728   0.347   1.296   0.330
13929TIP3   OH241729   0.708   1.385   0.278
13929TIP3    H141730   0.742   1.316   0.335
13929TIP3    H241731   0.760   1.379   0.198
13930TIP3   OH241732   8.421   0.863   0.588
13930TIP3    H141733   8.473   0.830   0.661
13930TIP3    H241734   8.483   0.869   0.515
13931TIP3   OH241735   0.433   1.063   0.396
13931TIP3    H141736   0.434   1.078   0.490
13931TIP3    H241737   0.434   0.968   0.387
13932TIP3   OH241738   1.032   1.288   1.741
13932TIP3    H141739   1.120   1.321   1.726
13932TIP3    H241740   0.978   1.366   1.756
13933TIP3   OH241741   0.121   0.770   0.805
13933TIP3    H141742   0.096   0.735   0.890
13933TIP3    H241743   0.158   0.695   0.758
13934TIP3   OH241744   0.229   0.566   0.644
13934TIP3    H141745   0.201   0.571   0.553
13934TIP3    H241746   0.324   0.570   0.640
13935TIP3   OH241747   1.046   0.894   0.310
13935TIP3    H141748   1.028   0.843   0.231
13935TIP3    H241749   1.012   0.981   0.291
13936TIP3   OH241750   0.036   1.628   0.552
13936TIP3    H141751   0.130   1.618   0.536
13936TIP3    H241752   0.004   1.677   0.476
13937TIP3   OH241753   8.016   1.006   0.767
13937TIP3    H141754   8.108   1.029   0.753
13937TIP3    H241755   8.007   0.919   0.727
13938TIP3   OH241756   7.930   1.619   1.176
13938TIP3    H141757   7.863   1.561   1.141
13938TIP3    H241758   7.974   1.568   1.243
13939TIP3   OH241759   8.063   1.476   1.366
13939TIP3    H141760   8.052   1.404   1.428
13939TIP3    H241761   8.114   1.542   1.415
13940TIP3   OH241762   1.295   1.868   1.170
13940TIP3    H141763   1.315   1.902   1.257
13940TIP3    H241764   1.351   1.918   1.110
13941TIP3   OH241765   1.317   1.888   1.451
13941TIP3    H141766   1.273   1.803   1.445
13941TIP3    H241767   1.395   1.872   1.504
13942TIP3   OH241768   1.186   1.081   0.646
13942TIP3    H141769   1.253   1.143   0.615
13942TIP3    H241770   1.225   1.041   0.723
13943TIP3   OH241771   1.311   0.948   0.850
13943TIP3    H141772   1.245   0.906   0.905
13943TIP3    H241773   1.375   0.984   0.912
13944TIP3   OH241774   1.370   1.344   1.279
13944TIP3    H141775   1.420   1.277   1.233
13944TIP3    H241776   1.361   1.414   1.215
13945TIP3   OH241777   1.194   1.641   1.472
13945TIP3    H141778   1.123   1.681   1.522
13945TIP3    H241779   1.150   1.593   1.401
13946TIP3   OH241780   1.247   0.860   0.494
13946TIP3    H141781   1.179   0.855   0.427
13946TIP3    H241782   1.221   0.933   0.550
13947TIP3   OH241783   1.118   0.532   0.445
13947TIP3    H141784   1.074   0.559   0.365
13947TIP3    H241785   1.095   0.439   0.455
13948TIP3   OH241786   1.124   0.805   0.994
13948TIP3    H141787   1.130   0.710   0.983
13948TIP3    H241788   1.109   0.817   1.088
13949TIP3   OH241789   1.387   1.219   1.837
13949TIP3    H141790   1.473   1.178   1.849
13949TIP3    H241791   1.407   1.306   1.802
13950TIP3   OH241792   1.586   1.042   1.877
13950TIP3    H141793   1.514   0.982   1.897
13950TIP3    H241794   1.656   0.984   1.845
13951TIP3   OH241795   1.055   0.272   0.461
13951TIP3    H141796   1.133   0.225   0.490
13951TIP3    H241797   0.992   0.203   0.441
13952TIP3   OH241798   1.125   0.522   0.886
13952TIP3    H141799   1.161   0.435   0.903
13952TIP3    H241800   1.178   0.557   0.814
13953TIP3   OH241801   1.284   0.695   1.390
13953TIP3    H141802   1.366   0.718   1.346
13953TIP3    H241803   1.291   0.734   1.477
13954TIP3   OH241804   1.352   0.846   1.624
13954TIP3    H141805   1.275   0.878   1.672
13954TIP3    H241806   1.382   0.923   1.575
13955TIP3   OH241807   1.229   0.271   0.928
13955TIP3    H141808   1.276   0.254   1.010
13955TIP3    H241809   1.169   0.198   0.920
13956TIP3   OH241810   1.317   0.197   0.548
13956TIP3    H141811   1.349   0.138   0.480
13956TIP3    H241812   1.378   0.271   0.547
13957TIP3   OH241813   8.223   0.024   1.305
13957TIP3    H141814   8.153   0.058   1.361
13957TIP3    H241815   8.230   0.088   1.234
13958TIP3   OH241816   0.883   1.736   0.823
13958TIP3    H141817   0.931   1.730   0.740
13958TIP3    H241818   0.925   1.808   0.870
13959TIP3   OH241819   0.152   1.600   1.762
13959TIP3    H141820   0.128   1.674   1.706
13959TIP3    H241821   0.236   1.570   1.727
13960TIP3   OH241822   0.764   1.964   1.729
13960TIP3    H141823   0.853   1.934   1.711
13960TIP3    H241824   0.771   2.009   1.813
13961TIP3   OH241825   0.057   1.823   1.635
13961TIP3    H141826  -0.034   1.835   1.663
13961TIP3    H241827   0.057   1.847   1.542
13962TIP3   OH241828   0.496   1.842   1.436
13962TIP3    H141829   0.426   1.853   1.373
13962TIP3    H241830   0.506   1.929   1.476
13963TIP3   OH241831   0.760   1.769   1.486
13963TIP3    H141832   0.668   1.788   1.472
13963TIP3    H241833   0.807   1.843   1.449
13964TIP3   OH241834   0.967   1.968   1.401
13964TIP3    H141835   0.952   2.051   1.358
13964TIP3    H241836   0.992   1.908   1.331
13965TIP3   OH241837   8.259   1.629   1.504
13965TIP3    H141838   8.281   1.595   1.590
13965TIP3    H241839   8.324   1.589   1.445
13966TIP3   OH241840   8.448   1.497   1.367
13966TIP3    H141841   8.457   1.414   1.414
13966TIP3    H241842   8.536   1.535   1.368
13967TIP3   OH241843   0.208   1.585   1.387
13967TIP3    H141844   0.231   1.493   1.376
13967TIP3    H241845   0.255   1.612   1.466
13968TIP3   OH241846   0.802   0.266   1.485
13968TIP3    H141847   0.727   0.215   1.517
13968TIP3    H241848   0.851   0.205   1.431
13969TIP3   OH241849   1.301   0.141   1.385
13969TIP3    H141850   1.336   0.184   1.307
13969TIP3    H241851   1.206   0.144   1.373
13970TIP3   OH241852   1.397   0.225   1.143
13970TIP3    H141853   1.466   0.172   1.103
13970TIP3    H241854   1.426   0.316   1.131
13971TIP3   OH241855   5.458   7.851   1.114
13971TIP3    H141856   5.504   7.903   1.048
13971TIP3    H241857   5.446   7.911   1.188
13972TIP3   OH241858   0.479   0.012   1.358
13972TIP3    H141859   0.536   0.041   1.287
13972TIP3    H241860   0.499   0.071   1.431
13973TIP3   OH241861   1.026   0.128   1.347
13973TIP3    H141862   1.014   0.097   1.257
13973TIP3    H241863   1.000   0.054   1.402
13974TIP3   OH241864   1.046   0.060   0.920
13974TIP3    H141865   0.961   0.104   0.928
13974TIP3    H241866   1.033  -0.025   0.961
13975TIP3   OH241867   8.026   1.401   0.914
13975TIP3    H141868   7.943   1.366   0.882
13975TIP3    H241869   8.022   1.494   0.893
13976TIP3   OH241870   5.601   7.997   0.902
13976TIP3    H141871   5.645   7.934   0.845
13976TIP3    H241872   5.671   8.052   0.936
13977TIP3   OH241873   0.441   0.162   1.001
13977TIP3    H141874   0.502   0.114   1.058
13977TIP3    H241875   0.459   0.254   1.019
13978TIP3   OH241876   0.302   1.580   0.498
13978TIP3    H141877   0.389   1.607   0.465
13978TIP3    H241878   0.277   1.507   0.442
13979TIP3   OH241879   1.026   1.700   0.581
13979TIP3    H141880   1.008   1.606   0.576
13979TIP3    H241881   0.975   1.737   0.509
13980TIP3   OH241882   8.107   1.420   0.556
13980TIP3    H141883   8.109   1.441   0.650
13980TIP3    H241884   8.192   1.378   0.539
13981TIP3   OH241885   1.237   1.836   1.775
13981TIP3    H141886   1.162   1.816   1.718
13981TIP3    H241887   1.233   1.931   1.787
13982TIP3   OH241888   2.512   1.223   0.543
13982TIP3    H141889   2.484   1.312   0.524
13982TIP3    H241890   2.439   1.168   0.511
13983TIP3   OH241891   2.512   1.220   0.931
13983TIP3    H141892   2.547   1.198   1.017
13983TIP3    H241893   2.471   1.140   0.900
13984TIP3   OH241894   1.812   1.115   1.293
13984TIP3    H141895   1.839   1.047   1.355
13984TIP3    H241896   1.891   1.167   1.279
13985TIP3   OH241897   2.759   1.523   0.613
13985TIP3    H141898   2.741   1.455   0.678
13985TIP3    H241899   2.788   1.598   0.665
13986TIP3   OH241900   1.787   1.524   1.014
13986TIP3    H141901   1.775   1.429   1.018
13986TIP3    H241902   1.881   1.537   1.008
13987TIP3   OH241903   1.487   0.729   0.800
13987TIP3    H141904   1.440   0.811   0.817
13987TIP3    H241905   1.422   0.673   0.758
13988TIP3   OH241906   1.550   1.015   0.979
13988TIP3    H141907   1.597   0.938   1.012
13988TIP3    H241908   1.605   1.047   0.907
13989TIP3   OH241909   2.408   1.981   0.628
13989TIP3    H141910   2.450   1.913   0.575
13989TIP3    H241911   2.399   1.942   0.714
13990TIP3   OH241912   2.314   1.446   0.976
13990TIP3    H141913   2.348   1.369   0.931
13990TIP3    H241914   2.391   1.495   1.004
13991TIP3   OH241915   3.326   0.766   0.975
13991TIP3    H141916   3.351   0.847   1.020
13991TIP3    H241917   3.347   0.783   0.883
13992TIP3   OH241918   2.723   0.944   1.005
13992TIP3    H141919   2.768   0.862   1.027
13992TIP3    H241920   2.691   0.931   0.916
13993TIP3   OH241921   2.063   0.606   0.969
13993TIP3    H141922   2.045   0.679   0.910
13993TIP3    H241923   2.017   0.532   0.929
13994TIP3   OH241924   2.760   0.700   0.594
13994TIP3    H141925   2.828   0.685   0.659
13994TIP3    H241926   2.807   0.734   0.518
13995TIP3   OH241927   1.696   0.805   1.081
13995TIP3    H141928   1.777   0.789   1.129
13995TIP3    H241929   1.704   0.754   1.001
13996TIP3   OH241930   2.135   1.004   0.876
13996TIP3    H141931   2.227   0.983   0.888
13996TIP3    H241932   2.096   0.923   0.843
13997TIP3   OH241933   3.392   0.974   1.150
13997TIP3    H141934   3.310   1.020   1.133
13997TIP3    H241935   3.427   1.013   1.229
13998TIP3   OH241936   2.057   0.596   1.403
13998TIP3    H141937   2.005   0.625   1.328
13998TIP3    H241938   2.009   0.627   1.479
13999TIP3   OH241939   2.399   1.442   0.415
13999TIP3    H141940   2.363   1.424   0.328
13999TIP3    H241941   2.358   1.523   0.442
14000TIP3   OH241942   2.163   1.368   1.199
14000TIP3    H141943   2.104   1.434   1.235
14000TIP3    H241944   2.208   1.413   1.128
14001TIP3   OH241945   2.964   0.705   0.772
14001TIP3    H141946   2.951   0.657   0.854
14001TIP3    H241947   3.016   0.781   0.797
14002TIP3   OH241948   1.933   0.706   1.186
14002TIP3    H141949   1.990   0.779   1.211
14002TIP3    H241950   1.978   0.665   1.113
14003TIP3   OH241951   1.989   1.564   1.300
14003TIP3    H141952   1.970   1.649   1.261
14003TIP3    H241953   1.912   1.545   1.354
14004TIP3   OH241954   1.386   1.246   0.533
14004TIP3    H141955   1.345   1.267   0.450
14004TIP3    H241956   1.407   1.332   0.571
14005TIP3   OH241957   2.823   1.770   0.779
14005TIP3    H141958   2.737   1.757   0.817
14005TIP3    H241959   2.817   1.852   0.731
14006TIP3   OH241960   3.118   0.662   1.137
14006TIP3    H141961   3.032   0.691   1.106
14006TIP3    H241962   3.179   0.694   1.071
14007TIP3   OH241963   2.411   0.304   1.125
14007TIP3    H141964   2.399   0.210   1.139
14007TIP3    H241965   2.337   0.345   1.169
14008TIP3   OH241966   2.528   1.810   0.446
14008TIP3    H141967   2.574   1.727   0.429
14008TIP3    H241968   2.584   1.877   0.408
14009TIP3   OH241969   2.670   1.594   0.362
14009TIP3    H141970   2.634   1.516   0.319
14009TIP3    H241971   2.707   1.562   0.444
14010TIP3   OH241972   3.038   1.679   1.110
14010TIP3    H141973   3.027   1.601   1.055
14010TIP3    H241974   3.022   1.753   1.052
14011TIP3   OH241975   2.343   1.074   0.377
14011TIP3    H141976   2.264   1.124   0.358
14011TIP3    H241977   2.390   1.069   0.294
14012TIP3   OH241978   2.305   0.859   0.092
14012TIP3    H141979   2.369   0.911   0.140
14012TIP3    H241980   2.357   0.795   0.043
14013TIP3   OH241981   3.250   1.326   0.966
14013TIP3    H141982   3.166   1.370   0.976
14013TIP3    H241983   3.274   1.341   0.874
14014TIP3   OH241984   2.692   1.155   0.350
14014TIP3    H141985   2.637   1.180   0.424
14014TIP3    H241986   2.775   1.130   0.391
14015TIP3   OH241987   2.920   1.182   1.257
14015TIP3    H141988   2.932   1.258   1.315
14015TIP3    H241989   2.837   1.198   1.212
14016TIP3   OH241990   1.923   1.149   0.766
14016TIP3    H141991   1.882   1.094   0.700
14016TIP3    H241992   1.999   1.099   0.796
14017TIP3   OH241993   2.054   1.562   0.913
14017TIP3    H141994   2.034   1.528   0.826
14017TIP3    H241995   2.141   1.528   0.933
14018TIP3   OH241996   2.059   1.125   1.120
14018TIP3    H141997   2.090   1.100   1.033
14018TIP3    H241998   2.102   1.209   1.138
14019TIP3   OH241999   2.584   1.762   0.900
14019TIP3    H142000   2.572   1.840   0.954
14019TIP3    H242001   2.571   1.689   0.960
14020TIP3   OH242002   2.194   1.677   1.446
14020TIP3    H142003   2.136   1.740   1.489
14020TIP3    H242004   2.136   1.623   1.392
14021TIP3   OH242005   2.532   1.015   0.174
14021TIP3    H142006   2.589   1.072   0.226
14021TIP3    H242007   2.556   1.034   0.084
14022TIP3   OH242008   1.953   1.235   1.542
14022TIP3    H142009   1.955   1.321   1.583
14022TIP3    H242010   1.861   1.208   1.544
14023TIP3   OH242011   2.276   1.693   0.452
14023TIP3    H142012   2.358   1.741   0.461
14023TIP3    H242013   2.217   1.753   0.408
14024TIP3   OH242014   1.987   1.830   1.528
14024TIP3    H142015   1.954   1.843   1.439
14024TIP3    H242016   1.909   1.827   1.582
14025TIP3   OH242017   3.046   0.254   0.225
14025TIP3    H142018   2.966   0.272   0.275
14025TIP3    H242019   3.061   0.333   0.174
14026TIP3   OH242020   1.788   0.995   0.572
14026TIP3    H142021   1.724   1.039   0.516
14026TIP3    H242022   1.753   0.906   0.581
14027TIP3   OH242023   5.682   5.628   6.713
14027TIP3    H142024   5.687   5.723   6.698
14027TIP3    H242025   5.772   5.597   6.701
14028TIP3   OH242026   1.568   1.383   1.479
14028TIP3    H142027   1.500   1.365   1.414
14028TIP3    H242028   1.607   1.297   1.498
14029TIP3   OH242029   1.426   1.576   1.107
14029TIP3    H142030   1.521   1.567   1.102
14029TIP3    H242031   1.412   1.652   1.164
14030TIP3   OH242032   2.388   1.809   1.299
14030TIP3    H142033   2.390   1.899   1.332
14030TIP3    H242034   2.322   1.765   1.353
14031TIP3   OH242035   2.156   1.936   0.255
14031TIP3    H142036   2.113   1.918   0.171
14031TIP3    H242037   2.126   2.024   0.279
14032TIP3   OH242038   1.586   1.775   0.646
14032TIP3    H142039   1.654   1.781   0.714
14032TIP3    H242040   1.512   1.733   0.690
14033TIP3   OH242041   5.192   5.845   6.833
14033TIP3    H142042   5.248   5.777   6.796
14033TIP3    H242043   5.225   5.857   6.922
14034TIP3   OH242044   2.408   1.889   0.164
14034TIP3    H142045   2.321   1.897   0.204
14034TIP3    H242046   2.463   1.852   0.233
14035TIP3   OH242047   3.204   1.157   1.411
14035TIP3    H142048   3.112   1.186   1.404
14035TIP3    H242049   3.199   1.062   1.408
14036TIP3   OH242050   1.771   1.563   1.466
14036TIP3    H142051   1.819   1.543   1.546
14036TIP3    H242052   1.696   1.504   1.467
14037TIP3   OH242053   2.172   0.384   1.252
14037TIP3    H142054   2.087   0.352   1.222
14037TIP3    H242055   2.151   0.466   1.297
14038TIP3   OH242056   2.708   0.501   1.448
14038TIP3    H142057   2.772   0.472   1.513
14038TIP3    H242058   2.623   0.483   1.488
14039TIP3   OH242059   2.941   0.926   1.364
14039TIP3    H142060   2.893   0.931   1.447
14039TIP3    H242061   2.927   1.012   1.323
14040TIP3   OH242062   5.443   5.062   6.858
14040TIP3    H142063   5.405   5.039   6.773
14040TIP3    H242064   5.524   5.108   6.836
14041TIP3   OH242065   2.319   0.430   0.224
14041TIP3    H142066   2.287   0.431   0.314
14041TIP3    H242067   2.282   0.350   0.186
14042TIP3   OH242068   2.104   0.903   1.268
14042TIP3    H142069   2.057   0.922   1.350
14042TIP3    H242070   2.091   0.981   1.214
14043TIP3   OH242071   1.988   0.786   0.782
14043TIP3    H142072   1.898   0.762   0.803
14043TIP3    H242073   2.004   0.748   0.695
14044TIP3   OH242074   2.481   0.874   0.511
14044TIP3    H142075   2.429   0.943   0.470
14044TIP3    H242076   2.535   0.840   0.440
14045TIP3   OH242077   2.642   1.149   1.592
14045TIP3    H142078   2.634   1.082   1.659
14045TIP3    H242079   2.727   1.189   1.608
14046TIP3   OH242080   2.636   0.898   0.746
14046TIP3    H142081   2.575   0.930   0.680
14046TIP3    H242082   2.673   0.818   0.708
14047TIP3   OH242083   1.927   0.933   1.479
14047TIP3    H142084   1.959   0.999   1.540
14047TIP3    H242085   1.914   0.855   1.533
14048TIP3   OH242086   1.977   0.410   0.190
14048TIP3    H142087   1.967   0.404   0.285
14048TIP3    H242088   1.899   0.458   0.161
14049TIP3   OH242089   1.518   0.450   1.064
14049TIP3    H142090   1.596   0.482   1.110
14049TIP3    H242091   1.550   0.419   0.980
14050TIP3   OH242092   1.486   0.434   0.577
14050TIP3    H142093   1.531   0.467   0.500
14050TIP3    H242094   1.423   0.502   0.600
14051TIP3   OH242095   2.638   1.142   1.168
14051TIP3    H142096   2.677   1.077   1.110
14051TIP3    H242097   2.611   1.093   1.245
14052TIP3   OH242098   2.322   0.607   0.846
14052TIP3    H142099   2.241   0.606   0.896
14052TIP3    H242100   2.391   0.605   0.912
14053TIP3   OH242101   1.750   0.664   0.852
14053TIP3    H142102   1.659   0.673   0.824
14053TIP3    H242103   1.774   0.575   0.828
14054TIP3   OH242104   2.019   0.662   0.541
14054TIP3    H142105   2.111   0.676   0.519
14054TIP3    H242106   1.971   0.683   0.460
14055TIP3   OH242107   2.808   0.682   1.050
14055TIP3    H142108   2.776   0.699   1.138
14055TIP3    H242109   2.744   0.623   1.011
14056TIP3   OH242110   1.865   0.697   0.316
14056TIP3    H142111   1.795   0.649   0.272
14056TIP3    H242112   1.918   0.733   0.245
14057TIP3   OH242113   1.917   1.476   1.690
14057TIP3    H142114   2.002   1.512   1.715
14057TIP3    H242115   1.878   1.446   1.772
14058TIP3   OH242116   2.402   0.937   0.941
14058TIP3    H142117   2.473   0.901   0.889
14058TIP3    H242118   2.410   0.895   1.026
14059TIP3   OH242119   1.922   0.421   0.824
14059TIP3    H142120   1.887   0.346   0.871
14059TIP3    H242121   1.964   0.384   0.746
14060TIP3   OH242122   2.376   0.834   1.236
14060TIP3    H142123   2.288   0.871   1.246
14060TIP3    H242124   2.433   0.896   1.281
14061TIP3   OH242125   2.111   1.223   0.327
14061TIP3    H142126   2.042   1.159   0.313
14061TIP3    H242127   2.094   1.257   0.416
14062TIP3   OH242128   3.012   1.457   0.950
14062TIP3    H142129   3.037   1.507   0.873
14062TIP3    H242130   2.928   1.417   0.927
14063TIP3   OH242131   2.571   0.535   0.195
14063TIP3    H142132   2.477   0.516   0.202
14063TIP3    H242133   2.578   0.628   0.217
14064TIP3   OH242134   2.506   1.546   1.325
14064TIP3    H142135   2.517   1.522   1.417
14064TIP3    H242136   2.468   1.634   1.327
14065TIP3   OH242137   2.640   0.787   0.295
14065TIP3    H142138   2.735   0.792   0.309
14065TIP3    H242139   2.620   0.864   0.243
14066TIP3   OH242140   1.808   1.248   1.000
14066TIP3    H142141   1.844   1.221   0.916
14066TIP3    H242142   1.848   1.188   1.063
14067TIP3   OH242143   2.258   1.375   0.152
14067TIP3    H142144   2.213   1.459   0.154
14067TIP3    H242145   2.207   1.319   0.210
14068TIP3   OH242146   1.692   1.169   1.602
14068TIP3    H142147   1.722   1.162   1.693
14068TIP3    H242148   1.615   1.111   1.598
14069TIP3   OH242149   2.400   1.280   1.620
14069TIP3    H142150   2.346   1.217   1.572
14069TIP3    H242151   2.489   1.247   1.612
14070TIP3   OH242152   2.667   1.804   1.213
14070TIP3    H142153   2.572   1.798   1.224
14070TIP3    H242154   2.698   1.842   1.295
14071TIP3   OH242155   3.079   0.878   0.125
14071TIP3    H142156   3.020   0.830   0.067
14071TIP3    H242157   3.080   0.967   0.090
14072TIP3   OH242158   3.295   1.685   1.191
14072TIP3    H142159   3.202   1.698   1.171
14072TIP3    H242160   3.337   1.681   1.106
14073TIP3   OH242161   2.787   1.693   0.038
14073TIP3    H142162   2.757   1.624   0.097
14073TIP3    H242163   2.798   1.649  -0.046
14074TIP3   OH242164   2.777   1.322   0.869
14074TIP3    H142165   2.685   1.300   0.884
14074TIP3    H242166   2.813   1.244   0.826
14075TIP3   OH242167   1.911   1.554   0.630
14075TIP3    H142168   1.914   1.633   0.575
14075TIP3    H242169   1.817   1.535   0.639
14076TIP3   OH242170   1.473   0.856   0.336
14076TIP3    H142171   1.519   0.938   0.355
14076TIP3    H242172   1.395   0.858   0.393
14077TIP3   OH242173   2.040   1.316   0.572
14077TIP3    H142174   2.010   1.405   0.589
14077TIP3    H242175   2.006   1.265   0.645
14078TIP3   OH242176   2.180   1.895   1.095
14078TIP3    H142177   2.218   1.966   1.043
14078TIP3    H242178   2.254   1.856   1.141
14079TIP3   OH242179   1.825   1.791   0.481
14079TIP3    H142180   1.740   1.800   0.525
14079TIP3    H242181   1.862   1.880   0.482
14080TIP3   OH242182   2.565   1.529   1.059
14080TIP3    H142183   2.553   1.529   1.154
14080TIP3    H242184   2.643   1.477   1.044
14081TIP3   OH242185   5.375   5.429   6.882
14081TIP3    H142186   5.428   5.406   6.958
14081TIP3    H242187   5.286   5.403   6.906
14082TIP3   OH242188   2.796   2.070   1.112
14082TIP3    H142189   2.725   2.007   1.097
14082TIP3    H242190   2.791   2.130   1.038
14083TIP3   OH242191   5.711   5.905   6.698
14083TIP3    H142192   5.749   5.973   6.642
14083TIP3    H242193   5.632   5.945   6.734
14084TIP3   OH242194   1.881   0.669   1.610
14084TIP3    H142195   1.788   0.692   1.616
14084TIP3    H242196   1.882   0.573   1.615
14085TIP3   OH242197   2.704   1.355   0.156
14085TIP3    H142198   2.690   1.289   0.225
14085TIP3    H242199   2.798   1.354   0.141
14086TIP3   OH242200   1.615   1.757   1.254
14086TIP3    H142201   1.668   1.686   1.291
14086TIP3    H242202   1.642   1.835   1.303
14087TIP3   OH242203   4.739   5.406   6.881
14087TIP3    H142204   4.751   5.316   6.850
14087TIP3    H242205   4.716   5.397   6.974
14088TIP3   OH242206   1.847   1.410   0.214
14088TIP3    H142207   1.923   1.379   0.264
14088TIP3    H242208   1.852   1.505   0.218
14089TIP3   OH242209   1.585   1.101   0.415
14089TIP3    H142210   1.519   1.142   0.471
14089TIP3    H242211   1.601   1.166   0.346
14090TIP3   OH242212   2.735   0.740   1.308
14090TIP3    H142213   2.817   0.779   1.338
14090TIP3    H242214   2.725   0.660   1.360
14091TIP3   OH242215   2.617   0.487   0.473
14091TIP3    H142216   2.602   0.506   0.380
14091TIP3    H242217   2.656   0.567   0.508
14092TIP3   OH242218   2.114   1.605   0.159
14092TIP3    H142219   2.029   1.630   0.195
14092TIP3    H242220   2.135   1.675   0.097
14093TIP3   OH242221   2.304   0.670   0.575
14093TIP3    H142222   2.367   0.740   0.555
14093TIP3    H242223   2.309   0.661   0.671
14094TIP3   OH242224   2.570   0.982   1.378
14094TIP3    H142225   2.593   1.036   1.453
14094TIP3    H242226   2.628   0.906   1.385
14095TIP3   OH242227   2.448   0.393   0.674
14095TIP3    H142228   2.434   0.469   0.731
14095TIP3    H242229   2.509   0.424   0.607
14096TIP3   OH242230   1.859   1.682   0.228
14096TIP3    H142231   1.833   1.749   0.165
14096TIP3    H242232   1.847   1.724   0.313
14097TIP3   OH242233   1.962   0.395   0.467
14097TIP3    H142234   1.956   0.484   0.502
14097TIP3    H242235   2.056   0.375   0.471
14098TIP3   OH242236   3.207   0.878   1.367
14098TIP3    H142237   3.111   0.880   1.366
14098TIP3    H242238   3.231   0.849   1.279
14099TIP3   OH242239   2.865   1.078   0.751
14099TIP3    H142240   2.789   1.021   0.760
14099TIP3    H242241   2.935   1.033   0.797
14100TIP3   OH242242   1.583   1.308   0.217
14100TIP3    H142243   1.652   1.374   0.228
14100TIP3    H242244   1.618   1.246   0.153
14101TIP3   OH242245   1.519   0.585   0.354
14101TIP3    H142246   1.519   0.680   0.351
14101TIP3    H242247   1.443   0.559   0.303
14102TIP3   OH242248   2.828   2.035   0.692
14102TIP3    H142249   2.783   2.079   0.621
14102TIP3    H242250   2.921   2.051   0.676
14103TIP3   OH242251   1.909   0.305   1.222
14103TIP3    H142252   1.879   0.275   1.136
14103TIP3    H242253   1.899   0.228   1.279
14104TIP3   OH242254   1.414   1.514   0.587
14104TIP3    H142255   1.385   1.561   0.666
14104TIP3    H242256   1.469   1.577   0.541
14105TIP3   OH242257   1.612   2.053   1.655
14105TIP3    H142258   1.694   2.021   1.692
14105TIP3    H242259   1.554   1.978   1.657
14106TIP3   OH242260   4.901   5.609   6.789
14106TIP3    H142261   4.846   5.541   6.827
14106TIP3    H242262   4.976   5.562   6.753
14107TIP3   OH242263   2.714   1.904   1.465
14107TIP3    H142264   2.720   1.853   1.545
14107TIP3    H242265   2.777   1.975   1.476
14108TIP3   OH242266   5.337   5.650   6.703
14108TIP3    H142267   5.379   5.587   6.761
14108TIP3    H242268   5.391   5.650   6.624
14109TIP3   OH242269   1.716   1.121   0.074
14109TIP3    H142270   1.769   1.088   0.147
14109TIP3    H242271   1.777   1.126   0.001
14110TIP3   OH242272   2.371   1.555   1.637
14110TIP3    H142273   2.308   1.579   1.569
14110TIP3    H242274   2.374   1.460   1.636
14111TIP3   OH242275   5.062   5.326   6.823
14111TIP3    H142276   5.063   5.341   6.917
14111TIP3    H242277   5.062   5.231   6.814
14112TIP3   OH242278   2.830   1.571   1.258
14112TIP3    H142279   2.908   1.609   1.217
14112TIP3    H242280   2.761   1.635   1.241
14113TIP3   OH242281   1.866   1.166   1.832
14113TIP3    H142282   1.958   1.147   1.818
14113TIP3    H242283   1.853   1.154   1.926
14114TIP3   OH242284   1.920   1.025   0.292
14114TIP3    H142285   1.894   0.985   0.375
14114TIP3    H242286   1.956   0.953   0.241
14115TIP3   OH242287   2.189   1.086   1.517
14115TIP3    H142288   2.115   1.147   1.522
14115TIP3    H242289   2.239   1.117   1.441
14116TIP3   OH242290   2.025   0.823   0.131
14116TIP3    H142291   1.997   0.827   0.040
14116TIP3    H242292   2.121   0.827   0.126
14117TIP3   OH242293   5.675   5.158   6.737
14117TIP3    H142294   5.656   5.110   6.657
14117TIP3    H242295   5.645   5.247   6.720
14118TIP3   OH242296   2.316   0.880   1.647
14118TIP3    H142297   2.319   0.802   1.592
14118TIP3    H242298   2.273   0.947   1.593
14119TIP3   OH242299   2.316   0.667   1.455
14119TIP3    H142300   2.347   0.709   1.375
14119TIP3    H242301   2.226   0.643   1.436
14120TIP3   OH242302   2.339   1.197   1.324
14120TIP3    H142303   2.426   1.210   1.285
14120TIP3    H242304   2.284   1.264   1.282
14121TIP3   OH242305   2.958   1.391   1.421
14121TIP3    H142306   2.901   1.456   1.381
14121TIP3    H242307   3.047   1.423   1.404
14122TIP3   OH242308   2.145   0.998   1.856
14122TIP3    H142309   2.098   0.915   1.853
14122TIP3    H242310   2.215   0.988   1.791
14123TIP3   OH242311   2.448   0.431   1.523
14123TIP3    H142312   2.401   0.512   1.504
14123TIP3    H242313   2.383   0.362   1.513
14124TIP3   OH242314   2.573   0.927   1.742
14124TIP3    H142315   2.561   0.917   1.837
14124TIP3    H242316   2.488   0.906   1.705
14125TIP3   OH242317   2.806   0.885   1.599
14125TIP3    H142318   2.721   0.888   1.644
14125TIP3    H242319   2.866   0.847   1.664
14126TIP3   OH242320   2.033   0.747   1.912
14126TIP3    H142321   2.089   0.698   1.851
14126TIP3    H242322   2.075   0.734   1.997
14127TIP3   OH242323   2.558   0.423   1.778
14127TIP3    H142324   2.622   0.354   1.764
14127TIP3    H242325   2.511   0.430   1.695
14128TIP3   OH242326   1.834   1.882   0.039
14128TIP3    H142327   1.928   1.874   0.023
14128TIP3    H242328   1.801   1.932  -0.035
14129TIP3   OH242329   1.312   1.266   0.253
14129TIP3    H142330   1.404   1.288   0.239
14129TIP3    H242331   1.302   1.179   0.213
14130TIP3   OH242332   1.239   1.855   0.650
14130TIP3    H142333   1.156   1.813   0.628
14130TIP3    H242334   1.268   1.811   0.730
14131TIP3   OH242335   1.374   1.715   0.852
14131TIP3    H142336   1.350   1.649   0.917
14131TIP3    H242337   1.416   1.784   0.903
14132TIP3   OH242338   3.084   2.112   0.656
14132TIP3    H142339   3.115   2.146   0.740
14132TIP3    H242340   3.139   2.156   0.591
14133TIP3   OH242341   3.148   2.124   0.934
14133TIP3    H142342   3.095   2.045   0.933
14133TIP3    H242343   3.129   2.164   1.019
14134TIP3   OH242344   2.983   1.337   0.132
14134TIP3    H142345   3.046   1.402   0.101
14134TIP3    H242346   3.024   1.298   0.209
14135TIP3   OH242347   3.108   1.204   0.337
14135TIP3    H142348   3.041   1.162   0.392
14135TIP3    H242349   3.170   1.242   0.400
14136TIP3   OH242350   3.163   1.597   0.766
14136TIP3    H142351   3.212   1.531   0.718
14136TIP3    H242352   3.162   1.673   0.708
14137TIP3   OH242353   2.985   1.907   0.961
14137TIP3    H142354   2.918   1.941   1.019
14137TIP3    H242355   2.936   1.861   0.892
14138TIP3   OH242356   5.875   5.122   6.921
14138TIP3    H142357   5.807   5.120   6.854
14138TIP3    H242358   5.851   5.195   6.977
14139TIP3   OH242359   5.748   4.790   6.874
14139TIP3    H142360   5.704   4.830   6.798
14139TIP3    H242361   5.727   4.697   6.866
14140TIP3   OH242362   2.920   1.061   0.481
14140TIP3    H142363   2.928   0.966   0.472
14140TIP3    H242364   2.906   1.075   0.575
14141TIP3   OH242365   1.547   1.130   1.229
14141TIP3    H142366   1.541   1.100   1.138
14141TIP3    H242367   1.641   1.136   1.246
14142TIP3   OH242368   3.200   1.469   1.327
14142TIP3    H142369   3.282   1.428   1.356
14142TIP3    H242370   3.229   1.546   1.278
14143TIP3   OH242371   3.423   1.305   1.384
14143TIP3    H142372   3.337   1.265   1.401
14143TIP3    H242373   3.484   1.231   1.380
14144TIP3   OH242374   5.692   4.524   6.859
14144TIP3    H142375   5.763   4.493   6.915
14144TIP3    H242376   5.618   4.468   6.881
14145TIP3   OH242377   2.920   0.778   0.373
14145TIP3    H142378   2.957   0.691   0.390
14145TIP3    H242379   2.974   0.813   0.302
14146TIP3   OH242380   3.080   0.950   0.872
14146TIP3    H142381   3.161   0.973   0.827
14146TIP3    H242382   3.089   0.987   0.959
14147TIP3   OH242383   3.146   1.099   1.099
14147TIP3    H142384   3.071   1.127   1.152
14147TIP3    H242385   3.179   1.179   1.059
14148TIP3   OH242386   3.025   0.527   0.415
14148TIP3    H142387   3.074   0.512   0.496
14148TIP3    H242388   2.965   0.453   0.410
14149TIP3   OH242389   1.729   0.516   1.238
14149TIP3    H142390   1.786   0.439   1.242
14149TIP3    H242391   1.788   0.590   1.224
14150TIP3   OH242392   1.532   0.787   1.309
14150TIP3    H142393   1.576   0.778   1.225
14150TIP3    H242394   1.550   0.877   1.337
14151TIP3   OH242395   3.454   0.826   1.471
14151TIP3    H142396   3.363   0.854   1.458
14151TIP3    H242397   3.461   0.744   1.423
14152TIP3   OH242398   3.106   0.460   0.047
14152TIP3    H142399   3.143   0.390  -0.008
14152TIP3    H242400   3.170   0.531   0.042
14153TIP3   OH242401   1.510   0.300   0.813
14153TIP3    H142402   1.418   0.286   0.834
14153TIP3    H242403   1.508   0.351   0.731
14154TIP3   OH242404   2.671   1.992   0.312
14154TIP3    H142405   2.723   1.983   0.232
14154TIP3    H242406   2.716   2.061   0.361
14155TIP3   OH242407   1.744   0.411   1.594
14155TIP3    H142408   1.701   0.352   1.656
14155TIP3    H242409   1.673   0.444   1.539
14156TIP3   OH242410   1.765   1.809   1.707
14156TIP3    H142411   1.679   1.785   1.674
14156TIP3    H242412   1.777   1.756   1.786
14157TIP3   OH242413   1.952   1.836   1.241
14157TIP3    H142414   1.902   1.910   1.206
14157TIP3    H242415   2.038   1.844   1.200
14158TIP3   OH242416   2.409   2.077   1.392
14158TIP3    H142417   2.462   2.055   1.469
14158TIP3    H242418   2.468   2.127   1.336
14159TIP3   OH242419   2.600   2.223   1.254
14159TIP3    H142420   2.655   2.164   1.202
14159TIP3    H242421   2.638   2.310   1.239
14160TIP3   OH242422   3.369   0.584   1.336
14160TIP3    H142423   3.281   0.583   1.299
14160TIP3    H242424   3.402   0.495   1.324
14161TIP3   OH242425   1.623   2.085   1.273
14161TIP3    H142426   1.536   2.115   1.247
14161TIP3    H242427   1.640   2.131   1.355
14162TIP3   OH242428   1.861   2.069   1.128
14162TIP3    H142429   1.777   2.080   1.173
14162TIP3    H242430   1.845   2.102   1.040
14163TIP3   OH242431   2.285   2.096   0.926
14163TIP3    H142432   2.218   2.111   0.859
14163TIP3    H242433   2.299   2.182   0.965
14164TIP3   OH242434   2.553   2.035   0.979
14164TIP3    H142435   2.461   2.051   0.956
14164TIP3    H242436   2.601   2.102   0.930
14165TIP3   OH242437   2.758   2.219   0.885
14165TIP3    H142438   2.743   2.303   0.843
14165TIP3    H242439   2.783   2.160   0.814
14166TIP3   OH242440   1.539   1.877   1.010
14166TIP3    H142441   1.558   1.854   1.101
14166TIP3    H242442   1.612   1.839   0.960
14167TIP3   OH242443   1.737   1.753   0.870
14167TIP3    H142444   1.748   1.672   0.919
14167TIP3    H242445   1.825   1.792   0.868
14168TIP3   OH242446   1.999   1.844   0.880
14168TIP3    H142447   2.029   1.754   0.864
14168TIP3    H242448   2.045   1.871   0.959
14169TIP3   OH242449   2.576   0.503   0.966
14169TIP3    H142450   2.532   0.433   1.014
14169TIP3    H242451   2.646   0.459   0.918
14170TIP3   OH242452   3.093   0.387   0.865
14170TIP3    H142453   3.131   0.436   0.793
14170TIP3    H242454   2.999   0.404   0.859
14171TIP3   OH242455   3.193   0.483   0.630
14171TIP3    H142456   3.263   0.430   0.591
14171TIP3    H242457   3.222   0.574   0.617
14172TIP3   OH242458   1.820   0.209   0.979
14172TIP3    H142459   1.729   0.182   0.979
14172TIP3    H242460   1.870   0.127   0.973
14173TIP3   OH242461   1.614   0.084   0.626
14173TIP3    H142462   1.643   0.136   0.552
14173TIP3    H242463   1.580   0.147   0.689
14174TIP3   OH242464   2.270   0.244   0.858
14174TIP3    H142465   2.324   0.290   0.794
14174TIP3    H242466   2.294   0.282   0.942
14175TIP3   OH242467   2.809   0.390   0.842
14175TIP3    H142468   2.811   0.354   0.753
14175TIP3    H242469   2.800   0.313   0.898
14176TIP3   OH242470   2.841   0.315   0.406
14176TIP3    H142471   2.757   0.360   0.418
14176TIP3    H242472   2.830   0.230   0.448
14177TIP3   OH242473   1.249   1.697   0.357
14177TIP3    H142474   1.222   1.620   0.407
14177TIP3    H242475   1.287   1.756   0.421
14178TIP3   OH242476   1.730   0.240   0.390
14178TIP3    H142477   1.772   0.176   0.333
14178TIP3    H242478   1.802   0.293   0.424
14179TIP3   OH242479   2.238   0.420   0.489
14179TIP3    H142480   2.296   0.369   0.545
14179TIP3    H242481   2.257   0.512   0.511
14180TIP3   OH242482   4.934   5.843   6.926
14180TIP3    H142483   5.019   5.871   6.893
14180TIP3    H242484   4.908   5.771   6.869
14181TIP3   OH242485   2.817   1.960   0.079
14181TIP3    H142486   2.811   1.865   0.070
14181TIP3    H242487   2.772   1.995   0.002
14182TIP3   OH242488   4.296   1.483   0.033
14182TIP3    H142489   4.265   1.570   0.010
14182TIP3    H242490   4.230   1.424  -0.002
14183TIP3   OH242491   4.277   1.468   0.449
14183TIP3    H142492   4.349   1.414   0.481
14183TIP3    H242493   4.250   1.426   0.367
14184TIP3   OH242494   3.605   1.341   0.761
14184TIP3    H142495   3.630   1.278   0.829
14184TIP3    H242496   3.674   1.407   0.764
14185TIP3   OH242497   3.584   1.781   0.503
14185TIP3    H142498   3.568   1.686   0.507
14185TIP3    H242499   3.679   1.788   0.492
14186TIP3   OH242500   3.283   0.986   0.285
14186TIP3    H142501   3.237   1.067   0.304
14186TIP3    H242502   3.218   0.930   0.244
14187TIP3   OH242503   3.347   1.271   0.464
14187TIP3    H142504   3.394   1.195   0.500
14187TIP3    H242505   3.398   1.296   0.387
14188TIP3   OH242506   4.080   1.691   0.401
14188TIP3    H142507   4.090   1.600   0.375
14188TIP3    H242508   4.166   1.717   0.434
14189TIP3   OH242509   4.493   1.190   0.482
14189TIP3    H142510   4.534   1.104   0.492
14189TIP3    H242511   4.467   1.194   0.390
14190TIP3   OH242512   3.859   0.864   0.456
14190TIP3    H142513   3.841   0.937   0.397
14190TIP3    H242514   3.812   0.790   0.417
14191TIP3   OH242515   4.558   0.957   0.081
14191TIP3    H142516   4.624   0.935   0.146
14191TIP3    H242517   4.607   0.992   0.007
14192TIP3   OH242518   3.492   1.062   0.566
14192TIP3    H142519   3.572   1.047   0.616
14192TIP3    H242520   3.502   1.009   0.487
14193TIP3   OH242521   3.933   1.260   0.355
14193TIP3    H142522   4.024   1.234   0.373
14193TIP3    H242523   3.891   1.179   0.325
14194TIP3   OH242524   3.849   0.846   0.894
14194TIP3    H142525   3.793   0.882   0.826
14194TIP3    H242526   3.801   0.862   0.975
14195TIP3   OH242527   7.041   5.715   6.843
14195TIP3    H142528   7.013   5.689   6.756
14195TIP3    H242529   6.993   5.796   6.860
14196TIP3   OH242530   3.954   1.616   0.652
14196TIP3    H142531   3.895   1.665   0.709
14196TIP3    H242532   3.993   1.682   0.595
14197TIP3   OH242533   4.758   0.938   0.265
14197TIP3    H142534   4.717   0.907   0.346
14197TIP3    H242535   4.805   1.017   0.290
14198TIP3   OH242536   3.727   0.961   0.675
14198TIP3    H142537   3.785   1.031   0.702
14198TIP3    H242538   3.772   0.918   0.602
14199TIP3   OH242539   3.181   1.509   0.022
14199TIP3    H142540   3.140   1.531  -0.062
14199TIP3    H242541   3.210   1.594   0.057
14200TIP3   OH242542   4.200   0.562   0.605
14200TIP3    H142543   4.191   0.468   0.624
14200TIP3    H242544   4.126   0.602   0.652
14201TIP3   OH242545   6.975   5.342   6.802
14201TIP3    H142546   6.893   5.388   6.783
14201TIP3    H242547   7.017   5.332   6.717
14202TIP3   OH242548   6.937   5.121   6.522
14202TIP3    H142549   7.003   5.173   6.567
14202TIP3    H242550   6.987   5.057   6.470
14203TIP3   OH242551   7.336   5.454   6.803
14203TIP3    H142552   7.266   5.442   6.867
14203TIP3    H242553   7.404   5.392   6.829
14204TIP3   OH242554   3.720   1.407   0.251
14204TIP3    H142555   3.676   1.352   0.186
14204TIP3    H242556   3.795   1.355   0.280
14205TIP3   OH242557   3.846   1.830   0.379
14205TIP3    H142558   3.802   1.805   0.298
14205TIP3    H242559   3.924   1.775   0.382
14206TIP3   OH242560   3.866   1.365   0.602
14206TIP3    H142561   3.888   1.339   0.512
14206TIP3    H242562   3.904   1.452   0.612
14207TIP3   OH242563   7.166   5.284   6.603
14207TIP3    H142564   7.225   5.345   6.648
14207TIP3    H242565   7.185   5.297   6.510
14208TIP3   OH242566   3.679   1.526   0.973
14208TIP3    H142567   3.619   1.592   0.937
14208TIP3    H242568   3.623   1.468   1.024
14209TIP3   OH242569   6.910   5.956   6.858
14209TIP3    H142570   6.965   6.009   6.917
14209TIP3    H242571   6.845   6.017   6.824
14210TIP3   OH242572   7.677   4.517   6.653
14210TIP3    H142573   7.596   4.537   6.701
14210TIP3    H242574   7.692   4.595   6.599
14211TIP3   OH242575   3.582   1.254   0.060
14211TIP3    H142576   3.518   1.298   0.004
14211TIP3    H242577   3.549   1.164   0.069
14212TIP3   OH242578   7.478   5.895   6.206
14212TIP3    H142579   7.490   5.990   6.202
14212TIP3    H242580   7.563   5.859   6.180
14213TIP3   OH242581   3.384   1.622   0.941
14213TIP3    H142582   3.310   1.613   0.881
14213TIP3    H242583   3.396   1.534   0.978
14214TIP3   OH242584   3.222   1.827   0.613
14214TIP3    H142585   3.310   1.839   0.578
14214TIP3    H242586   3.191   1.915   0.632
14215TIP3   OH242587   6.796   6.207   6.679
14215TIP3    H142588   6.740   6.195   6.602
14215TIP3    H242589   6.774   6.295   6.711
14216TIP3   OH242590   3.388   2.039   0.118
14216TIP3    H142591   3.429   2.032   0.204
14216TIP3    H242592   3.329   1.964   0.113
14217TIP3   OH242593   6.992   6.105   6.319
14217TIP3    H142594   7.044   6.035   6.281
14217TIP3    H242595   7.031   6.118   6.406
14218TIP3   OH242596   7.044   6.134   6.603
14218TIP3    H142597   6.961   6.178   6.622
14218TIP3    H242598   7.032   6.045   6.636
14219TIP3   OH242599   3.967   0.643   0.741
14219TIP3    H142600   3.883   0.609   0.711
14219TIP3    H242601   3.945   0.723   0.789
14220TIP3   OH242602   4.495   0.743   0.916
14220TIP3    H142603   4.558   0.769   0.983
14220TIP3    H242604   4.411   0.740   0.961
14221TIP3   OH242605   7.241   5.327   6.350
14221TIP3    H142606   7.199   5.300   6.268
14221TIP3    H242607   7.325   5.363   6.322
14222TIP3   OH242608   6.946   4.693   6.651
14222TIP3    H142609   6.915   4.695   6.741
14222TIP3    H242610   6.909   4.613   6.613
14223TIP3   OH242611   3.905   1.149   0.755
14223TIP3    H142612   3.860   1.168   0.838
14223TIP3    H242613   3.889   1.226   0.701
14224TIP3   OH242614   3.784   1.043   0.268
14224TIP3    H142615   3.694   1.018   0.290
14224TIP3    H242616   3.800   1.005   0.182
14225TIP3   OH242617   7.108   5.137   6.932
14225TIP3    H142618   7.056   5.205   6.889
14225TIP3    H242619   7.164   5.102   6.862
14226TIP3   OH242620   4.420   1.151   0.223
14226TIP3    H142621   4.358   1.173   0.154
14226TIP3    H242622   4.467   1.075   0.190
14227TIP3   OH242623   3.733   1.180   0.970
14227TIP3    H142624   3.779   1.233   1.036
14227TIP3    H242625   3.712   1.098   1.016
14228TIP3   OH242626   6.604   4.672   6.617
14228TIP3    H142627   6.596   4.668   6.713
14228TIP3    H242628   6.528   4.723   6.589
14229TIP3   OH242629   3.315   0.707   0.547
14229TIP3    H142630   3.389   0.737   0.600
14229TIP3    H242631   3.355   0.676   0.466
14230TIP3   OH242632   3.282   0.691   0.063
14230TIP3    H142633   3.327   0.724  -0.014
14230TIP3    H242634   3.220   0.760   0.087
14231TIP3   OH242635   4.115   0.863   0.331
14231TIP3    H142636   4.034   0.863   0.382
14231TIP3    H242637   4.185   0.861   0.396
14232TIP3   OH242638   3.547   0.922   0.337
14232TIP3    H142639   3.455   0.929   0.310
14232TIP3    H242640   3.571   0.832   0.316
14233TIP3   OH242641   6.648   4.925   6.969
14233TIP3    H142642   6.741   4.939   6.948
14233TIP3    H242643   6.602   4.947   6.887
14234TIP3   OH242644   4.566   0.928   0.495
14234TIP3    H142645   4.563   0.915   0.590
14234TIP3    H242646   4.502   0.866   0.461
14235TIP3   OH242647   6.496   4.961   6.743
14235TIP3    H142648   6.425   4.914   6.698
14235TIP3    H242649   6.549   4.998   6.672
14236TIP3   OH242650   4.187   1.179   0.423
14236TIP3    H142651   4.265   1.153   0.375
14236TIP3    H242652   4.202   1.148   0.513
14237TIP3   OH242653   3.716   0.679   0.311
14237TIP3    H142654   3.682   0.604   0.359
14237TIP3    H242655   3.763   0.640   0.237
14238TIP3   OH242656   4.174   1.092   0.717
14238TIP3    H142657   4.083   1.117   0.728
14238TIP3    H242658   4.219   1.126   0.794
14239TIP3   OH242659   6.741   5.488   6.758
14239TIP3    H142660   6.672   5.424   6.742
14239TIP3    H242661   6.723   5.522   6.846
14240TIP3   OH242662   7.201   4.794   6.630
14240TIP3    H142663   7.106   4.776   6.629
14240TIP3    H242664   7.207   4.889   6.639
14241TIP3   OH242665   7.271   5.052   6.723
14241TIP3    H142666   7.366   5.051   6.732
14241TIP3    H242667   7.254   5.123   6.662
14242TIP3   OH242668   3.612   1.508   0.490
14242TIP3    H142669   3.646   1.478   0.406
14242TIP3    H242670   3.632   1.438   0.551
14243TIP3   OH242671   6.891   5.640   6.585
14243TIP3    H142672   6.845   5.724   6.583
14243TIP3    H242673   6.837   5.584   6.640
14244TIP3   OH242674   3.472   1.393   1.118
14244TIP3    H142675   3.454   1.378   1.211
14244TIP3    H242676   3.398   1.353   1.072
14245TIP3   OH242677   7.708   5.139   6.551
14245TIP3    H142678   7.648   5.091   6.494
14245TIP3    H242679   7.709   5.228   6.516
14246TIP3   OH242680   7.361   5.940   6.455
14246TIP3    H142681   7.398   5.873   6.514
14246TIP3    H242682   7.402   5.922   6.371
14247TIP3   OH242683   3.703   1.816   0.126
14247TIP3    H142684   3.703   1.892   0.068
14247TIP3    H242685   3.612   1.787   0.127
14248TIP3   OH242686   6.102   5.120   6.763
14248TIP3    H142687   6.148   5.202   6.781
14248TIP3    H242688   6.025   5.122   6.820
14249TIP3   OH242689   3.840   1.577   0.063
14249TIP3    H142690   3.806   1.665   0.081
14249TIP3    H242691   3.803   1.523   0.133
14250TIP3   OH242692   6.462   6.056   6.913
14250TIP3    H142693   6.375   6.065   6.952
14250TIP3    H242694   6.498   6.145   6.913
14251TIP3   OH242695   7.171   5.683   6.371
14251TIP3    H142696   7.218   5.678   6.454
14251TIP3    H242697   7.083   5.652   6.391
14252TIP3   OH242698   7.496   6.173   6.196
14252TIP3    H142699   7.560   6.205   6.132
14252TIP3    H242700   7.414   6.215   6.170
14253TIP3   OH242701   3.691   0.925   1.110
14253TIP3    H142702   3.597   0.931   1.125
14253TIP3    H242703   3.723   0.868   1.180
14254TIP3   OH242704   7.337   5.646   6.615
14254TIP3    H142705   7.311   5.561   6.650
14254TIP3    H242706   7.423   5.630   6.576
14255TIP3   OH242707   3.432   2.025   0.754
14255TIP3    H142708   3.425   1.932   0.777
14255TIP3    H242709   3.390   2.071   0.826
14256TIP3   OH242710   6.536   5.664   6.366
14256TIP3    H142711   6.547   5.573   6.336
14256TIP3    H242712   6.513   5.655   6.459
14257TIP3   OH242713   6.479   5.673   6.638
14257TIP3    H142714   6.553   5.644   6.692
14257TIP3    H242715   6.480   5.768   6.643
14258TIP3   OH242716   6.212   5.367   6.842
14258TIP3    H142717   6.147   5.407   6.899
14258TIP3    H242718   6.227   5.431   6.772
14259TIP3   OH242719   7.247   4.751   6.902
14259TIP3    H142720   7.231   4.768   6.809
14259TIP3    H242721   7.287   4.831   6.935
14260TIP3   OH242722   6.746   5.871   6.585
14260TIP3    H142723   6.660   5.892   6.622
14260TIP3    H242724   6.761   5.939   6.520
14261TIP3   OH242725   4.099   0.927   0.062
14261TIP3    H142726   4.163   0.996   0.042
14261TIP3    H242727   4.104   0.917   0.157
14262TIP3   OH242728   4.244   0.648   0.160
14262TIP3    H142729   4.234   0.722   0.220
14262TIP3    H242730   4.305   0.680   0.093
14263TIP3   OH242731   6.491   5.946   6.656
14263TIP3    H142732   6.464   6.011   6.592
14263TIP3    H242733   6.476   5.988   6.741
14264TIP3   OH242734   6.592   4.659   6.894
14264TIP3    H142735   6.584   4.748   6.930
14264TIP3    H242736   6.685   4.639   6.899
14265TIP3   OH242737   4.707   1.256   0.230
14265TIP3    H142738   4.612   1.250   0.241
14265TIP3    H242739   4.742   1.235   0.317
14266TIP3   OH242740   6.211   5.569   6.644
14266TIP3    H142741   6.274   5.640   6.654
14266TIP3    H242742   6.249   5.511   6.579
14267TIP3   OH242743   6.149   4.849   6.780
14267TIP3    H142744   6.152   4.944   6.779
14267TIP3    H242745   6.070   4.826   6.732
14268TIP3   OH242746   3.706   0.559   0.710
14268TIP3    H142747   3.675   0.529   0.625
14268TIP3    H242748   3.695   0.484   0.768
14269TIP3   OH242749   3.239   1.779   0.090
14269TIP3    H142750   3.178   1.810   0.157
14269TIP3    H242751   3.209   1.820   0.009
14270TIP3   OH242752   6.699   5.865   6.276
14270TIP3    H142753   6.644   5.796   6.313
14270TIP3    H242754   6.773   5.818   6.238
14271TIP3   OH242755   7.135   5.908   6.189
14271TIP3    H142756   7.180   5.853   6.253
14271TIP3    H242757   7.188   5.903   6.110
14272TIP3   OH242758   6.346   5.383   6.499
14272TIP3    H142759   6.399   5.352   6.573
14272TIP3    H242760   6.408   5.389   6.426
14273TIP3   OH242761   6.860   5.583   6.312
14273TIP3    H142762   6.858   5.597   6.406
14273TIP3    H242763   6.861   5.488   6.302
14274TIP3   OH242764   6.553   5.288   6.721
14274TIP3    H142765   6.523   5.246   6.801
14274TIP3    H242766   6.589   5.217   6.668
14275TIP3   OH242767   3.999   1.333   0.988
14275TIP3    H142768   3.944   1.379   1.052
14275TIP3    H242769   4.000   1.390   0.911
14276TIP3   OH242770   6.656   5.086   6.558
14276TIP3    H142771   6.627   5.090   6.467
14276TIP3    H242772   6.751   5.089   6.553
14277TIP3   OH242773   7.468   5.417   6.226
14277TIP3    H142774   7.454   5.368   6.145
14277TIP3    H242775   7.440   5.506   6.205
14278TIP3   OH242776   2.013   0.226   3.186
14278TIP3    H142777   2.035   0.156   3.125
14278TIP3    H242778   1.986   0.299   3.129
14279TIP3   OH242779   4.110   0.912   0.936
14279TIP3    H142780   4.139   0.950   0.853
14279TIP3    H242781   4.017   0.895   0.924
14280TIP3   OH242782   4.243   0.693   1.030
14280TIP3    H142783   4.197   0.771   1.000
14280TIP3    H242784   4.182   0.621   1.012
14281TIP3   OH242785   3.814   1.020   1.423
14281TIP3    H142786   3.824   0.941   1.371
14281TIP3    H242787   3.872   1.008   1.497
14282TIP3   OH242788   4.342   0.689   1.287
14282TIP3    H142789   4.411   0.629   1.259
14282TIP3    H242790   4.289   0.704   1.209
14283TIP3   OH242791   6.463   6.143   6.464
14283TIP3    H142792   6.557   6.138   6.448
14283TIP3    H242793   6.429   6.195   6.391
14284TIP3   OH242794   5.940   5.526   6.682
14284TIP3    H142795   6.032   5.549   6.669
14284TIP3    H242796   5.931   5.440   6.641
14285TIP3   OH242797   3.021   2.131   0.154
14285TIP3    H142798   2.953   2.076   0.115
14285TIP3    H242799   3.066   2.073   0.216
14286TIP3   OH242800   3.152   1.969   0.332
14286TIP3    H142801   3.125   1.902   0.395
14286TIP3    H242802   3.201   2.032   0.385
14287TIP3   OH242803   7.594   5.590   6.569
14287TIP3    H142804   7.649   5.646   6.514
14287TIP3    H242805   7.654   5.552   6.632
14288TIP3   OH242806   7.733   5.454   6.758
14288TIP3    H142807   7.665   5.402   6.801
14288TIP3    H242808   7.743   5.532   6.813
14289TIP3   OH242809   7.664   5.374   6.413
14289TIP3    H142810   7.600   5.374   6.342
14289TIP3    H242811   7.639   5.449   6.467
14290TIP3   OH242812   7.537   5.049   6.364
14290TIP3    H142813   7.508   5.086   6.280
14290TIP3    H242814   7.516   4.956   6.357
14291TIP3   OH242815   7.542   5.302   6.896
14291TIP3    H142816   7.552   5.210   6.873
14291TIP3    H242817   7.555   5.304   6.991
14292TIP3   OH242818   3.340   1.387   0.710
14292TIP3    H142819   3.329   1.355   0.620
14292TIP3    H242820   3.435   1.382   0.725
14293TIP3   OH242821   7.488   4.783   6.351
14293TIP3    H142822   7.558   4.747   6.405
14293TIP3    H242823   7.413   4.726   6.367
14294TIP3   OH242824   7.552   5.040   6.793
14294TIP3    H142825   7.586   4.953   6.812
14294TIP3    H242826   7.606   5.071   6.720
14295TIP3   OH242827   3.549   1.065   1.374
14295TIP3    H142828   3.644   1.064   1.384
14295TIP3    H242829   3.519   0.990   1.425
14296TIP3   OH242830   7.652   4.790   6.842
14296TIP3    H142831   7.701   4.776   6.923
14296TIP3    H242832   7.591   4.716   6.837
14297TIP3   OH242833   3.524   0.770   0.721
14297TIP3    H142834   3.582   0.694   0.729
14297TIP3    H242835   3.583   0.845   0.712
14298TIP3   OH242836   3.323   1.045   0.790
14298TIP3    H142837   3.370   1.036   0.707
14298TIP3    H242838   3.354   1.128   0.826
14299TIP3   OH242839   7.740   4.721   6.478
14299TIP3    H142840   7.773   4.655   6.418
14299TIP3    H242841   7.800   4.795   6.468
14300TIP3   OH242842   3.307   0.549   0.294
14300TIP3    H142843   3.216   0.542   0.321
14300TIP3    H242844   3.304   0.605   0.216
14301TIP3   OH242845   3.526   0.623   1.105
14301TIP3    H142846   3.482   0.622   1.190
14301TIP3    H242847   3.463   0.663   1.045
14302TIP3   OH242848   3.318   2.115   0.501
14302TIP3    H142849   3.362   2.120   0.586
14302TIP3    H242850   3.386   2.084   0.441
14303TIP3   OH242851   3.510   1.999   0.356
14303TIP3    H142852   3.532   1.920   0.406
14303TIP3    H242853   3.594   2.041   0.340
14304TIP3   OH242854   3.757   2.100   0.331
14304TIP3    H142855   3.804   2.020   0.307
14304TIP3    H242856   3.824   2.156   0.371
14305TIP3   OH242857   4.362   0.744   0.443
14305TIP3    H142858   4.317   0.679   0.496
14305TIP3    H242859   4.433   0.695   0.400
14306TIP3   OH242860   4.892   0.642   0.345
14306TIP3    H142861   4.927   0.696   0.275
14306TIP3    H242862   4.799   0.665   0.350
14307TIP3   OH242863   4.993   0.743   0.112
14307TIP3    H142864   5.060   0.686   0.073
14307TIP3    H242865   5.032   0.830   0.109
14308TIP3   OH242866   3.617   0.465   0.464
14308TIP3    H142867   3.526   0.437   0.466
14308TIP3    H242868   3.668   0.384   0.460
14309TIP3   OH242869   3.409   0.342   0.115
14309TIP3    H142870   3.437   0.395   0.041
14309TIP3    H242871   3.379   0.405   0.180
14310TIP3   OH242872   4.065   0.501   0.345
14310TIP3    H142873   4.119   0.548   0.281
14310TIP3    H242874   4.091   0.537   0.430
14311TIP3   OH242875   4.604   0.642   0.328
14311TIP3    H142876   4.612   0.605   0.240
14311TIP3    H242877   4.596   0.567   0.386
14312TIP3   OH242878   7.470   4.578   6.833
14312TIP3    H142879   7.387   4.623   6.844
14312TIP3    H242880   7.458   4.493   6.876
14313TIP3   OH242881   5.953   5.922   6.830
14313TIP3    H142882   5.870   5.886   6.799
14313TIP3    H242883   5.949   6.015   6.807
14314TIP3   OH242884   6.359   4.504   6.816
14314TIP3    H142885   6.404   4.441   6.758
14314TIP3    H242886   6.430   4.558   6.851
14315TIP3   OH242887   4.034   0.677  -0.023
14315TIP3    H142888   4.093   0.627   0.033
14315TIP3    H242889   4.052   0.768  -0.003
14316TIP3   OH242890   6.731   6.101   6.410
14316TIP3    H142891   6.816   6.128   6.376
14316TIP3    H242892   6.705   6.028   6.353
14317TIP3   OH242893   7.441   6.205   6.472
14317TIP3    H142894   7.414   6.114   6.488
14317TIP3    H242895   7.493   6.200   6.391
14318TIP3   OH242896   3.817   0.740   1.341
14318TIP3    H142897   3.778   0.675   1.399
14318TIP3    H242898   3.910   0.741   1.365
14319TIP3   OH242899   4.067   0.728   1.445
14319TIP3    H142900   4.156   0.723   1.411
14319TIP3    H242901   4.074   0.693   1.534
14320TIP3   OH242902   6.032   5.938   6.469
14320TIP3    H142903   6.032   5.966   6.560
14320TIP3    H242904   6.118   5.898   6.456
14321TIP3   OH242905   7.903   5.246   6.724
14321TIP3    H142906   7.856   5.329   6.725
14321TIP3    H242907   7.849   5.188   6.670
14322TIP3   OH242908   7.746   5.735   6.405
14322TIP3    H142909   7.729   5.763   6.315
14322TIP3    H242910   7.739   5.815   6.457
14323TIP3   OH242911   0.283   4.908   6.112
14323TIP3    H142912   0.230   4.985   6.130
14323TIP3    H242913   0.220   4.838   6.096
14324TIP3   OH242914   8.399   4.926   6.110
14324TIP3    H142915   8.383   4.925   6.204
14324TIP3    H242916   8.328   4.980   6.074
14325TIP3   OH242917   7.977   4.962   6.975
14325TIP3    H142918   8.025   5.037   6.941
14325TIP3    H242919   7.959   4.908   6.898
14326TIP3   OH242920   7.912   4.950   6.496
14326TIP3    H142921   7.956   4.980   6.416
14326TIP3    H242922   7.849   5.020   6.515
14327TIP3   OH242923   8.129   5.119   6.828
14327TIP3    H142924   8.069   5.167   6.770
14327TIP3    H242925   8.194   5.080   6.769
14328TIP3   OH242926   8.486   5.155   6.421
14328TIP3    H142927   8.544   5.231   6.418
14328TIP3    H242928   8.418   5.174   6.357
14329TIP3   OH242929   8.282   5.199   6.245
14329TIP3    H142930   8.214   5.145   6.205
14329TIP3    H242931   8.294   5.272   6.185
14330TIP3   OH242932   8.344   4.950   6.730
14330TIP3    H142933   8.307   4.870   6.768
14330TIP3    H242934   8.379   4.923   6.645
14331TIP3   OH242935   7.882   5.353   6.243
14331TIP3    H142936   7.927   5.438   6.240
14331TIP3    H242937   7.812   5.365   6.308
14332TIP3   OH242938   8.352   5.878   5.813
14332TIP3    H142939   8.311   5.813   5.756
14332TIP3    H242940   8.422   5.831   5.858
14333TIP3   OH242941   7.951   5.613   6.274
14333TIP3    H142942   7.883   5.636   6.337
14333TIP3    H242943   8.017   5.681   6.284
14334TIP3   OH242944   8.371   4.904   6.387
14334TIP3    H142945   8.381   4.997   6.404
14334TIP3    H242946   8.461   4.869   6.393
14335TIP3   OH242947   7.986   5.881   6.103
14335TIP3    H142948   8.019   5.865   6.191
14335TIP3    H242949   8.039   5.825   6.046
14336TIP3   OH242950   7.946   5.091   6.269
14336TIP3    H142951   7.952   5.187   6.266
14336TIP3    H242952   7.877   5.069   6.207
14337TIP3   OH242953   8.162   5.711   5.977
14337TIP3    H142954   8.164   5.625   6.018
14337TIP3    H242955   8.209   5.699   5.894
14338TIP3   OH242956   8.440   5.482   6.240
14338TIP3    H142957   8.391   5.452   6.317
14338TIP3    H242958   8.377   5.473   6.168
14339TIP3   OH242959   8.507   5.268   6.009
14339TIP3    H142960   8.422   5.298   5.976
14339TIP3    H242961   8.529   5.331   6.078
14340TIP3   OH242962   7.725   5.790   6.133
14340TIP3    H142963   7.815   5.821   6.124
14340TIP3    H242964   7.727   5.700   6.101
14341TIP3   OH242965   7.926   4.830   6.740
14341TIP3    H142966   7.833   4.808   6.746
14341TIP3    H242967   7.934   4.877   6.657
14342TIP3   OH242968   8.249   4.740   6.894
14342TIP3    H142969   8.157   4.715   6.897
14342TIP3    H242970   8.296   4.656   6.898
14343TIP3   OH242971   8.046   4.604   6.540
14343TIP3    H142972   8.071   4.654   6.463
14343TIP3    H242973   8.011   4.669   6.601
14344TIP3   OH242974   8.148   4.752   6.307
14344TIP3    H142975   8.195   4.696   6.245
14344TIP3    H242976   8.216   4.811   6.341
14345TIP3   OH242977   0.137   4.902   6.448
14345TIP3    H142978   0.205   4.866   6.506
14345TIP3    H242979   0.119   4.989   6.484
14346TIP3   OH242980   7.785   6.153   5.961
14346TIP3    H142981   7.811   6.229   6.013
14346TIP3    H242982   7.868   6.116   5.930
14347TIP3   OH242983   7.794   2.108   1.556
14347TIP3    H142984   7.817   2.134   1.646
14347TIP3    H242985   7.878   2.104   1.510
14348TIP3   OH242986   7.311   1.986   1.249
14348TIP3    H142987   7.366   1.991   1.328
14348TIP3    H242988   7.360   2.036   1.183
14349TIP3   OH242989   7.509   2.018   1.449
14349TIP3    H142990   7.504   1.936   1.498
14349TIP3    H242991   7.597   2.051   1.467
14350TIP3   OH242992   6.867   2.274   0.979
14350TIP3    H142993   6.778   2.311   0.983
14350TIP3    H242994   6.907   2.317   0.904
14351TIP3   OH242995   6.856   2.143   0.731
14351TIP3    H142996   6.906   2.168   0.809
14351TIP3    H242997   6.916   2.090   0.679
14352TIP3   OH242998   7.261   2.415   1.006
14352TIP3    H142999   7.239   2.481   1.072
14352TIP3    H243000   7.345   2.380   1.035
14353TIP3   OH243001   7.086   2.310   0.823
14353TIP3    H143002   7.154   2.357   0.871
14353TIP3    H243003   7.103   2.331   0.731
14354TIP3   OH243004   7.590   1.556   0.889
14354TIP3    H143005   7.510   1.573   0.938
14354TIP3    H243006   7.604   1.635   0.837
14355TIP3   OH243007   7.407   2.909   0.397
14355TIP3    H143008   7.410   3.005   0.405
14355TIP3    H243009   7.498   2.882   0.408
14356TIP3   OH243010   7.152   2.347   0.567
14356TIP3    H143011   7.121   2.326   0.478
14356TIP3    H243012   7.228   2.404   0.552
14357TIP3   OH243013   6.853   1.743   0.865
14357TIP3    H143014   6.840   1.743   0.960
14357TIP3    H243015   6.827   1.656   0.838
14358TIP3   OH243016   7.019   2.168   1.169
14358TIP3    H143017   6.964   2.200   1.098
14358TIP3    H243018   7.095   2.130   1.125
14359TIP3   OH243019   7.111   1.840   0.853
14359TIP3    H143020   7.017   1.823   0.858
14359TIP3    H243021   7.120   1.932   0.879
14360TIP3   OH243022   7.188   2.086   0.958
14360TIP3    H143023   7.282   2.093   0.970
14360TIP3    H243024   7.165   2.162   0.904
14361TIP3   OH243025   7.621   2.180   0.790
14361TIP3    H143026   7.564   2.130   0.731
14361TIP3    H243027   7.623   2.268   0.753
14362TIP3   OH243028   7.074   2.725   0.578
14362TIP3    H143029   7.126   2.681   0.646
14362TIP3    H243030   6.984   2.698   0.596
14363TIP3   OH243031   7.485   3.243   0.384
14363TIP3    H143032   7.464   3.290   0.303
14363TIP3    H243033   7.399   3.223   0.423
14364TIP3   OH243034   7.222   2.585   0.765
14364TIP3    H143035   7.222   2.544   0.852
14364TIP3    H243036   7.309   2.625   0.758
14365TIP3   OH243037   7.172   1.783   1.128
14365TIP3    H143038   7.151   1.809   1.038
14365TIP3    H243039   7.213   1.861   1.166
14366TIP3   OH243040   6.861   1.962   1.257
14366TIP3    H143041   6.923   2.026   1.221
14366TIP3    H243042   6.851   1.988   1.349
14367TIP3   OH243043   7.013   1.683   1.330
14367TIP3    H143044   7.005   1.747   1.401
14367TIP3    H243045   7.061   1.728   1.261
14368TIP3   OH243046   7.054   2.951   0.409
14368TIP3    H143047   7.083   2.886   0.472
14368TIP3    H243048   7.109   2.936   0.332
14369TIP3   OH243049   6.791   2.631   0.549
14369TIP3    H143050   6.794   2.637   0.644
14369TIP3    H243051   6.773   2.539   0.531
14370TIP3   OH243052   6.606   2.156   0.849
14370TIP3    H143053   6.570   2.142   0.762
14370TIP3    H243054   6.701   2.144   0.838
14371TIP3   OH243055   7.391   2.452   0.458
14371TIP3    H143056   7.370   2.403   0.379
14371TIP3    H243057   7.359   2.541   0.440
14372TIP3   OH243058   7.533   2.639   0.793
14372TIP3    H143059   7.599   2.697   0.755
14372TIP3    H243060   7.579   2.592   0.862
14373TIP3   OH243061   7.647   2.496   0.992
14373TIP3    H143062   7.596   2.457   1.063
14373TIP3    H243063   7.724   2.533   1.036
14374TIP3   OH243064   7.587   2.413   0.642
14374TIP3    H143065   7.520   2.411   0.574
14374TIP3    H243066   7.562   2.487   0.698
14375TIP3   OH243067   7.458   2.084   0.596
14375TIP3    H143068   7.414   2.123   0.521
14375TIP3    H243069   7.439   1.991   0.590
14376TIP3   OH243070   7.477   2.338   1.164
14376TIP3    H143071   7.487   2.248   1.134
14376TIP3    H243072   7.430   2.331   1.247
14377TIP3   OH243073   7.403   1.819   0.583
14377TIP3    H143074   7.475   1.788   0.638
14377TIP3    H243075   7.330   1.762   0.605
14378TIP3   OH243076   7.469   2.089   1.032
14378TIP3    H143077   7.497   1.999   1.048
14378TIP3    H243078   7.523   2.118   0.958
14379TIP3   OH243079   7.559   1.835   1.064
14379TIP3    H143080   7.615   1.820   1.140
14379TIP3    H243081   7.499   1.760   1.064
14380TIP3   OH243082   7.651   1.761   0.710
14380TIP3    H143083   7.688   1.692   0.656
14380TIP3    H243084   7.715   1.832   0.705
14381TIP3   OH243085   7.658   1.689   1.479
14381TIP3    H143086   7.698   1.733   1.404
14381TIP3    H243087   7.565   1.685   1.457
14382TIP3   OH243088   7.746   1.805   1.255
14382TIP3    H143089   7.816   1.748   1.222
14382TIP3    H243090   7.781   1.893   1.247
14383TIP3   OH243091   7.396   1.660   1.451
14383TIP3    H143092   7.330   1.662   1.382
14383TIP3    H243093   7.372   1.585   1.506
14384TIP3   OH243094   7.385   1.617   1.068
14384TIP3    H143095   7.303   1.664   1.082
14384TIP3    H243096   7.372   1.532   1.109
14385TIP3   OH243097   6.823   1.725   1.131
14385TIP3    H143098   6.862   1.675   1.204
14385TIP3    H243099   6.812   1.813   1.166
14386TIP3   OH243100   0.349   2.778   0.698
14386TIP3    H143101   0.324   2.869   0.679
14386TIP3    H243102   0.277   2.725   0.664
14387TIP3   OH243103   0.363   2.760   1.069
14387TIP3    H143104   0.386   2.745   1.161
14387TIP3    H243105   0.320   2.680   1.041
14388TIP3   OH243106   0.598   3.080   0.758
14388TIP3    H143107   0.583   3.011   0.822
14388TIP3    H243108   0.634   3.153   0.809
14389TIP3   OH243109   7.832   2.275   0.948
14389TIP3    H143110   7.801   2.363   0.967
14389TIP3    H243111   7.757   2.231   0.907
14390TIP3   OH243112   7.895   2.565   1.090
14390TIP3    H143113   7.944   2.508   1.149
14390TIP3    H243114   7.949   2.644   1.082
14391TIP3   OH243115   0.254   3.520   0.784
14391TIP3    H143116   0.296   3.464   0.717
14391TIP3    H243117   0.279   3.479   0.867
14392TIP3   OH243118   0.187   2.967   1.105
14392TIP3    H143119   0.229   2.892   1.062
14392TIP3    H243120   0.260   3.019   1.139
14393TIP3   OH243121   1.168   2.323   1.125
14393TIP3    H143122   1.193   2.404   1.168
14393TIP3    H243123   1.186   2.338   1.032
14394TIP3   OH243124   0.558   2.503   1.161
14394TIP3    H143125   0.607   2.423   1.180
14394TIP3    H243126   0.531   2.494   1.069
14395TIP3   OH243127   8.402   2.163   1.120
14395TIP3    H143128   8.386   2.236   1.060
14395TIP3    H243129   8.357   2.088   1.079
14396TIP3   OH243130   0.609   2.260   0.737
14396TIP3    H143131   0.675   2.245   0.804
14396TIP3    H243132   0.658   2.294   0.662
14397TIP3   OH243133   8.053   2.379   1.228
14397TIP3    H143134   8.132   2.348   1.271
14397TIP3    H243135   8.051   2.332   1.144
14398TIP3   OH243136   8.477   2.553   1.033
14398TIP3    H143137   8.570   2.534   1.038
14398TIP3    H243138   8.438   2.474   0.995
14399TIP3   OH243139   1.238   2.530   1.301
14399TIP3    H143140   1.157   2.577   1.281
14399TIP3    H243141   1.273   2.573   1.378
14400TIP3   OH243142   8.411   2.140   1.551
14400TIP3    H143143   8.346   2.180   1.492
14400TIP3    H243144   8.367   2.139   1.636
14401TIP3   OH243145   0.240   2.997   0.566
14401TIP3    H143146   0.205   2.979   0.479
14401TIP3    H243147   0.200   3.079   0.592
14402TIP3   OH243148   0.804   2.256   0.925
14402TIP3    H143149   0.799   2.216   1.012
14402TIP3    H243150   0.858   2.334   0.937
14403TIP3   OH243151   8.275   2.258   1.340
14403TIP3    H143152   8.333   2.331   1.363
14403TIP3    H243153   8.318   2.215   1.266
14404TIP3   OH243154   7.723   2.805   0.684
14404TIP3    H143155   7.697   2.831   0.596
14404TIP3    H243156   7.778   2.877   0.715
14405TIP3   OH243157   0.679   3.314   0.910
14405TIP3    H143158   0.595   3.298   0.951
14405TIP3    H243159   0.670   3.400   0.869
14406TIP3   OH243160   0.958   2.219   1.286
14406TIP3    H143161   0.872   2.249   1.256
14406TIP3    H243162   1.019   2.253   1.221
14407TIP3   OH243163   0.255   1.859   1.275
14407TIP3    H143164   0.243   1.765   1.290
14407TIP3    H243165   0.179   1.900   1.317
14408TIP3   OH243166   0.373   3.368   0.589
14408TIP3    H143167   0.417   3.285   0.574
14408TIP3    H243168   0.433   3.434   0.553
14409TIP3   OH243169   0.512   3.149   0.506
14409TIP3    H143170   0.485   3.069   0.462
14409TIP3    H243171   0.548   3.119   0.590
14410TIP3   OH243172   0.890   3.242   1.227
14410TIP3    H143173   0.883   3.152   1.196
14410TIP3    H243174   0.908   3.293   1.148
14411TIP3   OH243175   0.185   2.630   0.527
14411TIP3    H143176   0.107   2.681   0.505
14411TIP3    H243177   0.235   2.627   0.446
14412TIP3   OH243178   0.145   2.419   0.240
14412TIP3    H143179   0.207   2.469   0.291
14412TIP3    H243180   0.198   2.354   0.193
14413TIP3   OH243181   1.093   2.873   1.114
14413TIP3    H143182   1.010   2.919   1.125
14413TIP3    H243183   1.121   2.894   1.025
14414TIP3   OH243184   0.527   2.715   0.500
14414TIP3    H143185   0.475   2.738   0.576
14414TIP3    H243186   0.613   2.692   0.536
14415TIP3   OH243187   0.760   2.725   1.394
14415TIP3    H143188   0.776   2.801   1.451
14415TIP3    H243189   0.684   2.751   1.341
14416TIP3   OH243190   8.271   2.702   0.912
14416TIP3    H143191   8.226   2.649   0.847
14416TIP3    H243192   8.343   2.647   0.943
14417TIP3   OH243193   8.440   3.077   1.092
14417TIP3    H143194   8.392   3.022   1.031
14417TIP3    H243195   8.530   3.045   1.088
14418TIP3   OH243196   8.419   2.691   1.262
14418TIP3    H143197   8.437   2.650   1.178
14418TIP3    H243198   8.503   2.727   1.290
14419TIP3   OH243199   0.437   3.287   1.026
14419TIP3    H143200   0.441   3.348   1.100
14419TIP3    H243201   0.422   3.201   1.067
14420TIP3   OH243202   0.371   2.573   0.325
14420TIP3    H143203   0.430   2.626   0.378
14420TIP3    H243204   0.395   2.592   0.234
14421TIP3   OH243205   0.120   3.245   0.594
14421TIP3    H143206   0.198   3.297   0.613
14421TIP3    H243207   0.054   3.310   0.570
14422TIP3   OH243208   0.890   1.804   0.364
14422TIP3    H143209   0.812   1.822   0.416
14422TIP3    H243210   0.915   1.889   0.328
14423TIP3   OH243211   8.135   2.550   0.714
14423TIP3    H143212   8.068   2.597   0.664
14423TIP3    H243213   8.094   2.467   0.737
14424TIP3   OH243214   3.524   7.185   6.863
14424TIP3    H143215   3.530   7.280   6.848
14424TIP3    H243216   3.613   7.153   6.850
14425TIP3   OH243217   8.505   3.496   0.390
14425TIP3    H143218   8.461   3.465   0.311
14425TIP3    H243219   8.465   3.582   0.407
14426TIP3   OH243220   0.199   3.394   0.044
14426TIP3    H143221   0.255   3.326   0.006
14426TIP3    H243222   0.234   3.407   0.132
14427TIP3   OH243223   0.256   3.440   0.314
14427TIP3    H143224   0.169   3.451   0.353
14427TIP3    H243225   0.307   3.398   0.383
14428TIP3   OH243226   1.040   2.709   1.583
14428TIP3    H143227   0.955   2.742   1.555
14428TIP3    H243228   1.037   2.615   1.564
14429TIP3   OH243229   8.514   1.939   1.392
14429TIP3    H143230   8.427   1.911   1.364
14429TIP3    H243231   8.499   2.021   1.439
14430TIP3   OH243232   0.552   2.066   1.590
14430TIP3    H143233   0.623   2.027   1.641
14430TIP3    H243234   0.472   2.037   1.634
14431TIP3   OH243235   0.782   2.481   1.521
14431TIP3    H143236   0.743   2.497   1.607
14431TIP3    H243237   0.769   2.562   1.473
14432TIP3   OH243238   0.439   2.611   0.063
14432TIP3    H143239   0.411   2.588  -0.025
14432TIP3    H243240   0.524   2.653   0.051
14433TIP3   OH243241   0.158   1.991   0.373
14433TIP3    H143242   0.129   1.992   0.465
14433TIP3    H243243   0.123   1.910   0.337
14434TIP3   OH243244   8.443   2.461   1.415
14434TIP3    H143245   8.446   2.490   1.506
14434TIP3    H243246   8.430   2.541   1.364
14435TIP3   OH243247   8.330   2.342   0.932
14435TIP3    H143248   8.239   2.320   0.952
14435TIP3    H243249   8.345   2.305   0.845
14436TIP3   OH243250   0.324   2.427   0.657
14436TIP3    H143251   0.275   2.498   0.617
14436TIP3    H243252   0.387   2.401   0.590
14437TIP3   OH243253   0.477   2.453   0.897
14437TIP3    H143254   0.420   2.489   0.830
14437TIP3    H243255   0.517   2.376   0.856
14438TIP3   OH243256   8.314   1.965   0.340
14438TIP3    H143257   8.309   1.962   0.436
14438TIP3    H243258   8.238   2.018   0.314
14439TIP3   OH243259   7.871   2.033   1.201
14439TIP3    H143260   7.948   2.052   1.255
14439TIP3    H243261   7.908   1.997   1.120
14440TIP3   OH243262   7.826   1.991   0.726
14440TIP3    H143263   7.873   2.024   0.650
14440TIP3    H243264   7.767   2.062   0.751
14441TIP3   OH243265   0.470   2.700   1.323
14441TIP3    H143266   0.511   2.639   1.262
14441TIP3    H243267   0.447   2.646   1.399
14442TIP3   OH243268   0.162   2.165   0.996
14442TIP3    H143269   0.083   2.163   1.049
14442TIP3    H243270   0.234   2.160   1.059
14443TIP3   OH243271   8.092   2.222   1.005
14443TIP3    H143272   8.001   2.229   0.977
14443TIP3    H243273   8.119   2.134   0.979
14444TIP3   OH243274   8.360   2.217   0.692
14444TIP3    H143275   8.452   2.233   0.673
14444TIP3    H243276   8.314   2.241   0.611
14445TIP3   OH243277   0.650   2.244   1.207
14445TIP3    H143278   0.609   2.258   1.293
14445TIP3    H243279   0.590   2.185   1.161
14446TIP3   OH243280   8.206   2.252   0.465
14446TIP3    H143281   8.135   2.208   0.419
14446TIP3    H243282   8.260   2.290   0.396
14447TIP3   OH243283   0.246   2.492   1.088
14447TIP3    H143284   0.317   2.458   1.034
14447TIP3    H243285   0.256   2.448   1.173
14448TIP3   OH243286   8.261   1.979   0.973
14448TIP3    H143287   8.227   1.903   1.020
14448TIP3    H243288   8.310   1.942   0.899
14449TIP3   OH243289   0.220   2.389   1.377
14449TIP3    H143290   0.132   2.427   1.387
14449TIP3    H243291   0.276   2.446   1.429
14450TIP3   OH243292   8.454   2.778   0.472
14450TIP3    H143293   8.382   2.717   0.461
14450TIP3    H243294   8.447   2.807   0.563
14451TIP3   OH243295   0.857   3.006   1.096
14451TIP3    H143296   0.879   3.056   1.018
14451TIP3    H243297   0.771   2.968   1.077
14452TIP3   OH243298   0.414   2.098   0.339
14452TIP3    H143299   0.320   2.088   0.353
14452TIP3    H243300   0.433   2.188   0.365
14453TIP3   OH243301   0.500   2.343   0.433
14453TIP3    H143302   0.595   2.344   0.446
14453TIP3    H243303   0.481   2.424   0.386
14454TIP3   OH243304   8.133   2.743   1.142
14454TIP3    H143305   8.171   2.757   1.056
14454TIP3    H243306   8.202   2.701   1.193
14455TIP3   OH243307   0.097   2.932   0.296
14455TIP3    H143308   0.052   3.016   0.302
14455TIP3    H243309   0.048   2.874   0.355
14456TIP3   OH243310   1.142   3.241   1.333
14456TIP3    H143311   1.051   3.252   1.305
14456TIP3    H243312   1.191   3.229   1.252
14457TIP3   OH243313   0.623   3.251   0.187
14457TIP3    H143314   0.603   3.183   0.250
14457TIP3    H243315   0.638   3.204   0.105
14458TIP3   OH243316   0.617   2.877   1.023
14458TIP3    H143317   0.524   2.855   1.032
14458TIP3    H243318   0.656   2.801   0.980
14459TIP3   OH243319   8.241   3.059   0.730
14459TIP3    H143320   8.282   3.133   0.773
14459TIP3    H243321   8.152   3.055   0.767
14460TIP3   OH243322   7.812   2.414   0.484
14460TIP3    H143323   7.860   2.494   0.504
14460TIP3    H243324   7.737   2.416   0.542
14461TIP3   OH243325   8.406   2.849   0.726
14461TIP3    H143326   8.357   2.931   0.720
14461TIP3    H243327   8.367   2.803   0.800
14462TIP3   OH243328   0.427   3.070   1.190
14462TIP3    H143329   0.432   3.126   1.268
14462TIP3    H243330   0.509   3.021   1.191
14463TIP3   OH243331   0.382   2.980   0.094
14463TIP3    H143332   0.439   2.958   0.168
14463TIP3    H243333   0.295   2.953   0.123
14464TIP3   OH243334   3.553   7.462   6.845
14464TIP3    H143335   3.595   7.533   6.796
14464TIP3    H243336   3.473   7.501   6.880
14465TIP3   OH243337   0.542   2.913   0.308
14465TIP3    H143338   0.528   2.846   0.375
14465TIP3    H243339   0.637   2.914   0.295
14466TIP3   OH243340   8.242   2.960   0.091
14466TIP3    H143341   8.259   2.870   0.063
14466TIP3    H243342   8.227   2.953   0.185
14467TIP3   OH243343   8.190   2.971   0.364
14467TIP3    H143344   8.256   2.939   0.425
14467TIP3    H243345   8.192   3.066   0.374
14468TIP3   OH243346   7.925   2.656   0.565
14468TIP3    H143347   7.861   2.697   0.623
14468TIP3    H243348   7.944   2.723   0.499
14469TIP3   OH243349   0.568   2.311   1.469
14469TIP3    H143350   0.656   2.342   1.486
14469TIP3    H243351   0.563   2.227   1.513
14470TIP3   OH243352   0.460   2.048   0.622
14470TIP3    H143353   0.448   2.068   0.529
14470TIP3    H243354   0.503   2.126   0.658
14471TIP3   OH243355   8.453   3.161   0.306
14471TIP3    H143356   8.370   3.185   0.346
14471TIP3    H243357   8.475   3.235   0.249
14472TIP3   OH243358   0.143   2.229   0.725
14472TIP3    H143359   0.207   2.296   0.702
14472TIP3    H243360   0.150   2.219   0.820
14473TIP3   OH243361   0.400   2.539   1.533
14473TIP3    H143362   0.436   2.601   1.596
14473TIP3    H243363   0.463   2.467   1.531
14474TIP3   OH243364   0.290   1.952   0.822
14474TIP3    H143365   0.280   2.026   0.882
14474TIP3    H243366   0.350   1.984   0.755
14475TIP3   OH243367   8.200   3.247   0.380
14475TIP3    H143368   8.172   3.308   0.312
14475TIP3    H243369   8.200   3.299   0.460
14476TIP3   OH243370   8.304   1.953   0.616
14476TIP3    H143371   8.297   2.042   0.651
14476TIP3    H243372   8.397   1.932   0.622
14477TIP3   OH243373   1.050   2.437   1.516
14477TIP3    H143374   0.954   2.432   1.517
14477TIP3    H243375   1.075   2.413   1.427
14478TIP3   OH243376   0.706   2.636   0.910
14478TIP3    H143377   0.632   2.575   0.910
14478TIP3    H243378   0.777   2.588   0.951
14479TIP3   OH243379   7.930   2.866   0.369
14479TIP3    H143380   8.000   2.931   0.380
14479TIP3    H243381   7.965   2.806   0.303
14480TIP3   OH243382   7.860   2.143   0.503
14480TIP3    H143383   7.863   2.238   0.500
14480TIP3    H243384   7.780   2.120   0.456
14481TIP3   OH243385   0.682   3.577   0.830
14481TIP3    H143386   0.627   3.635   0.777
14481TIP3    H243387   0.769   3.615   0.824
14482TIP3   OH243388   8.243   1.872   1.371
14482TIP3    H143389   8.218   1.840   1.284
14482TIP3    H243390   8.237   1.794   1.427
14483TIP3   OH243391   8.408   3.159  -0.002
14483TIP3    H143392   8.352   3.093   0.039
14483TIP3    H243393   8.485   3.111  -0.031
14484TIP3   OH243394   3.177   7.206   6.853
14484TIP3    H143395   3.217   7.144   6.914
14484TIP3    H243396   3.235   7.205   6.776
14485TIP3   OH243397   8.059   2.677   0.225
14485TIP3    H143398   8.111   2.646   0.299
14485TIP3    H243399   8.121   2.684   0.152
14486TIP3   OH243400   0.064   2.875   0.029
14486TIP3    H143401   0.069   2.893   0.123
14486TIP3    H243402   0.065   2.780   0.022
14487TIP3   OH243403   0.676   3.089   1.364
14487TIP3    H143404   0.751   3.141   1.335
14487TIP3    H243405   0.615   3.152   1.400
14488TIP3   OH243406   8.255   2.584   0.440
14488TIP3    H143407   8.234   2.549   0.527
14488TIP3    H243408   8.295   2.511   0.394
14489TIP3   OH243409   8.366   2.380   0.282
14489TIP3    H143410   8.339   2.386   0.191
14489TIP3    H243411   8.462   2.385   0.279
14490TIP3   OH243412   3.500   6.715   6.887
14490TIP3    H143413   3.490   6.668   6.805
14490TIP3    H243414   3.473   6.805   6.866
14491TIP3   OH243415   0.100   2.431   1.743
14491TIP3    H143416   0.127   2.339   1.737
14491TIP3    H243417   0.177   2.480   1.716
14492TIP3   OH243418   0.173   2.204   1.587
14492TIP3    H143419   0.201   2.251   1.508
14492TIP3    H243420   0.080   2.187   1.574
14493TIP3   OH243421   0.163   2.762   1.415
14493TIP3    H143422   0.255   2.735   1.412
14493TIP3    H243423   0.166   2.855   1.437
14494TIP3   OH243424   0.812   2.931   1.554
14494TIP3    H143425   0.762   3.001   1.514
14494TIP3    H243426   0.903   2.959   1.547
14495TIP3   OH243427   0.305   1.978   1.670
14495TIP3    H143428   0.261   2.061   1.655
14495TIP3    H243429   0.235   1.913   1.671
14496TIP3   OH243430   0.662   2.443   1.779
14496TIP3    H143431   0.579   2.416   1.819
14496TIP3    H243432   0.721   2.370   1.795
14497TIP3   OH243433   8.179   3.455   0.195
14497TIP3    H143434   8.270   3.436   0.174
14497TIP3    H243435   8.143   3.494   0.116
14498TIP3   OH243436   7.666   2.816   0.409
14498TIP3    H143437   7.756   2.839   0.389
14498TIP3    H243438   7.652   2.732   0.365
14499TIP3   OH243439   0.913   3.724   0.811
14499TIP3    H143440   0.975   3.757   0.876
14499TIP3    H243441   0.964   3.715   0.731
14500TIP3   OH243442   0.818   2.903   0.288
14500TIP3    H143443   0.887   2.959   0.252
14500TIP3    H243444   0.860   2.859   0.362
14501TIP3   OH243445   0.951   2.769   0.483
14501TIP3    H143446   0.882   2.729   0.536
14501TIP3    H243447   1.016   2.798   0.547
14502TIP3   OH243448   1.001   3.154   0.911
14502TIP3    H143449   1.052   3.087   0.866
14502TIP3    H243450   0.989   3.222   0.846
14503TIP3   OH243451   0.895   3.442   1.029
14503TIP3    H143452   0.862   3.532   1.030
14503TIP3    H243453   0.828   3.394   0.979
14504TIP3   OH243454   0.892   2.701   0.107
14504TIP3    H143455   0.814   2.688   0.054
14504TIP3    H243456   0.862   2.751   0.183
14505TIP3   OH243457   0.761   2.336   0.049
14505TIP3    H143458   0.705   2.381  -0.014
14505TIP3    H243459   0.729   2.246   0.051
14506TIP3   OH243460   0.759   2.647   0.630
14506TIP3    H143461   0.775   2.559   0.597
14506TIP3    H243462   0.751   2.636   0.725
14507TIP3   OH243463   1.050   3.005   1.443
14507TIP3    H143464   1.127   2.964   1.484
14507TIP3    H243465   1.081   3.091   1.416
14508TIP3   OH243466   1.261   2.854   1.537
14508TIP3    H143467   1.179   2.815   1.568
14508TIP3    H243468   1.321   2.781   1.528
14509TIP3   OH243469   0.706   2.061   0.064
14509TIP3    H143470   0.765   2.053   0.139
14509TIP3    H243471   0.622   2.027   0.095
14510TIP3   OH243472   0.922   2.507   1.024
14510TIP3    H143473   1.003   2.528   0.977
14510TIP3    H243474   0.935   2.545   1.111
14511TIP3   OH243475   0.993   2.653   1.252
14511TIP3    H143476   0.914   2.682   1.298
14511TIP3    H243477   1.026   2.732   1.210
14512TIP3   OH243478   0.908   2.025   0.549
14512TIP3    H143479   0.915   2.075   0.630
14512TIP3    H243480   0.819   1.990   0.551
14513TIP3   OH243481   8.065   2.083   1.398
14513TIP3    H143482   8.115   2.001   1.401
14513TIP3    H243483   8.129   2.150   1.378
14514TIP3   OH243484   7.885   2.371   1.447
14514TIP3    H143485   7.864   2.289   1.402
14514TIP3    H243486   7.953   2.411   1.394
14515TIP3   OH243487   1.293   2.384   1.628
14515TIP3    H143488   1.204   2.413   1.609
14515TIP3    H243489   1.302   2.302   1.578
14516TIP3   OH243490   0.982   2.012   0.178
14516TIP3    H143491   0.981   2.028   0.084
14516TIP3    H243492   1.006   2.096   0.217
14517TIP3   OH243493   7.850   1.856   0.960
14517TIP3    H143494   7.757   1.846   0.980
14517TIP3    H243495   7.851   1.910   0.880
14518TIP3   OH243496   0.525   3.552   0.462
14518TIP3    H143497   0.563   3.533   0.376
14518TIP3    H243498   0.581   3.620   0.499
14519TIP3   OH243499   1.209   2.144   1.484
14519TIP3    H143500   1.120   2.143   1.448
14519TIP3    H243501   1.240   2.054   1.473
14520TIP3   OH243502   0.412   2.059   1.113
14520TIP3    H143503   0.373   1.988   1.163
14520TIP3    H243504   0.487   2.019   1.068
14521TIP3   OH243505   0.931   1.940   1.019
14521TIP3    H143506   0.975   1.988   0.949
14521TIP3    H243507   0.839   1.964   1.011
14522TIP3   OH243508   1.051   2.037   0.797
14522TIP3    H143509   1.106   1.994   0.732
14522TIP3    H243510   1.067   2.130   0.784
14523TIP3   OH243511   8.162   1.768   1.127
14523TIP3    H143512   8.071   1.738   1.128
14523TIP3    H243513   8.214   1.688   1.124
14524TIP3   OH243514   7.952   1.643   0.778
14524TIP3    H143515   7.982   1.696   0.704
14524TIP3    H243516   7.925   1.707   0.844
14525TIP3   OH243517   0.109   1.805   1.009
14525TIP3    H143518   0.164   1.850   0.945
14525TIP3    H243519   0.139   1.838   1.094
14526TIP3   OH243520   0.646   1.950   0.996
14526TIP3    H143521   0.648   1.918   0.906
14526TIP3    H243522   0.638   1.871   1.049
14527TIP3   OH243523   0.675   1.865   0.550
14527TIP3    H143524   0.595   1.915   0.566
14527TIP3    H243525   0.662   1.782   0.596
14528TIP3   OH243526   8.071   1.799   0.539
14528TIP3    H143527   8.116   1.736   0.482
14528TIP3    H243528   8.142   1.853   0.574
14529TIP3   OH243529   0.080   1.978   0.639
14529TIP3    H143530   0.139   1.928   0.696
14529TIP3    H243531   0.097   2.069   0.660
14530TIP3   OH243532   8.441   3.394   0.133
14530TIP3    H143533   8.528   3.419   0.101
14530TIP3    H243534   8.415   3.320   0.078
14531TIP3   OH243535   0.658   3.516   0.226
14531TIP3    H143536   0.650   3.421   0.217
14531TIP3    H243537   0.615   3.551   0.148
14532TIP3   OH243538   7.749   3.228   0.185
14532TIP3    H143539   7.740   3.247   0.278
14532TIP3    H243540   7.836   3.190   0.177
14533TIP3   OH243541   2.147   3.035   0.181
14533TIP3    H143542   2.121   3.126   0.162
14533TIP3    H243543   2.074   2.982   0.147
14534TIP3   OH243544   2.125   3.026   0.573
14534TIP3    H143545   2.168   3.003   0.655
14534TIP3    H243546   2.089   2.944   0.540
14535TIP3   OH243547   1.448   2.929   0.932
14535TIP3    H143548   1.474   2.859   0.991
14535TIP3    H243549   1.525   2.985   0.924
14536TIP3   OH243550   2.396   3.327   0.255
14536TIP3    H143551   2.383   3.251   0.312
14536TIP3    H243552   2.402   3.401   0.316
14537TIP3   OH243553   1.417   3.338   0.655
14537TIP3    H143554   1.405   3.243   0.650
14537TIP3    H243555   1.511   3.349   0.672
14538TIP3   OH243556   1.100   2.522   0.438
14538TIP3    H143557   1.062   2.610   0.431
14538TIP3    H243558   1.026   2.467   0.464
14539TIP3   OH243559   1.188   2.830   0.618
14539TIP3    H143560   1.234   2.753   0.651
14539TIP3    H243561   1.240   2.859   0.544
14540TIP3   OH243562   2.025   3.791   0.262
14540TIP3    H143563   2.063   3.721   0.209
14540TIP3    H243564   2.066   3.782   0.348
14541TIP3   OH243565   1.946   3.260   0.606
14541TIP3    H143566   1.978   3.178   0.569
14541TIP3    H243567   2.025   3.311   0.626
14542TIP3   OH243568   2.900   2.553   0.557
14542TIP3    H143569   2.971   2.577   0.617
14542TIP3    H243570   2.936   2.570   0.470
14543TIP3   OH243571   2.357   2.760   0.642
14543TIP3    H143572   2.406   2.681   0.664
14543TIP3    H243573   2.327   2.746   0.552
14544TIP3   OH243574   1.700   2.422   0.607
14544TIP3    H143575   1.682   2.496   0.549
14544TIP3    H243576   1.653   2.348   0.567
14545TIP3   OH243577   2.398   2.513   0.233
14545TIP3    H143578   2.466   2.500   0.299
14545TIP3    H243579   2.445   2.549   0.157
14546TIP3   OH243580   1.334   2.619   0.718
14546TIP3    H143581   1.415   2.603   0.766
14546TIP3    H243582   1.342   2.568   0.638
14547TIP3   OH243583   1.773   2.818   0.510
14547TIP3    H143584   1.865   2.795   0.524
14547TIP3    H243585   1.732   2.737   0.479
14548TIP3   OH243586   1.693   2.406   1.046
14548TIP3    H143587   1.639   2.443   0.976
14548TIP3    H243588   1.643   2.423   1.126
14549TIP3   OH243589   2.037   3.257   0.052
14549TIP3    H143590   2.002   3.238  -0.035
14549TIP3    H243591   1.993   3.338   0.078
14550TIP3   OH243592   1.801   3.181   0.836
14550TIP3    H143593   1.738   3.242   0.876
14550TIP3    H243594   1.842   3.231   0.765
14551TIP3   OH243595   2.603   2.516   0.410
14551TIP3    H143596   2.589   2.472   0.494
14551TIP3    H243597   2.665   2.587   0.431
14552TIP3   OH243598   1.571   2.520   0.827
14552TIP3    H143599   1.626   2.594   0.853
14552TIP3    H243600   1.617   2.480   0.753
14553TIP3   OH243601   1.610   3.361   0.919
14553TIP3    H143602   1.623   3.456   0.916
14553TIP3    H243603   1.542   3.349   0.986
14554TIP3   OH243604   1.022   3.066   0.172
14554TIP3    H143605   0.982   3.089   0.088
14554TIP3    H243606   1.055   3.149   0.207
14555TIP3   OH243607   2.729   2.460   0.758
14555TIP3    H143608   2.642   2.490   0.733
14555TIP3    H243609   2.787   2.494   0.690
14556TIP3   OH243610   2.048   2.120   0.762
14556TIP3    H143611   2.035   2.027   0.777
14556TIP3    H243612   1.974   2.162   0.806
14557TIP3   OH243613   2.161   3.621   0.089
14557TIP3    H143614   2.207   3.539   0.072
14557TIP3    H243615   2.215   3.688   0.046
14558TIP3   OH243616   2.308   3.409   0.004
14558TIP3    H143617   2.272   3.334  -0.044
14558TIP3    H243618   2.342   3.371   0.085
14559TIP3   OH243619   4.812   6.894   6.954
14559TIP3    H143620   4.733   6.945   6.935
14559TIP3    H243621   4.859   6.891   6.871
14560TIP3   OH243622   4.775   6.679   6.670
14560TIP3    H143623   4.839   6.732   6.718
14560TIP3    H243624   4.829   6.616   6.622
14561TIP3   OH243625   2.329   2.970  -0.012
14561TIP3    H143626   2.274   2.994   0.062
14561TIP3    H243627   2.413   2.944   0.026
14562TIP3   OH243628   1.560   2.963   0.403
14562TIP3    H143629   1.520   2.908   0.336
14562TIP3    H243630   1.636   2.913   0.433
14563TIP3   OH243631   1.698   3.394   0.549
14563TIP3    H143632   1.666   3.355   0.468
14563TIP3    H243633   1.781   3.350   0.567
14564TIP3   OH243634   1.697   2.938   0.756
14564TIP3    H143635   1.729   2.915   0.669
14564TIP3    H243636   1.739   3.022   0.776
14565TIP3   OH243637   5.003   6.836   6.752
14565TIP3    H143638   5.059   6.893   6.804
14565TIP3    H243639   5.026   6.855   6.661
14566TIP3   OH243640   1.586   3.046   1.185
14566TIP3    H143641   1.589   3.135   1.220
14566TIP3    H243642   1.494   3.020   1.193
14567TIP3   OH243643   1.909   3.503   0.089
14567TIP3    H143644   1.988   3.554   0.104
14567TIP3    H243645   1.849   3.562   0.045
14568TIP3   OH243646   5.517   6.075   6.803
14568TIP3    H143647   5.437   6.094   6.852
14568TIP3    H243648   5.533   6.154   6.751
14569TIP3   OH243649   1.426   2.808   0.207
14569TIP3    H143650   1.362   2.855   0.152
14569TIP3    H243651   1.386   2.722   0.221
14570TIP3   OH243652   5.319   7.443   6.351
14570TIP3    H143653   5.324   7.537   6.336
14570TIP3    H243654   5.408   7.411   6.337
14571TIP3   OH243655   1.230   3.183   1.082
14571TIP3    H143656   1.157   3.164   1.023
14571TIP3    H243657   1.264   3.097   1.107
14572TIP3   OH243658   1.059   3.390   0.741
14572TIP3    H143659   1.153   3.376   0.734
14572TIP3    H243660   1.048   3.442   0.821
14573TIP3   OH243661   4.624   7.756   6.831
14573TIP3    H143662   4.583   7.738   6.747
14573TIP3    H243663   4.596   7.845   6.853
14574TIP3   OH243664   1.230   3.596   0.275
14574TIP3    H143665   1.276   3.591   0.359
14574TIP3    H243666   1.182   3.514   0.269
14575TIP3   OH243667   4.830   7.659   6.470
14575TIP3    H143668   4.885   7.590   6.433
14575TIP3    H243669   4.860   7.668   6.560
14576TIP3   OH243670   4.877   7.709   6.738
14576TIP3    H143671   4.792   7.717   6.782
14576TIP3    H243672   4.934   7.673   6.806
14577TIP3   OH243673   1.412   3.383   1.105
14577TIP3    H143674   1.456   3.365   1.189
14577TIP3    H243675   1.344   3.316   1.098
14578TIP3   OH243676   1.810   2.200   0.891
14578TIP3    H143677   1.724   2.168   0.863
14578TIP3    H243678   1.791   2.283   0.936
14579TIP3   OH243679   2.340   2.313   1.088
14579TIP3    H143680   2.403   2.283   1.154
14579TIP3    H243681   2.254   2.298   1.128
14580TIP3   OH243682   5.081   6.877   6.496
14580TIP3    H143683   5.042   6.855   6.411
14580TIP3    H243684   5.162   6.923   6.474
14581TIP3   OH243685   4.788   6.252   6.802
14581TIP3    H143686   4.757   6.253   6.892
14581TIP3    H243687   4.751   6.172   6.764
14582TIP3   OH243688   1.741   2.717   0.905
14582TIP3    H143689   1.699   2.738   0.988
14582TIP3    H243690   1.728   2.796   0.851
14583TIP3   OH243691   1.623   2.598   0.420
14583TIP3    H143692   1.531   2.578   0.438
14583TIP3    H243693   1.639   2.561   0.333
14584TIP3   OH243694   2.117   2.687   0.147
14584TIP3    H143695   2.066   2.757   0.107
14584TIP3    H243696   2.172   2.654   0.076
14585TIP3   OH243697   2.267   2.709   0.385
14585TIP3    H143698   2.209   2.742   0.317
14585TIP3    H243699   2.308   2.632   0.346
14586TIP3   OH243700   1.560   2.743   1.115
14586TIP3    H143701   1.599   2.808   1.174
14586TIP3    H243702   1.551   2.664   1.169
14587TIP3   OH243703   4.442   6.226   6.768
14587TIP3    H143704   4.435   6.227   6.863
14587TIP3    H243705   4.370   6.280   6.737
14588TIP3   OH243706   1.154   2.264   0.713
14588TIP3    H143707   1.235   2.299   0.751
14588TIP3    H243708   1.176   2.248   0.621
14589TIP3   OH243709   1.103   2.258   0.222
14589TIP3    H143710   1.146   2.294   0.144
14589TIP3    H243711   1.050   2.330   0.256
14590TIP3   OH243712   2.256   2.952   0.808
14590TIP3    H143713   2.304   2.892   0.751
14590TIP3    H243714   2.232   2.899   0.884
14591TIP3   OH243715   1.957   2.417   0.483
14591TIP3    H143716   1.876   2.420   0.534
14591TIP3    H243717   2.027   2.422   0.548
14592TIP3   OH243718   1.376   2.482   0.484
14592TIP3    H143719   1.284   2.485   0.458
14592TIP3    H243720   1.403   2.392   0.464
14593TIP3   OH243721   1.656   2.474   0.178
14593TIP3    H143722   1.748   2.491   0.159
14593TIP3    H243723   1.610   2.497   0.098
14594TIP3   OH243724   2.444   2.497   0.685
14594TIP3    H143725   2.414   2.514   0.774
14594TIP3    H243726   2.376   2.441   0.647
14595TIP3   OH243727   4.338   6.515   6.893
14595TIP3    H143728   4.267   6.471   6.848
14595TIP3    H243729   4.391   6.554   6.823
14596TIP3   OH243730   1.553   3.293   1.333
14596TIP3    H143731   1.642   3.314   1.362
14596TIP3    H243732   1.517   3.238   1.403
14597TIP3   OH243733   2.039   2.748   0.576
14597TIP3    H143734   2.113   2.714   0.527
14597TIP3    H243735   2.046   2.707   0.662
14598TIP3   OH243736   1.559   2.239   0.461
14598TIP3    H143737   1.524   2.164   0.508
14598TIP3    H243738   1.603   2.202   0.384
14599TIP3   OH243739   2.009   2.644   0.868
14599TIP3    H143740   1.921   2.682   0.881
14599TIP3    H243741   2.067   2.703   0.916
14600TIP3   OH243742   4.581   7.045   6.905
14600TIP3    H143743   4.512   6.980   6.891
14600TIP3    H243744   4.565   7.080   6.993
14601TIP3   OH243745   5.041   6.355   6.774
14601TIP3    H143746   4.947   6.339   6.779
14601TIP3    H243747   5.050   6.449   6.793
14602TIP3   OH243748   5.111   6.607   6.871
14602TIP3    H143749   5.206   6.613   6.886
14602TIP3    H243750   5.091   6.685   6.820
14603TIP3   OH243751   1.445   3.064   0.638
14603TIP3    H143752   1.481   3.035   0.554
14603TIP3    H243753   1.484   3.005   0.702
14604TIP3   OH243754   4.730   7.196   6.731
14604TIP3    H143755   4.685   7.280   6.734
14604TIP3    H243756   4.678   7.139   6.787
14605TIP3   OH243757   1.325   2.973   1.250
14605TIP3    H143758   1.324   2.971   1.345
14605TIP3    H243759   1.248   2.923   1.224
14606TIP3   OH243760   5.550   6.700   6.701
14606TIP3    H143761   5.491   6.652   6.644
14606TIP3    H243762   5.550   6.789   6.666
14607TIP3   OH243763   5.256   7.525   6.613
14607TIP3    H143764   5.231   7.458   6.676
14607TIP3    H243765   5.268   7.478   6.531
14608TIP3   OH243766   2.357   3.162   0.482
14608TIP3    H143767   2.282   3.104   0.487
14608TIP3    H243768   2.433   3.104   0.476
14609TIP3   OH243769   1.544   3.369   0.270
14609TIP3    H143770   1.548   3.448   0.215
14609TIP3    H243771   1.452   3.346   0.273
14610TIP3   OH243772   3.954   6.679   6.908
14610TIP3    H143773   3.999   6.760   6.928
14610TIP3    H243774   3.873   6.683   6.960
14611TIP3   OH243775   1.676   3.131   0.209
14611TIP3    H143776   1.647   3.221   0.228
14611TIP3    H243777   1.643   3.080   0.283
14612TIP3   OH243778   1.461   3.607   0.118
14612TIP3    H143779   1.377   3.613   0.163
14612TIP3    H243780   1.495   3.697   0.119
14613TIP3   OH243781   2.210   3.320   0.690
14613TIP3    H143782   2.210   3.256   0.761
14613TIP3    H243783   2.266   3.281   0.623
14614TIP3   OH243784   5.012   7.245   6.519
14614TIP3    H143785   5.065   7.222   6.595
14614TIP3    H243786   4.923   7.216   6.542
14615TIP3   OH243787   5.345   7.720   6.331
14615TIP3    H143788   5.386   7.791   6.282
14615TIP3    H243789   5.263   7.756   6.363
14616TIP3   OH243790   1.534   2.483   1.263
14616TIP3    H143791   1.439   2.489   1.272
14616TIP3    H243792   1.562   2.423   1.332
14617TIP3   OH243793   5.173   7.178   6.735
14617TIP3    H143794   5.160   7.111   6.803
14617TIP3    H243795   5.267   7.177   6.718
14618TIP3   OH243796   1.282   3.584   0.918
14618TIP3    H143797   1.292   3.490   0.907
14618TIP3    H243798   1.346   3.607   0.986
14619TIP3   OH243799   4.373   7.224   6.519
14619TIP3    H143800   4.387   7.136   6.485
14619TIP3    H243801   4.353   7.212   6.612
14620TIP3   OH243802   4.318   7.230   6.793
14620TIP3    H143803   4.394   7.201   6.843
14620TIP3    H243804   4.322   7.326   6.797
14621TIP3   OH243805   1.223   2.918   0.052
14621TIP3    H143806   1.155   2.955   0.108
14621TIP3    H243807   1.237   2.984  -0.016
14622TIP3   OH243808   2.381   2.548   0.946
14622TIP3    H143809   2.463   2.576   0.988
14622TIP3    H243810   2.356   2.469   0.993
14623TIP3   OH243811   2.256   2.301   0.111
14623TIP3    H143812   2.241   2.321   0.019
14623TIP3    H243813   2.295   2.381   0.147
14624TIP3   OH243814   4.585   7.424   6.740
14624TIP3    H143815   4.502   7.454   6.775
14624TIP3    H243816   4.601   7.479   6.664
14625TIP3   OH243817   1.941   2.484   0.212
14625TIP3    H143818   2.003   2.554   0.191
14625TIP3    H243819   1.946   2.475   0.307
14626TIP3   OH243820   2.195   2.786   1.019
14626TIP3    H143821   2.182   2.807   1.111
14626TIP3    H243822   2.269   2.725   1.018
14627TIP3   OH243823   2.085   2.207   0.310
14627TIP3    H143824   2.072   2.281   0.369
14627TIP3    H243825   2.146   2.239   0.244
14628TIP3   OH243826   4.330   7.504   6.805
14628TIP3    H143827   4.303   7.572   6.743
14628TIP3    H243828   4.316   7.544   6.891
14629TIP3   OH243829   1.598   2.209   0.105
14629TIP3    H143830   1.592   2.299   0.138
14629TIP3    H243831   1.692   2.189   0.109
14630TIP3   OH243832   2.494   2.896   0.376
14630TIP3    H143833   2.421   2.839   0.397
14630TIP3    H243834   2.567   2.862   0.428
14631TIP3   OH243835   4.053   7.129   6.794
14631TIP3    H143836   4.122   7.193   6.807
14631TIP3    H243837   4.088   7.068   6.729
14632TIP3   OH243838   3.986   6.406   6.933
14632TIP3    H143839   3.999   6.500   6.929
14632TIP3    H243840   3.896   6.393   6.903
14633TIP3   OH243841   1.550   2.117   0.861
14633TIP3    H143842   1.518   2.090   0.775
14633TIP3    H243843   1.537   2.041   0.918
14634TIP3   OH243844   1.085   3.346   0.241
14634TIP3    H143845   1.017   3.369   0.305
14634TIP3    H243846   1.054   3.383   0.159
14635TIP3   OH243847   4.543   7.426   6.436
14635TIP3    H143848   4.485   7.357   6.466
14635TIP3    H243849   4.612   7.380   6.388
14636TIP3   OH243850   4.977   7.466   6.341
14636TIP3    H143851   5.016   7.402   6.400
14636TIP3    H243852   5.032   7.463   6.262
14637TIP3   OH243853   4.186   6.941   6.650
14637TIP3    H143854   4.238   6.910   6.724
14637TIP3    H243855   4.248   6.947   6.577
14638TIP3   OH243856   4.699   7.140   6.461
14638TIP3    H143857   4.700   7.156   6.555
14638TIP3    H243858   4.699   7.045   6.452
14639TIP3   OH243859   1.536   3.045   1.509
14639TIP3    H143860   1.587   2.973   1.473
14639TIP3    H243861   1.492   3.007   1.586
14640TIP3   OH243862   4.390   6.847   6.869
14640TIP3    H143863   4.363   6.808   6.952
14640TIP3    H243864   4.427   6.774   6.819
14641TIP3   OH243865   1.820   2.894   1.149
14641TIP3    H143866   1.751   2.960   1.159
14641TIP3    H243867   1.883   2.933   1.089
14642TIP3   OH243868   4.496   6.643   6.709
14642TIP3    H143869   4.467   6.649   6.618
14642TIP3    H243870   4.591   6.648   6.704
14643TIP3   OH243871   5.312   6.973   6.374
14643TIP3    H143872   5.294   6.925   6.294
14643TIP3    H243873   5.282   7.062   6.357
14644TIP3   OH243874   1.937   2.689   1.286
14644TIP3    H143875   1.943   2.613   1.229
14644TIP3    H243876   1.897   2.757   1.232
14645TIP3   OH243877   1.952   2.478   1.090
14645TIP3    H143878   1.982   2.522   1.010
14645TIP3    H243879   1.861   2.457   1.073
14646TIP3   OH243880   1.975   3.009   0.961
14646TIP3    H143881   2.057   3.014   0.910
14646TIP3    H243882   1.919   3.076   0.922
14647TIP3   OH243883   1.809   2.815   1.502
14647TIP3    H143884   1.752   2.742   1.526
14647TIP3    H243885   1.859   2.782   1.427
14648TIP3   OH243886   2.084   2.249   1.176
14648TIP3    H143887   2.039   2.329   1.148
14648TIP3    H243888   2.022   2.179   1.159
14649TIP3   OH243889   2.207   2.749   1.302
14649TIP3    H143890   2.235   2.762   1.392
14649TIP3    H243891   2.115   2.724   1.309
14650TIP3   OH243892   1.666   2.582   1.564
14650TIP3    H143893   1.669   2.498   1.519
14650TIP3    H243894   1.705   2.565   1.650
14651TIP3   OH243895   2.171   2.240   1.444
14651TIP3    H143896   2.243   2.178   1.431
14651TIP3    H243897   2.136   2.254   1.356
14652TIP3   OH243898   4.304   7.707   6.615
14652TIP3    H143899   4.398   7.698   6.601
14652TIP3    H243900   4.272   7.748   6.535
14653TIP3   OH243901   3.782   7.086   6.829
14653TIP3    H143902   3.874   7.109   6.818
14653TIP3    H243903   3.774   6.998   6.792
14654TIP3   OH243904   0.859   3.688   0.310
14654TIP3    H143905   0.795   3.630   0.269
14654TIP3    H243906   0.904   3.633   0.374
14655TIP3   OH243907   0.993   3.539   0.501
14655TIP3    H143908   0.984   3.464   0.559
14655TIP3    H243909   1.054   3.598   0.545
14656TIP3   OH243910   5.451   7.159   6.710
14656TIP3    H143911   5.515   7.222   6.676
14656TIP3    H243912   5.494   7.121   6.787
14657TIP3   OH243913   2.745   3.022  -0.025
14657TIP3    H143914   2.678   2.978   0.028
14657TIP3    H243915   2.806   3.058   0.039
14658TIP3   OH243916   5.512   6.936   6.558
14658TIP3    H143917   5.444   6.934   6.491
14658TIP3    H243918   5.489   7.010   6.614
14659TIP3   OH243919   5.386   6.604   6.510
14659TIP3    H143920   5.341   6.645   6.435
14659TIP3    H243921   5.364   6.512   6.503
14660TIP3   OH243922   2.557   2.875   0.113
14660TIP3    H143923   2.566   2.780   0.107
14660TIP3    H243924   2.540   2.892   0.206
14661TIP3   OH243925   1.184   2.950   0.864
14661TIP3    H143926   1.177   2.916   0.775
14661TIP3    H243927   1.278   2.952   0.882
14662TIP3   OH243928   5.329   6.340   6.498
14662TIP3    H143929   5.400   6.308   6.553
14662TIP3    H243930   5.255   6.283   6.518
14663TIP3   OH243931   5.389   6.598   6.949
14663TIP3    H143932   5.428   6.512   6.966
14663TIP3    H243933   5.444   6.636   6.880
14664TIP3   OH243934   2.711   2.789   0.506
14664TIP3    H143935   2.796   2.801   0.465
14664TIP3    H243936   2.723   2.819   0.596
14665TIP3   OH243937   1.395   2.619   1.524
14665TIP3    H143938   1.490   2.621   1.532
14665TIP3    H243939   1.368   2.543   1.576
14666TIP3   OH243940   2.664   2.341   0.051
14666TIP3    H143941   2.711   2.327   0.133
14666TIP3    H243942   2.602   2.268   0.046
14667TIP3   OH243943   1.371   2.329   0.876
14667TIP3    H143944   1.431   2.255   0.883
14667TIP3    H243945   1.428   2.405   0.866
14668TIP3   OH243946   1.166   2.600   0.944
14668TIP3    H143947   1.212   2.593   0.860
14668TIP3    H243948   1.192   2.686   0.978
14669TIP3   OH243949   5.577   6.281   6.625
14669TIP3    H143950   5.614   6.212   6.570
14669TIP3    H243951   5.640   6.353   6.620
14670TIP3   OH243952   1.153   2.128   0.461
14670TIP3    H143953   1.064   2.102   0.485
14670TIP3    H243954   1.142   2.175   0.378
14671TIP3   OH243955   5.148   7.787   6.875
14671TIP3    H143956   5.191   7.798   6.790
14671TIP3    H243957   5.093   7.864   6.885
14672TIP3   OH243958   1.367   2.182   1.255
14672TIP3    H143959   1.320   2.181   1.338
14672TIP3    H243960   1.307   2.223   1.193
14673TIP3   OH243961   1.611   3.633   0.871
14673TIP3    H143962   1.549   3.704   0.860
14673TIP3    H243963   1.627   3.600   0.783
14674TIP3   OH243964   3.018   2.385   0.948
14674TIP3    H143965   2.925   2.404   0.935
14674TIP3    H243966   3.028   2.294   0.921
14675TIP3   OH243967   1.503   3.830   0.712
14675TIP3    H143968   1.472   3.873   0.792
14675TIP3    H243969   1.490   3.895   0.644
14676TIP3   OH243970   1.174   3.687   0.656
14676TIP3    H143971   1.205   3.677   0.746
14676TIP3    H243972   1.244   3.650   0.603
14677TIP3   OH243973   1.367   3.566   0.509
14677TIP3    H143974   1.383   3.482   0.553
14677TIP3    H243975   1.454   3.600   0.490
14678TIP3   OH243976   1.628   3.664   0.491
14678TIP3    H143977   1.670   3.579   0.503
14678TIP3    H243978   1.623   3.701   0.579
14679TIP3   OH243979   2.214   2.317   0.603
14679TIP3    H143980   2.170   2.247   0.650
14679TIP3    H243981   2.285   2.274   0.556
14680TIP3   OH243982   2.729   2.194   0.497
14680TIP3    H143983   2.769   2.248   0.430
14680TIP3    H243984   2.637   2.220   0.498
14681TIP3   OH243985   2.831   2.298   0.266
14681TIP3    H143986   2.901   2.246   0.227
14681TIP3    H243987   2.859   2.389   0.252
14682TIP3   OH243988   1.463   2.025   0.614
14682TIP3    H143989   1.370   2.001   0.612
14682TIP3    H243990   1.509   1.941   0.610
14683TIP3   OH243991   1.907   2.057   0.497
14683TIP3    H143992   1.959   2.103   0.431
14683TIP3    H243993   1.929   2.100   0.580
14684TIP3   OH243994   2.444   2.205   0.480
14684TIP3    H143995   2.448   2.171   0.391
14684TIP3    H243996   2.435   2.126   0.535
14685TIP3   OH243997   2.478   2.130   0.043
14685TIP3    H143998   2.395   2.176   0.056
14685TIP3    H243999   2.465   2.045   0.085
14686TIP3   OH244000   0.960   3.471   0.038
14686TIP3    H144001   0.877   3.435   0.006
14686TIP3    H244002   0.954   3.565   0.018
14687TIP3   OH244003   1.363   2.039   0.013
14687TIP3    H144004   1.423   1.985  -0.037
14687TIP3    H244005   1.419   2.103   0.057
14688TIP3   OH244006   1.876   2.233   0.127
14688TIP3    H144007   1.936   2.186   0.184
14688TIP3    H244008   1.891   2.326   0.147
14689TIP3   OH244009   4.570   7.667   6.560
14689TIP3    H144010   4.657   7.691   6.529
14689TIP3    H244011   4.546   7.590   6.508
14690TIP3   OH244012   5.294   7.798   6.645
14690TIP3    H144013   5.295   7.702   6.642
14690TIP3    H244014   5.252   7.823   6.563
14691TIP3   OH244015   1.660   2.305   1.503
14691TIP3    H144016   1.619   2.239   1.558
14691TIP3    H244017   1.753   2.301   1.525
14692TIP3   OH244018   1.919   2.284   1.596
14692TIP3    H144019   1.997   2.288   1.541
14692TIP3    H244020   1.949   2.243   1.678
14693TIP3   OH244021   3.877   7.505   6.620
14693TIP3    H144022   3.876   7.515   6.715
14693TIP3    H244023   3.959   7.460   6.600
14694TIP3   OH244024   5.746   6.807   6.865
14694TIP3    H144025   5.700   6.890   6.883
14694TIP3    H244026   5.681   6.753   6.821
14695TIP3   OH244027   2.980   3.087   0.105
14695TIP3    H144028   3.032   3.025   0.156
14695TIP3    H244029   3.026   3.094   0.022
14696TIP3   OH244030   3.447   2.705   0.130
14696TIP3    H144031   3.461   2.766   0.058
14696TIP3    H244032   3.421   2.623   0.087
14697TIP3   OH244033   3.142   2.880   0.204
14697TIP3    H144034   3.235   2.863   0.221
14697TIP3    H244035   3.121   2.824   0.130
14698TIP3   OH244036   5.647   7.322   6.596
14698TIP3    H144037   5.604   7.346   6.514
14698TIP3    H244038   5.677   7.405   6.633
14699TIP3   OH244039   6.580   6.940   6.161
14699TIP3    H144040   6.650   6.990   6.202
14699TIP3    H244041   6.624   6.874   6.108
14700TIP3   OH244042   6.054   7.069   6.620
14700TIP3    H144043   5.985   7.115   6.573
14700TIP3    H244044   6.018   6.983   6.639
14701TIP3   OH244045   6.875   7.151   5.930
14701TIP3    H144046   6.831   7.112   5.855
14701TIP3    H244047   6.967   7.130   5.917
14702TIP3   OH244048   6.588   6.508   6.286
14702TIP3    H144049   6.560   6.508   6.377
14702TIP3    H244050   6.550   6.428   6.249
14703TIP3   OH244051   6.239   6.857   6.835
14703TIP3    H144052   6.152   6.829   6.866
14703TIP3    H244053   6.250   6.813   6.751
14704TIP3   OH244054   6.244   6.489   6.253
14704TIP3    H144055   6.236   6.483   6.349
14704TIP3    H244056   6.167   6.537   6.225
14705TIP3   OH244057   2.947   2.521   0.178
14705TIP3    H144058   3.020   2.558   0.229
14705TIP3    H244059   2.988   2.489   0.098
14706TIP3   OH244060   5.752   6.513   6.640
14706TIP3    H144061   5.798   6.546   6.563
14706TIP3    H244062   5.690   6.582   6.664
14707TIP3   OH244063   6.007   6.738   6.915
14707TIP3    H144064   5.916   6.740   6.886
14707TIP3    H244065   6.035   6.648   6.896
14708TIP3   OH244066   6.284   6.729   6.601
14708TIP3    H144067   6.377   6.749   6.587
14708TIP3    H244068   6.241   6.758   6.520
14709TIP3   OH244069   6.130   6.778   6.379
14709TIP3    H144070   6.060   6.729   6.337
14709TIP3    H244071   6.183   6.810   6.307
14710TIP3   OH244072   6.186   6.507   6.892
14710TIP3    H144073   6.154   6.429   6.938
14710TIP3    H244074   6.236   6.473   6.818
14711TIP3   OH244075   6.349   7.320   6.399
14711TIP3    H144076   6.293   7.243   6.388
14711TIP3    H244077   6.331   7.349   6.488
14712TIP3   OH244078   6.823   6.639   6.251
14712TIP3    H144079   6.733   6.607   6.258
14712TIP3    H244080   6.814   6.731   6.227
14713TIP3   OH244081   5.739   6.934   6.402
14713TIP3    H144082   5.783   7.018   6.419
14713TIP3    H244083   5.661   6.936   6.458
14714TIP3   OH244084   6.165   7.471   5.988
14714TIP3    H144085   6.182   7.386   5.949
14714TIP3    H244086   6.143   7.453   6.079
14715TIP3   OH244087   6.158   7.473   6.262
14715TIP3    H144088   6.231   7.420   6.296
14715TIP3    H244089   6.197   7.559   6.244
14716TIP3   OH244090   5.846   7.181   6.476
14716TIP3    H144091   5.781   7.219   6.535
14716TIP3    H244092   5.858   7.247   6.408
14717TIP3   OH244093   6.940   6.555   6.487
14717TIP3    H144094   6.891   6.589   6.412
14717TIP3    H244095   6.880   6.564   6.561
14718TIP3   OH244096   6.572   6.745   6.629
14718TIP3    H144097   6.623   6.826   6.631
14718TIP3    H244098   6.608   6.692   6.699
14719TIP3   OH244099   6.231   6.470   6.528
14719TIP3    H144100   6.224   6.558   6.565
14719TIP3    H244101   6.324   6.448   6.535
14720TIP3   OH244102   5.843   7.384   6.286
14720TIP3    H144103   5.892   7.464   6.302
14720TIP3    H244104   5.893   7.338   6.219
14721TIP3   OH244105   5.787   6.663   6.416
14721TIP3    H144106   5.789   6.759   6.416
14721TIP3    H244107   5.706   6.640   6.370
14722TIP3   OH244108   3.303   2.370   0.360
14722TIP3    H144109   3.302   2.346   0.267
14722TIP3    H244110   3.327   2.289   0.405
14723TIP3   OH244111   5.695   7.580   6.651
14723TIP3    H144112   5.640   7.626   6.714
14723TIP3    H244113   5.699   7.638   6.575
14724TIP3   OH244114   6.332   7.677   5.918
14724TIP3    H144115   6.273   7.607   5.946
14724TIP3    H244116   6.412   7.632   5.892
14725TIP3   OH244117   5.984   7.203   6.132
14725TIP3    H144118   6.031   7.165   6.207
14725TIP3    H244119   6.049   7.203   6.061
14726TIP3   OH244120   6.475   7.390   5.954
14726TIP3    H144121   6.485   7.403   6.048
14726TIP3    H244122   6.485   7.296   5.941
14727TIP3   OH244123   6.197   7.097   6.368
14727TIP3    H144124   6.152   7.061   6.445
14727TIP3    H244125   6.224   7.021   6.317
14728TIP3   OH244126   6.292   6.900   6.194
14728TIP3    H144127   6.263   6.905   6.103
14728TIP3    H244128   6.388   6.903   6.188
14729TIP3   OH244129   5.574   7.340   6.312
14729TIP3    H144130   5.667   7.362   6.305
14729TIP3    H244131   5.566   7.253   6.274
14730TIP3   OH244132   7.113   6.853   6.046
14730TIP3    H144133   7.137   6.923   5.984
14730TIP3    H244134   7.129   6.772   5.997
14731TIP3   OH244135   7.131   6.579   5.963
14731TIP3    H144136   7.196   6.562   6.031
14731TIP3    H244137   7.051   6.538   5.996
14732TIP3   OH244138   3.147   2.591   0.348
14732TIP3    H144139   3.201   2.512   0.353
14732TIP3    H244140   3.205   2.662   0.376
14733TIP3   OH244141   2.964   2.881   0.442
14733TIP3    H144142   3.023   2.869   0.367
14733TIP3    H244143   2.944   2.975   0.442
14734TIP3   OH244144   7.389   6.540   6.096
14734TIP3    H144145   7.416   6.461   6.049
14734TIP3    H244146   7.457   6.604   6.075
14735TIP3   OH244147   5.777   6.368   6.868
14735TIP3    H144148   5.686   6.363   6.898
14735TIP3    H244149   5.774   6.425   6.792
14736TIP3   OH244150   3.256   2.281   0.096
14736TIP3    H144151   3.165   2.254   0.099
14736TIP3    H244152   3.306   2.199   0.091
14737TIP3   OH244153   5.881   6.163   6.692
14737TIP3    H144154   5.908   6.217   6.618
14737TIP3    H244155   5.850   6.225   6.758
14738TIP3   OH244156   6.545   6.324   6.930
14738TIP3    H144157   6.607   6.379   6.882
14738TIP3    H244158   6.519   6.376   7.006
14739TIP3   OH244159   5.605   7.736   6.432
14739TIP3    H144160   5.520   7.697   6.413
14739TIP3    H244161   5.587   7.829   6.448
14740TIP3   OH244162   5.996   6.318   6.453
14740TIP3    H144163   6.041   6.256   6.395
14740TIP3    H244164   6.066   6.372   6.489
14741TIP3   OH244165   6.512   6.490   6.552
14741TIP3    H144166   6.567   6.447   6.617
14741TIP3    H244167   6.526   6.584   6.568
14742TIP3   OH244168   5.673   7.753   6.112
14742TIP3    H144169   5.658   7.756   6.206
14742TIP3    H244170   5.759   7.712   6.103
14743TIP3   OH244171   5.472   0.224   6.792
14743TIP3    H144172   5.524   0.293   6.833
14743TIP3    H244173   5.533   0.178   6.735
14744TIP3   OH244174   0.528   3.623   0.005
14744TIP3    H144175   0.452   3.639   0.061
14744TIP3    H244176   0.541   3.706  -0.041
14745TIP3   OH244177   5.746   0.387   6.631
14745TIP3    H144178   5.718   0.376   6.540
14745TIP3    H244179   5.813   0.455   6.627
14746TIP3   OH244180   8.278   3.819   0.004
14746TIP3    H144181   8.280   3.805   0.099
14746TIP3    H244182   8.245   3.737  -0.031
14747TIP3   OH244183   2.287   7.782   6.895
14747TIP3    H144184   2.277   7.794   6.990
14747TIP3    H244185   2.210   7.824   6.857
14748TIP3   OH244186   2.880   7.899   6.920
14748TIP3    H144187   2.785   7.899   6.917
14748TIP3    H244188   2.905   7.988   6.893
14749TIP3   OH244189   5.817   0.132   6.867
14749TIP3    H144190   5.871   0.132   6.946
14749TIP3    H244191   5.778   0.220   6.865
14750TIP3   OH244192   6.217   0.232   6.830
14750TIP3    H144193   6.158   0.184   6.772
14750TIP3    H244194   6.217   0.322   6.796
14751TIP3   OH244195   0.146   3.864   0.232
14751TIP3    H144196   0.113   3.867   0.142
14751TIP3    H244197   0.135   3.954   0.264
14752TIP3   OH244198   5.985   0.530   6.522
14752TIP3    H144199   5.959   0.477   6.446
14752TIP3    H244200   5.990   0.619   6.489
14753TIP3   OH244201   6.184   0.491   6.702
14753TIP3    H144202   6.112   0.475   6.642
14753TIP3    H244203   6.198   0.585   6.700
14754TIP3   OH244204   6.060   0.145   6.629
14754TIP3    H144205   5.992   0.180   6.571
14754TIP3    H244206   6.040   0.052   6.636
14755TIP3   OH244207   3.173   7.892   6.643
14755TIP3    H144208   3.246   7.869   6.700
14755TIP3    H244209   3.101   7.838   6.674
14756TIP3   OH244210   0.422   4.142   0.124
14756TIP3    H144211   0.465   4.064   0.160
14756TIP3    H244212   0.476   4.166   0.049
14757TIP3   OH244213   0.522   3.891   0.192
14757TIP3    H144214   0.557   3.887   0.280
14757TIP3    H244215   0.457   3.822   0.188
14758TIP3   OH244216   3.416   7.842   6.771
14758TIP3    H144217   3.455   7.770   6.721
14758TIP3    H244218   3.482   7.912   6.769
14759TIP3   OH244219   0.584   3.782   0.658
14759TIP3    H144220   0.622   3.813   0.575
14759TIP3    H244221   0.491   3.768   0.638
14760TIP3   OH244222   0.677   3.866   0.418
14760TIP3    H144223   0.746   3.813   0.376
14760TIP3    H244224   0.704   3.957   0.401
14761TIP3   OH244225   0.320   3.743   0.633
14761TIP3    H144226   0.272   3.738   0.551
14761TIP3    H244227   0.285   3.671   0.686
14762TIP3   OH244228   0.338   3.678   0.191
14762TIP3    H144229   0.265   3.737   0.210
14762TIP3    H244230   0.315   3.596   0.236
14763TIP3   OH244231   7.713   3.603   0.151
14763TIP3    H144232   7.742   3.529   0.097
14763TIP3    H244233   7.789   3.623   0.206
14764TIP3   OH244234   0.763   4.318   0.052
14764TIP3    H144235   0.749   4.413   0.053
14764TIP3    H244236   0.679   4.282   0.025
14765TIP3   OH244237   1.338   4.235   0.235
14765TIP3    H144238   1.315   4.307   0.177
14765TIP3    H244239   1.293   4.159   0.198
14766TIP3   OH244240   7.698   0.283   6.804
14766TIP3    H144241   7.755   0.294   6.880
14766TIP3    H244242   7.704   0.366   6.757
14767TIP3   OH244243   1.421   4.618   0.165
14767TIP3    H144244   1.508   4.589   0.138
14767TIP3    H244245   1.362   4.551   0.131
14768TIP3   OH244246   1.211   4.342   0.453
14768TIP3    H144247   1.253   4.428   0.446
14768TIP3    H244248   1.254   4.289   0.386
14769TIP3   OH244249   1.661   3.929   0.375
14769TIP3    H144250   1.669   3.838   0.403
14769TIP3    H244251   1.595   3.966   0.434
14770TIP3   OH244252   7.279   0.675   6.580
14770TIP3    H144253   7.205   0.735   6.568
14770TIP3    H244254   7.335   0.692   6.505
14771TIP3   OH244255   7.242   0.477   6.307
14771TIP3    H144256   7.294   0.522   6.373
14771TIP3    H244257   7.305   0.422   6.260
14772TIP3   OH244258   1.219   4.763  -0.011
14772TIP3    H144259   1.218   4.673  -0.041
14772TIP3    H244260   1.285   4.764   0.059
14773TIP3   OH244261   7.483   0.654   6.389
14773TIP3    H144262   7.549   0.714   6.421
14773TIP3    H244263   7.494   0.654   6.294
14774TIP3   OH244264   5.147   7.890   6.432
14774TIP3    H144265   5.069   7.907   6.484
14774TIP3    H244266   5.160   7.969   6.380
14775TIP3   OH244267   6.747   0.575   6.752
14775TIP3    H144268   6.698   0.656   6.762
14775TIP3    H244269   6.693   0.508   6.794
14776TIP3   OH244270   1.449   4.025   0.527
14776TIP3    H144271   1.359   3.998   0.508
14776TIP3    H244272   1.441   4.112   0.565
14777TIP3   OH244273   7.547   0.659   6.131
14777TIP3    H144274   7.518   0.634   6.043
14777TIP3    H244275   7.599   0.738   6.117
14778TIP3   OH244276   7.252   0.052   6.433
14778TIP3    H144277   7.223   0.055   6.524
14778TIP3    H244278   7.223  -0.034   6.402
14779TIP3   OH244279   1.266   4.421   0.048
14779TIP3    H144280   1.178   4.388   0.066
14779TIP3    H244281   1.289   4.384  -0.037
14780TIP3   OH244282   7.414   0.486   6.719
14780TIP3    H144283   7.363   0.559   6.684
14780TIP3    H244284   7.465   0.453   6.645
14781TIP3   OH244285   0.804   4.093   0.328
14781TIP3    H144286   0.884   4.108   0.378
14781TIP3    H244287   0.834   4.052   0.247
14782TIP3   OH244288   6.428   0.049   6.783
14782TIP3    H144289   6.491   0.084   6.721
14782TIP3    H244290   6.372   0.123   6.806
14783TIP3   OH244291   1.595   4.250   0.122
14783TIP3    H144292   1.510   4.241   0.167
14783TIP3    H244293   1.658   4.214   0.184
14784TIP3   OH244294   1.037   4.296   0.095
14784TIP3    H144295   0.942   4.302   0.101
14784TIP3    H244296   1.055   4.202   0.092
14785TIP3   OH244297   6.966   0.282   6.755
14785TIP3    H144298   7.059   0.292   6.733
14785TIP3    H244299   6.920   0.298   6.672
14786TIP3   OH244300   6.812   0.295   6.532
14786TIP3    H144301   6.718   0.299   6.516
14786TIP3    H244302   6.851   0.342   6.459
14787TIP3   OH244303   1.199   4.045   0.099
14787TIP3    H144304   1.165   3.969   0.146
14787TIP3    H244305   1.240   4.007   0.021
14788TIP3   OH244306   7.054   0.830   6.548
14788TIP3    H144307   6.977   0.774   6.533
14788TIP3    H244308   7.035   0.873   6.631
14789TIP3   OH244309   7.505   0.152   6.404
14789TIP3    H144310   7.412   0.133   6.410
14789TIP3    H244311   7.512   0.246   6.424
14790TIP3   OH244312   7.549   0.406   6.492
14790TIP3    H144313   7.642   0.402   6.512
14790TIP3    H244314   7.539   0.489   6.445
14791TIP3   OH244315   7.156   1.001   6.363
14791TIP3    H144316   7.129   1.079   6.412
14791TIP3    H244317   7.132   0.928   6.420
14792TIP3   OH244318   8.035   0.447   6.290
14792TIP3    H144319   7.951   0.418   6.254
14792TIP3    H244320   8.045   0.536   6.258
14793TIP3   OH244321   6.421   0.474   6.552
14793TIP3    H144322   6.463   0.559   6.567
14793TIP3    H244323   6.342   0.477   6.607
14794TIP3   OH244324   7.531   0.969   6.157
14794TIP3    H144325   7.582   1.040   6.196
14794TIP3    H244326   7.443   1.006   6.147
14795TIP3   OH244327   6.828   0.973   6.201
14795TIP3    H144328   6.871   0.891   6.177
14795TIP3    H244329   6.870   0.999   6.283
14796TIP3   OH244330   6.514   0.723   6.625
14796TIP3    H144331   6.549   0.766   6.703
14796TIP3    H244332   6.523   0.789   6.556
14797TIP3   OH244333   7.548   0.094   6.678
14797TIP3    H144334   7.535   0.121   6.587
14797TIP3    H244335   7.598   0.166   6.718
14798TIP3   OH244336   7.247   0.287   6.791
14798TIP3    H144337   7.308   0.356   6.765
14798TIP3    H244338   7.249   0.287   6.886
14799TIP3   OH244339   7.390   0.020   6.891
14799TIP3    H144340   7.367   0.104   6.930
14799TIP3    H244341   7.448   0.042   6.818
14800TIP3   OH244342   6.899   0.008   6.688
14800TIP3    H144343   6.892   0.101   6.707
14800TIP3    H244344   6.993  -0.009   6.681
14801TIP3   OH244345   6.532   0.944   6.443
14801TIP3    H144346   6.561   1.034   6.430
14801TIP3    H244347   6.578   0.894   6.376
14802TIP3   OH244348   6.475   0.206   6.540
14802TIP3    H144349   6.468   0.301   6.552
14802TIP3    H244350   6.385   0.176   6.535
14803TIP3   OH244351   1.192   3.924   0.497
14803TIP3    H144352   1.163   3.892   0.412
14803TIP3    H244353   1.180   3.850   0.557
14804TIP3   OH244354   6.653   0.735   6.296
14804TIP3    H144355   6.704   0.706   6.372
14804TIP3    H244356   6.717   0.743   6.225
14805TIP3   OH244357   7.095   0.905   6.102
14805TIP3    H144358   7.121   0.928   6.191
14805TIP3    H244359   7.129   0.816   6.089
14806TIP3   OH244360   6.850   0.646   6.504
14806TIP3    H144361   6.822   0.610   6.588
14806TIP3    H244362   6.892   0.572   6.459
14807TIP3   OH244363   6.961   0.440   6.347
14807TIP3    H144364   6.936   0.447   6.255
14807TIP3    H244365   7.056   0.446   6.347
14808TIP3   OH244366   7.785   0.783   6.016
14808TIP3    H144367   7.760   0.731   5.940
14808TIP3    H244368   7.774   0.874   5.988
14809TIP3   OH244369   6.270   0.855   6.500
14809TIP3    H144370   6.348   0.899   6.466
14809TIP3    H244371   6.254   0.784   6.437
14810TIP3   OH244372   8.007   0.677   6.157
14810TIP3    H144373   7.926   0.690   6.108
14810TIP3    H244374   8.057   0.757   6.142
14811TIP3   OH244375   7.818   0.404   6.134
14811TIP3    H144376   7.782   0.436   6.052
14811TIP3    H244377   7.803   0.309   6.132
14812TIP3   OH244378   7.786   0.138   6.122
14812TIP3    H144379   7.862   0.109   6.171
14812TIP3    H244380   7.716   0.077   6.147
14813TIP3   OH244381   7.806   0.391   6.567
14813TIP3    H144382   7.845   0.312   6.604
14813TIP3    H244383   7.870   0.460   6.586
14814TIP3   OH244384   7.948   0.156   6.646
14814TIP3    H144385   7.974   0.147   6.737
14814TIP3    H244386   7.887   0.084   6.630
14815TIP3   OH244387   1.024   4.139   0.490
14815TIP3    H144388   1.085   4.065   0.498
14815TIP3    H244389   1.080   4.214   0.471
14816TIP3   OH244390   8.027   0.076   6.238
14816TIP3    H144391   8.063   0.001   6.192
14816TIP3    H244392   8.097   0.141   6.237
14817TIP3   OH244393   0.785   3.922   0.081
14817TIP3    H144394   0.694   3.911   0.109
14817TIP3    H244395   0.780   3.978   0.003
14818TIP3   OH244396   1.810   4.108   0.237
14818TIP3    H144397   1.764   4.037   0.281
14818TIP3    H244398   1.853   4.066   0.162
14819TIP3   OH244399   1.094   3.834   0.253
14819TIP3    H144400   1.003   3.806   0.255
14819TIP3    H244401   1.144   3.753   0.248
14820TIP3   OH244402   3.714   7.722   6.842
14820TIP3    H144403   3.746   7.777   6.771
14820TIP3    H244404   3.688   7.784   6.911
14821TIP3   OH244405   1.539   3.874   0.131
14821TIP3    H144406   1.599   3.918   0.071
14821TIP3    H244407   1.571   3.897   0.218
14822TIP3   OH244408   2.126   3.940   0.053
14822TIP3    H144409   2.101   4.032   0.067
14822TIP3    H244410   2.093   3.895   0.131
14823TIP3   OH244411   4.945   7.951   6.621
14823TIP3    H144412   4.860   7.992   6.631
14823TIP3    H244413   4.935   7.864   6.661
14824TIP3   OH244414   3.840   7.886   6.596
14824TIP3    H144415   3.885   7.814   6.552
14824TIP3    H244416   3.910   7.936   6.637
14825TIP3   OH244417   7.179   0.040   6.697
14825TIP3    H144418   7.232  -0.014   6.755
14825TIP3    H244419   7.199   0.130   6.724
14826TIP3   OH244420   0.198   0.297   5.908
14826TIP3    H144421   0.169   0.279   5.998
14826TIP3    H244422   0.121   0.336   5.866
14827TIP3   OH244423   8.234   0.266   6.261
14827TIP3    H144424   8.298   0.300   6.198
14827TIP3    H244425   8.174   0.339   6.276
14828TIP3   OH244426   8.209   0.437   6.007
14828TIP3    H144427   8.263   0.507   6.044
14828TIP3    H244428   8.126   0.443   6.055
14829TIP3   OH244429   8.186   0.109   6.477
14829TIP3    H144430   8.103   0.136   6.515
14829TIP3    H244431   8.209   0.180   6.416
14830TIP3   OH244432   5.489   7.969   6.291
14830TIP3    H144433   5.512   8.035   6.226
14830TIP3    H244434   5.443   8.017   6.359
14831TIP3   OH244435   8.463   0.124   6.085
14831TIP3    H144436   8.500   0.056   6.029
14831TIP3    H244437   8.533   0.146   6.147
   8.50000   8.01388   6.94022   0.00000   0.00000  -2.83333   0.00000  -2.83333  -4.00694
