Title
44434
    1GLY      N    1   2.124   4.017   4.742
    1GLY    HT1    2   2.035   3.982   4.700
    1GLY    HT2    3   2.157   4.094   4.679
    1GLY    HT3    4   2.107   4.057   4.836
    1GLY     CA    5   2.225   3.906   4.745
    1GLY    HA1    6   2.244   3.880   4.642
    1GLY    HA2    7   2.181   3.826   4.804
    1GLY      C    8   2.356   3.941   4.809
    1GLY      O    9   2.365   4.045   4.875
    2PRO      N   10   2.459   3.856   4.795
    2PRO     CD   11   2.446   3.724   4.733
    2PRO    HD1   12   2.437   3.737   4.623
    2PRO    HD2   13   2.359   3.666   4.772
    2PRO     CA   14   2.599   3.890   4.818
    2PRO     HA   15   2.611   3.900   4.925
    2PRO     CB   16   2.678   3.770   4.761
    2PRO    HB1   17   2.770   3.748   4.819
    2PRO    HB2   18   2.706   3.787   4.655
    2PRO     CG   19   2.578   3.654   4.766
    2PRO    HG1   20   2.604   3.573   4.695
    2PRO    HG2   21   2.573   3.612   4.869
    2PRO      C   22   2.646   4.021   4.757
    2PRO      O   23   2.587   4.067   4.659
    3GLY      N   24   2.751   4.084   4.813
    3GLY     HN   25   2.797   4.041   4.891
    3GLY     CA   26   2.820   4.194   4.747
    3GLY    HA1   27   2.894   4.233   4.815
    3GLY    HA2   28   2.746   4.268   4.718
    3GLY      C   29   2.894   4.153   4.622
    3GLY      O   30   2.915   4.035   4.596
    4ASP      N   31   2.940   4.250   4.542
    4ASP     HN   32   2.915   4.346   4.556
    4ASP     CA   33   3.032   4.225   4.433
    4ASP     HA   34   2.988   4.145   4.375
    4ASP     CB   35   3.044   4.350   4.342
    4ASP    HB1   36   3.124   4.338   4.267
    4ASP    HB2   37   3.068   4.439   4.404
    4ASP     CG   38   2.914   4.378   4.267
    4ASP    OD1   39   2.828   4.288   4.256
    4ASP    OD2   40   2.902   4.490   4.211
    4ASP      C   41   3.168   4.173   4.484
    4ASP      O   42   3.207   4.208   4.596
    5PRO      N   43   3.242   4.087   4.412
    5PRO     CD   44   3.200   4.031   4.283
    5PRO    HD1   45   3.204   4.111   4.207
    5PRO    HD2   46   3.097   3.988   4.288
    5PRO     CA   47   3.380   4.050   4.443
    5PRO     HA   48   3.375   3.984   4.529
    5PRO     CB   49   3.430   3.977   4.317
    5PRO    HB1   50   3.503   3.896   4.341
    5PRO    HB2   51   3.478   4.048   4.247
    5PRO     CG   52   3.303   3.922   4.253
    5PRO    HG1   53   3.315   3.903   4.144
    5PRO    HG2   54   3.273   3.828   4.303
    5PRO      C   55   3.472   4.164   4.483
    5PRO      O   56   3.452   4.277   4.439
    6GLY      N   57   3.574   4.139   4.569
    6GLY     HN   58   3.590   4.046   4.601
    6GLY     CA   59   3.680   4.237   4.592
    6GLY    HA1   60   3.750   4.193   4.662
    6GLY    HA2   61   3.635   4.328   4.629
    6GLY      C   62   3.758   4.270   4.467
    6GLY      O   63   3.764   4.190   4.374
    7SER      N   64   3.823   4.387   4.461
    7SER     HN   65   3.817   4.456   4.532
    7SER     CA   66   3.916   4.415   4.351
    7SER     HA   67   3.862   4.398   4.259
    7SER     CB   68   3.969   4.561   4.347
    7SER    HB1   69   4.053   4.571   4.275
    7SER    HB2   70   4.006   4.590   4.447
    7SER     OG   71   3.866   4.651   4.306
    7SER    HG1   72   3.850   4.635   4.213
    7SER      C   73   4.034   4.320   4.348
    7SER      O   74   4.081   4.275   4.453
    8GLY      N   75   4.082   4.286   4.227
    8GLY     HN   76   4.038   4.322   4.145
    8GLY     CA   77   4.199   4.201   4.205
    8GLY    HA1   78   4.222   4.205   4.099
    8GLY    HA2   79   4.173   4.102   4.238
    8GLY      C   80   4.324   4.243   4.278
    8GLY      O   81   4.338   4.355   4.328
    9ASN      N   82   4.422   4.151   4.288
    9ASN     HN   83   4.411   4.061   4.247
    9ASN     CA   84   4.550   4.181   4.349
    9ASN     HA   85   4.525   4.224   4.445
    9ASN     CB   86   4.633   4.050   4.367
    9ASN    HB1   87   4.702   4.033   4.281
    9ASN    HB2   88   4.563   3.964   4.371
    9ASN     CG   89   4.708   4.052   4.500
    9ASN    OD1   90   4.671   4.119   4.594
    9ASN    ND2   91   4.822   3.979   4.507
    9ASN   HD21   92   4.867   3.974   4.596
    9ASN   HD22   93   4.853   3.927   4.427
    9ASN      C   94   4.627   4.286   4.267
    9ASN      O   95   4.618   4.282   4.144
   10PRO      N   96   4.702   4.382   4.323
   10PRO     CD   97   4.717   4.405   4.467
   10PRO    HD1   98   4.787   4.329   4.508
   10PRO    HD2   99   4.620   4.400   4.521
   10PRO     CA  100   4.790   4.469   4.246
   10PRO     HA  101   4.726   4.528   4.181
   10PRO     CB  102   4.864   4.555   4.349
   10PRO    HB1  103   4.872   4.660   4.313
   10PRO    HB2  104   4.966   4.515   4.369
   10PRO     CG  105   4.780   4.544   4.477
   10PRO    HG1  106   4.841   4.556   4.569
   10PRO    HG2  107   4.700   4.621   4.476
   10PRO      C  108   4.886   4.392   4.157
   10PRO      O  109   4.950   4.299   4.204
   11GLY      N  110   4.897   4.431   4.028
   11GLY     HN  111   4.841   4.507   3.996
   11GLY     CA  112   4.991   4.372   3.933
   11GLY    HA1  113   4.987   4.431   3.843
   11GLY    HA2  114   4.963   4.269   3.919
   11GLY      C  115   5.135   4.374   3.979
   11GLY      O  116   5.176   4.461   4.056
   12SER      N  117   5.215   4.279   3.930
   12SER     HN  118   5.180   4.206   3.871
   12SER     CA  119   5.357   4.268   3.959
   12SER     HA  120   5.367   4.249   4.065
   12SER     CB  121   5.420   4.151   3.879
   12SER    HB1  122   5.528   4.139   3.903
   12SER    HB2  123   5.411   4.171   3.770
   12SER     OG  124   5.351   4.028   3.906
   12SER    HG1  125   5.383   3.995   3.991
   12SER      C  126   5.436   4.392   3.924
   12SER      O  127   5.413   4.456   3.822
   13GLY      N  128   5.533   4.431   4.010
   13GLY     HN  129   5.548   4.381   4.095
   13GLY     CA  130   5.626   4.540   3.981
   13GLY    HA1  131   5.695   4.547   4.064
   13GLY    HA2  132   5.568   4.630   3.967
   13GLY      C  133   5.710   4.518   3.857
   13GLY      O  134   5.727   4.406   3.810
   14ASP      N  135   5.767   4.627   3.802
   14ASP     HN  136   5.747   4.718   3.837
   14ASP     CA  137   5.857   4.621   3.689
   14ASP     HA  138   5.800   4.576   3.609
   14ASP     CB  139   5.897   4.763   3.643
   14ASP    HB1  140   5.967   4.758   3.556
   14ASP    HB2  141   5.946   4.819   3.725
   14ASP     CG  142   5.774   4.837   3.597
   14ASP    OD1  143   5.709   4.790   3.500
   14ASP    OD2  144   5.739   4.941   3.661
   14ASP      C  145   5.983   4.536   3.717
   14ASP      O  146   6.039   4.547   3.827
   15PRO      N  147   6.031   4.452   3.625
   15PRO     CD  148   5.957   4.406   3.508
   15PRO    HD1  149   5.975   4.477   3.425
   15PRO    HD2  150   5.848   4.397   3.527
   15PRO     CA  151   6.154   4.376   3.644
   15PRO     HA  152   6.146   4.319   3.736
   15PRO     CB  153   6.161   4.286   3.519
   15PRO    HB1  154   6.213   4.190   3.540
   15PRO    HB2  155   6.214   4.339   3.437
   15PRO     CG  156   6.015   4.268   3.477
   15PRO    HG1  157   6.004   4.239   3.371
   15PRO    HG2  158   5.966   4.192   3.542
   15PRO      C  159   6.278   4.463   3.653
   15PRO    OT1  160   6.289   4.566   3.581
   15PRO    OT2  161   6.375   4.430   3.727
   16LIT    LIT  162   6.480   4.304   5.594
   17LIT    LIT  163   3.600   7.136   2.081
   18LIT    LIT  164   7.471   5.224   3.195
   19LIT    LIT  165   2.733   6.115   6.007
   20LIT    LIT  166   7.300   2.111   6.399
   21LIT    LIT  167   6.067   5.683   1.457
   22LIT    LIT  168   2.368   0.921   2.564
   23LIT    LIT  169   2.767   1.407   6.694
   24LIT    LIT  170   4.906   2.073   0.626
   25LIT    LIT  171   5.384   6.918   1.461
   26LIT    LIT  172   1.508   6.280   4.284
   27LIT    LIT  173   4.263   7.919   4.125
   28LIT    LIT  174   7.715   2.647   6.905
   29LIT    LIT  175   4.283   5.351   2.757
   30LIT    LIT  176   2.144   2.728   6.464
   31LIT    LIT  177   2.860   0.635   5.790
   32LIT    LIT  178   3.066   0.188   3.718
   33LIT    LIT  179   2.155   1.226   5.108
   34LIT    LIT  180   3.191   7.490   4.843
   35LIT    LIT  181   1.066   6.422   6.040
   36LIT    LIT  182   6.140   6.411   2.912
   37LIT    LIT  183   3.169   4.603   5.650
   38LIT    LIT  184   4.392   6.526   2.652
   39LIT    LIT  185   2.478   7.616   5.914
   40LIT    LIT  186   7.173   7.524   1.667
   41LIT    LIT  187   6.462   4.570   3.637
   42LIT    LIT  188   5.374   1.341   1.682
   43LIT    LIT  189   4.204   1.609   2.809
   44LIT    LIT  190   5.307   3.301   0.392
   45LIT    LIT  191   6.686   0.023   6.110
   46LIT    LIT  192   2.271   6.288   3.890
   47LIT    LIT  193   1.093   1.898   0.299
   48LIT    LIT  194   4.974   6.600   5.202
   49LIT    LIT  195   6.012   3.848   3.629
   50LIT    LIT  196   1.093   4.389   5.084
   51LIT    LIT  197   0.674   3.805   3.188
   52LIT    LIT  198   0.739   1.923   6.456
   53LIT    LIT  199   0.287   3.280   2.503
   54LIT    LIT  200   2.075   1.598   1.651
   55LIT    LIT  201   1.766   3.652   0.753
   56LIT    LIT  202   3.081   4.319   3.637
   57LIT    LIT  203   4.491   2.857   6.341
   58LIT    LIT  204   7.373   5.615   6.767
   59LIT    LIT  205   6.499   7.713   4.425
   60CLA    CLA  206   3.371   0.030   4.459
   61CLA    CLA  207   4.029   2.404   0.677
   62CLA    CLA  208   3.221   6.378   3.523
   63CLA    CLA  209   2.601   1.561   6.679
   64CLA    CLA  210   7.091   4.766   5.673
   65CLA    CLA  211   8.195   5.405   6.045
   66CLA    CLA  212   1.920   5.343   3.189
   67CLA    CLA  213   3.521   6.223   5.829
   68CLA    CLA  214   4.400   6.263   4.891
   69CLA    CLA  215   8.035   5.572   3.342
   70CLA    CLA  216   3.722   7.939   2.376
   71CLA    CLA  217   4.236   7.830   5.995
   72CLA    CLA  218   0.225   3.148   2.673
   73CLA    CLA  219   1.165   4.010   3.598
   74CLA    CLA  220   4.197   6.078   0.673
   75CLA    CLA  221   4.465   6.630   2.849
   76CLA    CLA  222   1.888   3.220   2.587
   77CLA    CLA  223   2.748   0.458   5.881
   78CLA    CLA  224   3.037   7.421   4.983
   79CLA    CLA  225   7.447   1.226   5.369
   80CLA    CLA  226   5.189   6.631   5.250
   81CLA    CLA  227   4.348   1.344   1.270
   82CLA    CLA  228   2.798   1.034   5.712
   83CLA    CLA  229   5.432   6.657   1.914
   84CLA    CLA  230   4.504   2.379   6.366
   85CLA    CLA  231   0.782   2.352   0.518
   86CLA    CLA  232   2.737   2.089   3.445
   87CLA    CLA  233   0.933   3.861   5.492
   88CLA    CLA  234   6.589   4.871   2.573
   89CLA    CLA  235   2.185   2.895   6.600
   90CLA    CLA  236   4.364   7.926   0.250
   91CLA    CLA  237   6.913   7.922   0.353
   92CLA    CLA  238   5.316   0.542   5.974
   93CLA    CLA  239   3.814   3.097   4.138
   94CLA    CLA  240   7.347   0.214   4.199
   95CLA    CLA  241   3.052   5.270   4.439
   96CLA    CLA  242   0.918   2.052   6.807
   97CLA    CLA  243   4.947   3.596   4.123
   98CLA    CLA  244   1.874   1.610   1.975
   99CLA    CLA  245   0.970   4.941   2.362
  100CLA    CLA  246   1.761   4.148   0.520
  101CLA    CLA  247   2.740   0.819   2.216
  102TIP3   OH2  248   3.267   0.363   2.244
  102TIP3    H1  249   3.270   0.269   2.259
  102TIP3    H2  250   3.194   0.394   2.297
  103TIP3   OH2  251   2.978   0.713   2.381
  103TIP3    H1  252   2.915   0.748   2.318
  103TIP3    H2  253   3.054   0.770   2.373
  104TIP3   OH2  254   3.258   0.083   2.263
  104TIP3    H1  255   3.187   0.081   2.328
  104TIP3    H2  256   3.215   0.069   2.179
  105TIP3   OH2  257   2.690   0.304   2.597
  105TIP3    H1  258   2.715   0.227   2.647
  105TIP3    H2  259   2.770   0.356   2.591
  106TIP3   OH2  260   3.103   0.470   2.035
  106TIP3    H1  261   3.136   0.448   1.949
  106TIP3    H2  262   3.168   0.435   2.096
  107TIP3   OH2  263   3.171   0.186   2.551
  107TIP3    H1  264   3.105   0.184   2.620
  107TIP3    H2  265   3.217   0.269   2.564
  108TIP3   OH2  266   0.361   7.849   2.400
  108TIP3    H1  267   0.406   7.766   2.416
  108TIP3    H2  268   0.405   7.887   2.324
  109TIP3   OH2  269   0.521   7.647   2.480
  109TIP3    H1  270   0.543   7.554   2.475
  109TIP3    H2  271   0.603   7.689   2.507
  110TIP3   OH2  272   2.488   0.697   2.370
  110TIP3    H1  273   2.537   0.714   2.290
  110TIP3    H2  274   2.556   0.687   2.438
  111TIP3   OH2  275   3.031   0.448   2.357
  111TIP3    H1  276   2.964   0.425   2.293
  111TIP3    H2  277   3.019   0.542   2.372
  112TIP3   OH2  278   1.460   7.879   1.504
  112TIP3    H1  279   1.500   7.854   1.588
  112TIP3    H2  280   1.479   7.806   1.446
  113TIP3   OH2  281   4.602   0.106   1.261
  113TIP3    H1  282   4.509   0.102   1.283
  113TIP3    H2  283   4.633   0.185   1.305
  114TIP3   OH2  284   4.187   0.620   1.240
  114TIP3    H1  285   4.230   0.563   1.176
  114TIP3    H2  286   4.114   0.567   1.273
  115TIP3   OH2  287   4.130   0.056   1.590
  115TIP3    H1  288   4.195   0.000   1.547
  115TIP3    H2  289   4.168   0.144   1.587
  116TIP3   OH2  290   3.941  -0.003   1.780
  116TIP3    H1  291   3.869   0.057   1.798
  116TIP3    H2  292   3.992   0.040   1.712
  117TIP3   OH2  293   3.761   0.210   1.843
  117TIP3    H1  294   3.733   0.301   1.844
  117TIP3    H2  295   3.691   0.163   1.890
  118TIP3   OH2  296   4.640   0.378   1.317
  118TIP3    H1  297   4.564   0.378   1.376
  118TIP3    H2  298   4.649   0.469   1.290
  119TIP3   OH2  299   4.348   0.440   1.104
  119TIP3    H1  300   4.381   0.351   1.090
  119TIP3    H2  301   4.415   0.497   1.065
  120TIP3   OH2  302   4.842   0.293   1.706
  120TIP3    H1  303   4.830   0.220   1.645
  120TIP3    H2  304   4.830   0.371   1.652
  121TIP3   OH2  305   1.890   7.834   1.834
  121TIP3    H1  306   1.858   7.911   1.880
  121TIP3    H2  307   1.816   7.807   1.779
  122TIP3   OH2  308   3.856   0.202   1.341
  122TIP3    H1  309   3.765   0.185   1.365
  122TIP3    H2  310   3.896   0.116   1.333
  123TIP3   OH2  311   4.441   0.378   1.500
  123TIP3    H1  312   4.396   0.443   1.553
  123TIP3    H2  313   4.420   0.294   1.541
  124TIP3   OH2  314   3.971   0.279   2.012
  124TIP3    H1  315   3.913   0.331   2.068
  124TIP3    H2  316   3.911   0.234   1.952
  125TIP3   OH2  317   0.907   7.895   2.094
  125TIP3    H1  318   0.908   7.979   2.140
  125TIP3    H2  319   0.843   7.842   2.142
  126TIP3   OH2  320   3.997   0.147   1.011
  126TIP3    H1  321   4.039   0.164   0.927
  126TIP3    H2  322   4.033   0.214   1.070
  127TIP3   OH2  323   3.770   0.424   2.132
  127TIP3    H1  324   3.741   0.449   2.044
  127TIP3    H2  325   3.689   0.412   2.182
  128TIP3   OH2  326   5.084   0.653   1.759
  128TIP3    H1  327   5.088   0.558   1.761
  128TIP3    H2  328   5.003   0.675   1.805
  129TIP3   OH2  329   4.175   0.411   1.884
  129TIP3    H1  330   4.162   0.504   1.904
  129TIP3    H2  331   4.100   0.367   1.924
  130TIP3   OH2  332   4.249   0.453   0.728
  130TIP3    H1  333   4.214   0.512   0.795
  130TIP3    H2  334   4.195   0.374   0.734
  131TIP3   OH2  335   2.128   7.722   1.903
  131TIP3    H1  336   2.055   7.780   1.881
  131TIP3    H2  337   2.100   7.635   1.875
  132TIP3   OH2  338   3.560   0.160   2.032
  132TIP3    H1  339   3.619   0.161   2.107
  132TIP3    H2  340   3.521   0.073   2.033
  133TIP3   OH2  341   1.978   7.502   1.859
  133TIP3    H1  342   1.911   7.500   1.928
  133TIP3    H2  343   1.930   7.529   1.780
  134TIP3   OH2  344   1.583   7.815   2.110
  134TIP3    H1  345   1.564   7.739   2.166
  134TIP3    H2  346   1.678   7.821   2.109
  135TIP3   OH2  347   1.583   7.784   1.724
  135TIP3    H1  348   1.645   7.714   1.705
  135TIP3    H2  349   1.531   7.752   1.798
  136TIP3   OH2  350   4.789   0.986   1.832
  136TIP3    H1  351   4.786   1.000   1.737
  136TIP3    H2  352   4.869   1.030   1.860
  137TIP3   OH2  353   3.726   0.113   2.245
  137TIP3    H1  354   3.807   0.129   2.293
  137TIP3    H2  355   3.657   0.115   2.311
  138TIP3   OH2  356   1.307   7.428   1.928
  138TIP3    H1  357   1.298   7.390   1.841
  138TIP3    H2  358   1.374   7.496   1.918
  139TIP3   OH2  359   4.800   0.100   1.526
  139TIP3    H1  360   4.837   0.116   1.439
  139TIP3    H2  361   4.727   0.041   1.511
  140TIP3   OH2  362   4.294   0.143   1.913
  140TIP3    H1  363   4.346   0.137   1.994
  140TIP3    H2  364   4.258   0.231   1.915
  141TIP3   OH2  365   1.347   7.930   2.190
  141TIP3    H1  366   1.278   7.874   2.154
  141TIP3    H2  367   1.427   7.901   2.148
  142TIP3   OH2  368   4.439   0.430   1.807
  142TIP3    H1  369   4.345   0.420   1.817
  142TIP3    H2  370   4.466   0.482   1.883
  143TIP3   OH2  371   5.094   0.379   1.757
  143TIP3    H1  372   5.003   0.354   1.774
  143TIP3    H2  373   5.116   0.338   1.673
  144TIP3   OH2  374   1.745   7.948   1.505
  144TIP3    H1  375   1.660   7.993   1.510
  144TIP3    H2  376   1.723   7.855   1.501
  145TIP3   OH2  377   3.937   0.545   1.739
  145TIP3    H1  378   3.941   0.623   1.684
  145TIP3    H2  379   4.022   0.502   1.727
  146TIP3   OH2  380   4.398   0.145   1.651
  146TIP3    H1  381   4.346   0.138   1.731
  146TIP3    H2  382   4.489   0.140   1.682
  147TIP3   OH2  383   4.632   0.682   1.652
  147TIP3    H1  384   4.543   0.654   1.673
  147TIP3    H2  385   4.620   0.759   1.596
  148TIP3   OH2  386   3.454   0.316   1.829
  148TIP3    H1  387   3.486   0.290   1.915
  148TIP3    H2  388   3.421   0.405   1.841
  149TIP3   OH2  389   1.508   7.613   1.929
  149TIP3    H1  390   1.486   7.689   1.983
  149TIP3    H2  391   1.588   7.577   1.968
  150TIP3   OH2  392   4.676   0.637   1.255
  150TIP3    H1  393   4.641   0.693   1.185
  150TIP3    H2  394   4.765   0.670   1.269
  151TIP3   OH2  395   3.420   0.692   2.242
  151TIP3    H1  396   3.498   0.696   2.297
  151TIP3    H2  397   3.410   0.599   2.221
  152TIP3   OH2  398   3.884   0.605   2.303
  152TIP3    H1  399   3.978   0.585   2.305
  152TIP3    H2  400   3.849   0.542   2.239
  153TIP3   OH2  401   4.501   0.552   2.045
  153TIP3    H1  402   4.516   0.481   2.107
  153TIP3    H2  403   4.576   0.611   2.057
  154TIP3   OH2  404   3.504   0.087   2.411
  154TIP3    H1  405   3.537  -0.003   2.409
  154TIP3    H2  406   3.420   0.083   2.366
  155TIP3   OH2  407   4.137   0.187   2.208
  155TIP3    H1  408   4.089   0.207   2.127
  155TIP3    H2  409   4.165   0.096   2.196
  156TIP3   OH2  410   4.609   0.215   1.822
  156TIP3    H1  411   4.690   0.251   1.786
  156TIP3    H2  412   4.546   0.288   1.817
  157TIP3   OH2  413   0.804   7.857   2.362
  157TIP3    H1  414   0.899   7.854   2.357
  157TIP3    H2  415   0.782   7.803   2.437
  158TIP3   OH2  416   1.147   7.766   2.067
  158TIP3    H1  417   1.065   7.816   2.062
  158TIP3    H2  418   1.196   7.792   1.989
  159TIP3   OH2  419   4.473   0.108   2.149
  159TIP3    H1  420   4.548   0.075   2.100
  159TIP3    H2  421   4.469   0.053   2.228
  160TIP3   OH2  422   1.265   7.542   2.170
  160TIP3    H1  423   1.266   7.485   2.092
  160TIP3    H2  424   1.224   7.623   2.140
  161TIP3   OH2  425   1.322   7.872   1.879
  161TIP3    H1  426   1.397   7.929   1.869
  161TIP3    H2  427   1.248   7.922   1.845
  162TIP3   OH2  428   1.853   7.770   2.159
  162TIP3    H1  429   1.845   7.763   2.254
  162TIP3    H2  430   1.915   7.842   2.146
  163TIP3   OH2  431   4.722   0.050   2.001
  163TIP3    H1  432   4.674   0.110   1.944
  163TIP3    H2  433   4.811   0.049   1.965
  164TIP3   OH2  434   1.124   7.652   2.425
  164TIP3    H1  435   1.047   7.597   2.413
  164TIP3    H2  436   1.198   7.598   2.396
  165TIP3   OH2  437   1.527   7.590   2.243
  165TIP3    H1  438   1.550   7.562   2.332
  165TIP3    H2  439   1.436   7.562   2.231
  166TIP3   OH2  440   4.929   0.742   1.261
  166TIP3    H1  441   4.951   0.744   1.354
  166TIP3    H2  442   4.924   0.835   1.236
  167TIP3   OH2  443   4.942   0.729   1.532
  167TIP3    H1  444   4.891   0.649   1.530
  167TIP3    H2  445   5.008   0.715   1.600
  168TIP3   OH2  446   4.961   0.437   2.070
  168TIP3    H1  447   4.887   0.444   2.132
  168TIP3    H2  448   5.008   0.519   2.079
  169TIP3   OH2  449   4.958   0.202   1.311
  169TIP3    H1  450   4.961   0.172   1.220
  169TIP3    H2  451   4.966   0.298   1.305
  170TIP3   OH2  452   4.792   0.497   1.531
  170TIP3    H1  453   4.721   0.549   1.569
  170TIP3    H2  454   4.750   0.448   1.459
  171TIP3   OH2  455   4.979   0.060   1.890
  171TIP3    H1  456   5.052  -0.002   1.883
  171TIP3    H2  457   4.974   0.101   1.804
  172TIP3   OH2  458   2.348   7.883   1.901
  172TIP3    H1  459   2.284   7.811   1.900
  172TIP3    H2  460   2.432   7.840   1.914
  173TIP3   OH2  461   0.608   7.393   2.533
  173TIP3    H1  462   0.655   7.335   2.473
  173TIP3    H2  463   0.675   7.422   2.595
  174TIP3   OH2  464   4.565   0.558   0.997
  174TIP3    H1  465   4.616   0.507   0.934
  174TIP3    H2  466   4.550   0.642   0.953
  175TIP3   OH2  467   3.535   0.413   2.273
  175TIP3    H1  468   3.444   0.387   2.255
  175TIP3    H2  469   3.544   0.401   2.368
  176TIP3   OH2  470   3.714   0.484   1.873
  176TIP3    H1  471   3.657   0.556   1.846
  176TIP3    H2  472   3.800   0.507   1.837
  177TIP3   OH2  473   4.153   0.680   1.952
  177TIP3    H1  474   4.194   0.674   2.038
  177TIP3    H2  475   4.207   0.744   1.904
  178TIP3   OH2  476   4.323   0.858   1.831
  178TIP3    H1  477   4.360   0.802   1.763
  178TIP3    H2  478   4.400   0.899   1.873
  179TIP3   OH2  479   3.444   0.746   1.854
  179TIP3    H1  480   3.351   0.768   1.859
  179TIP3    H2  481   3.485   0.800   1.921
  180TIP3   OH2  482   3.664   0.715   1.693
  180TIP3    H1  483   3.577   0.727   1.731
  180TIP3    H2  484   3.656   0.637   1.638
  181TIP3   OH2  485   4.143   0.551   1.537
  181TIP3    H1  486   4.140   0.463   1.500
  181TIP3    H2  487   4.058   0.589   1.514
  182TIP3   OH2  488   4.360   0.681   1.624
  182TIP3    H1  489   4.276   0.635   1.619
  182TIP3    H2  490   4.389   0.689   1.534
  183TIP3   OH2  491   4.578   0.887   1.463
  183TIP3    H1  492   4.564   0.967   1.412
  183TIP3    H2  493   4.525   0.821   1.420
  184TIP3   OH2  494   3.425   0.370   1.531
  184TIP3    H1  495   3.404   0.429   1.603
  184TIP3    H2  496   3.340   0.342   1.497
  185TIP3   OH2  497   3.910   0.473   1.356
  185TIP3    H1  498   3.901   0.381   1.331
  185TIP3    H2  499   3.845   0.485   1.425
  186TIP3   OH2  500   4.830   0.714   1.844
  186TIP3    H1  501   4.763   0.684   1.783
  186TIP3    H2  502   4.816   0.809   1.851
  187TIP3   OH2  503   5.568   0.450   1.333
  187TIP3    H1  504   5.545   0.533   1.291
  187TIP3    H2  505   5.490   0.427   1.385
  188TIP3   OH2  506   5.775   0.540   1.492
  188TIP3    H1  507   5.713   0.604   1.526
  188TIP3    H2  508   5.725   0.489   1.428
  189TIP3   OH2  509   5.570   0.714   1.549
  189TIP3    H1  510   5.541   0.721   1.458
  189TIP3    H2  511   5.489   0.700   1.599
  190TIP3   OH2  512   5.146   0.241   1.524
  190TIP3    H1  513   5.083   0.211   1.458
  190TIP3    H2  514   5.173   0.160   1.568
  191TIP3   OH2  515   4.992   0.473   1.251
  191TIP3    H1  516   5.084   0.493   1.271
  191TIP3    H2  517   4.949   0.559   1.248
  192TIP3   OH2  518   5.923   0.718   1.327
  192TIP3    H1  519   5.928   0.801   1.376
  192TIP3    H2  520   5.891   0.655   1.391
  193TIP3   OH2  521   5.347   0.428   1.501
  193TIP3    H1  522   5.397   0.426   1.582
  193TIP3    H2  523   5.282   0.359   1.510
  194TIP3   OH2  524   6.525   1.224   1.364
  194TIP3    H1  525   6.553   1.179   1.285
  194TIP3    H2  526   6.605   1.261   1.400
  195TIP3   OH2  527   5.490   0.424   1.749
  195TIP3    H1  528   5.580   0.405   1.777
  195TIP3    H2  529   5.435   0.392   1.821
  196TIP3   OH2  530   5.234   0.047   1.695
  196TIP3    H1  531   5.300   0.090   1.748
  196TIP3    H2  532   5.213  -0.033   1.742
  197TIP3   OH2  533   5.739   0.756   1.130
  197TIP3    H1  534   5.773   0.815   1.063
  197TIP3    H2  535   5.813   0.739   1.187
  198TIP3   OH2  536   5.240   0.601   1.311
  198TIP3    H1  537   5.266   0.541   1.380
  198TIP3    H2  538   5.315   0.660   1.302
  199TIP3   OH2  539   5.194   0.921   1.723
  199TIP3    H1  540   5.287   0.924   1.746
  199TIP3    H2  541   5.170   0.829   1.730
  200TIP3   OH2  542   5.669   0.870   1.753
  200TIP3    H1  543   5.758   0.838   1.769
  200TIP3    H2  544   5.638   0.819   1.678
  201TIP3   OH2  545   6.278   0.841   1.536
  201TIP3    H1  546   6.276   0.755   1.577
  201TIP3    H2  547   6.368   0.872   1.550
  202TIP3   OH2  548   5.297   0.366   1.938
  202TIP3    H1  549   5.315   0.272   1.938
  202TIP3    H2  550   5.216   0.375   1.887
  203TIP3   OH2  551   5.930   0.445   1.692
  203TIP3    H1  552   5.877   0.477   1.619
  203TIP3    H2  553   5.980   0.372   1.655
  204TIP3   OH2  554   5.412   0.114   1.899
  204TIP3    H1  555   5.452   0.027   1.888
  204TIP3    H2  556   5.446   0.145   1.983
  205TIP3   OH2  557   4.764   0.770   0.832
  205TIP3    H1  558   4.821   0.758   0.756
  205TIP3    H2  559   4.801   0.712   0.899
  206TIP3   OH2  560   4.933   0.568   0.939
  206TIP3    H1  561   4.924   0.482   0.979
  206TIP3    H2  562   5.000   0.612   0.992
  207TIP3   OH2  563   5.360   0.671   1.720
  207TIP3    H1  564   5.268   0.653   1.739
  207TIP3    H2  565   5.406   0.592   1.747
  208TIP3   OH2  566   5.509   0.723   1.274
  208TIP3    H1  567   5.476   0.810   1.252
  208TIP3    H2  568   5.593   0.717   1.228
  209TIP3   OH2  569   5.927   0.973   1.447
  209TIP3    H1  570   5.970   0.961   1.532
  209TIP3    H2  571   5.994   1.015   1.393
  210TIP3   OH2  572   6.126   1.102   1.304
  210TIP3    H1  573   6.194   1.044   1.270
  210TIP3    H2  574   6.171   1.159   1.365
  211TIP3   OH2  575   5.194   0.991   1.326
  211TIP3    H1  576   5.100   0.999   1.307
  211TIP3    H2  577   5.198   0.971   1.419
  212TIP3   OH2  578   5.427   0.967   1.186
  212TIP3    H1  579   5.345   0.981   1.231
  212TIP3    H2  580   5.408   0.985   1.094
  213TIP3   OH2  581   5.829   0.957   0.956
  213TIP3    H1  582   5.758   1.003   0.912
  213TIP3    H2  583   5.873   1.025   1.007
  214TIP3   OH2  584   5.151   0.712   1.049
  214TIP3    H1  585   5.144   0.701   1.144
  214TIP3    H2  586   5.239   0.681   1.028
  215TIP3   OH2  587   0.824   2.293   2.500
  215TIP3    H1  588   0.829   2.340   2.416
  215TIP3    H2  589   0.910   2.307   2.540
  216TIP3   OH2  590   1.066   1.695   2.784
  216TIP3    H1  591   0.982   1.690   2.830
  216TIP3    H2  592   1.084   1.789   2.779
  217TIP3   OH2  593   2.415   1.602   1.461
  217TIP3    H1  594   2.326   1.622   1.433
  217TIP3    H2  595   2.447   1.683   1.501
  218TIP3   OH2  596   1.964   2.012   1.459
  218TIP3    H1  597   1.976   2.030   1.365
  218TIP3    H2  598   2.044   2.045   1.500
  219TIP3   OH2  599   2.953   0.940   1.753
  219TIP3    H1  600   2.978   1.020   1.799
  219TIP3    H2  601   3.011   0.937   1.677
  220TIP3   OH2  602   3.041   1.178   1.878
  220TIP3    H1  603   2.949   1.205   1.885
  220TIP3    H2  604   3.082   1.213   1.958
  221TIP3   OH2  605   2.459   1.841   1.576
  221TIP3    H1  606   2.376   1.885   1.593
  221TIP3    H2  607   2.510   1.904   1.524
  222TIP3   OH2  608   2.676   1.868   1.873
  222TIP3    H1  609   2.677   1.794   1.812
  222TIP3    H2  610   2.659   1.945   1.818
  223TIP3   OH2  611   2.883   1.470   1.705
  223TIP3    H1  612   2.823   1.544   1.713
  223TIP3    H2  613   2.898   1.462   1.610
  224TIP3   OH2  614   2.567   1.353   2.011
  224TIP3    H1  615   2.569   1.440   2.049
  224TIP3    H2  616   2.478   1.344   1.976
  225TIP3   OH2  617   2.213   1.950   1.633
  225TIP3    H1  618   2.194   2.037   1.667
  225TIP3    H2  619   2.196   1.891   1.707
  226TIP3   OH2  620   1.842   1.855   2.164
  226TIP3    H1  621   1.755   1.887   2.189
  226TIP3    H2  622   1.824   1.781   2.106
  227TIP3   OH2  623   1.600   1.984   2.245
  227TIP3    H1  624   1.581   2.003   2.153
  227TIP3    H2  625   1.515   1.983   2.288
  228TIP3   OH2  626   2.918   2.214   1.904
  228TIP3    H1  627   2.924   2.118   1.906
  228TIP3    H2  628   2.835   2.233   1.948
  229TIP3   OH2  629   2.000   2.006   1.995
  229TIP3    H1  630   1.990   2.094   2.033
  229TIP3    H2  631   1.960   1.948   2.060
  230TIP3   OH2  632   2.787   1.305   2.181
  230TIP3    H1  633   2.708   1.326   2.132
  230TIP3    H2  634   2.808   1.215   2.157
  231TIP3   OH2  635   2.533   1.068   1.972
  231TIP3    H1  636   2.503   1.037   2.058
  231TIP3    H2  637   2.545   1.162   1.984
  232TIP3   OH2  638   2.309   1.303   2.338
  232TIP3    H1  639   2.296   1.355   2.417
  232TIP3    H2  640   2.401   1.315   2.317
  233TIP3   OH2  641   2.315   1.312   1.922
  233TIP3    H1  642   2.301   1.273   1.836
  233TIP3    H2  643   2.259   1.262   1.981
  234TIP3   OH2  644   2.624   2.543   1.983
  234TIP3    H1  645   2.619   2.562   1.889
  234TIP3    H2  646   2.704   2.586   2.012
  235TIP3   OH2  647   1.583   1.580   2.471
  235TIP3    H1  648   1.666   1.621   2.496
  235TIP3    H2  649   1.520   1.652   2.473
  236TIP3   OH2  650   2.685   1.653   1.708
  236TIP3    H1  651   2.692   1.697   1.623
  236TIP3    H2  652   2.596   1.619   1.711
  237TIP3   OH2  653   2.153   1.722   2.042
  237TIP3    H1  654   2.173   1.709   2.134
  237TIP3    H2  655   2.062   1.692   2.032
  238TIP3   OH2  656   2.046   1.475   2.305
  238TIP3    H1  657   1.978   1.467   2.238
  238TIP3    H2  658   2.125   1.440   2.264
  239TIP3   OH2  659   2.271   1.995   1.937
  239TIP3    H1  660   2.177   1.980   1.947
  239TIP3    H2  661   2.300   2.025   2.023
  240TIP3   OH2  662   2.937   1.937   1.911
  240TIP3    H1  663   2.844   1.919   1.922
  240TIP3    H2  664   2.959   1.897   1.827
  241TIP3   OH2  665   2.172   1.456   1.556
  241TIP3    H1  666   2.222   1.386   1.597
  241TIP3    H2  667   2.180   1.439   1.462
  242TIP3   OH2  668   1.789   1.994   1.812
  242TIP3    H1  669   1.819   2.078   1.779
  242TIP3    H2  670   1.860   1.963   1.868
  243TIP3   OH2  671   2.205   1.667   1.778
  243TIP3    H1  672   2.185   1.690   1.868
  243TIP3    H2  673   2.298   1.644   1.779
  244TIP3   OH2  674   2.417   2.215   1.849
  244TIP3    H1  675   2.357   2.142   1.863
  244TIP3    H2  676   2.374   2.269   1.783
  245TIP3   OH2  677   2.208   1.160   2.126
  245TIP3    H1  678   2.232   1.217   2.199
  245TIP3    H2  679   2.266   1.084   2.135
  246TIP3   OH2  680   2.830   1.063   2.064
  246TIP3    H1  681   2.793   0.987   2.109
  246TIP3    H2  682   2.792   1.059   1.976
  247TIP3   OH2  683   2.492   2.261   1.500
  247TIP3    H1  684   2.457   2.318   1.431
  247TIP3    H2  685   2.585   2.254   1.479
  248TIP3   OH2  686   1.274   2.243   2.378
  248TIP3    H1  687   1.349   2.266   2.434
  248TIP3    H2  688   1.279   2.148   2.368
  249TIP3   OH2  689   1.717   2.148   2.437
  249TIP3    H1  690   1.810   2.126   2.446
  249TIP3    H2  691   1.686   2.092   2.366
  250TIP3   OH2  692   2.344   2.094   2.182
  250TIP3    H1  693   2.355   2.024   2.247
  250TIP3    H2  694   2.416   2.154   2.199
  251TIP3   OH2  695   1.320   1.642   2.612
  251TIP3    H1  696   1.347   1.551   2.600
  251TIP3    H2  697   1.230   1.637   2.645
  252TIP3   OH2  698   1.985   1.744   2.368
  252TIP3    H1  699   1.941   1.775   2.290
  252TIP3    H2  700   2.017   1.656   2.345
  253TIP3   OH2  701   2.441   1.763   1.976
  253TIP3    H1  702   2.513   1.817   1.943
  253TIP3    H2  703   2.364   1.820   1.968
  254TIP3   OH2  704   1.474   1.377   2.612
  254TIP3    H1  705   1.516   1.428   2.543
  254TIP3    H2  706   1.508   1.413   2.694
  255TIP3   OH2  707   2.331   1.643   2.328
  255TIP3    H1  708   2.404   1.625   2.269
  255TIP3    H2  709   2.350   1.592   2.407
  256TIP3   OH2  710   2.587   1.351   2.405
  256TIP3    H1  711   2.655   1.291   2.376
  256TIP3    H2  712   2.629   1.437   2.403
  257TIP3   OH2  713   2.577   1.600   2.138
  257TIP3    H1  714   2.519   1.654   2.084
  257TIP3    H2  715   2.665   1.618   2.105
  258TIP3   OH2  716   1.806   1.116   2.642
  258TIP3    H1  717   1.735   1.127   2.705
  258TIP3    H2  718   1.765   1.130   2.556
  259TIP3   OH2  719   2.246   1.060   2.499
  259TIP3    H1  720   2.165   1.062   2.551
  259TIP3    H2  721   2.233   1.129   2.433
  260TIP3   OH2  722   2.448   1.028   2.234
  260TIP3    H1  723   2.447   1.074   2.317
  260TIP3    H2  724   2.509   0.956   2.247
  261TIP3   OH2  725   2.549   0.968   2.505
  261TIP3    H1  726   2.607   0.894   2.486
  261TIP3    H2  727   2.603   1.030   2.553
  262TIP3   OH2  728   2.226   0.788   2.597
  262TIP3    H1  729   2.197   0.708   2.552
  262TIP3    H2  730   2.145   0.834   2.619
  263TIP3   OH2  731   2.752   2.261   1.424
  263TIP3    H1  732   2.785   2.296   1.507
  263TIP3    H2  733   2.793   2.316   1.358
  264TIP3   OH2  734   2.765   2.322   1.694
  264TIP3    H1  735   2.714   2.241   1.704
  264TIP3    H2  736   2.841   2.310   1.750
  265TIP3   OH2  737   2.808   1.986   2.233
  265TIP3    H1  738   2.733   1.994   2.291
  265TIP3    H2  739   2.852   2.071   2.237
  266TIP3   OH2  740   2.782   1.772   1.476
  266TIP3    H1  741   2.794   1.699   1.414
  266TIP3    H2  742   2.857   1.829   1.459
  267TIP3   OH2  743   2.625   2.087   1.718
  267TIP3    H1  744   2.544   2.125   1.752
  267TIP3    H2  745   2.606   2.068   1.626
  268TIP3   OH2  746   2.831   1.640   2.039
  268TIP3    H1  747   2.898   1.573   2.026
  268TIP3    H2  748   2.837   1.697   1.962
  269TIP3   OH2  749   2.999   1.425   2.051
  269TIP3    H1  750   2.928   1.384   2.100
  269TIP3    H2  751   3.078   1.382   2.084
  270TIP3   OH2  752   2.730   1.038   1.569
  270TIP3    H1  753   2.810   1.074   1.607
  270TIP3    H2  754   2.689   0.990   1.641
  271TIP3   OH2  755   2.778   1.265   1.844
  271TIP3    H1  756   2.702   1.291   1.896
  271TIP3    H2  757   2.810   1.346   1.806
  272TIP3   OH2  758   3.226   0.855   2.348
  272TIP3    H1  759   3.292   0.801   2.305
  272TIP3    H2  760   3.187   0.906   2.278
  273TIP3   OH2  761   3.078   0.980   2.153
  273TIP3    H1  762   2.994   1.023   2.136
  273TIP3    H2  763   3.069   0.893   2.115
  274TIP3   OH2  764   2.241   2.130   0.994
  274TIP3    H1  765   2.195   2.213   0.984
  274TIP3    H2  766   2.333   2.156   1.007
  275TIP3   OH2  767   1.360   1.970   2.405
  275TIP3    H1  768   1.320   1.884   2.391
  275TIP3    H2  769   1.378   1.974   2.499
  276TIP3   OH2  770   1.567   2.034   1.978
  276TIP3    H1  771   1.531   2.107   1.929
  276TIP3    H2  772   1.640   2.003   1.925
  277TIP3   OH2  773   2.000   2.266   2.099
  277TIP3    H1  774   2.032   2.244   2.187
  277TIP3    H2  775   2.076   2.307   2.056
  278TIP3   OH2  776   2.216   2.388   1.981
  278TIP3    H1  777   2.285   2.329   1.952
  278TIP3    H2  778   2.261   2.455   2.032
  279TIP3   OH2  779   3.008   0.731   2.061
  279TIP3    H1  780   2.916   0.738   2.086
  279TIP3    H2  781   3.025   0.636   2.059
  280TIP3   OH2  782   1.227   2.295   1.983
  280TIP3    H1  783   1.172   2.232   2.030
  280TIP3    H2  784   1.250   2.360   2.050
  281TIP3   OH2  785   1.466   2.264   1.855
  281TIP3    H1  786   1.386   2.269   1.907
  281TIP3    H2  787   1.437   2.282   1.765
  282TIP3   OH2  788   1.848   2.241   1.719
  282TIP3    H1  789   1.895   2.275   1.642
  282TIP3    H2  790   1.854   2.311   1.784
  283TIP3   OH2  791   2.145   2.199   1.714
  283TIP3    H1  792   2.065   2.228   1.760
  283TIP3    H2  793   2.190   2.281   1.690
  284TIP3   OH2  794   2.322   2.400   1.659
  284TIP3    H1  795   2.326   2.491   1.630
  284TIP3    H2  796   2.380   2.353   1.599
  285TIP3   OH2  797   2.711   0.748   2.531
  285TIP3    H1  798   2.753   0.709   2.607
  285TIP3    H2  799   2.776   0.738   2.460
  286TIP3   OH2  800   2.659   2.269   1.992
  286TIP3    H1  801   2.581   2.236   1.948
  286TIP3    H2  802   2.646   2.364   1.997
  287TIP3   OH2  803   3.960   1.756   0.933
  287TIP3    H1  804   3.954   1.827   0.869
  287TIP3    H2  805   3.890   1.696   0.909
  288TIP3   OH2  806   3.886   1.646   1.182
  288TIP3    H1  807   3.954   1.591   1.222
  288TIP3    H2  808   3.922   1.670   1.097
  289TIP3   OH2  809   3.278   1.607   1.580
  289TIP3    H1  810   3.270   1.515   1.607
  289TIP3    H2  811   3.351   1.607   1.517
  290TIP3   OH2  812   4.215   1.944   0.799
  290TIP3    H1  813   4.213   1.882   0.872
  290TIP3    H2  814   4.229   2.029   0.840
  291TIP3   OH2  815   3.172   1.971   1.271
  291TIP3    H1  816   3.137   1.925   1.195
  291TIP3    H2  817   3.259   1.933   1.285
  292TIP3   OH2  818   3.010   1.365   1.140
  292TIP3    H1  819   3.056   1.336   1.062
  292TIP3    H2  820   2.985   1.456   1.122
  293TIP3   OH2  821   3.730   1.872   1.177
  293TIP3    H1  822   3.763   1.782   1.173
  293TIP3    H2  823   3.807   1.925   1.198
  294TIP3   OH2  824   4.776   1.206   1.154
  294TIP3    H1  825   4.784   1.300   1.169
  294TIP3    H2  826   4.815   1.193   1.067
  295TIP3   OH2  827   3.582   1.101   1.111
  295TIP3    H1  828   3.503   1.118   1.061
  295TIP3    H2  829   3.568   1.013   1.148
  296TIP3   OH2  830   4.255   1.226   0.833
  296TIP3    H1  831   4.295   1.192   0.913
  296TIP3    H2  832   4.330   1.245   0.776
  297TIP3   OH2  833   3.144   1.156   1.272
  297TIP3    H1  834   3.130   1.249   1.259
  297TIP3    H2  835   3.068   1.114   1.232
  298TIP3   OH2  836   3.588   1.491   1.175
  298TIP3    H1  837   3.669   1.448   1.201
  298TIP3    H2  838   3.534   1.421   1.139
  299TIP3   OH2  839   4.835   1.433   1.396
  299TIP3    H1  840   4.764   1.459   1.337
  299TIP3    H2  841   4.796   1.365   1.451
  300TIP3   OH2  842   3.478   0.981   1.643
  300TIP3    H1  843   3.436   0.900   1.615
  300TIP3    H2  844   3.412   1.027   1.695
  301TIP3   OH2  845   3.850   1.907   0.632
  301TIP3    H1  846   3.861   1.895   0.538
  301TIP3    H2  847   3.848   2.002   0.644
  302TIP3   OH2  848   3.613   1.829   1.423
  302TIP3    H1  849   3.535   1.883   1.435
  302TIP3    H2  850   3.648   1.855   1.338
  303TIP3   OH2  851   4.379   1.130   1.051
  303TIP3    H1  852   4.371   1.048   1.101
  303TIP3    H2  853   4.374   1.199   1.118
  304TIP3   OH2  854   3.381   0.982   1.341
  304TIP3    H1  855   3.312   1.036   1.379
  304TIP3    H2  856   3.461   1.033   1.352
  305TIP3   OH2  857   3.408   2.001   1.487
  305TIP3    H1  858   3.403   2.093   1.460
  305TIP3    H2  859   3.328   1.986   1.538
  306TIP3   OH2  860   4.260   2.176   0.947
  306TIP3    H1  861   4.183   2.162   1.002
  306TIP3    H2  862   4.247   2.262   0.908
  307TIP3   OH2  863   4.559   1.119   1.316
  307TIP3    H1  864   4.489   1.182   1.307
  307TIP3    H2  865   4.621   1.141   1.247
  308TIP3   OH2  866   3.832   0.700   1.241
  308TIP3    H1  867   3.876   0.624   1.279
  308TIP3    H2  868   3.793   0.745   1.316
  309TIP3   OH2  869   4.142   1.972   0.534
  309TIP3    H1  870   4.099   2.057   0.543
  309TIP3    H2  871   4.172   1.951   0.622
  310TIP3   OH2  872   4.483   2.082   1.318
  310TIP3    H1  873   4.464   2.011   1.256
  310TIP3    H2  874   4.459   2.162   1.270
  311TIP3   OH2  875   3.704   1.561   0.584
  311TIP3    H1  876   3.614   1.588   0.564
  311TIP3    H2  877   3.748   1.561   0.499
  312TIP3   OH2  878   4.665   1.753   1.120
  312TIP3    H1  879   4.583   1.801   1.129
  312TIP3    H2  880   4.682   1.751   1.026
  313TIP3   OH2  881   4.188   1.529   0.577
  313TIP3    H1  882   4.115   1.573   0.622
  313TIP3    H2  883   4.261   1.534   0.639
  314TIP3   OH2  884   4.350   1.621   1.507
  314TIP3    H1  885   4.319   1.701   1.549
  314TIP3    H2  886   4.286   1.604   1.438
  315TIP3   OH2  887   3.288   1.553   0.927
  315TIP3    H1  888   3.277   1.516   0.839
  315TIP3    H2  889   3.303   1.478   0.983
  316TIP3   OH2  890   3.545   2.022   1.034
  316TIP3    H1  891   3.469   1.965   1.019
  316TIP3    H2  892   3.606   1.967   1.084
  317TIP3   OH2  893   3.485   1.588   1.406
  317TIP3    H1  894   3.518   1.550   1.325
  317TIP3    H2  895   3.529   1.673   1.413
  318TIP3   OH2  896   4.053   2.174   1.116
  318TIP3    H1  897   4.015   2.257   1.144
  318TIP3    H2  898   4.016   2.109   1.175
  319TIP3   OH2  899   3.620   2.090   1.643
  319TIP3    H1  900   3.558   2.148   1.688
  319TIP3    H2  901   3.565   2.034   1.588
  320TIP3   OH2  902   3.957   1.476   0.400
  320TIP3    H1  903   4.033   1.473   0.460
  320TIP3    H2  904   3.996   1.491   0.314
  321TIP3   OH2  905   3.395   1.667   1.823
  321TIP3    H1  906   3.388   1.761   1.837
  321TIP3    H2  907   3.339   1.650   1.747
  322TIP3   OH2  908   3.825   2.172   0.636
  322TIP3    H1  909   3.880   2.246   0.659
  322TIP3    H2  910   3.740   2.191   0.677
  323TIP3   OH2  911   3.413   2.249   1.730
  323TIP3    H1  912   3.386   2.261   1.639
  323TIP3    H2  913   3.331   2.232   1.776
  324TIP3   OH2  914   4.284   2.067   0.017
  324TIP3    H1  915   4.284   2.157  -0.015
  324TIP3    H2  916   4.375   2.039   0.009
  325TIP3   OH2  917   3.017   1.807   1.684
  325TIP3    H1  918   3.009   1.776   1.594
  325TIP3    H2  919   3.053   1.732   1.732
  326TIP3   OH2  920   2.932   1.995   1.405
  326TIP3    H1  921   3.015   1.974   1.362
  326TIP3    H2  922   2.945   2.081   1.443
  327TIP3   OH2  923   4.704   2.470   1.367
  327TIP3    H1  924   4.711   2.375   1.375
  327TIP3    H2  925   4.624   2.492   1.414
  328TIP3   OH2  926   3.817   2.229   1.514
  328TIP3    H1  927   3.805   2.320   1.541
  328TIP3    H2  928   3.746   2.182   1.559
  329TIP3   OH2  929   3.666   2.403   0.444
  329TIP3    H1  930   3.579   2.378   0.412
  329TIP3    H2  931   3.649   2.482   0.497
  330TIP3   OH2  932   3.026   2.239   0.751
  330TIP3    H1  933   3.019   2.201   0.839
  330TIP3    H2  934   2.939   2.230   0.714
  331TIP3   OH2  935   3.819   2.325   0.122
  331TIP3    H1  936   3.864   2.249   0.085
  331TIP3    H2  937   3.849   2.329   0.213
  332TIP3   OH2  938   3.921   2.346   0.387
  332TIP3    H1  939   3.831   2.358   0.418
  332TIP3    H2  940   3.974   2.355   0.466
  333TIP3   OH2  941   4.581   1.591   1.660
  333TIP3    H1  942   4.508   1.611   1.602
  333TIP3    H2  943   4.576   1.496   1.673
  334TIP3   OH2  944   3.192   2.018   1.657
  334TIP3    H1  945   3.245   2.005   1.736
  334TIP3    H2  946   3.126   1.949   1.660
  335TIP3   OH2  947   3.687   0.849   1.439
  335TIP3    H1  948   3.632   0.844   1.361
  335TIP3    H2  949   3.631   0.817   1.510
  336TIP3   OH2  950   4.123   0.943   1.663
  336TIP3    H1  951   4.189   0.921   1.728
  336TIP3    H2  952   4.039   0.922   1.705
  337TIP3   OH2  953   4.429   1.358   1.615
  337TIP3    H1  954   4.358   1.336   1.676
  337TIP3    H2  955   4.385   1.402   1.542
  338TIP3   OH2  956   4.049   1.523   0.136
  338TIP3    H1  957   3.956   1.510   0.116
  338TIP3    H2  958   4.082   1.573   0.061
  339TIP3   OH2  959   3.587   1.390   1.576
  339TIP3    H1  960   3.506   1.372   1.623
  339TIP3    H2  961   3.564   1.458   1.512
  340TIP3   OH2  962   3.391   1.183   0.934
  340TIP3    H1  963   3.337   1.106   0.917
  340TIP3    H2  964   3.462   1.176   0.870
  341TIP3   OH2  965   3.887   1.389   0.729
  341TIP3    H1  966   3.809   1.427   0.687
  341TIP3    H2  967   3.929   1.338   0.660
  342TIP3   OH2  968   4.069   1.568   1.807
  342TIP3    H1  969   4.045   1.494   1.861
  342TIP3    H2  970   4.162   1.584   1.827
  343TIP3   OH2  971   4.109   1.452   0.875
  343TIP3    H1  972   4.029   1.458   0.823
  343TIP3    H2  973   4.151   1.371   0.845
  344TIP3   OH2  974   3.350   1.360   1.715
  344TIP3    H1  975   3.351   1.409   1.797
  344TIP3    H2  976   3.336   1.269   1.742
  345TIP3   OH2  977   4.088   1.501   1.298
  345TIP3    H1  978   4.172   1.456   1.287
  345TIP3    H2  979   4.065   1.486   1.390
  346TIP3   OH2  980   3.836   1.043   1.032
  346TIP3    H1  981   3.753   1.072   1.071
  346TIP3    H2  982   3.891   1.023   1.108
  347TIP3   OH2  983   4.414   2.795   1.460
  347TIP3    H1  984   4.412   2.809   1.365
  347TIP3    H2  985   4.492   2.842   1.489
  348TIP3   OH2  986   3.352   1.931   1.884
  348TIP3    H1  987   3.433   1.950   1.931
  348TIP3    H2  988   3.284   1.931   1.951
  349TIP3   OH2  989   3.780   1.319   1.257
  349TIP3    H1  990   3.859   1.316   1.203
  349TIP3    H2  991   3.812   1.307   1.346
  350TIP3   OH2  992   3.832   1.290   1.521
  350TIP3    H1  993   3.753   1.339   1.540
  350TIP3    H2  994   3.903   1.351   1.542
  351TIP3   OH2  995   3.442   1.608   0.503
  351TIP3    H1  996   3.375   1.559   0.456
  351TIP3    H2  997   3.393   1.669   0.558
  352TIP3   OH2  998   4.435   1.901   1.123
  352TIP3    H1  999   4.464   1.951   1.046
  352TIP3    H2 1000   4.350   1.865   1.098
  353TIP3   OH2 1001   3.944   1.965   1.547
  353TIP3    H1 1002   3.984   1.951   1.632
  353TIP3    H2 1003   3.900   2.050   1.555
  354TIP3   OH2 1004   4.022   1.234   0.556
  354TIP3    H1 1005   4.113   1.222   0.531
  354TIP3    H2 1006   3.973   1.232   0.473
  355TIP3   OH2 1007   3.215   1.609   1.201
  355TIP3    H1 1008   3.165   1.633   1.123
  355TIP3    H2 1009   3.266   1.533   1.174
  356TIP3   OH2 1010   3.630   1.660   0.298
  356TIP3    H1 1011   3.582   1.742   0.288
  356TIP3    H2 1012   3.575   1.607   0.356
  357TIP3   OH2 1013   3.093   1.599   1.839
  357TIP3    H1 1014   3.123   1.575   1.927
  357TIP3    H2 1015   3.033   1.528   1.814
  358TIP3   OH2 1016   3.857   1.738   1.847
  358TIP3    H1 1017   3.783   1.681   1.825
  358TIP3    H2 1018   3.933   1.691   1.814
  359TIP3   OH2 1019   4.083   2.249   1.431
  359TIP3    H1 1020   3.989   2.233   1.437
  359TIP3    H2 1021   4.107   2.289   1.515
  360TIP3   OH2 1022   4.496   1.284   0.218
  360TIP3    H1 1023   4.435   1.217   0.188
  360TIP3    H2 1024   4.441   1.355   0.251
  361TIP3   OH2 1025   4.726   2.195   1.380
  361TIP3    H1 1026   4.636   2.166   1.396
  361TIP3    H2 1027   4.753   2.150   1.301
  362TIP3   OH2 1028   4.220   2.111   0.289
  362TIP3    H1 1029   4.201   2.038   0.349
  362TIP3    H2 1030   4.228   2.069   0.203
  363TIP3   OH2 1031   4.214   1.778   1.027
  363TIP3    H1 1032   4.122   1.763   1.004
  363TIP3    H2 1033   4.253   1.690   1.026
  364TIP3   OH2 1034   3.307   1.944   0.898
  364TIP3    H1 1035   3.290   2.033   0.868
  364TIP3    H2 1036   3.224   1.915   0.936
  365TIP3   OH2 1037   3.468   1.776   0.756
  365TIP3    H1 1038   3.424   1.832   0.819
  365TIP3    H2 1039   3.522   1.717   0.809
  366TIP3   OH2 1040   3.642   2.311   1.311
  366TIP3    H1 1041   3.679   2.387   1.266
  366TIP3    H2 1042   3.715   2.275   1.362
  367TIP3   OH2 1043   3.299   2.251   0.812
  367TIP3    H1 1044   3.210   2.246   0.778
  367TIP3    H2 1045   3.336   2.330   0.773
  368TIP3   OH2 1046   3.974   1.961   1.274
  368TIP3    H1 1047   3.964   1.958   1.369
  368TIP3    H2 1048   4.045   1.899   1.255
  369TIP3   OH2 1049   4.041   1.871   0.060
  369TIP3    H1 1050   4.112   1.840   0.116
  369TIP3    H2 1051   3.961   1.845   0.106
  370TIP3   OH2 1052   4.229   2.471   1.298
  370TIP3    H1 1053   4.154   2.413   1.309
  370TIP3    H2 1054   4.205   2.530   1.227
  371TIP3   OH2 1055   7.128   6.334   6.868
  371TIP3    H1 1056   7.195   6.403   6.869
  371TIP3    H2 1057   7.050   6.376   6.903
  372TIP3   OH2 1058   3.300   1.100   1.824
  372TIP3    H1 1059   3.208   1.122   1.837
  372TIP3    H2 1060   3.317   1.031   1.889
  373TIP3   OH2 1061   4.270   1.746   0.178
  373TIP3    H1 1062   4.203   1.718   0.241
  373TIP3    H2 1063   4.347   1.762   0.232
  374TIP3   OH2 1064   3.050   2.225   1.512
  374TIP3    H1 1065   3.105   2.165   1.562
  374TIP3    H2 1066   3.079   2.312   1.539
  375TIP3   OH2 1067   3.215   1.786   0.330
  375TIP3    H1 1068   3.210   1.778   0.425
  375TIP3    H2 1069   3.305   1.813   0.312
  376TIP3   OH2 1070   4.157   1.197   1.546
  376TIP3    H1 1071   4.221   1.186   1.476
  376TIP3    H2 1072   4.151   1.111   1.587
  377TIP3   OH2 1073   4.014   0.829   0.618
  377TIP3    H1 1074   3.969   0.828   0.533
  377TIP3    H2 1075   4.056   0.916   0.622
  378TIP3   OH2 1076   3.521   2.151   0.303
  378TIP3    H1 1077   3.495   2.145   0.395
  378TIP3    H2 1078   3.616   2.140   0.305
  379TIP3   OH2 1079   3.601   1.098   0.785
  379TIP3    H1 1080   3.692   1.124   0.770
  379TIP3    H2 1081   3.606   1.011   0.823
  380TIP3   OH2 1082   4.052   1.448   1.561
  380TIP3    H1 1083   4.061   1.491   1.647
  380TIP3    H2 1084   4.097   1.364   1.572
  381TIP3   OH2 1085   3.918   0.789   0.889
  381TIP3    H1 1086   3.947   0.837   0.967
  381TIP3    H2 1087   3.936   0.849   0.817
  382TIP3   OH2 1088   3.203   2.123   0.360
  382TIP3    H1 1089   3.200   2.203   0.307
  382TIP3    H2 1090   3.279   2.134   0.416
  383TIP3   OH2 1091   4.666   1.257   1.528
  383TIP3    H1 1092   4.587   1.291   1.570
  383TIP3    H2 1093   4.634   1.199   1.459
  384TIP3   OH2 1094   4.333   1.526   1.011
  384TIP3    H1 1095   4.249   1.497   0.975
  384TIP3    H2 1096   4.346   1.472   1.089
  385TIP3   OH2 1097   4.243   2.448   0.890
  385TIP3    H1 1098   4.175   2.435   0.824
  385TIP3    H2 1099   4.320   2.474   0.840
  386TIP3   OH2 1100   3.115   0.610   1.535
  386TIP3    H1 1101   3.132   0.637   1.445
  386TIP3    H2 1102   3.097   0.692   1.581
  387TIP3   OH2 1103   2.963   1.874   0.791
  387TIP3    H1 1104   2.911   1.951   0.768
  387TIP3    H2 1105   2.919   1.802   0.746
  388TIP3   OH2 1106   3.047   2.496   1.876
  388TIP3    H1 1107   3.131   2.500   1.922
  388TIP3    H2 1108   3.022   2.403   1.878
  389TIP3   OH2 1109   3.515   2.414   1.923
  389TIP3    H1 1110   3.608   2.389   1.929
  389TIP3    H2 1111   3.481   2.359   1.852
  390TIP3   OH2 1112   6.324   5.843   6.914
  390TIP3    H1 1113   6.234   5.820   6.935
  390TIP3    H2 1114   6.317   5.927   6.868
  391TIP3   OH2 1115   4.135   2.351   1.681
  391TIP3    H1 1116   4.150   2.282   1.745
  391TIP3    H2 1117   4.209   2.411   1.691
  392TIP3   OH2 1118   6.754   6.118   6.924
  392TIP3    H1 1119   6.818   6.052   6.953
  392TIP3    H2 1120   6.788   6.150   6.841
  393TIP3   OH2 1121   3.155   1.897   2.075
  393TIP3    H1 1122   3.162   1.802   2.086
  393TIP3    H2 1123   3.072   1.909   2.028
  394TIP3   OH2 1124   3.778   2.001   1.848
  394TIP3    H1 1125   3.731   2.014   1.765
  394TIP3    H2 1126   3.816   1.913   1.840
  395TIP3   OH2 1127   3.531   1.574   0.052
  395TIP3    H1 1128   3.561   1.593   0.140
  395TIP3    H2 1129   3.517   1.660   0.012
  396TIP3   OH2 1130   4.249   2.023   1.457
  396TIP3    H1 1131   4.326   2.055   1.411
  396TIP3    H2 1132   4.182   2.090   1.443
  397TIP3   OH2 1133   3.262   1.624   2.072
  397TIP3    H1 1134   3.324   1.634   2.000
  397TIP3    H2 1135   3.308   1.656   2.149
  398TIP3   OH2 1136   3.652   1.570   1.788
  398TIP3    H1 1137   3.563   1.603   1.797
  398TIP3    H2 1138   3.671   1.577   1.694
  399TIP3   OH2 1139   4.132   1.906   1.817
  399TIP3    H1 1140   4.206   1.875   1.765
  399TIP3    H2 1141   4.126   1.844   1.890
  400TIP3   OH2 1142   7.228   5.712   6.850
  400TIP3    H1 1143   7.136   5.694   6.832
  400TIP3    H2 1144   7.228   5.751   6.937
  401TIP3   OH2 1145   3.737   1.317   1.863
  401TIP3    H1 1146   3.725   1.243   1.803
  401TIP3    H2 1147   3.707   1.393   1.813
  402TIP3   OH2 1148   3.720   1.101   1.689
  402TIP3    H1 1149   3.742   1.160   1.617
  402TIP3    H2 1150   3.632   1.069   1.669
  403TIP3   OH2 1151   3.769   1.636   1.543
  403TIP3    H1 1152   3.856   1.639   1.504
  403TIP3    H2 1153   3.722   1.711   1.506
  404TIP3   OH2 1154   4.338   1.591   1.877
  404TIP3    H1 1155   4.332   1.496   1.862
  404TIP3    H2 1156   4.418   1.617   1.833
  405TIP3   OH2 1157   4.360   1.866   1.647
  405TIP3    H1 1158   4.309   1.923   1.590
  405TIP3    H2 1159   4.448   1.868   1.611
  406TIP3   OH2 1160   3.614   1.394   2.098
  406TIP3    H1 1161   3.545   1.329   2.112
  406TIP3    H2 1162   3.643   1.379   2.008
  407TIP3   OH2 1163   3.866   0.888   1.768
  407TIP3    H1 1164   3.821   0.971   1.750
  407TIP3    H2 1165   3.802   0.820   1.746
  408TIP3   OH2 1166   4.000   1.341   1.946
  408TIP3    H1 1167   3.990   1.327   2.040
  408TIP3    H2 1168   3.913   1.325   1.910
  409TIP3   OH2 1169   4.261   1.330   1.834
  409TIP3    H1 1170   4.178   1.308   1.875
  409TIP3    H2 1171   4.326   1.278   1.883
  410TIP3   OH2 1172   4.500   1.247   1.959
  410TIP3    H1 1173   4.506   1.151   1.965
  410TIP3    H2 1174   4.490   1.276   2.050
  411TIP3   OH2 1175   3.451   1.173   2.150
  411TIP3    H1 1176   3.460   1.087   2.109
  411TIP3    H2 1177   3.490   1.161   2.237
  412TIP3   OH2 1178   3.934   0.836   2.026
  412TIP3    H1 1179   4.001   0.768   2.015
  412TIP3    H2 1180   3.906   0.857   1.936
  413TIP3   OH2 1181   4.026   1.063   2.152
  413TIP3    H1 1182   3.997   0.987   2.101
  413TIP3    H2 1183   3.952   1.124   2.148
  414TIP3   OH2 1184   3.246   2.344   0.209
  414TIP3    H1 1185   3.271   2.320   0.119
  414TIP3    H2 1186   3.158   2.382   0.200
  415TIP3   OH2 1187   2.486   2.203   0.855
  415TIP3    H1 1188   2.449   2.231   0.772
  415TIP3    H2 1189   2.556   2.267   0.872
  416TIP3   OH2 1190   2.765   2.266   1.120
  416TIP3    H1 1191   2.781   2.175   1.096
  416TIP3    H2 1192   2.847   2.295   1.159
  417TIP3   OH2 1193   4.523   2.513   0.860
  417TIP3    H1 1194   4.527   2.520   0.955
  417TIP3    H2 1195   4.537   2.602   0.828
  418TIP3   OH2 1196   4.542   2.530   1.139
  418TIP3    H1 1197   4.491   2.449   1.147
  418TIP3    H2 1198   4.610   2.522   1.206
  419TIP3   OH2 1199   4.607   2.247   1.708
  419TIP3    H1 1200   4.534   2.252   1.770
  419TIP3    H2 1201   4.651   2.331   1.715
  420TIP3   OH2 1202   4.483   1.758   0.350
  420TIP3    H1 1203   4.535   1.835   0.326
  420TIP3    H2 1204   4.514   1.735   0.438
  421TIP3   OH2 1205   4.588   1.666   0.593
  421TIP3    H1 1206   4.517   1.622   0.639
  421TIP3    H2 1207   4.638   1.710   0.662
  422TIP3   OH2 1208   4.626   2.005   0.943
  422TIP3    H1 1209   4.645   1.941   0.874
  422TIP3    H2 1210   4.621   2.089   0.896
  423TIP3   OH2 1211   4.398   2.294   1.163
  423TIP3    H1 1212   4.329   2.342   1.209
  423TIP3    H2 1213   4.354   2.254   1.088
  424TIP3   OH2 1214   4.526   1.572   0.153
  424TIP3    H1 1215   4.442   1.528   0.137
  424TIP3    H2 1216   4.510   1.626   0.230
  425TIP3   OH2 1217   4.226   1.181   0.150
  425TIP3    H1 1218   4.231   1.274   0.129
  425TIP3    H2 1219   4.228   1.137   0.065
  426TIP3   OH2 1220   4.414   1.524   0.744
  426TIP3    H1 1221   4.428   1.432   0.723
  426TIP3    H2 1222   4.397   1.526   0.838
  427TIP3   OH2 1223   3.067   1.702   1.430
  427TIP3    H1 1224   3.101   1.692   1.341
  427TIP3    H2 1225   3.138   1.669   1.486
  428TIP3   OH2 1226   4.609   1.894   1.524
  428TIP3    H1 1227   4.674   1.829   1.498
  428TIP3    H2 1228   4.589   1.942   1.444
  429TIP3   OH2 1229   4.790   1.680   1.501
  429TIP3    H1 1230   4.723   1.652   1.564
  429TIP3    H2 1231   4.827   1.598   1.467
  430TIP3   OH2 1232   4.434   1.271   0.634
  430TIP3    H1 1233   4.514   1.221   0.621
  430TIP3    H2 1234   4.380   1.251   0.557
  431TIP3   OH2 1235   4.612   1.507   1.259
  431TIP3    H1 1236   4.530   1.460   1.273
  431TIP3    H2 1237   4.586   1.596   1.237
  432TIP3   OH2 1238   3.187   1.233   2.113
  432TIP3    H1 1239   3.282   1.227   2.124
  432TIP3    H2 1240   3.154   1.149   2.145
  433TIP3   OH2 1241   5.045   1.110   1.845
  433TIP3    H1 1242   5.101   1.046   1.800
  433TIP3    H2 1243   5.009   1.164   1.775
  434TIP3   OH2 1244   4.454   0.957   0.662
  434TIP3    H1 1245   4.507   0.982   0.737
  434TIP3    H2 1246   4.417   0.872   0.686
  435TIP3   OH2 1247   3.153   0.887   1.576
  435TIP3    H1 1248   3.157   0.853   1.487
  435TIP3    H2 1249   3.191   0.974   1.571
  436TIP3   OH2 1250   2.960   1.197   1.597
  436TIP3    H1 1251   2.933   1.260   1.530
  436TIP3    H2 1252   2.958   1.247   1.679
  437TIP3   OH2 1253   4.921   1.261   1.659
  437TIP3    H1 1254   4.850   1.308   1.704
  437TIP3    H2 1255   4.876   1.207   1.594
  438TIP3   OH2 1256   3.185   0.810   1.869
  438TIP3    H1 1257   3.123   0.780   1.936
  438TIP3    H2 1258   3.129   0.842   1.797
  439TIP3   OH2 1259   3.194   2.221   1.899
  439TIP3    H1 1260   3.099   2.207   1.891
  439TIP3    H2 1261   3.210   2.217   1.993
  440TIP3   OH2 1262   3.406   2.271   1.448
  440TIP3    H1 1263   3.357   2.349   1.420
  440TIP3    H2 1264   3.493   2.282   1.409
  441TIP3   OH2 1265   3.790   2.499   1.576
  441TIP3    H1 1266   3.827   2.495   1.664
  441TIP3    H2 1267   3.851   2.553   1.527
  442TIP3   OH2 1268   3.981   2.655   1.451
  442TIP3    H1 1269   4.043   2.606   1.397
  442TIP3    H2 1270   4.036   2.711   1.505
  443TIP3   OH2 1271   4.821   0.978   1.552
  443TIP3    H1 1272   4.732   0.955   1.526
  443TIP3    H2 1273   4.868   0.894   1.551
  444TIP3   OH2 1274   3.065   2.512   1.507
  444TIP3    H1 1275   2.975   2.525   1.478
  444TIP3    H2 1276   3.081   2.583   1.568
  445TIP3   OH2 1277   3.299   2.507   1.363
  445TIP3    H1 1278   3.213   2.510   1.406
  445TIP3    H2 1279   3.282   2.536   1.274
  446TIP3   OH2 1280   3.715   2.520   1.143
  446TIP3    H1 1281   3.643   2.530   1.081
  446TIP3    H2 1282   3.725   2.607   1.182
  447TIP3   OH2 1283   3.975   2.438   1.168
  447TIP3    H1 1284   3.882   2.457   1.157
  447TIP3    H2 1285   4.019   2.498   1.108
  448TIP3   OH2 1286   4.181   2.638   1.077
  448TIP3    H1 1287   4.166   2.721   1.032
  448TIP3    H2 1288   4.203   2.576   1.007
  449TIP3   OH2 1289   2.987   2.341   1.262
  449TIP3    H1 1290   2.997   2.308   1.351
  449TIP3    H2 1291   3.070   2.321   1.219
  450TIP3   OH2 1292   3.227   2.235   1.198
  450TIP3    H1 1293   3.232   2.155   1.251
  450TIP3    H2 1294   3.318   2.253   1.173
  451TIP3   OH2 1295   3.479   2.278   1.095
  451TIP3    H1 1296   3.501   2.191   1.064
  451TIP3    H2 1297   3.536   2.291   1.171
  452TIP3   OH2 1298   4.021   0.876   1.151
  452TIP3    H1 1299   3.959   0.806   1.173
  452TIP3    H2 1300   4.057   0.903   1.235
  453TIP3   OH2 1301   4.591   0.857   1.117
  453TIP3    H1 1302   4.610   0.928   1.056
  453TIP3    H2 1303   4.498   0.868   1.137
  454TIP3   OH2 1304   4.622   0.996   0.876
  454TIP3    H1 1305   4.684   0.926   0.856
  454TIP3    H2 1306   4.666   1.076   0.847
  455TIP3   OH2 1307   4.318   0.867   1.132
  455TIP3    H1 1308   4.257   0.892   1.063
  455TIP3    H2 1309   4.266   0.814   1.192
  456TIP3   OH2 1310   4.271   0.740   0.641
  456TIP3    H1 1311   4.179   0.761   0.623
  456TIP3    H2 1312   4.271   0.709   0.731
  457TIP3   OH2 1313   3.548   2.314   0.086
  457TIP3    H1 1314   3.639   2.328   0.113
  457TIP3    H2 1315   3.509   2.262   0.156
  458TIP3   OH2 1316   4.282   2.370   0.238
  458TIP3    H1 1317   4.250   2.285   0.267
  458TIP3    H2 1318   4.212   2.404   0.182
  459TIP3   OH2 1319   3.484   0.906   2.078
  459TIP3    H1 1320   3.445   0.836   2.129
  459TIP3    H2 1321   3.574   0.912   2.110
  460TIP3   OH2 1322   3.727   0.895   2.202
  460TIP3    H1 1323   3.802   0.871   2.148
  460TIP3    H2 1324   3.719   0.823   2.265
  461TIP3   OH2 1325   4.542   0.973   1.961
  461TIP3    H1 1326   4.559   0.946   2.052
  461TIP3    H2 1327   4.629   0.972   1.920
  462TIP3   OH2 1328   4.450   2.521   1.462
  462TIP3    H1 1329   4.374   2.491   1.413
  462TIP3    H2 1330   4.435   2.615   1.473
  463TIP3   OH2 1331   5.668   1.892   0.265
  463TIP3    H1 1332   5.673   1.982   0.232
  463TIP3    H2 1333   5.600   1.850   0.213
  464TIP3   OH2 1334   5.707   1.916   0.633
  464TIP3    H1 1335   5.756   1.894   0.712
  464TIP3    H2 1336   5.666   1.834   0.606
  465TIP3   OH2 1337   5.016   1.804   0.931
  465TIP3    H1 1338   5.037   1.751   1.008
  465TIP3    H2 1339   5.101   1.816   0.887
  466TIP3   OH2 1340   6.001   2.216   0.316
  466TIP3    H1 1341   5.979   2.153   0.384
  466TIP3    H2 1342   6.019   2.297   0.364
  467TIP3   OH2 1343   5.048   2.185   0.687
  467TIP3    H1 1344   5.073   2.200   0.778
  467TIP3    H2 1345   5.130   2.194   0.637
  468TIP3   OH2 1346   4.704   1.440   0.466
  468TIP3    H1 1347   4.657   1.516   0.500
  468TIP3    H2 1348   4.648   1.366   0.489
  469TIP3   OH2 1349   5.641   2.637   0.360
  469TIP3    H1 1350   5.672   2.575   0.294
  469TIP3    H2 1351   5.660   2.594   0.444
  470TIP3   OH2 1352   5.528   2.136   0.633
  470TIP3    H1 1353   5.572   2.055   0.607
  470TIP3    H2 1354   5.599   2.193   0.664
  471TIP3   OH2 1355   5.930   1.620   0.668
  471TIP3    H1 1356   5.954   1.533   0.700
  471TIP3    H2 1357   5.875   1.603   0.592
  472TIP3   OH2 1358   5.271   1.284   0.668
  472TIP3    H1 1359   5.261   1.343   0.593
  472TIP3    H2 1360   5.270   1.196   0.631
  473TIP3   OH2 1361   4.883   1.512   0.785
  473TIP3    H1 1362   4.968   1.486   0.819
  473TIP3    H2 1363   4.865   1.450   0.714
  474TIP3   OH2 1364   5.335   1.685   0.571
  474TIP3    H1 1365   5.429   1.677   0.585
  474TIP3    H2 1366   5.308   1.598   0.541
  475TIP3   OH2 1367   6.519   1.614   0.849
  475TIP3    H1 1368   6.447   1.676   0.837
  475TIP3    H2 1369   6.581   1.660   0.906
  476TIP3   OH2 1370   5.252   1.266   1.095
  476TIP3    H1 1371   5.192   1.321   1.045
  476TIP3    H2 1372   5.199   1.232   1.167
  477TIP3   OH2 1373   5.619   2.127   0.115
  477TIP3    H1 1374   5.585   2.095   0.031
  477TIP3    H2 1375   5.565   2.204   0.134
  478TIP3   OH2 1376   5.375   2.056   0.848
  478TIP3    H1 1377   5.314   2.126   0.874
  478TIP3    H2 1378   5.427   2.095   0.778
  479TIP3   OH2 1379   5.132   1.399   0.874
  479TIP3    H1 1380   5.191   1.470   0.901
  479TIP3    H2 1381   5.179   1.356   0.802
  480TIP3   OH2 1382   5.182   2.248   0.926
  480TIP3    H1 1383   5.187   2.344   0.919
  480TIP3    H2 1384   5.121   2.233   0.998
  481TIP3   OH2 1385   4.626   1.962   0.233
  481TIP3    H1 1386   4.584   1.976   0.148
  481TIP3    H2 1387   4.640   2.051   0.267
  482TIP3   OH2 1388   6.018   2.474   0.442
  482TIP3    H1 1389   5.931   2.459   0.479
  482TIP3    H2 1390   6.011   2.558   0.397
  483TIP3   OH2 1391   5.739   2.496   0.151
  483TIP3    H1 1392   5.783   2.412   0.135
  483TIP3    H2 1393   5.793   2.561   0.107
  484TIP3   OH2 1394   5.860   2.264   0.086
  484TIP3    H1 1395   5.792   2.198   0.089
  484TIP3    H2 1396   5.922   2.239   0.154
  485TIP3   OH2 1397   6.231   2.345   0.800
  485TIP3    H1 1398   6.222   2.271   0.740
  485TIP3    H2 1399   6.236   2.422   0.744
  486TIP3   OH2 1400   6.399   1.990   0.672
  486TIP3    H1 1401   6.319   2.039   0.652
  486TIP3    H2 1402   6.468   2.040   0.629
  487TIP3   OH2 1403   6.097   1.866   0.981
  487TIP3    H1 1404   6.101   1.948   1.030
  487TIP3    H2 1405   6.013   1.869   0.935
  488TIP3   OH2 1406   5.126   1.807   0.440
  488TIP3    H1 1407   5.101   1.746   0.370
  488TIP3    H2 1408   5.203   1.767   0.479
  489TIP3   OH2 1409   5.279   2.234   0.551
  489TIP3    H1 1410   5.266   2.218   0.458
  489TIP3    H2 1411   5.367   2.202   0.570
  490TIP3   OH2 1412   5.257   1.812   0.803
  490TIP3    H1 1413   5.288   1.778   0.719
  490TIP3    H2 1414   5.306   1.893   0.815
  491TIP3   OH2 1415   5.777   2.453   0.572
  491TIP3    H1 1416   5.776   2.531   0.628
  491TIP3    H2 1417   5.771   2.380   0.633
  492TIP3   OH2 1418   5.409   2.339   1.113
  492TIP3    H1 1419   5.347   2.394   1.162
  492TIP3    H2 1420   5.353   2.281   1.061
  493TIP3   OH2 1421   5.155   1.892   1.274
  493TIP3    H1 1422   5.165   1.986   1.288
  493TIP3    H2 1423   5.060   1.878   1.275
  494TIP3   OH2 1424   5.484   2.378   0.125
  494TIP3    H1 1425   5.567   2.422   0.143
  494TIP3    H2 1426   5.440   2.435   0.063
  495TIP3   OH2 1427   5.202   2.494   1.207
  495TIP3    H1 1428   5.172   2.516   1.119
  495TIP3    H2 1429   5.122   2.483   1.258
  496TIP3   OH2 1430   5.018   1.646   0.234
  496TIP3    H1 1431   4.955   1.708   0.198
  496TIP3    H2 1432   4.967   1.567   0.252
  497TIP3   OH2 1433   4.800   2.051   1.158
  497TIP3    H1 1434   4.735   2.030   1.091
  497TIP3    H2 1435   4.830   1.966   1.190
  498TIP3   OH2 1436   4.658   2.260   0.829
  498TIP3    H1 1437   4.732   2.304   0.869
  498TIP3    H2 1438   4.585   2.321   0.839
  499TIP3   OH2 1439   6.489   2.749   0.867
  499TIP3    H1 1440   6.500   2.654   0.865
  499TIP3    H2 1441   6.408   2.763   0.914
  500TIP3   OH2 1442   5.597   2.492   0.984
  500TIP3    H1 1443   5.590   2.582   1.017
  500TIP3    H2 1444   5.532   2.443   1.034
  501TIP3   OH2 1445   8.210   6.588   6.885
  501TIP3    H1 1446   8.127   6.549   6.855
  501TIP3    H2 1447   8.187   6.677   6.910
  502TIP3   OH2 1448   4.822   2.459   0.328
  502TIP3    H1 1449   4.869   2.452   0.411
  502TIP3    H2 1450   4.770   2.379   0.323
  503TIP3   OH2 1451   8.484   6.581   6.814
  503TIP3    H1 1452   8.389   6.587   6.829
  503TIP3    H2 1453   8.503   6.488   6.815
  504TIP3   OH2 1454   6.327   1.810   1.170
  504TIP3    H1 1455   6.271   1.807   1.093
  504TIP3    H2 1456   6.362   1.722   1.178
  505TIP3   OH2 1457   4.993   2.244   1.123
  505TIP3    H1 1458   5.042   2.242   1.206
  505TIP3    H2 1459   4.924   2.178   1.135
  506TIP3   OH2 1460   5.347   1.056   0.940
  506TIP3    H1 1461   5.265   1.019   0.907
  506TIP3    H2 1462   5.321   1.139   0.981
  507TIP3   OH2 1463   5.918   1.159   1.127
  507TIP3    H1 1464   5.987   1.138   1.190
  507TIP3    H2 1465   5.836   1.142   1.174
  508TIP3   OH2 1466   6.124   1.595   1.044
  508TIP3    H1 1467   6.088   1.587   1.132
  508TIP3    H2 1468   6.102   1.685   1.018
  509TIP3   OH2 1469   5.314   1.593   0.961
  509TIP3    H1 1470   5.260   1.607   1.038
  509TIP3    H2 1471   5.305   1.673   0.909
  510TIP3   OH2 1472   5.215   1.459   0.461
  510TIP3    H1 1473   5.123   1.437   0.476
  510TIP3    H2 1474   5.227   1.448   0.367
  511TIP3   OH2 1475   5.861   1.804   1.263
  511TIP3    H1 1476   5.834   1.738   1.326
  511TIP3    H2 1477   5.954   1.819   1.282
  512TIP3   OH2 1478   5.780   1.561   0.446
  512TIP3    H1 1479   5.791   1.617   0.368
  512TIP3    H2 1480   5.777   1.472   0.411
  513TIP3   OH2 1481   5.112   1.639   1.141
  513TIP3    H1 1482   5.124   1.707   1.208
  513TIP3    H2 1483   5.038   1.587   1.173
  514TIP3   OH2 1484   4.748   1.212   0.738
  514TIP3    H1 1485   4.816   1.215   0.805
  514TIP3    H2 1486   4.774   1.140   0.681
  515TIP3   OH2 1487   4.865   1.140   0.364
  515TIP3    H1 1488   4.863   1.195   0.286
  515TIP3    H2 1489   4.776   1.146   0.399
  516TIP3   OH2 1490   5.851   1.810   0.849
  516TIP3    H1 1491   5.885   1.748   0.785
  516TIP3    H2 1492   5.815   1.755   0.919
  517TIP3   OH2 1493   5.549   1.346   0.670
  517TIP3    H1 1494   5.459   1.315   0.681
  517TIP3    H2 1495   5.572   1.383   0.755
  518TIP3   OH2 1496   4.963   1.366   0.499
  518TIP3    H1 1497   4.874   1.402   0.493
  518TIP3    H2 1498   4.954   1.275   0.471
  519TIP3   OH2 1499   5.958   1.359   0.741
  519TIP3    H1 1500   5.936   1.373   0.833
  519TIP3    H2 1501   5.966   1.264   0.733
  520TIP3   OH2 1502   6.206   3.055   0.959
  520TIP3    H1 1503   6.204   3.068   0.865
  520TIP3    H2 1504   6.286   3.099   0.988
  521TIP3   OH2 1505   5.152   2.161   1.356
  521TIP3    H1 1506   5.233   2.180   1.404
  521TIP3    H2 1507   5.082   2.176   1.421
  522TIP3   OH2 1508   5.600   1.651   0.635
  522TIP3    H1 1509   5.656   1.608   0.571
  522TIP3    H2 1510   5.600   1.591   0.710
  523TIP3   OH2 1511   5.572   1.508   0.898
  523TIP3    H1 1512   5.488   1.547   0.922
  523TIP3    H2 1513   5.637   1.559   0.946
  524TIP3   OH2 1514   5.254   1.935  -0.019
  524TIP3    H1 1515   5.226   1.843  -0.027
  524TIP3    H2 1516   5.259   1.950   0.075
  525TIP3   OH2 1517   6.185   2.153   0.610
  525TIP3    H1 1518   6.223   2.194   0.532
  525TIP3    H2 1519   6.103   2.115   0.579
  526TIP3   OH2 1520   5.718   2.220   1.019
  526TIP3    H1 1521   5.779   2.206   1.091
  526TIP3    H2 1522   5.687   2.310   1.031
  527TIP3   OH2 1523   4.950   1.891   0.631
  527TIP3    H1 1524   5.009   1.853   0.565
  527TIP3    H2 1525   4.947   1.826   0.701
  528TIP3   OH2 1526   8.315   6.071   6.828
  528TIP3    H1 1527   8.276   6.149   6.788
  528TIP3    H2 1528   8.239   6.016   6.850
  529TIP3   OH2 1529   4.887   1.811   1.276
  529TIP3    H1 1530   4.873   1.782   1.366
  529TIP3    H2 1531   4.816   1.771   1.226
  530TIP3   OH2 1532   5.635   1.965   1.313
  530TIP3    H1 1533   5.566   1.905   1.285
  530TIP3    H2 1534   5.716   1.925   1.280
  531TIP3   OH2 1535   5.862   2.521   0.901
  531TIP3    H1 1536   5.768   2.506   0.909
  531TIP3    H2 1537   5.889   2.554   0.987
  532TIP3   OH2 1538   6.455   2.473   0.925
  532TIP3    H1 1539   6.363   2.452   0.941
  532TIP3    H2 1540   6.482   2.412   0.856
  533TIP3   OH2 1541   5.952   2.029   0.522
  533TIP3    H1 1542   5.861   2.000   0.535
  533TIP3    H2 1543   6.001   1.948   0.511
  534TIP3   OH2 1544   5.145   2.238   0.298
  534TIP3    H1 1545   5.196   2.306   0.253
  534TIP3    H2 1546   5.055   2.253   0.271
  535TIP3   OH2 1547   7.523   5.639   6.891
  535TIP3    H1 1548   7.585   5.705   6.922
  535TIP3    H2 1549   7.479   5.608   6.969
  536TIP3   OH2 1550   5.235   1.981   0.248
  536TIP3    H1 1551   5.208   2.070   0.267
  536TIP3    H2 1552   5.202   1.929   0.322
  537TIP3   OH2 1553   5.419   2.557   0.776
  537TIP3    H1 1554   5.455   2.633   0.730
  537TIP3    H2 1555   5.492   2.526   0.831
  538TIP3   OH2 1556   5.037   2.472   0.158
  538TIP3    H1 1557   4.953   2.476   0.205
  538TIP3    H2 1558   5.073   2.560   0.168
  539TIP3   OH2 1559   5.764   2.233   0.744
  539TIP3    H1 1560   5.753   2.224   0.839
  539TIP3    H2 1561   5.838   2.175   0.724
  540TIP3   OH2 1562   6.024   2.721   0.788
  540TIP3    H1 1563   5.956   2.656   0.808
  540TIP3    H2 1564   5.986   2.774   0.718
  541TIP3   OH2 1565   4.855   2.420   0.941
  541TIP3    H1 1566   4.904   2.368   1.005
  541TIP3    H2 1567   4.853   2.508   0.979
  542TIP3   OH2 1568   7.886   5.981   6.572
  542TIP3    H1 1569   7.964   6.018   6.531
  542TIP3    H2 1570   7.876   6.031   6.653
  543TIP3   OH2 1571   7.890   6.106   6.819
  543TIP3    H1 1572   7.963   6.058   6.858
  543TIP3    H2 1573   7.909   6.198   6.838
  544TIP3   OH2 1574   4.829   1.810   0.124
  544TIP3    H1 1575   4.759   1.848   0.178
  544TIP3    H2 1576   4.841   1.872   0.053
  545TIP3   OH2 1577   5.921   1.406   1.008
  545TIP3    H1 1578   6.007   1.445   1.026
  545TIP3    H2 1579   5.923   1.322   1.055
  546TIP3   OH2 1580   8.177   6.289   6.733
  546TIP3    H1 1581   8.102   6.312   6.788
  546TIP3    H2 1582   8.173   6.351   6.660
  547TIP3   OH2 1583   5.772   1.636   1.046
  547TIP3    H1 1584   5.801   1.682   1.125
  547TIP3    H2 1585   5.823   1.555   1.045
  548TIP3   OH2 1586   7.952   6.374   6.862
  548TIP3    H1 1587   7.916   6.435   6.797
  548TIP3    H2 1588   7.917   6.405   6.946
  549TIP3   OH2 1589   6.389   1.543   1.084
  549TIP3    H1 1590   6.294   1.537   1.068
  549TIP3    H2 1591   6.428   1.540   0.996
  550TIP3   OH2 1592   6.091   1.790   0.523
  550TIP3    H1 1593   6.036   1.733   0.577
  550TIP3    H2 1594   6.173   1.743   0.514
  551TIP3   OH2 1595   7.643   5.980   6.844
  551TIP3    H1 1596   7.709   6.049   6.836
  551TIP3    H2 1597   7.676   5.909   6.789
  552TIP3   OH2 1598   6.021   2.742   0.353
  552TIP3    H1 1599   5.984   2.796   0.283
  552TIP3    H2 1600   6.115   2.757   0.349
  553TIP3   OH2 1601   5.093   0.944   0.892
  553TIP3    H1 1602   5.055   0.902   0.815
  553TIP3    H2 1603   5.107   0.872   0.954
  554TIP3   OH2 1604   4.673   2.220   0.339
  554TIP3    H1 1605   4.627   2.261   0.412
  554TIP3    H2 1606   4.628   2.251   0.261
  555TIP3   OH2 1607   4.836   2.753   1.359
  555TIP3    H1 1608   4.918   2.752   1.407
  555TIP3    H2 1609   4.806   2.662   1.360
  556TIP3   OH2 1610   5.306   2.664   1.400
  556TIP3    H1 1611   5.398   2.640   1.413
  556TIP3    H2 1612   5.276   2.607   1.329
  557TIP3   OH2 1613   5.925   2.610   1.151
  557TIP3    H1 1614   5.932   2.538   1.213
  557TIP3    H2 1615   6.000   2.666   1.170
  558TIP3   OH2 1616   4.946   2.176   1.545
  558TIP3    H1 1617   4.961   2.083   1.558
  558TIP3    H2 1618   4.860   2.181   1.502
  559TIP3   OH2 1619   7.788   5.774   6.738
  559TIP3    H1 1620   7.862   5.745   6.792
  559TIP3    H2 1621   7.829   5.821   6.665
  560TIP3   OH2 1622   5.566   2.241   1.323
  560TIP3    H1 1623   5.526   2.260   1.238
  560TIP3    H2 1624   5.607   2.155   1.312
  561TIP3   OH2 1625   6.012   2.287   0.949
  561TIP3    H1 1626   6.093   2.307   0.902
  561TIP3    H2 1627   5.954   2.360   0.927
  562TIP3   OH2 1628   5.051   1.923   1.551
  562TIP3    H1 1629   5.125   1.903   1.494
  562TIP3    H2 1630   5.088   1.924   1.639
  563TIP3   OH2 1631   5.145   1.677  -0.019
  563TIP3    H1 1632   5.114   1.662   0.070
  563TIP3    H2 1633   5.174   1.590  -0.049
  564TIP3   OH2 1634   5.425   1.789   1.226
  564TIP3    H1 1635   5.337   1.828   1.232
  564TIP3    H2 1636   5.456   1.813   1.139
  565TIP3   OH2 1637   5.915   2.155   1.298
  565TIP3    H1 1638   5.988   2.128   1.243
  565TIP3    H2 1639   5.921   2.099   1.375
  566TIP3   OH2 1640   5.509   1.553   1.344
  566TIP3    H1 1641   5.517   1.481   1.281
  566TIP3    H2 1642   5.488   1.629   1.290
  567TIP3   OH2 1643   5.512   1.357   1.137
  567TIP3    H1 1644   5.541   1.389   1.051
  567TIP3    H2 1645   5.423   1.326   1.121
  568TIP3   OH2 1646   5.533   1.880   0.993
  568TIP3    H1 1647   5.625   1.893   0.970
  568TIP3    H2 1648   5.485   1.947   0.945
  569TIP3   OH2 1649   6.130   1.818   1.370
  569TIP3    H1 1650   6.154   1.730   1.399
  569TIP3    H2 1651   6.201   1.842   1.310
  570TIP3   OH2 1652   6.131   2.113   1.119
  570TIP3    H1 1653   6.078   2.174   1.067
  570TIP3    H2 1654   6.220   2.125   1.086
  571TIP3   OH2 1655   5.394   1.656   1.572
  571TIP3    H1 1656   5.299   1.665   1.562
  571TIP3    H2 1657   5.424   1.627   1.485
  572TIP3   OH2 1658   5.654   1.128   1.211
  572TIP3    H1 1659   5.608   1.208   1.185
  572TIP3    H2 1660   5.589   1.058   1.198
  573TIP3   OH2 1661   5.791   1.602   1.432
  573TIP3    H1 1662   5.820   1.592   1.523
  573TIP3    H2 1663   5.702   1.568   1.432
  574TIP3   OH2 1664   6.021   1.543   1.286
  574TIP3    H1 1665   5.943   1.547   1.341
  574TIP3    H2 1666   6.092   1.519   1.347
  575TIP3   OH2 1667   6.236   1.517   1.458
  575TIP3    H1 1668   6.251   1.423   1.465
  575TIP3    H2 1669   6.238   1.548   1.549
  576TIP3   OH2 1670   5.689   1.111   1.480
  576TIP3    H1 1671   5.760   1.047   1.487
  576TIP3    H2 1672   5.674   1.119   1.386
  577TIP3   OH2 1673   5.797   1.315   1.630
  577TIP3    H1 1674   5.776   1.240   1.574
  577TIP3    H2 1675   5.716   1.366   1.634
  578TIP3   OH2 1676   7.903   6.568   6.674
  578TIP3    H1 1677   7.927   6.585   6.583
  578TIP3    H2 1678   7.809   6.586   6.678
  579TIP3   OH2 1679   7.374   5.976   6.903
  579TIP3    H1 1680   7.465   5.993   6.879
  579TIP3    H2 1681   7.333   5.947   6.822
  580TIP3   OH2 1682   4.448   2.541   0.371
  580TIP3    H1 1683   4.388   2.488   0.318
  580TIP3    H2 1684   4.488   2.479   0.431
  581TIP3   OH2 1685   4.582   2.373   0.549
  581TIP3    H1 1686   4.531   2.334   0.620
  581TIP3    H2 1687   4.635   2.440   0.593
  582TIP3   OH2 1688   6.283   2.797   0.352
  582TIP3    H1 1689   6.326   2.806   0.438
  582TIP3    H2 1690   6.354   2.809   0.289
  583TIP3   OH2 1691   6.329   2.810   0.641
  583TIP3    H1 1692   6.297   2.721   0.627
  583TIP3    H2 1693   6.401   2.800   0.702
  584TIP3   OH2 1694   6.367   2.504   1.223
  584TIP3    H1 1695   6.299   2.515   1.289
  584TIP3    H2 1696   6.409   2.589   1.217
  585TIP3   OH2 1697   6.344   2.272   0.423
  585TIP3    H1 1698   6.407   2.214   0.380
  585TIP3    H2 1699   6.336   2.347   0.363
  586TIP3   OH2 1700   6.198   2.563   0.634
  586TIP3    H1 1701   6.136   2.611   0.689
  586TIP3    H2 1702   6.144   2.527   0.564
  587TIP3   OH2 1703   4.764   1.755   0.845
  587TIP3    H1 1704   4.787   1.666   0.819
  587TIP3    H2 1705   4.843   1.789   0.888
  588TIP3   OH2 1706   6.384   2.156   1.025
  588TIP3    H1 1707   6.438   2.078   1.037
  588TIP3    H2 1708   6.425   2.204   0.954
  589TIP3   OH2 1709   6.548   1.954   1.085
  589TIP3    H1 1710   6.490   1.891   1.128
  589TIP3    H2 1711   6.624   1.961   1.144
  590TIP3   OH2 1712   6.310   1.617   0.574
  590TIP3    H1 1713   6.340   1.531   0.603
  590TIP3    H2 1714   6.306   1.670   0.653
  591TIP3   OH2 1715   6.303   1.776   0.808
  591TIP3    H1 1716   6.228   1.805   0.859
  591TIP3    H2 1717   6.332   1.854   0.761
  592TIP3   OH2 1718   5.186   1.399   1.667
  592TIP3    H1 1719   5.156   1.485   1.696
  592TIP3    H2 1720   5.106   1.352   1.646
  593TIP3   OH2 1721   6.793   1.332   1.363
  593TIP3    H1 1722   6.881   1.345   1.328
  593TIP3    H2 1723   6.737   1.382   1.305
  594TIP3   OH2 1724   4.948   1.187   0.925
  594TIP3    H1 1725   5.000   1.106   0.918
  594TIP3    H2 1726   5.012   1.257   0.914
  595TIP3   OH2 1727   4.823   1.477   1.066
  595TIP3    H1 1728   4.812   1.484   0.971
  595TIP3    H2 1729   4.739   1.506   1.102
  596TIP3   OH2 1730   6.623   1.478   1.208
  596TIP3    H1 1731   6.534   1.494   1.175
  596TIP3    H2 1732   6.670   1.440   1.134
  597TIP3   OH2 1733   4.827   0.990   0.602
  597TIP3    H1 1734   4.762   0.927   0.570
  597TIP3    H2 1735   4.877   1.014   0.524
  598TIP3   OH2 1736   0.211   6.695   6.935
  598TIP3    H1 1737   0.146   6.665   6.872
  598TIP3    H2 1738   0.294   6.661   6.903
  599TIP3   OH2 1739   4.923   1.021   1.294
  599TIP3    H1 1740   4.883   1.022   1.381
  599TIP3    H2 1741   4.871   1.083   1.243
  600TIP3   OH2 1742   4.983   2.464   1.372
  600TIP3    H1 1743   4.888   2.460   1.364
  600TIP3    H2 1744   5.000   2.460   1.466
  601TIP3   OH2 1745   5.188   2.523   0.921
  601TIP3    H1 1746   5.138   2.599   0.893
  601TIP3    H2 1747   5.274   2.534   0.881
  602TIP3   OH2 1748   5.587   2.759   1.062
  602TIP3    H1 1749   5.623   2.750   1.151
  602TIP3    H2 1750   5.652   2.811   1.015
  603TIP3   OH2 1751   5.783   2.910   0.938
  603TIP3    H1 1752   5.848   2.853   0.897
  603TIP3    H2 1753   5.833   2.970   0.992
  604TIP3   OH2 1754   4.841   2.766   0.964
  604TIP3    H1 1755   4.748   2.777   0.943
  604TIP3    H2 1756   4.857   2.831   1.032
  605TIP3   OH2 1757   5.075   2.753   0.822
  605TIP3    H1 1758   4.992   2.759   0.871
  605TIP3    H2 1759   5.053   2.782   0.734
  606TIP3   OH2 1760   5.489   2.775   0.621
  606TIP3    H1 1761   5.418   2.790   0.558
  606TIP3    H2 1762   5.498   2.858   0.667
  607TIP3   OH2 1763   5.755   2.713   0.661
  607TIP3    H1 1764   5.663   2.735   0.644
  607TIP3    H2 1765   5.804   2.785   0.622
  608TIP3   OH2 1766   5.949   2.893   0.571
  608TIP3    H1 1767   5.947   2.981   0.533
  608TIP3    H2 1768   5.977   2.837   0.499
  609TIP3   OH2 1769   4.762   2.545   0.676
  609TIP3    H1 1770   4.767   2.525   0.770
  609TIP3    H2 1771   4.844   2.511   0.640
  610TIP3   OH2 1772   4.979   2.430   0.558
  610TIP3    H1 1773   5.004   2.353   0.610
  610TIP3    H2 1774   5.061   2.479   0.548
  611TIP3   OH2 1775   5.243   2.515   0.567
  611TIP3    H1 1776   5.265   2.424   0.547
  611TIP3    H2 1777   5.297   2.537   0.643
  612TIP3   OH2 1778   4.535   2.324   0.134
  612TIP3    H1 1779   4.443   2.323   0.161
  612TIP3    H2 1780   4.541   2.395   0.071
  613TIP3   OH2 1781   5.454   1.177   1.617
  613TIP3    H1 1782   5.528   1.155   1.561
  613TIP3    H2 1783   5.450   1.106   1.681
  614TIP3   OH2 1784   7.553   6.383   6.675
  614TIP3    H1 1785   7.473   6.390   6.728
  614TIP3    H2 1786   7.533   6.316   6.610
  615TIP3   OH2 1787   6.284   1.247   1.482
  615TIP3    H1 1788   6.302   1.211   1.568
  615TIP3    H2 1789   6.366   1.240   1.434
  616TIP3   OH2 1790   6.235   2.781   0.964
  616TIP3    H1 1791   6.164   2.751   0.906
  616TIP3    H2 1792   6.220   2.875   0.973
  617TIP3   OH2 1793   6.863   2.192   0.450
  617TIP3    H1 1794   6.918   2.114   0.454
  617TIP3    H2 1795   6.861   2.216   0.358
  618TIP3   OH2 1796   6.847   2.304   0.205
  618TIP3    H1 1797   6.765   2.292   0.157
  618TIP3    H2 1798   6.865   2.398   0.199
  619TIP3   OH2 1799   7.087   2.476   0.207
  619TIP3    H1 1800   7.106   2.493   0.300
  619TIP3    H2 1801   7.174   2.467   0.167
  620TIP3   OH2 1802   7.053   2.490   0.487
  620TIP3    H1 1803   6.997   2.549   0.437
  620TIP3    H2 1804   6.994   2.445   0.547
  621TIP3   OH2 1805   7.285   2.541   0.627
  621TIP3    H1 1806   7.323   2.622   0.592
  621TIP3    H2 1807   7.226   2.511   0.559
  622TIP3   OH2 1808   6.890   2.382   0.681
  622TIP3    H1 1809   6.938   2.409   0.759
  622TIP3    H2 1810   6.887   2.287   0.686
  623TIP3   OH2 1811   6.908   2.906   0.760
  623TIP3    H1 1812   6.880   2.862   0.680
  623TIP3    H2 1813   6.859   2.862   0.830
  624TIP3   OH2 1814   6.495   2.394   0.635
  624TIP3    H1 1815   6.418   2.391   0.578
  624TIP3    H2 1816   6.532   2.306   0.628
  625TIP3   OH2 1817   6.372   2.511   0.284
  625TIP3    H1 1818   6.425   2.559   0.347
  625TIP3    H2 1819   6.293   2.565   0.274
  626TIP3   OH2 1820   7.395   2.780   0.558
  626TIP3    H1 1821   7.386   2.871   0.585
  626TIP3    H2 1822   7.395   2.783   0.462
  627TIP3   OH2 1823   6.679   2.552   0.756
  627TIP3    H1 1824   6.754   2.494   0.761
  627TIP3    H2 1825   6.609   2.498   0.719
  628TIP3   OH2 1826   6.916   1.854   0.715
  628TIP3    H1 1827   6.827   1.880   0.741
  628TIP3    H2 1828   6.920   1.760   0.736
  629TIP3   OH2 1829   6.933   2.533   0.910
  629TIP3    H1 1830   7.019   2.575   0.899
  629TIP3    H2 1831   6.872   2.605   0.924
  630TIP3   OH2 1832   7.580   2.554   0.541
  630TIP3    H1 1833   7.546   2.612   0.608
  630TIP3    H2 1834   7.583   2.608   0.462
  631TIP3   OH2 1835   6.643   1.899   0.787
  631TIP3    H1 1836   6.666   1.933   0.873
  631TIP3    H2 1837   6.556   1.935   0.769
  632TIP3   OH2 1838   7.393   2.204   0.748
  632TIP3    H1 1839   7.338   2.125   0.741
  632TIP3    H2 1840   7.454   2.197   0.675
  633TIP3   OH2 1841   7.191   2.857   0.273
  633TIP3    H1 1842   7.163   2.913   0.201
  633TIP3    H2 1843   7.282   2.882   0.288
  634TIP3   OH2 1844   6.520   2.644   0.465
  634TIP3    H1 1845   6.568   2.575   0.511
  634TIP3    H2 1846   6.581   2.718   0.463
  635TIP3   OH2 1847   6.623   3.011   0.860
  635TIP3    H1 1848   6.704   3.009   0.911
  635TIP3    H2 1849   6.594   2.920   0.859
  636TIP3   OH2 1850   7.098   2.964   0.951
  636TIP3    H1 1851   7.191   2.954   0.931
  636TIP3    H2 1852   7.054   2.945   0.869
  637TIP3   OH2 1853   6.664   2.440   1.105
  637TIP3    H1 1854   6.625   2.379   1.168
  637TIP3    H2 1855   6.594   2.458   1.042
  638TIP3   OH2 1856   7.383   2.444   0.862
  638TIP3    H1 1857   7.396   2.508   0.793
  638TIP3    H2 1858   7.405   2.360   0.822
  639TIP3   OH2 1859   6.822   1.991   0.989
  639TIP3    H1 1860   6.890   1.957   1.047
  639TIP3    H2 1861   6.806   2.080   1.020
  640TIP3   OH2 1862   7.236   1.992   0.679
  640TIP3    H1 1863   7.205   2.065   0.625
  640TIP3    H2 1864   7.292   1.941   0.620
  641TIP3   OH2 1865   7.035   1.916   1.135
  641TIP3    H1 1866   7.079   1.831   1.144
  641TIP3    H2 1867   7.093   1.967   1.079
  642TIP3   OH2 1868   6.967   1.585   1.090
  642TIP3    H1 1869   6.968   1.574   0.995
  642TIP3    H2 1870   7.053   1.623   1.110
  643TIP3   OH2 1871   6.291   2.657   0.041
  643TIP3    H1 1872   6.326   2.570   0.060
  643TIP3    H2 1873   6.352   2.717   0.082
  644TIP3   OH2 1874   6.562   2.111   0.328
  644TIP3    H1 1875   6.523   2.081   0.246
  644TIP3    H2 1876   6.622   2.041   0.353
  645TIP3   OH2 1877   6.716   1.713   1.015
  645TIP3    H1 1878   6.740   1.806   1.021
  645TIP3    H2 1879   6.730   1.679   1.103
  646TIP3   OH2 1880   6.767   2.755   0.940
  646TIP3    H1 1881   6.687   2.718   0.902
  646TIP3    H2 1882   6.749   2.758   1.034
  647TIP3   OH2 1883   6.976   2.711   0.348
  647TIP3    H1 1884   6.964   2.762   0.427
  647TIP3    H2 1885   7.047   2.755   0.301
  648TIP3   OH2 1886   7.404   3.057   0.572
  648TIP3    H1 1887   7.451   3.064   0.655
  648TIP3    H2 1888   7.469   3.079   0.505
  649TIP3   OH2 1889   7.598   3.126   0.376
  649TIP3    H1 1890   7.669   3.141   0.314
  649TIP3    H2 1891   7.560   3.212   0.391
  650TIP3   OH2 1892   6.645   3.111   0.456
  650TIP3    H1 1893   6.550   3.100   0.454
  650TIP3    H2 1894   6.664   3.142   0.544
  651TIP3   OH2 1895   6.819   3.105   0.255
  651TIP3    H1 1896   6.770   3.104   0.337
  651TIP3    H2 1897   6.810   3.195   0.223
  652TIP3   OH2 1898   6.495   2.801   0.173
  652TIP3    H1 1899   6.560   2.823   0.241
  652TIP3    H2 1900   6.547   2.788   0.094
  653TIP3   OH2 1901   0.995   6.734   6.910
  653TIP3    H1 1902   0.987   6.639   6.899
  653TIP3    H2 1903   1.089   6.751   6.906
  654TIP3   OH2 1904   0.895   2.690   2.085
  654TIP3    H1 1905   0.819   2.737   2.053
  654TIP3    H2 1906   0.937   2.751   2.146
  655TIP3   OH2 1907   0.301   3.533   1.647
  655TIP3    H1 1908   0.219   3.489   1.621
  655TIP3    H2 1909   0.299   3.616   1.600
  656TIP3   OH2 1910   0.516   3.391   1.997
  656TIP3    H1 1911   0.515   3.324   1.928
  656TIP3    H2 1912   0.495   3.473   1.952
  657TIP3   OH2 1913   0.719   3.021   1.826
  657TIP3    H1 1914   0.652   3.089   1.823
  657TIP3    H2 1915   0.719   2.983   1.738
  658TIP3   OH2 1916   0.443   2.935   2.141
  658TIP3    H1 1917   0.409   3.024   2.130
  658TIP3    H2 1918   0.366   2.883   2.165
  659TIP3   OH2 1919   0.753   3.769   2.040
  659TIP3    H1 1920   0.757   3.674   2.050
  659TIP3    H2 1921   0.670   3.794   2.080
  660TIP3   OH2 1922   8.363   3.497   2.167
  660TIP3    H1 1923   8.368   3.591   2.182
  660TIP3    H2 1924   8.270   3.479   2.153
  661TIP3   OH2 1925   0.652   2.871   2.319
  661TIP3    H1 1926   0.571   2.898   2.276
  661TIP3    H2 1927   0.650   2.775   2.317
  662TIP3   OH2 1928   0.120   2.883   2.539
  662TIP3    H1 1929   0.195   2.827   2.516
  662TIP3    H2 1930   0.160   2.962   2.576
  663TIP3   OH2 1931   0.467   4.104   2.123
  663TIP3    H1 1932   0.459   4.122   2.030
  663TIP3    H2 1933   0.547   4.149   2.150
  664TIP3   OH2 1934   0.510   3.207   1.792
  664TIP3    H1 1935   0.535   3.258   1.714
  664TIP3    H2 1936   0.424   3.172   1.770
  665TIP3   OH2 1937   0.046   3.312   2.264
  665TIP3    H1 1938  -0.007   3.266   2.329
  665TIP3    H2 1939  -0.014   3.375   2.224
  666TIP3   OH2 1940   0.137   3.582   2.087
  666TIP3    H1 1941   0.046   3.552   2.090
  666TIP3    H2 1942   0.159   3.604   2.177
  667TIP3   OH2 1943   0.761   3.491   2.068
  667TIP3    H1 1944   0.669   3.464   2.068
  667TIP3    H2 1945   0.797   3.454   1.988
  668TIP3   OH2 1946   0.270   3.790   1.965
  668TIP3    H1 1947   0.208   3.720   1.986
  668TIP3    H2 1948   0.232   3.833   1.888
  669TIP3   OH2 1949   0.619   2.601   2.267
  669TIP3    H1 1950   0.568   2.545   2.325
  669TIP3    H2 1951   0.616   2.556   2.182
  670TIP3   OH2 1952   0.307   3.784   1.535
  670TIP3    H1 1953   0.264   3.841   1.471
  670TIP3    H2 1954   0.400   3.796   1.520
  671TIP3   OH2 1955   8.159   3.763   2.447
  671TIP3    H1 1956   8.224   3.817   2.493
  671TIP3    H2 1957   8.108   3.723   2.518
  672TIP3   OH2 1958   0.220   3.657   2.349
  672TIP3    H1 1959   0.227   3.579   2.403
  672TIP3    H2 1960   0.302   3.704   2.362
  673TIP3   OH2 1961   8.389   3.193   2.475
  673TIP3    H1 1962   8.325   3.127   2.447
  673TIP3    H2 1963   8.443   3.148   2.540
  674TIP3   OH2 1964   0.280   3.245   2.119
  674TIP3    H1 1965   0.313   3.320   2.070
  674TIP3    H2 1966   0.193   3.271   2.149
  675TIP3   OH2 1967   0.386   2.801   2.514
  675TIP3    H1 1968   0.438   2.724   2.537
  675TIP3    H2 1969   0.424   2.872   2.566
  676TIP3   OH2 1970   0.406   3.245   2.357
  676TIP3    H1 1971   0.364   3.242   2.271
  676TIP3    H2 1972   0.499   3.228   2.339
  677TIP3   OH2 1973   0.543   2.583   2.612
  677TIP3    H1 1974   0.548   2.488   2.620
  677TIP3    H2 1975   0.527   2.614   2.701
  678TIP3   OH2 1976   0.580   3.827   1.535
  678TIP3    H1 1977   0.595   3.848   1.627
  678TIP3    H2 1978   0.624   3.898   1.487
  679TIP3   OH2 1979   0.599   3.855   1.813
  679TIP3    H1 1980   0.554   3.772   1.819
  679TIP3    H2 1981   0.675   3.846   1.871
  680TIP3   OH2 1982   0.606   3.337   1.570
  680TIP3    H1 1983   0.695   3.304   1.587
  680TIP3    H2 1984   0.620   3.425   1.535
  681TIP3   OH2 1985   0.458   3.619   1.851
  681TIP3    H1 1986   0.390   3.671   1.893
  681TIP3    H2 1987   0.415   3.581   1.774
  682TIP3   OH2 1988   0.650   3.212   2.215
  682TIP3    H1 1989   0.718   3.146   2.197
  682TIP3    H2 1990   0.626   3.245   2.129
  683TIP3   OH2 1991   0.848   3.011   2.195
  683TIP3    H1 1992   0.779   2.960   2.237
  683TIP3    H2 1993   0.929   2.975   2.230
  684TIP3   OH2 1994   0.657   2.811   1.997
  684TIP3    H1 1995   0.585   2.850   2.047
  684TIP3    H2 1996   0.681   2.879   1.934
  685TIP3   OH2 1997   1.090   2.409   2.501
  685TIP3    H1 1998   1.151   2.349   2.458
  685TIP3    H2 1999   1.041   2.450   2.430
  686TIP3   OH2 2000   0.915   2.521   2.317
  686TIP3    H1 2001   0.861   2.567   2.381
  686TIP3    H2 2002   0.897   2.563   2.234
  687TIP3   OH2 2003   8.398   3.761   2.213
  687TIP3    H1 2004   8.418   3.767   2.306
  687TIP3    H2 2005   8.462   3.818   2.171
  688TIP3   OH2 2006   0.078   3.946   2.118
  688TIP3    H1 2007   0.150   3.904   2.070
  688TIP3    H2 2008   0.121   4.007   2.178
  689TIP3   OH2 2009   8.495   3.812   1.821
  689TIP3    H1 2010   8.434   3.875   1.859
  689TIP3    H2 2011   8.561   3.866   1.778
  690TIP3   OH2 2012   0.220   3.952   1.737
  690TIP3    H1 2013   0.213   4.038   1.695
  690TIP3    H2 2014   0.249   3.894   1.666
  691TIP3   OH2 2015   0.592   2.318   2.652
  691TIP3    H1 2016   0.599   2.268   2.734
  691TIP3    H2 2017   0.669   2.292   2.602
  692TIP3   OH2 2018   0.494   3.833   2.123
  692TIP3    H1 2019   0.419   3.807   2.069
  692TIP3    H2 2020   0.488   3.928   2.128
  693TIP3   OH2 2021   1.758   3.257   1.022
  693TIP3    H1 2022   1.739   3.348   1.003
  693TIP3    H2 2023   1.673   3.213   1.021
  694TIP3   OH2 2024   1.846   3.233   1.338
  694TIP3    H1 2025   1.883   3.207   1.422
  694TIP3    H2 2026   1.832   3.150   1.292
  695TIP3   OH2 2027   1.071   3.082   1.690
  695TIP3    H1 2028   1.088   3.018   1.759
  695TIP3    H2 2029   1.158   3.113   1.663
  696TIP3   OH2 2030   1.985   3.530   1.010
  696TIP3    H1 2031   2.013   3.462   1.072
  696TIP3    H2 2032   2.035   3.608   1.036
  697TIP3   OH2 2033   1.010   3.520   1.375
  697TIP3    H1 2034   0.990   3.427   1.369
  697TIP3    H2 2035   1.104   3.523   1.395
  698TIP3   OH2 2036   1.690   3.933   1.012
  698TIP3    H1 2037   1.773   3.888   0.997
  698TIP3    H2 2038   1.681   3.933   1.107
  699TIP3   OH2 2039   1.557   3.543   1.358
  699TIP3    H1 2040   1.571   3.456   1.321
  699TIP3    H2 2041   1.645   3.575   1.379
  700TIP3   OH2 2042   2.624   2.744   1.347
  700TIP3    H1 2043   2.634   2.825   1.396
  700TIP3    H2 2044   2.656   2.765   1.259
  701TIP3   OH2 2045   2.046   3.003   1.299
  701TIP3    H1 2046   2.103   2.944   1.349
  701TIP3    H2 2047   1.965   2.953   1.288
  702TIP3   OH2 2048   2.118   2.588   0.967
  702TIP3    H1 2049   2.183   2.536   1.015
  702TIP3    H2 2050   2.150   2.678   0.973
  703TIP3   OH2 2051   1.395   2.897   1.226
  703TIP3    H1 2052   1.469   2.864   1.278
  703TIP3    H2 2053   1.381   2.831   1.159
  704TIP3   OH2 2054   2.670   2.967   1.499
  704TIP3    H1 2055   2.583   3.008   1.495
  704TIP3    H2 2056   2.710   3.004   1.578
  705TIP3   OH2 2057   1.328   2.552   1.804
  705TIP3    H1 2058   1.303   2.461   1.790
  705TIP3    H2 2059   1.269   2.582   1.873
  706TIP3   OH2 2060   1.428   3.392   1.553
  706TIP3    H1 2061   1.354   3.448   1.579
  706TIP3    H2 2062   1.475   3.444   1.488
  707TIP3   OH2 2063   2.300   2.680   1.222
  707TIP3    H1 2064   2.211   2.668   1.255
  707TIP3    H2 2065   2.328   2.764   1.258
  708TIP3   OH2 2066   1.142   2.624   1.608
  708TIP3    H1 2067   1.219   2.603   1.660
  708TIP3    H2 2068   1.117   2.541   1.566
  709TIP3   OH2 2069   1.234   3.563   1.623
  709TIP3    H1 2070   1.229   3.655   1.596
  709TIP3    H2 2071   1.160   3.552   1.683
  710TIP3   OH2 2072   2.080   3.771   1.109
  710TIP3    H1 2073   1.993   3.762   1.149
  710TIP3    H2 2074   2.077   3.854   1.062
  711TIP3   OH2 2075   2.434   2.648   1.529
  711TIP3    H1 2076   2.348   2.657   1.489
  711TIP3    H2 2077   2.496   2.667   1.459
  712TIP3   OH2 2078   1.743   2.178   1.390
  712TIP3    H1 2079   1.809   2.122   1.430
  712TIP3    H2 2080   1.699   2.220   1.463
  713TIP3   OH2 2081   1.846   3.822   0.794
  713TIP3    H1 2082   1.928   3.868   0.777
  713TIP3    H2 2083   1.778   3.884   0.770
  714TIP3   OH2 2084   1.875   3.496   0.772
  714TIP3    H1 2085   1.928   3.436   0.719
  714TIP3    H2 2086   1.923   3.503   0.855
  715TIP3   OH2 2087   2.308   3.664   1.467
  715TIP3    H1 2088   2.297   3.588   1.411
  715TIP3    H2 2089   2.292   3.739   1.409
  716TIP3   OH2 2090   2.499   3.311   1.321
  716TIP3    H1 2091   2.417   3.360   1.326
  716TIP3    H2 2092   2.526   3.319   1.229
  717TIP3   OH2 2093   1.911   2.995   0.720
  717TIP3    H1 2094   1.857   3.071   0.698
  717TIP3    H2 2095   1.991   3.006   0.669
  718TIP3   OH2 2096   2.201   3.184   1.641
  718TIP3    H1 2097   2.201   3.269   1.686
  718TIP3    H2 2098   2.115   3.177   1.602
  719TIP3   OH2 2099   1.302   3.603   1.280
  719TIP3    H1 2100   1.274   3.512   1.267
  719TIP3    H2 2101   1.393   3.596   1.309
  720TIP3   OH2 2102   1.298   3.150   1.545
  720TIP3    H1 2103   1.359   3.107   1.485
  720TIP3    H2 2104   1.330   3.239   1.553
  721TIP3   OH2 2105   1.844   3.753   1.241
  721TIP3    H1 2106   1.830   3.835   1.289
  721TIP3    H2 2107   1.839   3.685   1.309
  722TIP3   OH2 2108   1.457   3.644   1.783
  722TIP3    H1 2109   1.404   3.704   1.834
  722TIP3    H2 2110   1.395   3.596   1.729
  723TIP3   OH2 2111   1.225   3.203   1.942
  723TIP3    H1 2112   1.226   3.296   1.962
  723TIP3    H2 2113   1.132   3.180   1.939
  724TIP3   OH2 2114   1.252   3.806   1.872
  724TIP3    H1 2115   1.225   3.822   1.781
  724TIP3    H2 2116   1.170   3.792   1.919
  725TIP3   OH2 2117   2.056   3.618   0.150
  725TIP3    H1 2118   2.072   3.712   0.139
  725TIP3    H2 2119   2.141   3.577   0.135
  726TIP3   OH2 2120   0.860   3.358   1.852
  726TIP3    H1 2121   0.841   3.327   1.763
  726TIP3    H2 2122   0.898   3.282   1.896
  727TIP3   OH2 2123   0.703   3.576   1.468
  727TIP3    H1 2124   0.798   3.590   1.470
  727TIP3    H2 2125   0.667   3.658   1.501
  728TIP3   OH2 2126   2.542   4.004   1.522
  728TIP3    H1 2127   2.547   3.910   1.538
  728TIP3    H2 2128   2.461   4.031   1.567
  729TIP3   OH2 2129   1.647   3.787   1.644
  729TIP3    H1 2130   1.640   3.877   1.676
  729TIP3    H2 2131   1.581   3.739   1.694
  730TIP3   OH2 2132   1.297   3.952   0.741
  730TIP3    H1 2133   1.326   3.892   0.672
  730TIP3    H2 2134   1.325   4.039   0.710
  731TIP3   OH2 2135   0.846   3.753   1.009
  731TIP3    H1 2136   0.910   3.755   1.080
  731TIP3    H2 2137   0.764   3.727   1.050
  732TIP3   OH2 2138   1.564   3.640   0.313
  732TIP3    H1 2139   1.624   3.644   0.239
  732TIP3    H2 2140   1.570   3.727   0.354
  733TIP3   OH2 2141   2.446   3.127   1.796
  733TIP3    H1 2142   2.361   3.142   1.756
  733TIP3    H2 2143   2.460   3.033   1.789
  734TIP3   OH2 2144   1.034   3.567   1.806
  734TIP3    H1 2145   1.087   3.563   1.886
  734TIP3    H2 2146   0.967   3.499   1.819
  735TIP3   OH2 2147   1.981   2.452   1.851
  735TIP3    H1 2148   2.066   2.439   1.892
  735TIP3    H2 2149   1.918   2.440   1.922
  736TIP3   OH2 2150   2.191   2.920   1.708
  736TIP3    H1 2151   2.148   2.900   1.791
  736TIP3    H2 2152   2.180   3.014   1.697
  737TIP3   OH2 2153   1.368   2.924   1.694
  737TIP3    H1 2154   1.302   2.906   1.761
  737TIP3    H2 2155   1.334   3.000   1.646
  738TIP3   OH2 2156   1.728   2.897   0.894
  738TIP3    H1 2157   1.659   2.918   0.831
  738TIP3    H2 2158   1.807   2.934   0.855
  739TIP3   OH2 2159   1.923   3.123   1.953
  739TIP3    H1 2160   1.899   3.056   2.017
  739TIP3    H2 2161   2.014   3.145   1.973
  740TIP3   OH2 2162   1.974   2.812   1.070
  740TIP3    H1 2163   1.958   2.900   1.035
  740TIP3    H2 2164   1.939   2.753   1.003
  741TIP3   OH2 2165   1.170   2.895   1.881
  741TIP3    H1 2166   1.176   2.952   1.958
  741TIP3    H2 2167   1.162   2.807   1.917
  742TIP3   OH2 2168   1.944   3.111   1.565
  742TIP3    H1 2169   1.951   3.034   1.508
  742TIP3    H2 2170   1.889   3.082   1.637
  743TIP3   OH2 2171   2.099   2.602   1.518
  743TIP3    H1 2172   2.049   2.636   1.592
  743TIP3    H2 2173   2.042   2.615   1.442
  744TIP3   OH2 2174   2.255   4.350   1.613
  744TIP3    H1 2175   2.252   4.365   1.518
  744TIP3    H2 2176   2.334   4.395   1.642
  745TIP3   OH2 2177   1.202   3.467   2.034
  745TIP3    H1 2178   1.283   3.484   2.082
  745TIP3    H2 2179   1.133   3.474   2.100
  746TIP3   OH2 2180   1.630   2.802   1.339
  746TIP3    H1 2181   1.696   2.863   1.308
  746TIP3    H2 2182   1.661   2.774   1.426
  747TIP3   OH2 2183   1.611   2.838   1.628
  747TIP3    H1 2184   1.527   2.875   1.654
  747TIP3    H2 2185   1.676   2.894   1.671
  748TIP3   OH2 2186   2.275   3.463   1.289
  748TIP3    H1 2187   2.313   3.510   1.215
  748TIP3    H2 2188   2.194   3.425   1.255
  749TIP3   OH2 2189   1.774   3.499   1.702
  749TIP3    H1 2190   1.832   3.493   1.778
  749TIP3    H2 2191   1.734   3.586   1.709
  750TIP3   OH2 2192   1.045   3.215   1.417
  750TIP3    H1 2193   1.044   3.149   1.348
  750TIP3    H2 2194   1.089   3.173   1.490
  751TIP3   OH2 2195   0.947   3.125   1.964
  751TIP3    H1 2196   0.932   3.101   2.056
  751TIP3    H2 2197   0.882   3.075   1.915
  752TIP3   OH2 2198   1.691   3.279   1.987
  752TIP3    H1 2199   1.625   3.213   1.967
  752TIP3    H2 2200   1.775   3.237   1.966
  753TIP3   OH2 2201   1.914   3.817   1.565
  753TIP3    H1 2202   1.820   3.799   1.574
  753TIP3    H2 2203   1.940   3.851   1.650
  754TIP3   OH2 2204   2.294   2.848   0.443
  754TIP3    H1 2205   2.240   2.773   0.417
  754TIP3    H2 2206   2.281   2.912   0.373
  755TIP3   OH2 2207   2.559   3.720   1.549
  755TIP3    H1 2208   2.464   3.712   1.542
  755TIP3    H2 2209   2.592   3.694   1.463
  756TIP3   OH2 2210   2.042   3.657   0.423
  756TIP3    H1 2211   2.047   3.577   0.476
  756TIP3    H2 2212   2.047   3.626   0.332
  757TIP3   OH2 2213   2.056   3.336   1.188
  757TIP3    H1 2214   1.980   3.297   1.231
  757TIP3    H2 2215   2.105   3.262   1.153
  758TIP3   OH2 2216   1.129   3.513   1.032
  758TIP3    H1 2217   1.115   3.607   1.024
  758TIP3    H2 2218   1.040   3.476   1.036
  759TIP3   OH2 2219   1.270   3.329   0.844
  759TIP3    H1 2220   1.364   3.341   0.858
  759TIP3    H2 2221   1.241   3.278   0.919
  760TIP3   OH2 2222   1.462   3.880   1.449
  760TIP3    H1 2223   1.503   3.949   1.397
  760TIP3    H2 2224   1.534   3.838   1.495
  761TIP3   OH2 2225   1.137   3.792   0.914
  761TIP3    H1 2226   1.065   3.840   0.955
  761TIP3    H2 2227   1.186   3.858   0.866
  762TIP3   OH2 2228   1.825   3.538   1.425
  762TIP3    H1 2229   1.820   3.522   1.519
  762TIP3    H2 2230   1.882   3.468   1.392
  763TIP3   OH2 2231   1.807   3.434   0.235
  763TIP3    H1 2232   1.896   3.410   0.262
  763TIP3    H2 2233   1.753   3.416   0.312
  764TIP3   OH2 2234   2.067   4.026   1.454
  764TIP3    H1 2235   1.999   3.962   1.471
  764TIP3    H2 2236   2.032   4.079   1.382
  765TIP3   OH2 2237   2.118   3.886   0.140
  765TIP3    H1 2238   2.177   3.956   0.170
  765TIP3    H2 2239   2.038   3.899   0.191
  766TIP3   OH2 2240   1.156   2.636   2.002
  766TIP3    H1 2241   1.062   2.642   2.019
  766TIP3    H2 2242   1.192   2.594   2.080
  767TIP3   OH2 2243   2.024   3.368   0.390
  767TIP3    H1 2244   1.986   3.328   0.468
  767TIP3    H2 2245   2.117   3.376   0.409
  768TIP3   OH2 2246   0.894   3.778   1.613
  768TIP3    H1 2247   0.941   3.720   1.672
  768TIP3    H2 2248   0.908   3.866   1.648
  769TIP3   OH2 2249   1.952   2.695   1.732
  769TIP3    H1 2250   2.005   2.744   1.795
  769TIP3    H2 2251   1.949   2.606   1.767
  770TIP3   OH2 2252   1.402   3.774   0.560
  770TIP3    H1 2253   1.407   3.679   0.548
  770TIP3    H2 2254   1.377   3.808   0.473
  771TIP3   OH2 2255   1.814   2.960   1.765
  771TIP3    H1 2256   1.842   3.023   1.831
  771TIP3    H2 2257   1.859   2.879   1.788
  772TIP3   OH2 2258   2.454   2.855   1.717
  772TIP3    H1 2259   2.359   2.868   1.722
  772TIP3    H2 2260   2.465   2.785   1.653
  773TIP3   OH2 2261   2.217   3.115   1.125
  773TIP3    H1 2262   2.148   3.081   1.181
  773TIP3    H2 2263   2.296   3.069   1.152
  774TIP3   OH2 2264   2.090   4.031   1.021
  774TIP3    H1 2265   2.047   4.080   0.951
  774TIP3    H2 2266   2.184   4.039   1.002
  775TIP3   OH2 2267   0.891   4.056   2.021
  775TIP3    H1 2268   0.973   4.061   2.071
  775TIP3    H2 2269   0.871   3.963   2.016
  776TIP3   OH2 2270   1.350   3.977   2.063
  776TIP3    H1 2271   1.441   3.952   2.079
  776TIP3    H2 2272   1.321   3.920   1.992
  777TIP3   OH2 2273   1.977   3.910   1.813
  777TIP3    H1 2274   1.982   3.840   1.878
  777TIP3    H2 2275   2.051   3.967   1.832
  778TIP3   OH2 2276   1.743   3.662   0.109
  778TIP3    H1 2277   1.773   3.575   0.135
  778TIP3    H2 2278   1.769   3.670   0.017
  779TIP3   OH2 2279   0.992   3.456   2.218
  779TIP3    H1 2280   1.010   3.362   2.230
  779TIP3    H2 2281   0.908   3.459   2.174
  780TIP3   OH2 2282   1.607   3.546   1.997
  780TIP3    H1 2283   1.564   3.561   1.913
  780TIP3    H2 2284   1.648   3.460   1.988
  781TIP3   OH2 2285   2.083   3.592   1.607
  781TIP3    H1 2286   2.162   3.622   1.564
  781TIP3    H2 2287   2.017   3.659   1.587
  782TIP3   OH2 2288   1.115   3.199   2.228
  782TIP3    H1 2289   1.194   3.186   2.175
  782TIP3    H2 2290   1.147   3.222   2.315
  783TIP3   OH2 2291   1.491   3.105   1.901
  783TIP3    H1 2292   1.401   3.136   1.916
  783TIP3    H2 2293   1.513   3.138   1.813
  784TIP3   OH2 2294   1.954   3.461   1.952
  784TIP3    H1 2295   2.037   3.432   1.915
  784TIP3    H2 2296   1.945   3.411   2.034
  785TIP3   OH2 2297   1.583   2.865   2.006
  785TIP3    H1 2298   1.583   2.793   1.944
  785TIP3    H2 2299   1.555   2.941   1.954
  786TIP3   OH2 2300   1.584   2.645   1.818
  786TIP3    H1 2301   1.592   2.706   1.745
  786TIP3    H2 2302   1.493   2.616   1.816
  787TIP3   OH2 2303   1.608   3.227   1.674
  787TIP3    H1 2304   1.683   3.280   1.701
  787TIP3    H2 2305   1.546   3.290   1.637
  788TIP3   OH2 2306   2.183   3.154   2.055
  788TIP3    H1 2307   2.239   3.084   2.087
  788TIP3    H2 2308   2.240   3.231   2.050
  789TIP3   OH2 2309   2.216   3.425   1.776
  789TIP3    H1 2310   2.160   3.485   1.726
  789TIP3    H2 2311   2.304   3.443   1.743
  790TIP3   OH2 2312   1.439   2.953   2.226
  790TIP3    H1 2313   1.379   2.883   2.249
  790TIP3    H2 2314   1.477   2.927   2.143
  791TIP3   OH2 2315   1.696   2.409   1.901
  791TIP3    H1 2316   1.662   2.495   1.880
  791TIP3    H2 2317   1.622   2.350   1.890
  792TIP3   OH2 2318   1.854   2.900   2.094
  792TIP3    H1 2319   1.874   2.892   2.187
  792TIP3    H2 2320   1.761   2.880   2.087
  793TIP3   OH2 2321   2.072   2.833   1.937
  793TIP3    H1 2322   2.004   2.851   2.001
  793TIP3    H2 2323   2.152   2.824   1.989
  794TIP3   OH2 2324   2.308   2.813   2.084
  794TIP3    H1 2325   2.327   2.721   2.102
  794TIP3    H2 2326   2.296   2.853   2.170
  795TIP3   OH2 2327   1.293   2.724   2.302
  795TIP3    H1 2328   1.300   2.634   2.270
  795TIP3    H2 2329   1.335   2.723   2.388
  796TIP3   OH2 2330   1.766   2.401   2.164
  796TIP3    H1 2331   1.840   2.341   2.162
  796TIP3    H2 2332   1.732   2.402   2.075
  797TIP3   OH2 2333   1.860   2.622   2.300
  797TIP3    H1 2334   1.830   2.547   2.248
  797TIP3    H2 2335   1.786   2.683   2.298
  798TIP3   OH2 2336   0.667   3.690   1.205
  798TIP3    H1 2337   0.659   3.618   1.268
  798TIP3    H2 2338   0.686   3.767   1.258
  799TIP3   OH2 2339   2.366   4.073   1.019
  799TIP3    H1 2340   2.383   4.098   1.110
  799TIP3    H2 2341   2.414   4.137   0.967
  800TIP3   OH2 2342   2.390   4.105   1.298
  800TIP3    H1 2343   2.340   4.023   1.294
  800TIP3    H2 2344   2.459   4.088   1.362
  801TIP3   OH2 2345   2.434   3.798   1.874
  801TIP3    H1 2346   2.361   3.808   1.935
  801TIP3    H2 2347   2.481   3.881   1.880
  802TIP3   OH2 2348   2.266   3.428   0.516
  802TIP3    H1 2349   2.323   3.488   0.467
  802TIP3    H2 2350   2.318   3.348   0.525
  803TIP3   OH2 2351   2.401   3.206   0.725
  803TIP3    H1 2352   2.350   3.142   0.776
  803TIP3    H2 2353   2.479   3.221   0.778
  804TIP3   OH2 2354   2.441   3.588   1.113
  804TIP3    H1 2355   2.493   3.520   1.068
  804TIP3    H2 2356   2.442   3.662   1.053
  805TIP3   OH2 2357   2.244   3.873   1.304
  805TIP3    H1 2358   2.175   3.917   1.354
  805TIP3    H2 2359   2.198   3.832   1.231
  806TIP3   OH2 2360   2.289   3.042   0.253
  806TIP3    H1 2361   2.198   3.019   0.232
  806TIP3    H2 2362   2.290   3.138   0.252
  807TIP3   OH2 2363   2.188   3.080   0.850
  807TIP3    H1 2364   2.188   2.986   0.831
  807TIP3    H2 2365   2.204   3.086   0.944
  808TIP3   OH2 2366   0.851   3.226   1.610
  808TIP3    H1 2367   0.891   3.240   1.524
  808TIP3    H2 2368   0.909   3.164   1.654
  809TIP3   OH2 2369   2.474   3.462   1.677
  809TIP3    H1 2370   2.541   3.395   1.661
  809TIP3    H2 2371   2.501   3.536   1.623
  810TIP3   OH2 2372   2.652   3.251   1.667
  810TIP3    H1 2373   2.579   3.210   1.712
  810TIP3    H2 2374   2.728   3.197   1.689
  811TIP3   OH2 2375   2.160   2.821   0.714
  811TIP3    H1 2376   2.173   2.727   0.726
  811TIP3    H2 2377   2.093   2.828   0.646
  812TIP3   OH2 2378   2.399   2.941   1.241
  812TIP3    H1 2379   2.481   2.976   1.205
  812TIP3    H2 2380   2.395   2.976   1.330
  813TIP3   OH2 2381   2.419   3.094   1.472
  813TIP3    H1 2382   2.345   3.126   1.525
  813TIP3    H2 2383   2.449   3.170   1.424
  814TIP3   OH2 2384   1.036   2.822   2.284
  814TIP3    H1 2385   1.129   2.800   2.286
  814TIP3    H2 2386   1.001   2.786   2.365
  815TIP3   OH2 2387   2.876   2.671   1.996
  815TIP3    H1 2388   2.939   2.613   1.953
  815TIP3    H2 2389   2.842   2.726   1.927
  816TIP3   OH2 2390   2.166   2.543   0.705
  816TIP3    H1 2391   2.173   2.538   0.800
  816TIP3    H2 2392   2.162   2.451   0.676
  817TIP3   OH2 2393   2.731   2.809   1.811
  817TIP3    H1 2394   2.656   2.846   1.859
  817TIP3    H2 2395   2.692   2.739   1.758
  818TIP3   OH2 2396   2.052   3.974   0.713
  818TIP3    H1 2397   2.093   3.951   0.629
  818TIP3    H2 2398   2.026   4.066   0.701
  819TIP3   OH2 2399   1.031   3.777   2.038
  819TIP3    H1 2400   0.937   3.764   2.037
  819TIP3    H2 2401   1.054   3.779   2.131
  820TIP3   OH2 2402   1.232   3.835   1.592
  820TIP3    H1 2403   1.181   3.909   1.559
  820TIP3    H2 2404   1.318   3.845   1.551
  821TIP3   OH2 2405   1.634   4.055   1.724
  821TIP3    H1 2406   1.670   4.045   1.812
  821TIP3    H2 2407   1.698   4.109   1.678
  822TIP3   OH2 2408   1.829   4.210   1.602
  822TIP3    H1 2409   1.896   4.155   1.561
  822TIP3    H2 2410   1.879   4.271   1.657
  823TIP3   OH2 2411   2.640   2.568   1.701
  823TIP3    H1 2412   2.561   2.570   1.648
  823TIP3    H2 2413   2.670   2.477   1.696
  824TIP3   OH2 2414   0.893   4.067   1.640
  824TIP3    H1 2415   0.802   4.083   1.616
  824TIP3    H2 2416   0.914   4.135   1.703
  825TIP3   OH2 2417   1.123   4.062   1.485
  825TIP3    H1 2418   1.040   4.067   1.532
  825TIP3    H2 2419   1.101   4.087   1.395
  826TIP3   OH2 2420   1.545   4.084   1.276
  826TIP3    H1 2421   1.471   4.099   1.217
  826TIP3    H2 2422   1.556   4.166   1.322
  827TIP3   OH2 2423   1.805   4.014   1.315
  827TIP3    H1 2424   1.714   4.042   1.306
  827TIP3    H2 2425   1.857   4.085   1.277
  828TIP3   OH2 2426   2.005   4.188   1.228
  828TIP3    H1 2427   2.001   4.276   1.190
  828TIP3    H2 2428   2.034   4.132   1.155
  829TIP3   OH2 2429   0.814   3.876   1.363
  829TIP3    H1 2430   0.834   3.850   1.453
  829TIP3    H2 2431   0.885   3.838   1.311
  830TIP3   OH2 2432   1.014   3.754   1.222
  830TIP3    H1 2433   1.019   3.671   1.270
  830TIP3    H2 2434   1.100   3.793   1.234
  831TIP3   OH2 2435   1.272   3.865   1.244
  831TIP3    H1 2436   1.285   3.771   1.234
  831TIP3    H2 2437   1.320   3.888   1.323
  832TIP3   OH2 2438   1.837   2.432   1.274
  832TIP3    H1 2439   1.850   2.390   1.360
  832TIP3    H2 2440   1.778   2.372   1.228
  833TIP3   OH2 2441   2.409   2.440   1.320
  833TIP3    H1 2442   2.475   2.468   1.256
  833TIP3    H2 2443   2.331   2.491   1.299
  834TIP3   OH2 2444   2.590   2.479   1.111
  834TIP3    H1 2445   2.661   2.414   1.109
  834TIP3    H2 2446   2.631   2.560   1.080
  835TIP3   OH2 2447   2.125   2.446   1.251
  835TIP3    H1 2448   2.030   2.446   1.236
  835TIP3    H2 2449   2.140   2.374   1.312
  836TIP3   OH2 2450   1.314   3.837   0.305
  836TIP3    H1 2451   1.384   3.860   0.243
  836TIP3    H2 2452   1.238   3.818   0.249
  837TIP3   OH2 2453   2.145   3.911   0.460
  837TIP3    H1 2454   2.117   3.820   0.448
  837TIP3    H2 2455   2.094   3.960   0.396
  838TIP3   OH2 2456   1.298   2.458   2.201
  838TIP3    H1 2457   1.268   2.389   2.261
  838TIP3    H2 2458   1.391   2.468   2.221
  839TIP3   OH2 2459   1.544   2.460   2.323
  839TIP3    H1 2460   1.625   2.439   2.277
  839TIP3    H2 2461   1.540   2.396   2.394
  840TIP3   OH2 2462   2.385   2.552   2.123
  840TIP3    H1 2463   2.400   2.524   2.213
  840TIP3    H2 2464   2.471   2.547   2.081
  841TIP3   OH2 2465   2.292   4.076   1.616
  841TIP3    H1 2466   2.216   4.046   1.566
  841TIP3    H2 2467   2.278   4.170   1.627
  842TIP3   OH2 2468   3.570   3.463   0.353
  842TIP3    H1 2469   3.543   3.551   0.326
  842TIP3    H2 2470   3.502   3.406   0.317
  843TIP3   OH2 2471   3.577   3.457   0.783
  843TIP3    H1 2472   3.631   3.441   0.861
  843TIP3    H2 2473   3.536   3.373   0.764
  844TIP3   OH2 2474   2.864   3.308   1.131
  844TIP3    H1 2475   2.905   3.263   1.205
  844TIP3    H2 2476   2.938   3.339   1.079
  845TIP3   OH2 2477   3.838   3.764   0.449
  845TIP3    H1 2478   3.825   3.697   0.516
  845TIP3    H2 2479   3.857   3.844   0.499
  846TIP3   OH2 2480   2.863   3.746   0.811
  846TIP3    H1 2481   2.843   3.653   0.822
  846TIP3    H2 2482   2.958   3.750   0.801
  847TIP3   OH2 2483   2.606   3.009   0.633
  847TIP3    H1 2484   2.639   3.096   0.652
  847TIP3    H2 2485   2.551   2.987   0.708
  848TIP3   OH2 2486   2.651   3.268   0.818
  848TIP3    H1 2487   2.705   3.200   0.859
  848TIP3    H2 2488   2.711   3.340   0.802
  849TIP3   OH2 2489   3.489   4.199   0.465
  849TIP3    H1 2490   3.526   4.134   0.406
  849TIP3    H2 2491   3.485   4.155   0.550
  850TIP3   OH2 2492   3.376   3.676   0.784
  850TIP3    H1 2493   3.420   3.595   0.756
  850TIP3    H2 2494   3.447   3.732   0.816
  851TIP3   OH2 2495   4.411   2.997   0.798
  851TIP3    H1 2496   4.423   3.078   0.848
  851TIP3    H2 2497   4.419   3.024   0.707
  852TIP3   OH2 2498   3.803   3.164   0.828
  852TIP3    H1 2499   3.854   3.085   0.848
  852TIP3    H2 2500   3.754   3.141   0.749
  853TIP3   OH2 2501   3.175   2.875   0.832
  853TIP3    H1 2502   3.153   2.949   0.774
  853TIP3    H2 2503   3.135   2.799   0.790
  854TIP3   OH2 2504   3.836   2.943   0.409
  854TIP3    H1 2505   3.900   2.933   0.479
  854TIP3    H2 2506   3.887   2.974   0.334
  855TIP3   OH2 2507   2.787   3.063   0.929
  855TIP3    H1 2508   2.865   3.052   0.983
  855TIP3    H2 2509   2.802   3.005   0.854
  856TIP3   OH2 2510   3.205   3.278   0.744
  856TIP3    H1 2511   3.299   3.262   0.751
  856TIP3    H2 2512   3.169   3.195   0.713
  857TIP3   OH2 2513   4.456   3.216   0.968
  857TIP3    H1 2514   4.367   3.250   0.955
  857TIP3    H2 2515   4.477   3.236   1.059
  858TIP3   OH2 2516   3.115   2.817   1.250
  858TIP3    H1 2517   3.070   2.861   1.178
  858TIP3    H2 2518   3.060   2.835   1.327
  859TIP3   OH2 2519   3.483   3.685   0.209
  859TIP3    H1 2520   3.445   3.660   0.124
  859TIP3    H2 2521   3.426   3.756   0.240
  860TIP3   OH2 2522   3.214   3.613   1.000
  860TIP3    H1 2523   3.160   3.685   1.031
  860TIP3    H2 2524   3.262   3.648   0.925
  861TIP3   OH2 2525   4.013   2.936   0.611
  861TIP3    H1 2526   4.054   2.861   0.653
  861TIP3    H2 2527   4.055   3.012   0.652
  862TIP3   OH2 2528   3.015   2.957   1.040
  862TIP3    H1 2529   3.068   3.031   1.067
  862TIP3    H2 2530   3.064   2.917   0.968
  863TIP3   OH2 2531   3.054   3.810   1.102
  863TIP3    H1 2532   3.040   3.901   1.073
  863TIP3    H2 2533   2.976   3.790   1.154
  864TIP3   OH2 2534   2.463   3.548   0.366
  864TIP3    H1 2535   2.459   3.573   0.274
  864TIP3    H2 2536   2.491   3.627   0.411
  865TIP3   OH2 2537   3.873   4.010   0.592
  865TIP3    H1 2538   3.787   4.002   0.632
  865TIP3    H2 2539   3.869   4.093   0.545
  866TIP3   OH2 2540   4.190   2.898   0.967
  866TIP3    H1 2541   4.100   2.911   0.937
  866TIP3    H2 2542   4.244   2.917   0.890
  867TIP3   OH2 2543   3.484   2.532   0.980
  867TIP3    H1 2544   3.476   2.440   1.006
  867TIP3    H2 2545   3.415   2.577   1.030
  868TIP3   OH2 2546   3.591   4.042   0.262
  868TIP3    H1 2547   3.639   3.961   0.249
  868TIP3    H2 2548   3.653   4.111   0.235
  869TIP3   OH2 2549   3.731   3.816   0.198
  869TIP3    H1 2550   3.657   3.755   0.196
  869TIP3    H2 2551   3.779   3.792   0.278
  870TIP3   OH2 2552   4.110   3.894   0.940
  870TIP3    H1 2553   4.089   3.820   0.883
  870TIP3    H2 2554   4.093   3.971   0.887
  871TIP3   OH2 2555   3.406   3.300   0.192
  871TIP3    H1 2556   3.330   3.358   0.187
  871TIP3    H2 2557   3.411   3.260   0.105
  872TIP3   OH2 2558   6.224   7.123   6.889
  872TIP3    H1 2559   6.308   7.168   6.880
  872TIP3    H2 2560   6.243   7.033   6.860
  873TIP3   OH2 2561   4.288   3.561   0.800
  873TIP3    H1 2562   4.203   3.604   0.799
  873TIP3    H2 2563   4.325   3.576   0.713
  874TIP3   OH2 2564   3.759   3.385   0.173
  874TIP3    H1 2565   3.700   3.412   0.244
  874TIP3    H2 2566   3.840   3.360   0.218
  875TIP3   OH2 2567   3.987   3.421   1.116
  875TIP3    H1 2568   3.981   3.504   1.164
  875TIP3    H2 2569   3.905   3.416   1.066
  876TIP3   OH2 2570   3.003   3.400   0.589
  876TIP3    H1 2571   2.953   3.328   0.550
  876TIP3    H2 2572   3.079   3.357   0.629
  877TIP3   OH2 2573   3.125   3.793   0.715
  877TIP3    H1 2574   3.100   3.780   0.624
  877TIP3    H2 2575   3.212   3.753   0.722
  878TIP3   OH2 2576   3.079   3.380   0.964
  878TIP3    H1 2577   3.123   3.345   0.887
  878TIP3    H2 2578   3.125   3.462   0.983
  879TIP3   OH2 2579   3.638   4.001   0.727
  879TIP3    H1 2580   3.621   4.081   0.776
  879TIP3    H2 2581   3.620   3.930   0.790
  880TIP3   OH2 2582   3.253   3.903   1.273
  880TIP3    H1 2583   3.192   3.959   1.320
  880TIP3    H2 2584   3.197   3.852   1.214
  881TIP3   OH2 2585   6.468   7.251   6.908
  881TIP3    H1 2586   6.504   7.313   6.971
  881TIP3    H2 2587   6.491   7.287   6.823
  882TIP3   OH2 2588   3.009   3.453   1.415
  882TIP3    H1 2589   3.013   3.546   1.435
  882TIP3    H2 2590   2.916   3.433   1.410
  883TIP3   OH2 2591   3.339   3.914   0.267
  883TIP3    H1 2592   3.414   3.972   0.278
  883TIP3    H2 2593   3.276   3.966   0.217
  884TIP3   OH2 2594   3.042   4.059   1.359
  884TIP3    H1 2595   3.017   4.072   1.268
  884TIP3    H2 2596   2.959   4.045   1.405
  885TIP3   OH2 2597   4.103   2.480   0.055
  885TIP3    H1 2598   4.027   2.513   0.104
  885TIP3    H2 2599   4.124   2.551  -0.006
  886TIP3   OH2 2600   2.840   3.210   0.473
  886TIP3    H1 2601   2.782   3.250   0.408
  886TIP3    H2 2602   2.853   3.120   0.442
  887TIP3   OH2 2603   2.639   3.621   1.309
  887TIP3    H1 2604   2.570   3.605   1.244
  887TIP3    H2 2605   2.673   3.534   1.331
  888TIP3   OH2 2606   2.481   3.823   0.970
  888TIP3    H1 2607   2.570   3.852   0.993
  888TIP3    H2 2608   2.425   3.897   0.994
  889TIP3   OH2 2609   4.337   4.266   1.007
  889TIP3    H1 2610   4.343   4.171   1.019
  889TIP3    H2 2611   4.257   4.291   1.053
  890TIP3   OH2 2612   3.443   4.047   1.136
  890TIP3    H1 2613   3.434   4.138   1.165
  890TIP3    H2 2614   3.375   4.000   1.185
  891TIP3   OH2 2615   3.205   4.147   0.088
  891TIP3    H1 2616   3.158   4.126   0.007
  891TIP3    H2 2617   3.168   4.231   0.116
  892TIP3   OH2 2618   2.670   4.018   0.477
  892TIP3    H1 2619   2.715   4.011   0.561
  892TIP3    H2 2620   2.620   3.936   0.471
  893TIP3   OH2 2621   0.588   0.036   6.706
  893TIP3    H1 2622   0.663  -0.013   6.671
  893TIP3    H2 2623   0.615   0.060   6.794
  894TIP3   OH2 2624   3.467   4.119   0.023
  894TIP3    H1 2625   3.376   4.122   0.052
  894TIP3    H2 2626   3.515   4.085   0.099
  895TIP3   OH2 2627   4.233   3.364   1.262
  895TIP3    H1 2628   4.149   3.380   1.221
  895TIP3    H2 2629   4.246   3.270   1.257
  896TIP3   OH2 2630   2.837   3.809   1.274
  896TIP3    H1 2631   2.889   3.796   1.354
  896TIP3    H2 2632   2.765   3.746   1.282
  897TIP3   OH2 2633   3.270   2.630   1.121
  897TIP3    H1 2634   3.216   2.570   1.069
  897TIP3    H2 2635   3.207   2.694   1.156
  898TIP3   OH2 2636   3.765   2.744   1.296
  898TIP3    H1 2637   3.833   2.717   1.359
  898TIP3    H2 2638   3.683   2.729   1.342
  899TIP3   OH2 2639   3.985   3.158   1.215
  899TIP3    H1 2640   3.945   3.155   1.301
  899TIP3    H2 2641   3.967   3.246   1.183
  900TIP3   OH2 2642   6.520   7.350   6.654
  900TIP3    H1 2643   6.465   7.325   6.579
  900TIP3    H2 2644   6.498   7.442   6.669
  901TIP3   OH2 2645   3.235   2.648   0.066
  901TIP3    H1 2646   3.278   2.631   0.150
  901TIP3    H2 2647   3.282   2.592   0.004
  902TIP3   OH2 2648   3.171   3.166   1.118
  902TIP3    H1 2649   3.126   3.174   1.202
  902TIP3    H2 2650   3.151   3.248   1.072
  903TIP3   OH2 2651   3.082   3.057   0.651
  903TIP3    H1 2652   2.992   3.026   0.661
  903TIP3    H2 2653   3.105   3.034   0.561
  904TIP3   OH2 2654   3.551   3.109   0.332
  904TIP3    H1 2655   3.499   3.178   0.292
  904TIP3    H2 2656   3.607   3.077   0.262
  905TIP3   OH2 2657   3.702   3.363   1.420
  905TIP3    H1 2658   3.677   3.294   1.482
  905TIP3    H2 2659   3.794   3.380   1.440
  906TIP3   OH2 2660   3.697   3.119   0.574
  906TIP3    H1 2661   3.631   3.149   0.511
  906TIP3    H2 2662   3.742   3.047   0.529
  907TIP3   OH2 2663   2.997   3.162   1.330
  907TIP3    H1 2664   3.006   3.225   1.403
  907TIP3    H2 2665   2.979   3.079   1.373
  908TIP3   OH2 2666   5.812   6.619   6.905
  908TIP3    H1 2667   5.899   6.646   6.933
  908TIP3    H2 2668   5.769   6.699   6.877
  909TIP3   OH2 2669   2.652   2.682   0.919
  909TIP3    H1 2670   2.687   2.741   0.986
  909TIP3    H2 2671   2.685   2.718   0.836
  910TIP3   OH2 2672   2.500   2.684   0.354
  910TIP3    H1 2673   2.576   2.709   0.408
  910TIP3    H2 2674   2.428   2.737   0.389
  911TIP3   OH2 2675   3.738   3.366   0.996
  911TIP3    H1 2676   3.765   3.299   0.933
  911TIP3    H2 2677   3.691   3.319   1.063
  912TIP3   OH2 2678   3.431   2.908   0.718
  912TIP3    H1 2679   3.352   2.898   0.772
  912TIP3    H2 2680   3.496   2.851   0.760
  913TIP3   OH2 2681   2.859   2.906   0.722
  913TIP3    H1 2682   2.790   2.902   0.656
  913TIP3    H2 2683   2.913   2.828   0.706
  914TIP3   OH2 2684   3.168   2.964   0.407
  914TIP3    H1 2685   3.253   2.938   0.443
  914TIP3    H2 2686   3.180   2.960   0.312
  915TIP3   OH2 2687   3.914   2.918   0.909
  915TIP3    H1 2688   3.857   2.929   0.985
  915TIP3    H2 2689   3.874   2.847   0.859
  916TIP3   OH2 2690   2.935   2.861   0.136
  916TIP3    H1 2691   2.842   2.843   0.126
  916TIP3    H2 2692   2.948   2.947   0.096
  917TIP3   OH2 2693   4.050   4.604   1.100
  917TIP3    H1 2694   4.044   4.621   1.006
  917TIP3    H2 2695   4.129   4.650   1.128
  918TIP3   OH2 2696   2.993   3.719   1.507
  918TIP3    H1 2697   3.073   3.738   1.554
  918TIP3    H2 2698   2.923   3.728   1.572
  919TIP3   OH2 2699   3.466   3.193   0.786
  919TIP3    H1 2700   3.495   3.120   0.731
  919TIP3    H2 2701   3.458   3.155   0.874
  920TIP3   OH2 2702   3.025   2.695   0.693
  920TIP3    H1 2703   2.985   2.627   0.747
  920TIP3    H2 2704   3.073   2.647   0.625
  921TIP3   OH2 2705   3.425   3.091   1.043
  921TIP3    H1 2706   3.340   3.125   1.071
  921TIP3    H2 2707   3.488   3.140   1.096
  922TIP3   OH2 2708   3.192   3.472   0.157
  922TIP3    H1 2709   3.108   3.432   0.136
  922TIP3    H2 2710   3.177   3.517   0.240
  923TIP3   OH2 2711   4.051   3.694   0.759
  923TIP3    H1 2712   4.085   3.745   0.685
  923TIP3    H2 2713   3.971   3.654   0.725
  924TIP3   OH2 2714   6.576   6.809   6.886
  924TIP3    H1 2715   6.524   6.744   6.934
  924TIP3    H2 2716   6.568   6.889   6.938
  925TIP3   OH2 2717   3.570   3.782   1.174
  925TIP3    H1 2718   3.618   3.770   1.256
  925TIP3    H2 2719   3.529   3.868   1.183
  926TIP3   OH2 2720   3.715   3.024   0.113
  926TIP3    H1 2721   3.807   3.039   0.137
  926TIP3    H2 2722   3.692   3.100   0.059
  927TIP3   OH2 2723   2.855   3.460   0.813
  927TIP3    H1 2724   2.898   3.452   0.727
  927TIP3    H2 2725   2.923   3.435   0.875
  928TIP3   OH2 2726   6.176   7.621   6.908
  928TIP3    H1 2727   6.128   7.704   6.910
  928TIP3    H2 2728   6.125   7.564   6.966
  929TIP3   OH2 2729   2.738   3.387   1.437
  929TIP3    H1 2730   2.739   3.361   1.529
  929TIP3    H2 2731   2.660   3.344   1.401
  930TIP3   OH2 2732   3.473   3.521   1.460
  930TIP3    H1 2733   3.403   3.461   1.434
  930TIP3    H2 2734   3.553   3.478   1.431
  931TIP3   OH2 2735   3.714   4.067   1.060
  931TIP3    H1 2736   3.619   4.054   1.063
  931TIP3    H2 2737   3.736   4.103   1.146
  932TIP3   OH2 2738   6.952   7.124   6.894
  932TIP3    H1 2739   6.903   7.079   6.824
  932TIP3    H2 2740   6.947   7.217   6.871
  933TIP3   OH2 2741   4.353   3.988   1.031
  933TIP3    H1 2742   4.259   3.970   1.031
  933TIP3    H2 2743   4.384   3.954   0.947
  934TIP3   OH2 2744   6.634   7.908   6.866
  934TIP3    H1 2745   6.619   7.883   6.957
  934TIP3    H2 2746   6.625   7.826   6.817
  935TIP3   OH2 2747   3.823   3.561   0.654
  935TIP3    H1 2748   3.734   3.539   0.682
  935TIP3    H2 2749   3.858   3.478   0.621
  936TIP3   OH2 2750   2.971   3.804   0.477
  936TIP3    H1 2751   2.965   3.880   0.419
  936TIP3    H2 2752   2.883   3.796   0.515
  937TIP3   OH2 2753   2.541   3.123   0.102
  937TIP3    H1 2754   2.573   3.188   0.165
  937TIP3    H2 2755   2.456   3.097   0.136
  938TIP3   OH2 2756   3.081   3.572   0.384
  938TIP3    H1 2757   3.051   3.658   0.413
  938TIP3    H2 2758   3.055   3.513   0.455
  939TIP3   OH2 2759   3.261   4.120   0.929
  939TIP3    H1 2760   3.297   4.194   0.879
  939TIP3    H2 2761   3.336   4.087   0.979
  940TIP3   OH2 2762   2.896   4.026   0.325
  940TIP3    H1 2763   2.809   4.032   0.365
  940TIP3    H2 2764   2.931   4.115   0.331
  941TIP3   OH2 2765   3.607   3.782   0.901
  941TIP3    H1 2766   3.594   3.780   0.996
  941TIP3    H2 2767   3.682   3.725   0.885
  942TIP3   OH2 2768   6.428   7.601   6.725
  942TIP3    H1 2769   6.492   7.605   6.796
  942TIP3    H2 2770   6.344   7.618   6.768
  943TIP3   OH2 2771   3.865   4.275   0.942
  943TIP3    H1 2772   3.795   4.213   0.962
  943TIP3    H2 2773   3.830   4.327   0.869
  944TIP3   OH2 2774   2.942   2.909   1.447
  944TIP3    H1 2775   2.847   2.920   1.452
  944TIP3    H2 2776   2.965   2.865   1.529
  945TIP3   OH2 2777   3.778   3.583  -0.019
  945TIP3    H1 2778   3.760   3.525   0.055
  945TIP3    H2 2779   3.874   3.587  -0.022
  946TIP3   OH2 2780   2.689   4.007   1.093
  946TIP3    H1 2781   2.742   3.948   1.146
  946TIP3    H2 2782   2.702   4.093   1.133
  947TIP3   OH2 2783   5.869   7.593   6.750
  947TIP3    H1 2784   5.786   7.593   6.703
  947TIP3    H2 2785   5.846   7.616   6.840
  948TIP3   OH2 2786   2.933   3.659   0.059
  948TIP3    H1 2787   2.967   3.624   0.142
  948TIP3    H2 2788   2.938   3.754   0.070
  949TIP3   OH2 2789   2.674   3.337   0.291
  949TIP3    H1 2790   2.615   3.362   0.362
  949TIP3    H2 2791   2.637   3.378   0.213
  950TIP3   OH2 2792   3.785   2.974   1.149
  950TIP3    H1 2793   3.866   3.016   1.179
  950TIP3    H2 2794   3.778   2.896   1.203
  951TIP3   OH2 2795   3.690   2.718   0.329
  951TIP3    H1 2796   3.639   2.724   0.248
  951TIP3    H2 2797   3.725   2.806   0.341
  952TIP3   OH2 2798   6.029   7.850   6.928
  952TIP3    H1 2799   5.947   7.876   6.972
  952TIP3    H2 2800   6.037   7.911   6.854
  953TIP3   OH2 2801   3.427   2.891   0.445
  953TIP3    H1 2802   3.476   2.966   0.410
  953TIP3    H2 2803   3.440   2.897   0.540
  954TIP3   OH2 2804   3.629   3.206   1.191
  954TIP3    H1 2805   3.654   3.246   1.274
  954TIP3    H2 2806   3.678   3.124   1.188
  955TIP3   OH2 2807   3.550   2.634   0.550
  955TIP3    H1 2808   3.583   2.684   0.624
  955TIP3    H2 2809   3.595   2.671   0.474
  956TIP3   OH2 2810   2.945   3.930   0.074
  956TIP3    H1 2811   2.914   3.997   0.013
  956TIP3    H2 2812   2.927   3.967   0.161
  957TIP3   OH2 2813   3.063   2.695   0.308
  957TIP3    H1 2814   3.032   2.760   0.245
  957TIP3    H2 2815   3.157   2.709   0.313
  958TIP3   OH2 2816   4.242   3.085   1.170
  958TIP3    H1 2817   4.150   3.102   1.191
  958TIP3    H2 2818   4.239   3.021   1.098
  959TIP3   OH2 2819   3.916   3.301   0.577
  959TIP3    H1 2820   3.837   3.249   0.590
  959TIP3    H2 2821   3.982   3.258   0.632
  960TIP3   OH2 2822   5.525   7.608   6.885
  960TIP3    H1 2823   5.602   7.644   6.928
  960TIP3    H2 2824   5.550   7.518   6.862
  961TIP3   OH2 2825   2.672   2.833   0.175
  961TIP3    H1 2826   2.632   2.886   0.244
  961TIP3    H2 2827   2.657   2.743   0.202
  962TIP3   OH2 2828   3.888   4.276   0.504
  962TIP3    H1 2829   3.846   4.330   0.437
  962TIP3    H2 2830   3.981   4.291   0.492
  963TIP3   OH2 2831   2.914   2.564   1.111
  963TIP3    H1 2832   2.948   2.533   1.027
  963TIP3    H2 2833   2.942   2.499   1.175
  964TIP3   OH2 2834   2.505   3.797   0.473
  964TIP3    H1 2835   2.456   3.836   0.545
  964TIP3    H2 2836   2.463   3.832   0.394
  965TIP3   OH2 2837   2.686   4.316   1.510
  965TIP3    H1 2838   2.769   4.320   1.559
  965TIP3    H2 2839   2.670   4.222   1.500
  966TIP3   OH2 2840   3.151   4.222   1.553
  966TIP3    H1 2841   3.242   4.194   1.561
  966TIP3    H2 2842   3.116   4.169   1.482
  967TIP3   OH2 2843   5.977   7.821   6.630
  967TIP3    H1 2844   5.939   7.746   6.676
  967TIP3    H2 2845   6.051   7.784   6.581
  968TIP3   OH2 2846   3.769   4.165   1.311
  968TIP3    H1 2847   3.785   4.095   1.374
  968TIP3    H2 2848   3.842   4.225   1.323
  969TIP3   OH2 2849   2.790   3.718   1.699
  969TIP3    H1 2850   2.811   3.625   1.711
  969TIP3    H2 2851   2.703   3.719   1.660
  970TIP3   OH2 2852   5.638   7.349   6.863
  970TIP3    H1 2853   5.696   7.372   6.935
  970TIP3    H2 2854   5.696   7.346   6.786
  971TIP3   OH2 2855   3.409   3.797   1.475
  971TIP3    H1 2856   3.363   3.818   1.394
  971TIP3    H2 2857   3.442   3.709   1.462
  972TIP3   OH2 2858   6.118   7.504   6.653
  972TIP3    H1 2859   6.157   7.535   6.735
  972TIP3    H2 2860   6.024   7.513   6.666
  973TIP3   OH2 2861   3.883   3.842   1.094
  973TIP3    H1 2862   3.960   3.870   1.044
  973TIP3    H2 2863   3.818   3.911   1.077
  974TIP3   OH2 2864   2.904   3.464   1.707
  974TIP3    H1 2865   2.981   3.444   1.654
  974TIP3    H2 2866   2.939   3.481   1.794
  975TIP3   OH2 2867   2.933   3.367   0.162
  975TIP3    H1 2868   2.860   3.369   0.223
  975TIP3    H2 2869   2.967   3.277   0.169
  976TIP3   OH2 2870   3.266   3.347   1.368
  976TIP3    H1 2871   3.180   3.388   1.378
  976TIP3    H2 2872   3.296   3.375   1.282
  977TIP3   OH2 2873   5.951   7.114   6.812
  977TIP3    H1 2874   5.954   7.026   6.776
  977TIP3    H2 2875   6.043   7.140   6.821
  978TIP3   OH2 2876   3.763   3.718   1.444
  978TIP3    H1 2877   3.830   3.678   1.389
  978TIP3    H2 2878   3.758   3.663   1.522
  979TIP3   OH2 2879   3.367   3.112   1.470
  979TIP3    H1 2880   3.369   3.043   1.404
  979TIP3    H2 2881   3.333   3.189   1.423
  980TIP3   OH2 2882   3.374   2.915   1.269
  980TIP3    H1 2883   3.398   2.949   1.183
  980TIP3    H2 2884   3.286   2.880   1.257
  981TIP3   OH2 2885   3.376   3.441   1.140
  981TIP3    H1 2886   3.467   3.466   1.124
  981TIP3    H2 2887   3.325   3.506   1.091
  982TIP3   OH2 2888   3.969   3.405   1.516
  982TIP3    H1 2889   4.011   3.318   1.519
  982TIP3    H2 2890   4.043   3.466   1.511
  983TIP3   OH2 2891   4.002   3.664   1.260
  983TIP3    H1 2892   3.949   3.726   1.210
  983TIP3    H2 2893   4.092   3.678   1.228
  984TIP3   OH2 2894   3.256   3.195   1.714
  984TIP3    H1 2895   3.185   3.134   1.735
  984TIP3    H2 2896   3.283   3.171   1.626
  985TIP3   OH2 2897   3.505   2.694   1.377
  985TIP3    H1 2898   3.462   2.771   1.340
  985TIP3    H2 2899   3.440   2.624   1.369
  986TIP3   OH2 2900   3.622   3.150   1.575
  986TIP3    H1 2901   3.609   3.137   1.669
  986TIP3    H2 2902   3.537   3.129   1.536
  987TIP3   OH2 2903   3.874   3.116   1.456
  987TIP3    H1 2904   3.794   3.111   1.508
  987TIP3    H2 2905   3.943   3.086   1.515
  988TIP3   OH2 2906   4.114   3.073   1.597
  988TIP3    H1 2907   4.125   2.978   1.604
  988TIP3    H2 2908   4.108   3.103   1.688
  989TIP3   OH2 2909   3.089   2.978   1.779
  989TIP3    H1 2910   3.092   2.888   1.746
  989TIP3    H2 2911   3.127   2.972   1.867
  990TIP3   OH2 2912   3.564   2.656   1.641
  990TIP3    H1 2913   3.631   2.588   1.633
  990TIP3    H2 2914   3.536   2.674   1.552
  991TIP3   OH2 2915   3.661   2.872   1.781
  991TIP3    H1 2916   3.629   2.799   1.728
  991TIP3    H2 2917   3.588   2.935   1.782
  992TIP3   OH2 2918   0.062   0.120   6.828
  992TIP3    H1 2919   0.148   0.110   6.786
  992TIP3    H2 2920   0.008   0.163   6.761
  993TIP3   OH2 2921   2.528   3.442   0.090
  993TIP3    H1 2922   2.573   3.515   0.046
  993TIP3    H2 2923   2.463   3.412   0.026
  994TIP3   OH2 2924   2.307   4.113   0.542
  994TIP3    H1 2925   2.250   4.053   0.493
  994TIP3    H2 2926   2.350   4.057   0.607
  995TIP3   OH2 2927   2.433   3.935   0.708
  995TIP3    H1 2928   2.415   3.866   0.772
  995TIP3    H2 2929   2.490   3.997   0.754
  996TIP3   OH2 2930   4.159   4.332   0.509
  996TIP3    H1 2931   4.172   4.348   0.602
  996TIP3    H2 2932   4.197   4.409   0.466
  997TIP3   OH2 2933   4.172   4.356   0.787
  997TIP3    H1 2934   4.128   4.271   0.787
  997TIP3    H2 2935   4.246   4.344   0.846
  998TIP3   OH2 2936   4.239   4.058   1.352
  998TIP3    H1 2937   4.166   4.067   1.413
  998TIP3    H2 2938   4.286   4.142   1.358
  999TIP3   OH2 2939   6.885   7.570   6.916
  999TIP3    H1 2940   6.944   7.639   6.885
  999TIP3    H2 2941   6.931   7.529   6.990
 1000TIP3   OH2 2942   4.185   3.420   0.170
 1000TIP3    H1 2943   4.117   3.384   0.227
 1000TIP3    H2 2944   4.247   3.461   0.231
 1001TIP3   OH2 2945   4.235   3.835   0.600
 1001TIP3    H1 2946   4.287   3.772   0.551
 1001TIP3    H2 2947   4.234   3.914   0.546
 1002TIP3   OH2 2948   4.036   4.114   0.793
 1002TIP3    H1 2949   3.969   4.159   0.843
 1002TIP3    H2 2950   3.989   4.075   0.719
 1003TIP3   OH2 2951   6.895   7.356   6.749
 1003TIP3    H1 2952   6.808   7.341   6.712
 1003TIP3    H2 2953   6.885   7.434   6.803
 1004TIP3   OH2 2954   6.819   7.028   6.679
 1004TIP3    H1 2955   6.764   7.058   6.606
 1004TIP3    H2 2956   6.809   6.933   6.679
 1005TIP3   OH2 2957   3.983   3.290   0.309
 1005TIP3    H1 2958   3.990   3.196   0.294
 1005TIP3    H2 2959   3.963   3.298   0.403
 1006TIP3   OH2 2960   2.607   3.370   1.072
 1006TIP3    H1 2961   2.600   3.336   0.983
 1006TIP3    H2 2962   2.700   3.363   1.094
 1007TIP3   OH2 2963   4.260   3.706   1.163
 1007TIP3    H1 2964   4.329   3.642   1.147
 1007TIP3    H2 2965   4.264   3.766   1.089
 1008TIP3   OH2 2966   4.445   3.500   1.154
 1008TIP3    H1 2967   4.369   3.455   1.193
 1008TIP3    H2 2968   4.519   3.445   1.177
 1009TIP3   OH2 2969   6.782   6.759   6.712
 1009TIP3    H1 2970   6.861   6.724   6.754
 1009TIP3    H2 2971   6.718   6.765   6.783
 1010TIP3   OH2 2972   3.991   3.026   0.188
 1010TIP3    H1 2973   4.037   2.943   0.204
 1010TIP3    H2 2974   4.036   3.064   0.113
 1011TIP3   OH2 2975   4.129   3.171   0.713
 1011TIP3    H1 2976   4.211   3.189   0.669
 1011TIP3    H2 2977   4.138   3.210   0.800
 1012TIP3   OH2 2978   4.201   3.332   0.934
 1012TIP3    H1 2979   4.128   3.358   0.990
 1012TIP3    H2 2980   4.229   3.414   0.892
 1013TIP3   OH2 2981   2.830   3.047   1.720
 1013TIP3    H1 2982   2.924   3.043   1.738
 1013TIP3    H2 2983   2.794   2.968   1.761
 1014TIP3   OH2 2984   4.664   2.934   1.472
 1014TIP3    H1 2985   4.727   2.873   1.433
 1014TIP3    H2 2986   4.626   2.981   1.397
 1015TIP3   OH2 2987   4.110   2.780   0.235
 1015TIP3    H1 2988   4.150   2.766   0.321
 1015TIP3    H2 2989   4.043   2.712   0.227
 1016TIP3   OH2 2990   2.786   2.800   1.124
 1016TIP3    H1 2991   2.837   2.719   1.129
 1016TIP3    H2 2992   2.852   2.867   1.105
 1017TIP3   OH2 2993   2.618   3.069   1.149
 1017TIP3    H1 2994   2.662   3.052   1.065
 1017TIP3    H2 2995   2.661   3.148   1.183
 1018TIP3   OH2 2996   4.511   3.056   1.280
 1018TIP3    H1 2997   4.443   3.093   1.336
 1018TIP3    H2 2998   4.463   2.999   1.220
 1019TIP3   OH2 2999   7.022   6.665   6.801
 1019TIP3    H1 3000   7.038   6.631   6.713
 1019TIP3    H2 3001   7.079   6.742   6.808
 1020TIP3   OH2 3002   2.657   2.544   0.611
 1020TIP3    H1 3003   2.579   2.599   0.621
 1020TIP3    H2 3004   2.718   2.598   0.560
 1021TIP3   OH2 3005   3.751   4.230   0.157
 1021TIP3    H1 3006   3.791   4.223   0.071
 1021TIP3    H2 3007   3.781   4.315   0.191
 1022TIP3   OH2 3008   2.801   2.568   1.463
 1022TIP3    H1 3009   2.760   2.576   1.550
 1022TIP3    H2 3010   2.746   2.620   1.406
 1023TIP3   OH2 3011   2.817   4.034   1.524
 1023TIP3    H1 3012   2.724   4.014   1.516
 1023TIP3    H2 3013   2.835   4.024   1.618
 1024TIP3   OH2 3014   3.031   4.085   1.076
 1024TIP3    H1 3015   2.981   4.160   1.045
 1024TIP3    H2 3016   3.116   4.094   1.033
 1025TIP3   OH2 3017   3.427   4.314   1.213
 1025TIP3    H1 3018   3.464   4.307   1.300
 1025TIP3    H2 3019   3.490   4.368   1.165
 1026TIP3   OH2 3020   3.619   4.469   1.088
 1026TIP3    H1 3021   3.682   4.417   1.038
 1026TIP3    H2 3022   3.673   4.527   1.142
 1027TIP3   OH2 3023   4.424   2.784   1.172
 1027TIP3    H1 3024   4.334   2.774   1.142
 1027TIP3    H2 3025   4.462   2.697   1.166
 1028TIP3   OH2 3026   2.690   4.321   1.123
 1028TIP3    H1 3027   2.598   4.336   1.100
 1028TIP3    H2 3028   2.710   4.388   1.188
 1029TIP3   OH2 3029   2.921   4.315   0.974
 1029TIP3    H1 3030   2.838   4.318   1.021
 1029TIP3    H2 3031   2.899   4.339   0.884
 1030TIP3   OH2 3032   3.335   4.331   0.763
 1030TIP3    H1 3033   3.261   4.342   0.703
 1030TIP3    H2 3034   3.345   4.416   0.804
 1031TIP3   OH2 3035   3.594   4.259   0.815
 1031TIP3    H1 3036   3.504   4.283   0.795
 1031TIP3    H2 3037   3.647   4.324   0.770
 1032TIP3   OH2 3038   3.794   4.425   0.716
 1032TIP3    H1 3039   3.793   4.514   0.681
 1032TIP3    H2 3040   3.824   4.371   0.643
 1033TIP3   OH2 3041   2.608   4.106   0.844
 1033TIP3    H1 3042   2.628   4.081   0.934
 1033TIP3    H2 3043   2.682   4.073   0.793
 1034TIP3   OH2 3044   2.813   3.993   0.709
 1034TIP3    H1 3045   2.822   3.906   0.750
 1034TIP3    H2 3046   2.901   4.030   0.712
 1035TIP3   OH2 3047   3.080   4.071   0.724
 1035TIP3    H1 3048   3.099   3.978   0.708
 1035TIP3    H2 3049   3.134   4.093   0.799
 1036TIP3   OH2 3050   3.605   2.720   0.816
 1036TIP3    H1 3051   3.574   2.657   0.880
 1036TIP3    H2 3052   3.687   2.685   0.784
 1037TIP3   OH2 3053   4.129   2.701   0.701
 1037TIP3    H1 3054   4.178   2.703   0.619
 1037TIP3    H2 3055   4.093   2.612   0.705
 1038TIP3   OH2 3056   4.256   2.719   0.462
 1038TIP3    H1 3057   4.321   2.654   0.433
 1038TIP3    H2 3058   4.298   2.803   0.444
 1039TIP3   OH2 3059   2.928   2.482   0.827
 1039TIP3    H1 3060   2.836   2.462   0.842
 1039TIP3    H2 3061   2.959   2.412   0.770
 1040TIP3   OH2 3062   2.816   2.305   0.585
 1040TIP3    H1 3063   2.835   2.281   0.494
 1040TIP3    H2 3064   2.761   2.384   0.578
 1041TIP3   OH2 3065   3.372   2.498   0.714
 1041TIP3    H1 3066   3.430   2.536   0.648
 1041TIP3    H2 3067   3.408   2.529   0.797
 1042TIP3   OH2 3068   3.822   2.634   0.684
 1042TIP3    H1 3069   3.862   2.676   0.608
 1042TIP3    H2 3070   3.872   2.553   0.696
 1043TIP3   OH2 3071   3.922   2.584   0.246
 1043TIP3    H1 3072   3.837   2.619   0.272
 1043TIP3    H2 3073   3.932   2.503   0.296
 1044TIP3   OH2 3074   2.416   3.880   0.230
 1044TIP3    H1 3075   2.372   3.811   0.180
 1044TIP3    H2 3076   2.385   3.961   0.191
 1045TIP3   OH2 3077   2.730   2.558   0.227
 1045TIP3    H1 3078   2.782   2.522   0.155
 1045TIP3    H2 3079   2.788   2.556   0.303
 1046TIP3   OH2 3080   3.335   2.654   0.332
 1046TIP3    H1 3081   3.384   2.582   0.371
 1046TIP3    H2 3082   3.377   2.733   0.367
 1047TIP3   OH2 3083   0.317   0.056   6.744
 1047TIP3    H1 3084   0.407   0.077   6.721
 1047TIP3    H2 3085   0.296  -0.021   6.691
 1048TIP3   OH2 3086   1.029   0.165   6.846
 1048TIP3    H1 3087   1.015   0.071   6.850
 1048TIP3    H2 3088   0.973   0.195   6.775
 1049TIP3   OH2 3089   3.099   2.708   1.703
 1049TIP3    H1 3090   3.066   2.639   1.760
 1049TIP3    H2 3091   3.192   2.715   1.726
 1050TIP3   OH2 3092   3.349   2.710   1.816
 1050TIP3    H1 3093   3.426   2.688   1.763
 1050TIP3    H2 3094   3.343   2.640   1.881
 1051TIP3   OH2 3095   5.370   7.989   6.840
 1051TIP3    H1 3096   5.400   7.937   6.914
 1051TIP3    H2 3097   5.375   7.929   6.765
 1052TIP3   OH2 3098   4.171   2.800   1.599
 1052TIP3    H1 3099   4.188   2.770   1.688
 1052TIP3    H2 3100   4.256   2.795   1.555
 1053TIP3   OH2 3101   4.086   4.331   1.104
 1053TIP3    H1 3102   4.012   4.301   1.052
 1053TIP3    H2 3103   4.073   4.426   1.112
 1054TIP3   OH2 3104   5.347   3.699   0.277
 1054TIP3    H1 3105   5.392   3.690   0.361
 1054TIP3    H2 3106   5.410   3.670   0.212
 1055TIP3   OH2 3107   4.683   3.614   0.608
 1055TIP3    H1 3108   4.702   3.534   0.657
 1055TIP3    H2 3109   4.726   3.684   0.658
 1056TIP3   OH2 3110   4.640   3.984   0.327
 1056TIP3    H1 3111   4.614   3.893   0.334
 1056TIP3    H2 3112   4.735   3.981   0.319
 1057TIP3   OH2 3113   4.354   3.219   0.077
 1057TIP3    H1 3114   4.305   3.294   0.112
 1057TIP3    H2 3115   4.287   3.163   0.039
 1058TIP3   OH2 3116   4.408   3.510   0.309
 1058TIP3    H1 3117   4.460   3.434   0.335
 1058TIP3    H2 3118   4.473   3.575   0.283
 1059TIP3   OH2 3119   5.165   3.919   0.284
 1059TIP3    H1 3120   5.227   3.847   0.274
 1059TIP3    H2 3121   5.217   3.998   0.273
 1060TIP3   OH2 3122   6.181   3.249   0.311
 1060TIP3    H1 3123   6.208   3.325   0.362
 1060TIP3    H2 3124   6.215   3.265   0.223
 1061TIP3   OH2 3125   5.478   3.347   0.321
 1061TIP3    H1 3126   5.562   3.306   0.341
 1061TIP3    H2 3127   5.486   3.375   0.230
 1062TIP3   OH2 3128   4.947   3.101   0.259
 1062TIP3    H1 3129   4.911   3.175   0.210
 1062TIP3    H2 3130   4.896   3.026   0.229
 1063TIP3   OH2 3131   8.433   7.173   6.884
 1063TIP3    H1 3132   8.508   7.175   6.942
 1063TIP3    H2 3133   8.467   7.140   6.801
 1064TIP3   OH2 3134   4.555   3.298   0.407
 1064TIP3    H1 3135   4.639   3.280   0.450
 1064TIP3    H2 3136   4.556   3.242   0.329
 1065TIP3   OH2 3137   6.252   3.464   0.465
 1065TIP3    H1 3138   6.166   3.505   0.461
 1065TIP3    H2 3139   6.296   3.506   0.539
 1066TIP3   OH2 3140   4.906   3.085   0.722
 1066TIP3    H1 3141   4.858   3.120   0.647
 1066TIP3    H2 3142   4.849   3.100   0.797
 1067TIP3   OH2 3143   5.011   3.847   0.504
 1067TIP3    H1 3144   4.947   3.911   0.533
 1067TIP3    H2 3145   5.053   3.887   0.428
 1068TIP3   OH2 3146   5.826   3.182   0.093
 1068TIP3    H1 3147   5.879   3.109   0.124
 1068TIP3    H2 3148   5.859   3.258   0.140
 1069TIP3   OH2 3149   4.807   3.191   0.487
 1069TIP3    H1 3150   4.859   3.269   0.510
 1069TIP3    H2 3151   4.853   3.154   0.411
 1070TIP3   OH2 3152   4.834   4.033   0.601
 1070TIP3    H1 3153   4.826   4.119   0.559
 1070TIP3    H2 3154   4.755   4.025   0.655
 1071TIP3   OH2 3155   7.050   7.754   6.803
 1071TIP3    H1 3156   7.014   7.787   6.721
 1071TIP3    H2 3157   7.078   7.833   6.850
 1072TIP3   OH2 3158   5.971   3.149   0.463
 1072TIP3    H1 3159   5.890   3.182   0.425
 1072TIP3    H2 3160   6.039   3.176   0.401
 1073TIP3   OH2 3161   5.250   2.776   0.453
 1073TIP3    H1 3162   5.249   2.684   0.481
 1073TIP3    H2 3163   5.174   2.815   0.496
 1074TIP3   OH2 3164   5.934   4.088   0.463
 1074TIP3    H1 3165   5.917   4.055   0.374
 1074TIP3    H2 3166   5.915   4.182   0.457
 1075TIP3   OH2 3167   6.059   3.809   0.302
 1075TIP3    H1 3168   5.986   3.864   0.275
 1075TIP3    H2 3169   6.136   3.850   0.262
 1076TIP3   OH2 3170   5.773   3.663   0.607
 1076TIP3    H1 3171   5.766   3.743   0.660
 1076TIP3    H2 3172   5.695   3.664   0.551
 1077TIP3   OH2 3173   4.765   3.573   0.123
 1077TIP3    H1 3174   4.690   3.558   0.065
 1077TIP3    H2 3175   4.807   3.487   0.131
 1078TIP3   OH2 3176   4.899   3.975   0.247
 1078TIP3    H1 3177   4.878   3.994   0.155
 1078TIP3    H2 3178   4.994   3.961   0.247
 1079TIP3   OH2 3179   4.931   3.608   0.395
 1079TIP3    H1 3180   4.919   3.627   0.302
 1079TIP3    H2 3181   4.957   3.692   0.433
 1080TIP3   OH2 3182   5.318   4.150   0.287
 1080TIP3    H1 3183   5.367   4.228   0.261
 1080TIP3    H2 3184   5.381   4.096   0.334
 1081TIP3   OH2 3185   5.022   4.131   0.779
 1081TIP3    H1 3186   4.963   4.196   0.817
 1081TIP3    H2 3187   4.967   4.082   0.718
 1082TIP3   OH2 3188   4.793   3.714   0.867
 1082TIP3    H1 3189   4.803   3.803   0.901
 1082TIP3    H2 3190   4.703   3.690   0.888
 1083TIP3   OH2 3191   4.831   4.317   0.849
 1083TIP3    H1 3192   4.805   4.321   0.757
 1083TIP3    H2 3193   4.749   4.303   0.897
 1084TIP3   OH2 3194   7.384   7.489   6.911
 1084TIP3    H1 3195   7.320   7.548   6.870
 1084TIP3    H2 3196   7.344   7.403   6.907
 1085TIP3   OH2 3197   4.431   3.867   0.799
 1085TIP3    H1 3198   4.361   3.853   0.735
 1085TIP3    H2 3199   4.461   3.779   0.821
 1086TIP3   OH2 3200   4.272   4.078   0.464
 1086TIP3    H1 3201   4.361   4.104   0.486
 1086TIP3    H2 3202   4.219   4.155   0.485
 1087TIP3   OH2 3203   6.109   4.479   0.459
 1087TIP3    H1 3204   6.199   4.452   0.473
 1087TIP3    H2 3205   6.096   4.554   0.518
 1088TIP3   OH2 3206   5.252   4.251   0.703
 1088TIP3    H1 3207   5.243   4.341   0.737
 1088TIP3    H2 3208   5.168   4.210   0.721
 1089TIP3   OH2 3209   4.414   4.233  -0.007
 1089TIP3    H1 3210   4.495   4.236   0.044
 1089TIP3    H2 3211   4.345   4.220   0.058
 1090TIP3   OH2 3212   6.017   3.611   0.770
 1090TIP3    H1 3213   5.934   3.624   0.724
 1090TIP3    H2 3214   6.034   3.517   0.764
 1091TIP3   OH2 3215   4.622   4.063   0.772
 1091TIP3    H1 3216   4.672   4.052   0.852
 1091TIP3    H2 3217   4.550   4.000   0.779
 1092TIP3   OH2 3218   5.019   2.873   0.579
 1092TIP3    H1 3219   4.937   2.838   0.546
 1092TIP3    H2 3220   4.994   2.952   0.628
 1093TIP3   OH2 3221   5.558   2.985   0.785
 1093TIP3    H1 3222   5.631   2.963   0.843
 1093TIP3    H2 3223   5.480   2.969   0.839
 1094TIP3   OH2 3224   5.752   3.396   0.680
 1094TIP3    H1 3225   5.723   3.393   0.771
 1094TIP3    H2 3226   5.752   3.489   0.658
 1095TIP3   OH2 3227   4.959   3.404   0.573
 1095TIP3    H1 3228   4.904   3.421   0.650
 1095TIP3    H2 3229   4.942   3.479   0.515
 1096TIP3   OH2 3230   4.820   3.297   0.116
 1096TIP3    H1 3231   4.734   3.266   0.143
 1096TIP3    H2 3232   4.832   3.260   0.028
 1097TIP3   OH2 3233   5.503   3.627   0.915
 1097TIP3    H1 3234   5.478   3.560   0.978
 1097TIP3    H2 3235   5.596   3.644   0.934
 1098TIP3   OH2 3236   5.486   3.391   0.047
 1098TIP3    H1 3237   5.448   3.437  -0.028
 1098TIP3    H2 3238   5.521   3.310   0.011
 1099TIP3   OH2 3239   4.782   3.417   0.785
 1099TIP3    H1 3240   4.785   3.483   0.854
 1099TIP3    H2 3241   4.762   3.335   0.830
 1100TIP3   OH2 3242   4.385   2.937   0.371
 1100TIP3    H1 3243   4.460   2.969   0.420
 1100TIP3    H2 3244   4.423   2.904   0.289
 1101TIP3   OH2 3245   7.140   6.918   6.839
 1101TIP3    H1 3246   7.186   6.956   6.764
 1101TIP3    H2 3247   7.074   6.984   6.862
 1102TIP3   OH2 3248   5.523   3.603   0.480
 1102TIP3    H1 3249   5.537   3.525   0.427
 1102TIP3    H2 3250   5.479   3.570   0.559
 1103TIP3   OH2 3251   5.217   3.162   0.295
 1103TIP3    H1 3252   5.125   3.138   0.287
 1103TIP3    H2 3253   5.265   3.082   0.275
 1104TIP3   OH2 3254   4.598   3.151   0.180
 1104TIP3    H1 3255   4.513   3.159   0.137
 1104TIP3    H2 3256   4.627   3.062   0.159
 1105TIP3   OH2 3257   7.705   7.163   6.822
 1105TIP3    H1 3258   7.799   7.145   6.828
 1105TIP3    H2 3259   7.693   7.201   6.735
 1106TIP3   OH2 3260   5.697   3.181   0.374
 1106TIP3    H1 3261   5.657   3.174   0.461
 1106TIP3    H2 3262   5.687   3.094   0.336
 1107TIP3   OH2 3263   5.925   4.872   0.530
 1107TIP3    H1 3264   5.879   4.945   0.487
 1107TIP3    H2 3265   5.926   4.895   0.623
 1108TIP3   OH2 3266   4.790   3.966   0.994
 1108TIP3    H1 3267   4.871   3.987   1.041
 1108TIP3    H2 3268   4.721   3.974   1.060
 1109TIP3   OH2 3269   4.763   2.913   0.150
 1109TIP3    H1 3270   4.729   2.839   0.200
 1109TIP3    H2 3271   4.770   2.880   0.060
 1110TIP3   OH2 3272   5.227   3.361   0.553
 1110TIP3    H1 3273   5.137   3.390   0.566
 1110TIP3    H2 3274   5.278   3.414   0.614
 1111TIP3   OH2 3275   5.854   3.978   0.222
 1111TIP3    H1 3276   5.838   4.030   0.143
 1111TIP3    H2 3277   5.776   3.922   0.230
 1112TIP3   OH2 3278   5.357   3.979   0.695
 1112TIP3    H1 3279   5.414   3.974   0.771
 1112TIP3    H2 3280   5.320   4.067   0.699
 1113TIP3   OH2 3281   4.629   3.694   0.335
 1113TIP3    H1 3282   4.686   3.662   0.266
 1113TIP3    H2 3283   4.672   3.667   0.416
 1114TIP3   OH2 3284   4.532   3.628   0.920
 1114TIP3    H1 3285   4.531   3.603   1.013
 1114TIP3    H2 3286   4.455   3.585   0.883
 1115TIP3   OH2 3287   5.267   3.775   0.951
 1115TIP3    H1 3288   5.199   3.716   0.919
 1115TIP3    H2 3289   5.349   3.736   0.923
 1116TIP3   OH2 3290   5.494   4.271   0.576
 1116TIP3    H1 3291   5.406   4.252   0.609
 1116TIP3    H2 3292   5.534   4.324   0.645
 1117TIP3   OH2 3293   6.167   4.195   0.570
 1117TIP3    H1 3294   6.090   4.146   0.544
 1117TIP3    H2 3295   6.206   4.223   0.487
 1118TIP3   OH2 3296   5.633   3.827   0.241
 1118TIP3    H1 3297   5.556   3.842   0.295
 1118TIP3    H2 3298   5.638   3.732   0.231
 1119TIP3   OH2 3299   4.770   4.029   0.005
 1119TIP3    H1 3300   4.796   4.112  -0.035
 1119TIP3    H2 3301   4.688   4.049   0.050
 1120TIP3   OH2 3302   7.149   7.330   6.641
 1120TIP3    H1 3303   7.159   7.412   6.594
 1120TIP3    H2 3304   7.062   7.334   6.680
 1121TIP3   OH2 3305   7.719   7.783   6.894
 1121TIP3    H1 3306   7.675   7.867   6.906
 1121TIP3    H2 3307   7.676   7.723   6.956
 1122TIP3   OH2 3308   5.012   4.283   0.380
 1122TIP3    H1 3309   5.019   4.379   0.375
 1122TIP3    H2 3310   5.102   4.253   0.392
 1123TIP3   OH2 3311   5.459   3.956   0.433
 1123TIP3    H1 3312   5.402   3.952   0.510
 1123TIP3    H2 3313   5.545   3.981   0.468
 1124TIP3   OH2 3314   5.598   4.512   0.460
 1124TIP3    H1 3315   5.633   4.436   0.505
 1124TIP3    H2 3316   5.549   4.476   0.385
 1125TIP3   OH2 3317   4.729   3.173   0.920
 1125TIP3    H1 3318   4.634   3.183   0.925
 1125TIP3    H2 3319   4.754   3.137   1.005
 1126TIP3   OH2 3320   4.477   4.262   0.582
 1126TIP3    H1 3321   4.535   4.211   0.638
 1126TIP3    H2 3322   4.482   4.351   0.617
 1127TIP3   OH2 3323   5.572   3.197   0.613
 1127TIP3    H1 3324   5.639   3.257   0.645
 1127TIP3    H2 3325   5.568   3.128   0.679
 1128TIP3   OH2 3326   7.989   7.152   6.857
 1128TIP3    H1 3327   8.036   7.211   6.798
 1128TIP3    H2 3328   8.006   7.187   6.945
 1129TIP3   OH2 3329   5.431   3.464   0.704
 1129TIP3    H1 3330   5.446   3.528   0.774
 1129TIP3    H2 3331   5.479   3.386   0.732
 1130TIP3   OH2 3332   5.319   2.853   0.005
 1130TIP3    H1 3333   5.346   2.893   0.088
 1130TIP3    H2 3334   5.356   2.908  -0.063
 1131TIP3   OH2 3335   7.621   6.883   6.789
 1131TIP3    H1 3336   7.607   6.978   6.793
 1131TIP3    H2 3337   7.716   6.873   6.781
 1132TIP3   OH2 3338   6.020   3.342   0.673
 1132TIP3    H1 3339   5.925   3.351   0.679
 1132TIP3    H2 3340   6.033   3.279   0.602
 1133TIP3   OH2 3341   5.662   3.555   0.187
 1133TIP3    H1 3342   5.616   3.502   0.122
 1133TIP3    H2 3343   5.750   3.518   0.190
 1134TIP3   OH2 3344   7.224   7.065   6.623
 1134TIP3    H1 3345   7.208   7.159   6.635
 1134TIP3    H2 3346   7.193   7.047   6.535
 1135TIP3   OH2 3347   4.766   2.781   0.530
 1135TIP3    H1 3348   4.731   2.753   0.445
 1135TIP3    H2 3349   4.751   2.706   0.587
 1136TIP3   OH2 3350   1.439  -0.014   6.906
 1136TIP3    H1 3351   1.397   0.023   6.984
 1136TIP3    H2 3352   1.500   0.054   6.877
 1137TIP3   OH2 3353   4.483   4.568   0.997
 1137TIP3    H1 3354   4.564   4.569   1.048
 1137TIP3    H2 3355   4.465   4.475   0.982
 1138TIP3   OH2 3356   4.945   4.478   1.041
 1138TIP3    H1 3357   5.033   4.442   1.052
 1138TIP3    H2 3358   4.907   4.426   0.971
 1139TIP3   OH2 3359   5.607   4.410   0.777
 1139TIP3    H1 3360   5.592   4.349   0.849
 1139TIP3    H2 3361   5.669   4.474   0.812
 1140TIP3   OH2 3362   4.585   3.970   1.183
 1140TIP3    H1 3363   4.602   3.877   1.193
 1140TIP3    H2 3364   4.497   3.974   1.144
 1141TIP3   OH2 3365   5.203   4.051   0.969
 1141TIP3    H1 3366   5.147   4.068   0.893
 1141TIP3    H2 3367   5.238   3.963   0.954
 1142TIP3   OH2 3368   5.673   4.062   0.566
 1142TIP3    H1 3369   5.757   4.090   0.529
 1142TIP3    H2 3370   5.620   4.141   0.567
 1143TIP3   OH2 3371   4.707   3.716   1.194
 1143TIP3    H1 3372   4.788   3.688   1.153
 1143TIP3    H2 3373   4.732   3.738   1.284
 1144TIP3   OH2 3374   5.061   3.603   0.836
 1144TIP3    H1 3375   4.975   3.646   0.839
 1144TIP3    H2 3376   5.102   3.639   0.757
 1145TIP3   OH2 3377   5.544   3.969   0.920
 1145TIP3    H1 3378   5.622   3.939   0.873
 1145TIP3    H2 3379   5.545   3.920   1.002
 1146TIP3   OH2 3380   5.161   3.379   0.962
 1146TIP3    H1 3381   5.159   3.304   0.902
 1146TIP3    H2 3382   5.125   3.451   0.910
 1147TIP3   OH2 3383   5.162   3.169   0.769
 1147TIP3    H1 3384   5.185   3.216   0.689
 1147TIP3    H2 3385   5.072   3.142   0.757
 1148TIP3   OH2 3386   5.211   3.717   0.636
 1148TIP3    H1 3387   5.273   3.788   0.654
 1148TIP3    H2 3388   5.143   3.757   0.582
 1149TIP3   OH2 3389   5.771   3.656   1.010
 1149TIP3    H1 3390   5.822   3.575   1.020
 1149TIP3    H2 3391   5.837   3.725   1.003
 1150TIP3   OH2 3392   5.775   3.902   0.760
 1150TIP3    H1 3393   5.729   3.960   0.698
 1150TIP3    H2 3394   5.867   3.910   0.736
 1151TIP3   OH2 3395   5.046   3.455   1.205
 1151TIP3    H1 3396   4.977   3.392   1.226
 1151TIP3    H2 3397   5.074   3.431   1.117
 1152TIP3   OH2 3398   5.289   2.935   0.860
 1152TIP3    H1 3399   5.247   3.017   0.833
 1152TIP3    H2 3400   5.221   2.868   0.848
 1153TIP3   OH2 3401   5.419   3.413   1.064
 1153TIP3    H1 3402   5.412   3.398   1.158
 1153TIP3    H2 3403   5.330   3.395   1.031
 1154TIP3   OH2 3404   5.656   3.355   0.927
 1154TIP3    H1 3405   5.581   3.362   0.986
 1154TIP3    H2 3406   5.730   3.340   0.985
 1155TIP3   OH2 3407   5.896   3.334   1.075
 1155TIP3    H1 3408   5.911   3.240   1.083
 1155TIP3    H2 3409   5.892   3.366   1.165
 1156TIP3   OH2 3410   4.886   3.227   1.263
 1156TIP3    H1 3411   4.890   3.137   1.229
 1156TIP3    H2 3412   4.925   3.220   1.351
 1157TIP3   OH2 3413   5.360   2.913   1.125
 1157TIP3    H1 3414   5.431   2.850   1.118
 1157TIP3    H2 3415   5.328   2.924   1.035
 1158TIP3   OH2 3416   5.456   3.131   1.266
 1158TIP3    H1 3417   5.424   3.058   1.213
 1158TIP3    H2 3418   5.382   3.192   1.269
 1159TIP3   OH2 3419   4.065   4.327   0.012
 1159TIP3    H1 3420   4.002   4.272  -0.034
 1159TIP3    H2 3421   4.105   4.268   0.076
 1160TIP3   OH2 3422   4.225   4.176   0.194
 1160TIP3    H1 3423   4.208   4.109   0.259
 1160TIP3    H2 3424   4.272   4.245   0.241
 1161TIP3   OH2 3425   5.913   4.649   0.318
 1161TIP3    H1 3426   5.877   4.597   0.246
 1161TIP3    H2 3427   6.003   4.619   0.327
 1162TIP3   OH2 3428   5.956   4.203   0.926
 1162TIP3    H1 3429   5.904   4.251   0.991
 1162TIP3    H2 3430   5.984   4.270   0.864
 1163TIP3   OH2 3431   5.766   4.508   0.130
 1163TIP3    H1 3432   5.732   4.442   0.191
 1163TIP3    H2 3433   5.723   4.488   0.047
 1164TIP3   OH2 3434   4.408   3.613   0.562
 1164TIP3    H1 3435   4.394   3.580   0.474
 1164TIP3    H2 3436   4.503   3.622   0.570
 1165TIP3   OH2 3437   6.029   3.925   0.664
 1165TIP3    H1 3438   6.099   3.865   0.637
 1165TIP3    H2 3439   6.005   3.971   0.583
 1166TIP3   OH2 3440   6.221   3.730   0.633
 1166TIP3    H1 3441   6.154   3.688   0.687
 1166TIP3    H2 3442   6.302   3.685   0.657
 1167TIP3   OH2 3443   5.918   3.432   0.201
 1167TIP3    H1 3444   5.984   3.469   0.142
 1167TIP3    H2 3445   5.940   3.467   0.287
 1168TIP3   OH2 3446   5.992   3.577   0.425
 1168TIP3    H1 3447   5.924   3.603   0.487
 1168TIP3    H2 3448   6.022   3.659   0.386
 1169TIP3   OH2 3449   4.624   3.299   1.214
 1169TIP3    H1 3450   4.718   3.292   1.233
 1169TIP3    H2 3451   4.587   3.217   1.248
 1170TIP3   OH2 3452   6.455   3.193   0.967
 1170TIP3    H1 3453   6.518   3.131   0.930
 1170TIP3    H2 3454   6.420   3.239   0.891
 1171TIP3   OH2 3455   4.601   3.004   0.529
 1171TIP3    H1 3456   4.653   2.926   0.545
 1171TIP3    H2 3457   4.664   3.074   0.519
 1172TIP3   OH2 3458   4.375   3.259   0.622
 1172TIP3    H1 3459   4.427   3.256   0.542
 1172TIP3    H2 3460   4.386   3.348   0.655
 1173TIP3   OH2 3461   6.302   3.308   0.773
 1173TIP3    H1 3462   6.235   3.348   0.828
 1173TIP3    H2 3463   6.254   3.244   0.720
 1174TIP3   OH2 3464   4.374   2.770   0.123
 1174TIP3    H1 3465   4.286   2.765   0.161
 1174TIP3    H2 3466   4.363   2.822   0.043
 1175TIP3   OH2 3467   4.568   2.806   0.923
 1175TIP3    H1 3468   4.524   2.811   1.008
 1175TIP3    H2 3469   4.519   2.867   0.868
 1176TIP3   OH2 3470   4.613   4.287   1.021
 1176TIP3    H1 3471   4.519   4.270   1.008
 1176TIP3    H2 3472   4.626   4.276   1.115
 1177TIP3   OH2 3473   4.807   4.309   0.566
 1177TIP3    H1 3474   4.749   4.373   0.525
 1177TIP3    H2 3475   4.881   4.301   0.505
 1178TIP3   OH2 3476   5.236   4.543   0.739
 1178TIP3    H1 3477   5.282   4.537   0.823
 1178TIP3    H2 3478   5.287   4.606   0.688
 1179TIP3   OH2 3479   5.412   4.680   0.580
 1179TIP3    H1 3480   5.479   4.624   0.541
 1179TIP3    H2 3481   5.450   4.711   0.662
 1180TIP3   OH2 3482   6.200   3.049   0.677
 1180TIP3    H1 3483   6.110   3.032   0.648
 1180TIP3    H2 3484   6.244   2.964   0.669
 1181TIP3   OH2 3485   4.466   4.549   0.629
 1181TIP3    H1 3486   4.377   4.572   0.601
 1181TIP3    H2 3487   4.499   4.628   0.672
 1182TIP3   OH2 3488   4.666   4.507   0.441
 1182TIP3    H1 3489   4.586   4.533   0.487
 1182TIP3    H2 3490   4.650   4.529   0.350
 1183TIP3   OH2 3491   5.183   4.565   0.160
 1183TIP3    H1 3492   5.094   4.556   0.126
 1183TIP3    H2 3493   5.172   4.603   0.247
 1184TIP3   OH2 3494   5.423   4.445   0.240
 1184TIP3    H1 3495   5.332   4.445   0.210
 1184TIP3    H2 3496   5.450   4.537   0.234
 1185TIP3   OH2 3497   4.407   4.341   0.323
 1185TIP3    H1 3498   4.426   4.319   0.415
 1185TIP3    H2 3499   4.483   4.310   0.275
 1186TIP3   OH2 3500   4.610   4.217   0.185
 1186TIP3    H1 3501   4.620   4.142   0.244
 1186TIP3    H2 3502   4.698   4.254   0.177
 1187TIP3   OH2 3503   4.866   4.301   0.139
 1187TIP3    H1 3504   4.929   4.325   0.071
 1187TIP3    H2 3505   4.920   4.285   0.217
 1188TIP3   OH2 3506   5.377   2.939   0.262
 1188TIP3    H1 3507   5.349   2.881   0.333
 1188TIP3    H2 3508   5.469   2.917   0.248
 1189TIP3   OH2 3509   5.898   2.911   0.164
 1189TIP3    H1 3510   5.915   2.847   0.095
 1189TIP3    H2 3511   5.804   2.903   0.182
 1190TIP3   OH2 3512   4.670   2.690   0.288
 1190TIP3    H1 3513   4.580   2.660   0.295
 1190TIP3    H2 3514   4.722   2.610   0.284
 1191TIP3   OH2 3515   7.311   6.551   6.917
 1191TIP3    H1 3516   7.348   6.601   6.844
 1191TIP3    H2 3517   7.276   6.618   6.976
 1192TIP3   OH2 3518   5.148   2.718   0.189
 1192TIP3    H1 3519   5.199   2.770   0.128
 1192TIP3    H2 3520   5.180   2.745   0.276
 1193TIP3   OH2 3521   5.627   2.845   0.187
 1193TIP3    H1 3522   5.638   2.799   0.104
 1193TIP3    H2 3523   5.632   2.776   0.254
 1194TIP3   OH2 3524   7.416   6.704   6.718
 1194TIP3    H1 3525   7.427   6.687   6.624
 1194TIP3    H2 3526   7.484   6.768   6.738
 1195TIP3   OH2 3527   7.896   6.896   6.795
 1195TIP3    H1 3528   7.954   6.832   6.836
 1195TIP3    H2 3529   7.935   6.981   6.816
 1196TIP3   OH2 3530   4.896   2.954   1.176
 1196TIP3    H1 3531   4.860   2.888   1.236
 1196TIP3    H2 3532   4.988   2.962   1.203
 1197TIP3   OH2 3533   5.143   2.962   1.301
 1197TIP3    H1 3534   5.222   2.940   1.252
 1197TIP3    H2 3535   5.135   2.893   1.366
 1198TIP3   OH2 3536   5.962   3.063   1.089
 1198TIP3    H1 3537   5.977   3.035   1.179
 1198TIP3    H2 3538   6.048   3.060   1.048
 1199TIP3   OH2 3539   5.879   4.613   0.618
 1199TIP3    H1 3540   5.841   4.562   0.547
 1199TIP3    H2 3541   5.900   4.698   0.579
 1200TIP3   OH2 3542   6.671   3.348   0.202
 1200TIP3    H1 3543   6.645   3.437   0.181
 1200TIP3    H2 3544   6.626   3.328   0.284
 1201TIP3   OH2 3545   6.613   3.946   0.396
 1201TIP3    H1 3546   6.621   4.036   0.427
 1201TIP3    H2 3547   6.519   3.928   0.397
 1202TIP3   OH2 3548   6.256   3.971   0.200
 1202TIP3    H1 3549   6.276   4.053   0.156
 1202TIP3    H2 3550   6.300   3.978   0.285
 1203TIP3   OH2 3551   6.486   4.259   0.263
 1203TIP3    H1 3552   6.530   4.242   0.346
 1203TIP3    H2 3553   6.393   4.255   0.285
 1204TIP3   OH2 3554   7.310   3.142   0.269
 1204TIP3    H1 3555   7.370   3.208   0.303
 1204TIP3    H2 3556   7.226   3.162   0.310
 1205TIP3   OH2 3557   7.267   3.879   0.391
 1205TIP3    H1 3558   7.254   3.803   0.447
 1205TIP3    H2 3559   7.355   3.869   0.356
 1206TIP3   OH2 3560   6.610   3.611   0.276
 1206TIP3    H1 3561   6.599   3.698   0.313
 1206TIP3    H2 3562   6.583   3.552   0.347
 1207TIP3   OH2 3563   6.593   4.197   0.511
 1207TIP3    H1 3564   6.674   4.219   0.557
 1207TIP3    H2 3565   6.524   4.213   0.575
 1208TIP3   OH2 3566   6.349   3.914   0.464
 1208TIP3    H1 3567   6.393   3.929   0.547
 1208TIP3    H2 3568   6.285   3.845   0.483
 1209TIP3   OH2 3569   7.034   3.999   0.466
 1209TIP3    H1 3570   6.972   3.948   0.414
 1209TIP3    H2 3571   7.120   3.973   0.431
 1210TIP3   OH2 3572   6.535   3.397   0.441
 1210TIP3    H1 3573   6.440   3.402   0.453
 1210TIP3    H2 3574   6.566   3.347   0.517
 1211TIP3   OH2 3575   6.228   4.744   0.432
 1211TIP3    H1 3576   6.316   4.776   0.451
 1211TIP3    H2 3577   6.236   4.701   0.347
 1212TIP3   OH2 3578   6.699   4.692   0.477
 1212TIP3    H1 3579   6.739   4.742   0.549
 1212TIP3    H2 3580   6.769   4.635   0.446
 1213TIP3   OH2 3581   6.396   4.188   0.715
 1213TIP3    H1 3582   6.413   4.094   0.725
 1213TIP3    H2 3583   6.313   4.192   0.668
 1214TIP3   OH2 3584   6.983   4.287   0.419
 1214TIP3    H1 3585   6.948   4.255   0.336
 1214TIP3    H2 3586   7.063   4.237   0.432
 1215TIP3   OH2 3587   6.518   3.931   0.691
 1215TIP3    H1 3588   6.598   3.918   0.641
 1215TIP3    H2 3589   6.547   3.963   0.776
 1216TIP3   OH2 3590   6.853   3.854   0.311
 1216TIP3    H1 3591   6.771   3.886   0.347
 1216TIP3    H2 3592   6.843   3.863   0.216
 1217TIP3   OH2 3593   7.246   4.227   0.473
 1217TIP3    H1 3594   7.300   4.305   0.464
 1217TIP3    H2 3595   7.298   4.166   0.525
 1218TIP3   OH2 3596   6.955   3.638   0.450
 1218TIP3    H1 3597   6.946   3.562   0.392
 1218TIP3    H2 3598   6.925   3.712   0.397
 1219TIP3   OH2 3599   6.927   3.426   0.272
 1219TIP3    H1 3600   6.976   3.389   0.198
 1219TIP3    H2 3601   6.835   3.413   0.248
 1220TIP3   OH2 3602   7.580   3.911   0.540
 1220TIP3    H1 3603   7.543   3.829   0.509
 1220TIP3    H2 3604   7.663   3.920   0.492
 1221TIP3   OH2 3605   6.838   3.715   0.693
 1221TIP3    H1 3606   6.773   3.648   0.713
 1221TIP3    H2 3607   6.869   3.692   0.605
 1222TIP3   OH2 3608   7.079   3.228   0.392
 1222TIP3    H1 3609   7.021   3.300   0.365
 1222TIP3    H2 3610   7.021   3.152   0.397
 1223TIP3   OH2 3611   7.219   3.649   0.544
 1223TIP3    H1 3612   7.207   3.645   0.639
 1223TIP3    H2 3613   7.131   3.639   0.508
 1224TIP3   OH2 3614   7.479   3.677   0.443
 1224TIP3    H1 3615   7.396   3.653   0.484
 1224TIP3    H2 3616   7.543   3.618   0.483
 1225TIP3   OH2 3617   7.676   3.541   0.577
 1225TIP3    H1 3618   7.695   3.455   0.615
 1225TIP3    H2 3619   7.689   3.603   0.648
 1226TIP3   OH2 3620   6.676   3.497   0.765
 1226TIP3    H1 3621   6.682   3.406   0.736
 1226TIP3    H2 3622   6.713   3.497   0.853
 1227TIP3   OH2 3623   7.164   3.171   0.646
 1227TIP3    H1 3624   7.244   3.121   0.628
 1227TIP3    H2 3625   7.129   3.190   0.559
 1228TIP3   OH2 3626   7.257   3.398   0.763
 1228TIP3    H1 3627   7.223   3.319   0.719
 1228TIP3    H2 3628   7.183   3.458   0.763
 1229TIP3   OH2 3629   6.414   3.543   0.688
 1229TIP3    H1 3630   6.508   3.542   0.710
 1229TIP3    H2 3631   6.380   3.462   0.727
 1230TIP3   OH2 3632   6.372   3.112   0.463
 1230TIP3    H1 3633   6.323   3.088   0.541
 1230TIP3    H2 3634   6.306   3.139   0.400
 1231TIP3   OH2 3635   6.374   4.431   0.503
 1231TIP3    H1 3636   6.421   4.466   0.427
 1231TIP3    H2 3637   6.415   4.474   0.578
 1232TIP3   OH2 3638   6.689   3.227   0.700
 1232TIP3    H1 3639   6.655   3.154   0.751
 1232TIP3    H2 3640   6.782   3.231   0.722
 1233TIP3   OH2 3641   6.941   3.225   0.807
 1233TIP3    H1 3642   7.018   3.201   0.757
 1233TIP3    H2 3643   6.925   3.150   0.865
 1234TIP3   OH2 3644   0.454   4.298   1.468
 1234TIP3    H1 3645   0.471   4.379   1.515
 1234TIP3    H2 3646   0.492   4.312   1.381
 1235TIP3   OH2 3647   8.398   4.477   1.464
 1235TIP3    H1 3648   8.413   4.387   1.490
 1235TIP3    H2 3649   8.476   4.502   1.414
 1236TIP3   OH2 3650   0.516   4.513   1.631
 1236TIP3    H1 3651   0.428   4.550   1.626
 1236TIP3    H2 3652   0.554   4.553   1.709
 1237TIP3   OH2 3653   0.055   4.235   1.281
 1237TIP3    H1 3654   0.113   4.180   1.333
 1237TIP3    H2 3655   0.086   4.325   1.296
 1238TIP3   OH2 3656   0.240   4.206   1.628
 1238TIP3    H1 3657   0.152   4.226   1.594
 1238TIP3    H2 3658   0.299   4.234   1.558
 1239TIP3   OH2 3659   0.134   5.249   1.599
 1239TIP3    H1 3660   0.136   5.161   1.560
 1239TIP3    H2 3661   0.125   5.308   1.525
 1240TIP3   OH2 3662   0.346   4.852   1.473
 1240TIP3    H1 3663   0.269   4.908   1.484
 1240TIP3    H2 3664   0.375   4.870   1.383
 1241TIP3   OH2 3665   0.079   4.739   1.790
 1241TIP3    H1 3666   0.059   4.812   1.849
 1241TIP3    H2 3667  -0.005   4.718   1.749
 1242TIP3   OH2 3668   0.424   5.533   1.710
 1242TIP3    H1 3669   0.423   5.438   1.723
 1242TIP3    H2 3670   0.336   5.562   1.736
 1243TIP3   OH2 3671   0.295   4.655   1.936
 1243TIP3    H1 3672   0.214   4.677   1.889
 1243TIP3    H2 3673   0.304   4.561   1.923
 1244TIP3   OH2 3674   8.374   4.035   1.945
 1244TIP3    H1 3675   8.437   4.013   2.013
 1244TIP3    H2 3676   8.295   4.061   1.993
 1245TIP3   OH2 3677   0.026   4.450   1.844
 1245TIP3    H1 3678   0.005   4.448   1.937
 1245TIP3    H2 3679  -0.003   4.536   1.815
 1246TIP3   OH2 3680   8.373   4.687   2.048
 1246TIP3    H1 3681   8.312   4.680   2.121
 1246TIP3    H2 3682   8.460   4.685   2.089
 1247TIP3   OH2 3683   8.352   4.635   1.687
 1247TIP3    H1 3684   8.355   4.586   1.605
 1247TIP3    H2 3685   8.268   4.681   1.686
 1248TIP3   OH2 3686   8.462   4.218   1.560
 1248TIP3    H1 3687   8.409   4.223   1.639
 1248TIP3    H2 3688   8.414   4.158   1.502
 1249TIP3   OH2 3689   8.077   4.291   1.688
 1249TIP3    H1 3690   8.066   4.386   1.676
 1249TIP3    H2 3691   8.168   4.281   1.716
 1250TIP3   OH2 3692   0.110   5.003   1.478
 1250TIP3    H1 3693   0.122   5.012   1.383
 1250TIP3    H2 3694   0.020   4.974   1.488
 1251TIP3   OH2 3695   8.047   4.843   2.145
 1251TIP3    H1 3696   7.971   4.816   2.093
 1251TIP3    H2 3697   8.089   4.912   2.093
 1252TIP3   OH2 3698   0.394   5.247   1.709
 1252TIP3    H1 3699   0.301   5.259   1.690
 1252TIP3    H2 3700   0.433   5.223   1.625
 1253TIP3   OH2 3701   8.333   4.264   1.797
 1253TIP3    H1 3702   8.411   4.317   1.812
 1253TIP3    H2 3703   8.347   4.185   1.848
 1254TIP3   OH2 3704   8.211   4.498   1.925
 1254TIP3    H1 3705   8.271   4.571   1.940
 1254TIP3    H2 3706   8.259   4.438   1.868
 1255TIP3   OH2 3707   0.291   4.387   1.841
 1255TIP3    H1 3708   0.197   4.405   1.844
 1255TIP3    H2 3709   0.302   4.328   1.767
 1256TIP3   OH2 3710   8.324   5.521   1.996
 1256TIP3    H1 3711   8.287   5.490   2.079
 1256TIP3    H2 3712   8.399   5.575   2.021
 1257TIP3   OH2 3713   8.448   5.143   1.789
 1257TIP3    H1 3714   8.500   5.183   1.719
 1257TIP3    H2 3715   8.357   5.151   1.758
 1258TIP3   OH2 3716   8.378   5.004   2.163
 1258TIP3    H1 3717   8.445   4.977   2.100
 1258TIP3    H2 3718   8.383   4.940   2.233
 1259TIP3   OH2 3719   7.901   4.087   1.835
 1259TIP3    H1 3720   7.945   4.120   1.756
 1259TIP3    H2 3721   7.893   4.164   1.891
 1260TIP3   OH2 3722   0.107   4.674   2.209
 1260TIP3    H1 3723   0.126   4.580   2.204
 1260TIP3    H2 3724   0.192   4.716   2.197
 1261TIP3   OH2 3725   0.077   4.971   1.955
 1261TIP3    H1 3726   0.020   5.024   1.898
 1261TIP3    H2 3727   0.164   4.979   1.916
 1262TIP3   OH2 3728   8.039   3.876   2.039
 1262TIP3    H1 3729   8.070   3.921   1.960
 1262TIP3    H2 3730   7.958   3.921   2.063
 1263TIP3   OH2 3731   8.190   4.406   2.185
 1263TIP3    H1 3732   8.202   4.491   2.228
 1263TIP3    H2 3733   8.192   4.427   2.091
 1264TIP3   OH2 3734   8.460   4.393   2.099
 1264TIP3    H1 3735   8.380   4.373   2.148
 1264TIP3    H2 3736   8.531   4.373   2.160
 1265TIP3   OH2 3737   0.177   4.368   2.267
 1265TIP3    H1 3738   0.189   4.273   2.277
 1265TIP3    H2 3739   0.170   4.400   2.357
 1266TIP3   OH2 3740   8.248   3.988   2.211
 1266TIP3    H1 3741   8.287   3.901   2.211
 1266TIP3    H2 3742   8.169   3.979   2.157
 1267TIP3   OH2 3743   8.277   4.188   2.395
 1267TIP3    H1 3744   8.278   4.124   2.323
 1267TIP3    H2 3745   8.187   4.185   2.428
 1268TIP3   OH2 3746   0.283   5.363   2.001
 1268TIP3    H1 3747   0.193   5.369   2.035
 1268TIP3    H2 3748   0.321   5.449   2.019
 1269TIP3   OH2 3749   0.321   5.007   1.835
 1269TIP3    H1 3750   0.380   4.936   1.810
 1269TIP3    H2 3751   0.350   5.081   1.781
 1270TIP3   OH2 3752   0.485   4.791   1.800
 1270TIP3    H1 3753   0.419   4.742   1.848
 1270TIP3    H2 3754   0.568   4.749   1.823
 1271TIP3   OH2 3755   0.170   4.477   1.382
 1271TIP3    H1 3756   0.246   4.496   1.327
 1271TIP3    H2 3757   0.192   4.516   1.467
 1272TIP3   OH2 3758   0.261   4.627   1.603
 1272TIP3    H1 3759   0.199   4.661   1.667
 1272TIP3    H2 3760   0.296   4.704   1.559
 1273TIP3   OH2 3761   0.717   4.230   2.137
 1273TIP3    H1 3762   0.781   4.173   2.095
 1273TIP3    H2 3763   0.681   4.282   2.065
 1274TIP3   OH2 3764   0.561   4.355   1.952
 1274TIP3    H1 3765   0.493   4.397   2.003
 1274TIP3    H2 3766   0.514   4.298   1.891
 1275TIP3   OH2 3767   0.467   4.099   1.838
 1275TIP3    H1 3768   0.378   4.083   1.806
 1275TIP3    H2 3769   0.510   4.014   1.833
 1276TIP3   OH2 3770   0.174   3.968   1.378
 1276TIP3    H1 3771   0.232   3.992   1.306
 1276TIP3    H2 3772   0.088   3.960   1.338
 1277TIP3   OH2 3773   0.310   4.029   1.153
 1277TIP3    H1 3774   0.304   3.979   1.072
 1277TIP3    H2 3775   0.357   4.109   1.129
 1278TIP3   OH2 3776   0.241   4.100   2.283
 1278TIP3    H1 3777   0.266   4.061   2.367
 1278TIP3    H2 3778   0.322   4.101   2.232
 1279TIP3   OH2 3779   0.156   5.584   1.777
 1279TIP3    H1 3780   0.108   5.501   1.774
 1279TIP3    H2 3781   0.101   5.645   1.727
 1280TIP3   OH2 3782   1.420   4.986   0.531
 1280TIP3    H1 3783   1.394   5.078   0.524
 1280TIP3    H2 3784   1.341   4.937   0.510
 1281TIP3   OH2 3785   1.422   5.006   0.929
 1281TIP3    H1 3786   1.469   4.990   1.011
 1281TIP3    H2 3787   1.373   4.925   0.913
 1282TIP3   OH2 3788   0.707   4.870   1.279
 1282TIP3    H1 3789   0.738   4.821   1.356
 1282TIP3    H2 3790   0.786   4.897   1.234
 1283TIP3   OH2 3791   1.680   5.320   0.627
 1283TIP3    H1 3792   1.669   5.249   0.690
 1283TIP3    H2 3793   1.705   5.396   0.679
 1284TIP3   OH2 3794   0.735   5.332   1.024
 1284TIP3    H1 3795   0.728   5.237   1.031
 1284TIP3    H2 3796   0.824   5.348   0.995
 1285TIP3   OH2 3797   0.495   4.804   0.958
 1285TIP3    H1 3798   0.518   4.718   0.993
 1285TIP3    H2 3799   0.577   4.839   0.925
 1286TIP3   OH2 3800   1.431   5.741   0.688
 1286TIP3    H1 3801   1.473   5.703   0.611
 1286TIP3    H2 3802   1.444   5.675   0.757
 1287TIP3   OH2 3803   1.238   5.226   0.948
 1287TIP3    H1 3804   1.279   5.145   0.918
 1287TIP3    H2 3805   1.312   5.279   0.978
 1288TIP3   OH2 3806   2.249   4.554   0.955
 1288TIP3    H1 3807   2.265   4.638   0.999
 1288TIP3    H2 3808   2.267   4.571   0.863
 1289TIP3   OH2 3809   1.638   4.722   0.985
 1289TIP3    H1 3810   1.671   4.636   1.011
 1289TIP3    H2 3811   1.592   4.707   0.903
 1290TIP3   OH2 3812   0.989   4.392   0.954
 1290TIP3    H1 3813   0.957   4.460   0.894
 1290TIP3    H2 3814   0.956   4.310   0.917
 1291TIP3   OH2 3815   1.693   4.531   0.588
 1291TIP3    H1 3816   1.753   4.505   0.658
 1291TIP3    H2 3817   1.749   4.544   0.512
 1292TIP3   OH2 3818   0.599   4.569   1.059
 1292TIP3    H1 3819   0.681   4.558   1.106
 1292TIP3    H2 3820   0.608   4.514   0.981
 1293TIP3   OH2 3821   1.028   4.810   0.886
 1293TIP3    H1 3822   1.122   4.792   0.890
 1293TIP3    H2 3823   0.989   4.726   0.861
 1294TIP3   OH2 3824   2.306   4.777   1.116
 1294TIP3    H1 3825   2.216   4.809   1.114
 1294TIP3    H2 3826   2.341   4.809   1.199
 1295TIP3   OH2 3827   0.963   4.385   1.392
 1295TIP3    H1 3828   0.911   4.423   1.321
 1295TIP3    H2 3829   0.910   4.400   1.471
 1296TIP3   OH2 3830   1.328   5.228   0.438
 1296TIP3    H1 3831   1.311   5.213   0.345
 1296TIP3    H2 3832   1.396   5.295   0.439
 1297TIP3   OH2 3833   1.063   5.158   1.160
 1297TIP3    H1 3834   1.009   5.227   1.200
 1297TIP3    H2 3835   1.105   5.201   1.085
 1298TIP3   OH2 3836   1.850   4.505   0.806
 1298TIP3    H1 3837   1.808   4.481   0.889
 1298TIP3    H2 3838   1.902   4.583   0.827
 1299TIP3   OH2 3839   0.846   4.494   1.167
 1299TIP3    H1 3840   0.899   4.570   1.191
 1299TIP3    H2 3841   0.897   4.451   1.098
 1300TIP3   OH2 3842   0.908   5.349   1.285
 1300TIP3    H1 3843   0.881   5.432   1.246
 1300TIP3    H2 3844   0.836   5.325   1.343
 1301TIP3   OH2 3845   1.721   5.565   0.759
 1301TIP3    H1 3846   1.637   5.562   0.805
 1301TIP3    H2 3847   1.723   5.650   0.716
 1302TIP3   OH2 3848   2.044   4.449   1.124
 1302TIP3    H1 3849   1.958   4.461   1.083
 1302TIP3    H2 3850   2.106   4.474   1.056
 1303TIP3   OH2 3851   1.306   4.109   1.123
 1303TIP3    H1 3852   1.298   4.017   1.147
 1303TIP3    H2 3853   1.230   4.151   1.165
 1304TIP3   OH2 3854   1.549   5.645   0.455
 1304TIP3    H1 3855   1.540   5.552   0.434
 1304TIP3    H2 3856   1.643   5.658   0.466
 1305TIP3   OH2 3857   1.557   5.381   0.395
 1305TIP3    H1 3858   1.593   5.327   0.324
 1305TIP3    H2 3859   1.604   5.352   0.473
 1306TIP3   OH2 3860   1.953   5.452   1.091
 1306TIP3    H1 3861   1.931   5.378   1.035
 1306TIP3    H2 3862   1.942   5.529   1.035
 1307TIP3   OH2 3863   1.230   4.856   0.344
 1307TIP3    H1 3864   1.199   4.782   0.293
 1307TIP3    H2 3865   1.295   4.899   0.287
 1308TIP3   OH2 3866   1.176   4.629   0.196
 1308TIP3    H1 3867   1.212   4.550   0.237
 1308TIP3    H2 3868   1.095   4.601   0.155
 1309TIP3   OH2 3869   2.129   5.120   0.959
 1309TIP3    H1 3870   2.044   5.162   0.957
 1309TIP3    H2 3871   2.163   5.130   0.871
 1310TIP3   OH2 3872   1.630   4.979   0.354
 1310TIP3    H1 3873   1.567   4.977   0.427
 1310TIP3    H2 3874   1.709   4.938   0.389
 1311TIP3   OH2 3875   1.827   4.978   1.269
 1311TIP3    H1 3876   1.823   5.061   1.317
 1311TIP3    H2 3877   1.745   4.974   1.221
 1312TIP3   OH2 3878   0.811   4.936   0.764
 1312TIP3    H1 3879   0.796   4.871   0.696
 1312TIP3    H2 3880   0.896   4.913   0.801
 1313TIP3   OH2 3881   0.986   5.339   0.919
 1313TIP3    H1 3882   0.967   5.378   0.834
 1313TIP3    H2 3883   1.074   5.301   0.908
 1314TIP3   OH2 3884   0.930   4.926   1.117
 1314TIP3    H1 3885   0.968   4.892   1.036
 1314TIP3    H2 3886   0.979   5.006   1.135
 1315TIP3   OH2 3887   1.490   5.568   0.900
 1315TIP3    H1 3888   1.477   5.638   0.965
 1315TIP3    H2 3889   1.475   5.487   0.949
 1316TIP3   OH2 3890   1.110   5.465   1.430
 1316TIP3    H1 3891   1.051   5.525   1.476
 1316TIP3    H2 3892   1.051   5.409   1.379
 1317TIP3   OH2 3893   1.425   4.952   0.174
 1317TIP3    H1 3894   1.505   4.960   0.225
 1317TIP3    H2 3895   1.438   4.874   0.121
 1318TIP3   OH2 3896   0.875   5.021   1.532
 1318TIP3    H1 3897   0.880   5.101   1.585
 1318TIP3    H2 3898   0.783   4.997   1.534
 1319TIP3   OH2 3899   0.899   5.625   1.510
 1319TIP3    H1 3900   0.867   5.622   1.420
 1319TIP3    H2 3901   0.823   5.602   1.563
 1320TIP3   OH2 3902   2.023   4.099   0.300
 1320TIP3    H1 3903   1.951   4.118   0.360
 1320TIP3    H2 3904   2.011   4.160   0.228
 1321TIP3   OH2 3905   0.482   5.165   1.466
 1321TIP3    H1 3906   0.435   5.170   1.383
 1321TIP3    H2 3907   0.513   5.075   1.470
 1322TIP3   OH2 3908   2.182   5.820   1.163
 1322TIP3    H1 3909   2.187   5.725   1.173
 1322TIP3    H2 3910   2.105   5.845   1.214
 1323TIP3   OH2 3911   1.278   5.607   1.269
 1323TIP3    H1 3912   1.272   5.698   1.298
 1323TIP3    H2 3913   1.217   5.560   1.326
 1324TIP3   OH2 3914   2.073   4.928   1.423
 1324TIP3    H1 3915   1.988   4.938   1.379
 1324TIP3    H2 3916   2.089   4.834   1.421
 1325TIP3   OH2 3917   0.699   5.334   1.464
 1325TIP3    H1 3918   0.750   5.318   1.543
 1325TIP3    H2 3919   0.626   5.272   1.469
 1326TIP3   OH2 3920   1.065   4.179   1.242
 1326TIP3    H1 3921   0.984   4.148   1.200
 1326TIP3    H2 3922   1.038   4.255   1.293
 1327TIP3   OH2 3923   1.609   4.290   1.446
 1327TIP3    H1 3924   1.678   4.267   1.508
 1327TIP3    H2 3925   1.528   4.275   1.494
 1328TIP3   OH2 3926   1.828   4.715   1.364
 1328TIP3    H1 3927   1.786   4.710   1.450
 1328TIP3    H2 3928   1.810   4.804   1.334
 1329TIP3   OH2 3929   1.060   4.185   0.237
 1329TIP3    H1 3930   1.108   4.187   0.320
 1329TIP3    H2 3931   1.104   4.117   0.185
 1330TIP3   OH2 3932   1.005   4.701   1.259
 1330TIP3    H1 3933   0.961   4.708   1.344
 1330TIP3    H2 3934   0.986   4.784   1.215
 1331TIP3   OH2 3935   0.872   4.592   0.800
 1331TIP3    H1 3936   0.786   4.552   0.811
 1331TIP3    H2 3937   0.892   4.580   0.707
 1332TIP3   OH2 3938   1.365   4.681   0.514
 1332TIP3    H1 3939   1.310   4.743   0.466
 1332TIP3    H2 3940   1.438   4.662   0.456
 1333TIP3   OH2 3941   1.545   4.919   1.568
 1333TIP3    H1 3942   1.517   4.852   1.631
 1333TIP3    H2 3943   1.637   4.935   1.590
 1334TIP3   OH2 3944   1.526   4.685   0.740
 1334TIP3    H1 3945   1.461   4.712   0.675
 1334TIP3    H2 3946   1.582   4.622   0.694
 1335TIP3   OH2 3947   0.839   4.715   1.478
 1335TIP3    H1 3948   0.849   4.779   1.549
 1335TIP3    H2 3949   0.821   4.633   1.523
 1336TIP3   OH2 3950   0.458   4.239   1.057
 1336TIP3    H1 3951   0.512   4.270   1.130
 1336TIP3    H2 3952   0.488   4.290   0.981
 1337TIP3   OH2 3953   1.576   4.925   1.151
 1337TIP3    H1 3954   1.605   4.858   1.090
 1337TIP3    H2 3955   1.530   4.877   1.220
 1338TIP3   OH2 3956   1.257   4.414   0.870
 1338TIP3    H1 3957   1.176   4.404   0.920
 1338TIP3    H2 3958   1.326   4.398   0.934
 1339TIP3   OH2 3959   0.648   4.418   0.832
 1339TIP3    H1 3960   0.595   4.408   0.753
 1339TIP3    H2 3961   0.708   4.344   0.830
 1340TIP3   OH2 3962   0.939   4.539   0.545
 1340TIP3    H1 3963   1.031   4.516   0.556
 1340TIP3    H2 3964   0.908   4.481   0.475
 1341TIP3   OH2 3965   1.711   4.459   1.043
 1341TIP3    H1 3966   1.688   4.479   1.134
 1341TIP3    H2 3967   1.643   4.397   1.015
 1342TIP3   OH2 3968   1.900   6.166   1.253
 1342TIP3    H1 3969   1.897   6.180   1.159
 1342TIP3    H2 3970   1.980   6.209   1.282
 1343TIP3   OH2 3971   0.846   5.254   1.689
 1343TIP3    H1 3972   0.926   5.275   1.738
 1343TIP3    H2 3973   0.776   5.262   1.753
 1344TIP3   OH2 3974   1.298   4.746   0.927
 1344TIP3    H1 3975   1.364   4.696   0.879
 1344TIP3    H2 3976   1.294   4.704   1.013
 1345TIP3   OH2 3977   0.821   4.208   0.815
 1345TIP3    H1 3978   0.791   4.133   0.866
 1345TIP3    H2 3979   0.864   4.170   0.738
 1346TIP3   OH2 3980   1.269   4.645   1.188
 1346TIP3    H1 3981   1.182   4.676   1.216
 1346TIP3    H2 3982   1.330   4.696   1.241
 1347TIP3   OH2 3983   1.891   5.251   0.914
 1347TIP3    H1 3984   1.926   5.298   0.838
 1347TIP3    H2 3985   1.813   5.206   0.880
 1348TIP3   OH2 3986   1.506   4.450   0.127
 1348TIP3    H1 3987   1.420   4.415   0.103
 1348TIP3    H2 3988   1.500   4.462   0.222
 1349TIP3   OH2 3989   1.415   5.336   1.320
 1349TIP3    H1 3990   1.458   5.323   1.404
 1349TIP3    H2 3991   1.362   5.415   1.332
 1350TIP3   OH2 3992   1.565   4.649   0.327
 1350TIP3    H1 3993   1.659   4.630   0.336
 1350TIP3    H2 3994   1.555   4.675   0.236
 1351TIP3   OH2 3995   0.710   5.053   0.995
 1351TIP3    H1 3996   0.741   5.026   0.908
 1351TIP3    H2 3997   0.769   5.009   1.056
 1352TIP3   OH2 3998   0.619   4.946   1.604
 1352TIP3    H1 3999   0.666   4.951   1.687
 1352TIP3    H2 4000   0.547   4.886   1.620
 1353TIP3   OH2 4001   1.316   5.078   1.605
 1353TIP3    H1 4002   1.246   5.018   1.578
 1353TIP3    H2 4003   1.397   5.035   1.578
 1354TIP3   OH2 4004   1.556   5.622   1.211
 1354TIP3    H1 4005   1.461   5.609   1.213
 1354TIP3    H2 4006   1.578   5.656   1.297
 1355TIP3   OH2 4007   1.972   4.669   0.111
 1355TIP3    H1 4008   1.898   4.634   0.062
 1355TIP3    H2 4009   1.986   4.757   0.075
 1356TIP3   OH2 4010   2.196   5.543   1.179
 1356TIP3    H1 4011   2.102   5.524   1.178
 1356TIP3    H2 4012   2.228   5.511   1.095
 1357TIP3   OH2 4013   1.664   5.113   0.814
 1357TIP3    H1 4014   1.576   5.089   0.843
 1357TIP3    H2 4015   1.701   5.032   0.778
 1358TIP3   OH2 4016   1.062   5.697   1.083
 1358TIP3    H1 4017   1.115   5.760   1.036
 1358TIP3    H2 4018   1.125   5.640   1.127
 1359TIP3   OH2 4019   1.473   5.334   1.051
 1359TIP3    H1 4020   1.453   5.334   1.144
 1359TIP3    H2 4021   1.551   5.278   1.043
 1360TIP3   OH2 4022   1.724   5.825   1.099
 1360TIP3    H1 4023   1.653   5.766   1.125
 1360TIP3    H2 4024   1.687   5.878   1.029
 1361TIP3   OH2 4025   0.791   4.460   1.595
 1361TIP3    H1 4026   0.696   4.468   1.598
 1361TIP3    H2 4027   0.815   4.420   1.679
 1362TIP3   OH2 4028   1.664   5.212   0.208
 1362TIP3    H1 4029   1.645   5.133   0.260
 1362TIP3    H2 4030   1.745   5.191   0.162
 1363TIP3   OH2 4031   0.560   5.554   1.341
 1363TIP3    H1 4032   0.472   5.549   1.377
 1363TIP3    H2 4033   0.608   5.484   1.385
 1364TIP3   OH2 4034   1.637   4.522   1.300
 1364TIP3    H1 4035   1.714   4.568   1.335
 1364TIP3    H2 4036   1.627   4.445   1.355
 1365TIP3   OH2 4037   1.520   4.339   0.502
 1365TIP3    H1 4038   1.596   4.280   0.497
 1365TIP3    H2 4039   1.557   4.422   0.531
 1366TIP3   OH2 4040   1.205   4.478   0.607
 1366TIP3    H1 4041   1.261   4.554   0.590
 1366TIP3    H2 4042   1.216   4.460   0.700
 1367TIP3   OH2 4043   1.476   4.755   1.342
 1367TIP3    H1 4044   1.498   4.796   1.425
 1367TIP3    H2 4045   1.526   4.673   1.342
 1368TIP3   OH2 4046   1.364   4.216   0.706
 1368TIP3    H1 4047   1.331   4.281   0.768
 1368TIP3    H2 4048   1.424   4.265   0.650
 1369TIP3   OH2 4049   0.875   4.356   0.350
 1369TIP3    H1 4050   0.795   4.309   0.326
 1369TIP3    H2 4051   0.946   4.306   0.309
 1370TIP3   OH2 4052   2.088   4.648   1.330
 1370TIP3    H1 4053   1.995   4.664   1.346
 1370TIP3    H2 4054   2.089   4.585   1.259
 1371TIP3   OH2 4055   1.758   4.861   0.730
 1371TIP3    H1 4056   1.679   4.808   0.745
 1371TIP3    H2 4057   1.825   4.820   0.786
 1372TIP3   OH2 4058   1.765   5.818   0.656
 1372TIP3    H1 4059   1.746   5.859   0.572
 1372TIP3    H2 4060   1.860   5.826   0.667
 1373TIP3   OH2 4061   0.801   4.096   1.191
 1373TIP3    H1 4062   0.767   4.061   1.109
 1373TIP3    H2 4063   0.796   4.023   1.253
 1374TIP3   OH2 4064   0.499   5.821   1.706
 1374TIP3    H1 4065   0.592   5.826   1.730
 1374TIP3    H2 4066   0.484   5.727   1.690
 1375TIP3   OH2 4067   0.995   5.792   1.706
 1375TIP3    H1 4068   1.084   5.761   1.720
 1375TIP3    H2 4069   0.962   5.740   1.632
 1376TIP3   OH2 4070   1.614   5.722   1.458
 1376TIP3    H1 4071   1.626   5.652   1.523
 1376TIP3    H2 4072   1.687   5.782   1.473
 1377TIP3   OH2 4073   0.637   5.281   1.873
 1377TIP3    H1 4074   0.662   5.214   1.936
 1377TIP3    H2 4075   0.551   5.253   1.840
 1378TIP3   OH2 4076   1.255   5.353   1.636
 1378TIP3    H1 4077   1.209   5.377   1.556
 1378TIP3    H2 4078   1.286   5.264   1.620
 1379TIP3   OH2 4079   1.726   5.396   1.242
 1379TIP3    H1 4080   1.804   5.427   1.195
 1379TIP3    H2 4081   1.661   5.464   1.228
 1380TIP3   OH2 4082   0.780   4.946   1.832
 1380TIP3    H1 4083   0.868   4.908   1.838
 1380TIP3    H2 4084   0.772   5.000   1.912
 1381TIP3   OH2 4085   1.120   4.897   1.505
 1381TIP3    H1 4086   1.036   4.941   1.511
 1381TIP3    H2 4087   1.154   4.923   1.419
 1382TIP3   OH2 4088   1.603   5.276   1.592
 1382TIP3    H1 4089   1.673   5.236   1.540
 1382TIP3    H2 4090   1.597   5.222   1.670
 1383TIP3   OH2 4091   1.211   4.664   1.618
 1383TIP3    H1 4092   1.216   4.596   1.552
 1383TIP3    H2 4093   1.180   4.741   1.570
 1384TIP3   OH2 4094   1.224   4.468   1.414
 1384TIP3    H1 4095   1.248   4.507   1.330
 1384TIP3    H2 4096   1.133   4.443   1.404
 1385TIP3   OH2 4097   1.240   4.988   1.278
 1385TIP3    H1 4098   1.326   5.028   1.272
 1385TIP3    H2 4099   1.181   5.051   1.237
 1386TIP3   OH2 4100   1.812   4.955   1.670
 1386TIP3    H1 4101   1.853   4.870   1.681
 1386TIP3    H2 4102   1.885   5.016   1.662
 1387TIP3   OH2 4103   1.847   5.221   1.410
 1387TIP3    H1 4104   1.794   5.282   1.359
 1387TIP3    H2 4105   1.936   5.235   1.379
 1388TIP3   OH2 4106   1.068   4.755   1.844
 1388TIP3    H1 4107   1.014   4.681   1.872
 1388TIP3    H2 4108   1.111   4.724   1.764
 1389TIP3   OH2 4109   1.342   4.238   1.520
 1389TIP3    H1 4110   1.304   4.319   1.487
 1389TIP3    H2 4111   1.273   4.172   1.509
 1390TIP3   OH2 4112   1.462   4.710   1.726
 1390TIP3    H1 4113   1.451   4.701   1.820
 1390TIP3    H2 4114   1.377   4.687   1.689
 1391TIP3   OH2 4115   1.708   4.663   1.600
 1391TIP3    H1 4116   1.629   4.664   1.653
 1391TIP3    H2 4117   1.778   4.639   1.661
 1392TIP3   OH2 4118   1.948   4.633   1.746
 1392TIP3    H1 4119   1.962   4.539   1.752
 1392TIP3    H2 4120   1.942   4.663   1.836
 1393TIP3   OH2 4121   0.928   4.530   1.932
 1393TIP3    H1 4122   0.932   4.441   1.896
 1393TIP3    H2 4123   0.970   4.523   2.018
 1394TIP3   OH2 4124   1.409   4.216   1.786
 1394TIP3    H1 4125   1.478   4.150   1.781
 1394TIP3    H2 4126   1.379   4.227   1.696
 1395TIP3   OH2 4127   1.489   4.437   1.934
 1395TIP3    H1 4128   1.461   4.364   1.878
 1395TIP3    H2 4129   1.414   4.497   1.933
 1396TIP3   OH2 4130   2.032   5.876   0.675
 1396TIP3    H1 4131   2.043   5.903   0.766
 1396TIP3    H2 4132   2.077   5.944   0.624
 1397TIP3   OH2 4133   2.024   5.922   0.949
 1397TIP3    H1 4134   1.978   5.839   0.943
 1397TIP3    H2 4135   2.093   5.906   1.014
 1398TIP3   OH2 4136   2.076   5.618   1.501
 1398TIP3    H1 4137   2.004   5.625   1.563
 1398TIP3    H2 4138   2.123   5.701   1.509
 1399TIP3   OH2 4139   1.909   5.120   0.115
 1399TIP3    H1 4140   1.970   5.187   0.083
 1399TIP3    H2 4141   1.954   5.080   0.189
 1400TIP3   OH2 4142   2.037   4.986   0.319
 1400TIP3    H1 4143   1.974   4.948   0.380
 1400TIP3    H2 4144   2.103   5.027   0.376
 1401TIP3   OH2 4145   2.070   5.388   0.750
 1401TIP3    H1 4146   2.124   5.319   0.712
 1401TIP3    H2 4147   2.082   5.463   0.691
 1402TIP3   OH2 4148   1.895   5.677   0.943
 1402TIP3    H1 4149   1.829   5.717   0.999
 1402TIP3    H2 4150   1.845   5.632   0.874
 1403TIP3   OH2 4151   7.589   0.891   6.891
 1403TIP3    H1 4152   7.516   0.830   6.885
 1403TIP3    H2 4153   7.561   0.957   6.954
 1404TIP3   OH2 4154   7.422   0.673   6.873
 1404TIP3    H1 4155   7.380   0.685   6.788
 1404TIP3    H2 4156   7.416   0.579   6.889
 1405TIP3   OH2 4157   1.847   4.851   0.469
 1405TIP3    H1 4158   1.850   4.757   0.450
 1405TIP3    H2 4159   1.823   4.855   0.561
 1406TIP3   OH2 4160   0.442   4.897   1.216
 1406TIP3    H1 4161   0.446   4.872   1.124
 1406TIP3    H2 4162   0.534   4.899   1.244
 1407TIP3   OH2 4163   2.104   5.265   1.314
 1407TIP3    H1 4164   2.171   5.198   1.300
 1407TIP3    H2 4165   2.114   5.325   1.240
 1408TIP3   OH2 4166   2.283   5.055   1.304
 1408TIP3    H1 4167   2.209   5.012   1.346
 1408TIP3    H2 4168   2.358   4.999   1.324
 1409TIP3   OH2 4169   1.774   4.424   0.014
 1409TIP3    H1 4170   1.841   4.359   0.034
 1409TIP3    H2 4171   1.693   4.387   0.050
 1410TIP3   OH2 4172   1.842   4.591   0.352
 1410TIP3    H1 4173   1.887   4.510   0.373
 1410TIP3    H2 4174   1.884   4.621   0.271
 1411TIP3   OH2 4175   1.975   4.743   0.867
 1411TIP3    H1 4176   2.056   4.761   0.819
 1411TIP3    H2 4177   1.989   4.783   0.953
 1412TIP3   OH2 4178   2.046   4.891   1.093
 1412TIP3    H1 4179   1.973   4.918   1.149
 1412TIP3    H2 4180   2.076   4.972   1.052
 1413TIP3   OH2 4181   0.667   4.590   1.856
 1413TIP3    H1 4182   0.758   4.596   1.885
 1413TIP3    H2 4183   0.634   4.511   1.899
 1414TIP3   OH2 4184   2.506   4.484   1.628
 1414TIP3    H1 4185   2.572   4.428   1.586
 1414TIP3    H2 4186   2.468   4.534   1.556
 1415TIP3   OH2 4187   1.963   4.361   0.426
 1415TIP3    H1 4188   2.022   4.354   0.501
 1415TIP3    H2 4189   1.891   4.300   0.445
 1416TIP3   OH2 4190   0.641   4.313   1.250
 1416TIP3    H1 4191   0.695   4.234   1.241
 1416TIP3    H2 4192   0.702   4.385   1.233
 1417TIP3   OH2 4193   0.409   4.566   1.272
 1417TIP3    H1 4194   0.468   4.558   1.197
 1417TIP3    H2 4195   0.434   4.648   1.315
 1418TIP3   OH2 4196   2.356   4.604   1.434
 1418TIP3    H1 4197   2.278   4.643   1.473
 1418TIP3    H2 4198   2.322   4.535   1.377
 1419TIP3   OH2 4199   2.000   4.267   0.077
 1419TIP3    H1 4200   2.011   4.216  -0.003
 1419TIP3    H2 4201   2.056   4.344   0.064
 1420TIP3   OH2 4202   0.627   4.126   1.601
 1420TIP3    H1 4203   0.580   4.129   1.684
 1420TIP3    H2 4204   0.574   4.179   1.542
 1421TIP3   OH2 4205   0.694   5.576   1.685
 1421TIP3    H1 4206   0.602   5.552   1.680
 1421TIP3    H2 4207   0.715   5.571   1.779
 1422TIP3   OH2 4208   0.849   5.614   1.236
 1422TIP3    H1 4209   0.776   5.676   1.228
 1422TIP3    H2 4210   0.915   5.648   1.176
 1423TIP3   OH2 4211   1.271   5.869   1.361
 1423TIP3    H1 4212   1.304   5.855   1.450
 1423TIP3    H2 4213   1.338   5.922   1.318
 1424TIP3   OH2 4214   1.461   6.028   1.243
 1424TIP3    H1 4215   1.513   5.970   1.187
 1424TIP3    H2 4216   1.526   6.079   1.292
 1425TIP3   OH2 4217   2.267   4.354   1.324
 1425TIP3    H1 4218   2.180   4.347   1.285
 1425TIP3    H2 4219   2.303   4.266   1.319
 1426TIP3   OH2 4220   1.196   5.888   0.942
 1426TIP3    H1 4221   1.135   5.887   0.868
 1426TIP3    H2 4222   1.192   5.978   0.975
 1427TIP3   OH2 4223   1.457   5.833   0.998
 1427TIP3    H1 4224   1.364   5.844   0.977
 1427TIP3    H2 4225   1.503   5.882   0.931
 1428TIP3   OH2 4226   1.658   5.974   0.864
 1428TIP3    H1 4227   1.656   6.063   0.830
 1428TIP3    H2 4228   1.688   5.920   0.791
 1429TIP3   OH2 4229   1.482   4.293   0.990
 1429TIP3    H1 4230   1.431   4.224   1.033
 1429TIP3    H2 4231   1.541   4.246   0.931
 1430TIP3   OH2 4232   1.961   4.217   0.865
 1430TIP3    H1 4233   2.006   4.261   0.793
 1430TIP3    H2 4234   1.868   4.233   0.848
 1431TIP3   OH2 4235   2.120   4.287   0.648
 1431TIP3    H1 4236   2.186   4.226   0.616
 1431TIP3    H2 4237   2.156   4.374   0.629
 1432TIP3   OH2 4238   0.714   3.987   0.945
 1432TIP3    H1 4239   0.637   3.961   0.895
 1432TIP3    H2 4240   0.767   3.907   0.951
 1433TIP3   OH2 4241   1.121   4.087   0.908
 1433TIP3    H1 4242   1.171   4.059   0.832
 1433TIP3    H2 4243   1.187   4.105   0.975
 1434TIP3   OH2 4244   1.675   4.169   0.837
 1434TIP3    H1 4245   1.694   4.154   0.744
 1434TIP3    H2 4246   1.683   4.083   0.878
 1435TIP3   OH2 4247   1.166   4.217   0.492
 1435TIP3    H1 4248   1.240   4.162   0.520
 1435TIP3    H2 4249   1.179   4.300   0.538
 1436TIP3   OH2 4250   0.942   4.262   1.841
 1436TIP3    H1 4251   0.909   4.195   1.900
 1436TIP3    H2 4252   1.035   4.270   1.864
 1437TIP3   OH2 4253   1.191   4.260   1.960
 1437TIP3    H1 4254   1.269   4.241   1.909
 1437TIP3    H2 4255   1.189   4.192   2.027
 1438TIP3   OH2 4256   2.012   4.362   1.751
 1438TIP3    H1 4257   2.028   4.332   1.840
 1438TIP3    H2 4258   2.097   4.356   1.708
 1439TIP3   OH2 4259   1.938   5.892   1.265
 1439TIP3    H1 4260   1.864   5.859   1.213
 1439TIP3    H2 4261   1.923   5.986   1.272
 1440TIP3   OH2 4262   3.204   5.290   0.106
 1440TIP3    H1 4263   3.180   5.366   0.053
 1440TIP3    H2 4264   3.142   5.291   0.179
 1441TIP3   OH2 4265   3.163   5.256   0.412
 1441TIP3    H1 4266   3.223   5.257   0.487
 1441TIP3    H2 4267   3.132   5.166   0.407
 1442TIP3   OH2 4268   2.501   5.129   0.764
 1442TIP3    H1 4269   2.539   5.078   0.836
 1442TIP3    H2 4270   2.575   5.153   0.709
 1443TIP3   OH2 4271   3.544   5.555   0.125
 1443TIP3    H1 4272   3.484   5.484   0.150
 1443TIP3    H2 4273   3.496   5.635   0.147
 1444TIP3   OH2 4274   2.495   5.556   0.448
 1444TIP3    H1 4275   2.476   5.463   0.456
 1444TIP3    H2 4276   2.590   5.561   0.450
 1445TIP3   OH2 4277   2.198   4.768   0.246
 1445TIP3    H1 4278   2.156   4.851   0.270
 1445TIP3    H2 4279   2.125   4.711   0.220
 1446TIP3   OH2 4280   2.263   5.076   0.458
 1446TIP3    H1 4281   2.313   4.999   0.485
 1446TIP3    H2 4282   2.330   5.142   0.436
 1447TIP3   OH2 4283   3.078   5.953   0.108
 1447TIP3    H1 4284   3.171   5.960   0.084
 1447TIP3    H2 4285   3.078   5.932   0.201
 1448TIP3   OH2 4286   3.006   5.487   0.423
 1448TIP3    H1 4287   3.044   5.401   0.405
 1448TIP3    H2 4288   3.080   5.541   0.451
 1449TIP3   OH2 4289   4.029   4.806   0.470
 1449TIP3    H1 4290   4.044   4.893   0.507
 1449TIP3    H2 4291   4.059   4.812   0.380
 1450TIP3   OH2 4292   3.417   4.987   0.476
 1450TIP3    H1 4293   3.451   4.901   0.501
 1450TIP3    H2 4294   3.384   4.976   0.387
 1451TIP3   OH2 4295   2.780   4.637   0.416
 1451TIP3    H1 4296   2.759   4.712   0.359
 1451TIP3    H2 4297   2.726   4.566   0.383
 1452TIP3   OH2 4298   3.446   4.750   0.044
 1452TIP3    H1 4299   3.502   4.731   0.119
 1452TIP3    H2 4300   3.507   4.781  -0.024
 1453TIP3   OH2 4301   2.402   4.856   0.551
 1453TIP3    H1 4302   2.484   4.837   0.596
 1453TIP3    H2 4303   2.406   4.803   0.471
 1454TIP3   OH2 4304   2.823   5.050   0.372
 1454TIP3    H1 4305   2.917   5.032   0.379
 1454TIP3    H2 4306   2.786   4.970   0.335
 1455TIP3   OH2 4307   4.089   5.030   0.631
 1455TIP3    H1 4308   4.001   5.066   0.626
 1455TIP3    H2 4309   4.128   5.073   0.708
 1456TIP3   OH2 4310   2.755   4.642   0.870
 1456TIP3    H1 4311   2.705   4.677   0.796
 1456TIP3    H2 4312   2.699   4.658   0.946
 1457TIP3   OH2 4313   0.290   1.488   6.885
 1457TIP3    H1 4314   0.279   1.438   6.805
 1457TIP3    H2 4315   0.249   1.573   6.866
 1458TIP3   OH2 4316   2.843   5.417   0.636
 1458TIP3    H1 4317   2.790   5.489   0.671
 1458TIP3    H2 4318   2.893   5.456   0.564
 1459TIP3   OH2 4319   3.598   4.751   0.274
 1459TIP3    H1 4320   3.559   4.727   0.358
 1459TIP3    H2 4321   3.661   4.819   0.295
 1460TIP3   OH2 4322   2.650   4.748   0.637
 1460TIP3    H1 4323   2.705   4.823   0.660
 1460TIP3    H2 4324   2.697   4.705   0.565
 1461TIP3   OH2 4325   2.688   5.619   0.741
 1461TIP3    H1 4326   2.676   5.710   0.713
 1461TIP3    H2 4327   2.609   5.600   0.792
 1462TIP3   OH2 4328   7.751   1.302   6.948
 1462TIP3    H1 4329   7.732   1.310   6.855
 1462TIP3    H2 4330   7.760   1.392   6.979
 1463TIP3   OH2 4331   3.466   5.806   0.199
 1463TIP3    H1 4332   3.383   5.801   0.247
 1463TIP3    H2 4333   3.473   5.898   0.173
 1464TIP3   OH2 4334   3.829   4.682   0.615
 1464TIP3    H1 4335   3.745   4.710   0.578
 1464TIP3    H2 4336   3.895   4.716   0.555
 1465TIP3   OH2 4337   3.098   4.333   0.606
 1465TIP3    H1 4338   3.091   4.241   0.631
 1465TIP3    H2 4339   3.021   4.375   0.644
 1466TIP3   OH2 4340   3.691   5.709   0.635
 1466TIP3    H1 4341   3.766   5.656   0.607
 1466TIP3    H2 4342   3.697   5.788   0.582
 1467TIP3   OH2 4343   0.267   1.292   6.689
 1467TIP3    H1 4344   0.178   1.262   6.706
 1467TIP3    H2 4345   0.323   1.221   6.721
 1468TIP3   OH2 4346   3.890   5.278   0.386
 1468TIP3    H1 4347   3.803   5.318   0.380
 1468TIP3    H2 4348   3.944   5.330   0.327
 1469TIP3   OH2 4349   0.445   1.121   6.835
 1469TIP3    H1 4350   0.425   1.182   6.907
 1469TIP3    H2 4351   0.541   1.117   6.833
 1470TIP3   OH2 4352   3.596   5.219   0.756
 1470TIP3    H1 4353   3.591   5.297   0.812
 1470TIP3    H2 4354   3.517   5.223   0.703
 1471TIP3   OH2 4355   2.621   5.178   0.224
 1471TIP3    H1 4356   2.582   5.116   0.163
 1471TIP3    H2 4357   2.694   5.131   0.262
 1472TIP3   OH2 4358   2.762   5.610   0.363
 1472TIP3    H1 4359   2.732   5.584   0.276
 1472TIP3    H2 4360   2.847   5.567   0.372
 1473TIP3   OH2 4361   2.713   5.181   0.589
 1473TIP3    H1 4362   2.754   5.143   0.512
 1473TIP3    H2 4363   2.762   5.262   0.606
 1474TIP3   OH2 4364   3.248   5.804   0.359
 1474TIP3    H1 4365   3.237   5.882   0.413
 1474TIP3    H2 4366   3.241   5.731   0.421
 1475TIP3   OH2 4367   2.883   5.709   0.918
 1475TIP3    H1 4368   2.822   5.765   0.964
 1475TIP3    H2 4369   2.829   5.658   0.857
 1476TIP3   OH2 4370   2.646   5.265   1.051
 1476TIP3    H1 4371   2.650   5.359   1.070
 1476TIP3    H2 4372   2.552   5.245   1.046
 1477TIP3   OH2 4373   0.155   1.739   6.878
 1477TIP3    H1 4374   0.184   1.811   6.935
 1477TIP3    H2 4375   0.069   1.714   6.911
 1478TIP3   OH2 4376   2.678   5.875   0.995
 1478TIP3    H1 4377   2.653   5.886   0.903
 1478TIP3    H2 4378   2.595   5.863   1.041
 1479TIP3   OH2 4379   2.488   5.010   0.042
 1479TIP3    H1 4380   2.408   5.049   0.006
 1479TIP3    H2 4381   2.466   4.919   0.057
 1480TIP3   OH2 4382   2.275   5.431   0.943
 1480TIP3    H1 4383   2.204   5.410   0.882
 1480TIP3    H2 4384   2.310   5.347   0.970
 1481TIP3   OH2 4385   2.143   5.622   0.610
 1481TIP3    H1 4386   2.237   5.636   0.625
 1481TIP3    H2 4387   2.102   5.701   0.646
 1482TIP3   OH2 4388   3.056   5.869   0.779
 1482TIP3    H1 4389   3.053   5.960   0.809
 1482TIP3    H2 4390   2.993   5.823   0.834
 1483TIP3   OH2 4391   2.278   5.811   0.140
 1483TIP3    H1 4392   2.342   5.807   0.211
 1483TIP3    H2 4393   2.214   5.742   0.162
 1484TIP3   OH2 4394   3.837   5.162   0.942
 1484TIP3    H1 4395   3.766   5.176   0.879
 1484TIP3    H2 4396   3.859   5.070   0.933
 1485TIP3   OH2 4397   2.470   5.623   0.911
 1485TIP3    H1 4398   2.522   5.610   0.991
 1485TIP3    H2 4399   2.400   5.558   0.918
 1486TIP3   OH2 4400   2.862   4.426   0.728
 1486TIP3    H1 4401   2.778   4.392   0.697
 1486TIP3    H2 4402   2.839   4.507   0.774
 1487TIP3   OH2 4403   3.399   4.544   0.928
 1487TIP3    H1 4404   3.469   4.521   0.990
 1487TIP3    H2 4405   3.318   4.529   0.977
 1488TIP3   OH2 4406   3.616   4.956   0.841
 1488TIP3    H1 4407   3.580   4.955   0.929
 1488TIP3    H2 4408   3.598   5.044   0.809
 1489TIP3   OH2 4409   0.163   0.467   6.650
 1489TIP3    H1 4410   0.141   0.457   6.743
 1489TIP3    H2 4411   0.082   0.449   6.604
 1490TIP3   OH2 4412   2.797   4.960   0.736
 1490TIP3    H1 4413   2.751   4.966   0.820
 1490TIP3    H2 4414   2.775   5.041   0.691
 1491TIP3   OH2 4415   2.686   4.841   0.258
 1491TIP3    H1 4416   2.598   4.815   0.285
 1491TIP3    H2 4417   2.695   4.806   0.169
 1492TIP3   OH2 4418   0.359   0.871   6.912
 1492TIP3    H1 4419   0.370   0.957   6.870
 1492TIP3    H2 4420   0.446   0.831   6.907
 1493TIP3   OH2 4421   3.342   5.177   1.057
 1493TIP3    H1 4422   3.316   5.109   1.119
 1493TIP3    H2 4423   3.433   5.194   1.077
 1494TIP3   OH2 4424   3.324   4.936   0.223
 1494TIP3    H1 4425   3.259   4.968   0.161
 1494TIP3    H2 4426   3.364   4.860   0.180
 1495TIP3   OH2 4427   2.634   4.974   0.957
 1495TIP3    H1 4428   2.650   5.037   1.028
 1495TIP3    H2 4429   2.616   4.892   1.002
 1496TIP3   OH2 4430   8.388   0.388   6.614
 1496TIP3    H1 4431   8.347   0.405   6.699
 1496TIP3    H2 4432   8.335   0.319   6.575
 1497TIP3   OH2 4433   2.232   4.503   0.531
 1497TIP3    H1 4434   2.306   4.536   0.581
 1497TIP3    H2 4435   2.269   4.472   0.449
 1498TIP3   OH2 4436   2.171   4.488   0.041
 1498TIP3    H1 4437   2.224   4.524  -0.030
 1498TIP3    H2 4438   2.106   4.556   0.059
 1499TIP3   OH2 4439   3.336   5.192   0.633
 1499TIP3    H1 4440   3.370   5.126   0.573
 1499TIP3    H2 4441   3.299   5.141   0.705
 1500TIP3   OH2 4442   3.044   4.634   0.302
 1500TIP3    H1 4443   2.965   4.633   0.357
 1500TIP3    H2 4444   3.116   4.623   0.364
 1501TIP3   OH2 4445   2.453   4.714   0.322
 1501TIP3    H1 4446   2.365   4.718   0.286
 1501TIP3    H2 4447   2.482   4.624   0.304
 1502TIP3   OH2 4448   8.360   0.705   6.956
 1502TIP3    H1 4449   8.454   0.715   6.941
 1502TIP3    H2 4450   8.319   0.726   6.872
 1503TIP3   OH2 4451   3.473   4.717   0.520
 1503TIP3    H1 4452   3.455   4.734   0.613
 1503TIP3    H2 4453   3.403   4.657   0.493
 1504TIP3   OH2 4454   8.202   0.731   6.732
 1504TIP3    H1 4455   8.117   0.692   6.752
 1504TIP3    H2 4456   8.215   0.713   6.639
 1505TIP3   OH2 4457   3.665   6.493   0.798
 1505TIP3    H1 4458   3.698   6.450   0.719
 1505TIP3    H2 4459   3.742   6.507   0.852
 1506TIP3   OH2 4460   2.628   5.534   1.141
 1506TIP3    H1 4461   2.709   5.552   1.189
 1506TIP3    H2 4462   2.559   5.541   1.208
 1507TIP3   OH2 4463   3.091   4.986   0.418
 1507TIP3    H1 4464   3.162   4.939   0.373
 1507TIP3    H2 4465   3.088   4.946   0.505
 1508TIP3   OH2 4466   2.589   4.469   0.291
 1508TIP3    H1 4467   2.563   4.394   0.344
 1508TIP3    H2 4468   2.610   4.432   0.205
 1509TIP3   OH2 4469   3.062   4.898   0.682
 1509TIP3    H1 4470   2.975   4.932   0.704
 1509TIP3    H2 4471   3.122   4.951   0.735
 1510TIP3   OH2 4472   8.513   1.222   6.765
 1510TIP3    H1 4473   8.433   1.173   6.743
 1510TIP3    H2 4474   8.489   1.272   6.843
 1511TIP3   OH2 4475   3.668   5.435   0.396
 1511TIP3    H1 4476   3.687   5.503   0.332
 1511TIP3    H2 4477   3.579   5.405   0.374
 1512TIP3   OH2 4478   3.166   5.570   0.801
 1512TIP3    H1 4479   3.235   5.560   0.866
 1512TIP3    H2 4480   3.125   5.654   0.823
 1513TIP3   OH2 4481   2.484   5.269   0.443
 1513TIP3    H1 4482   2.523   5.247   0.359
 1513TIP3    H2 4483   2.548   5.240   0.508
 1514TIP3   OH2 4484   2.371   5.202   1.077
 1514TIP3    H1 4485   2.376   5.178   1.169
 1514TIP3    H2 4486   2.296   5.153   1.043
 1515TIP3   OH2 4487   3.111   5.333   1.097
 1515TIP3    H1 4488   3.042   5.273   1.069
 1515TIP3    H2 4489   3.193   5.291   1.068
 1516TIP3   OH2 4490   3.325   5.841   0.744
 1516TIP3    H1 4491   3.230   5.848   0.738
 1516TIP3    H2 4492   3.348   5.889   0.823
 1517TIP3   OH2 4493   3.954   5.690   0.791
 1517TIP3    H1 4494   3.900   5.758   0.831
 1517TIP3    H2 4495   3.992   5.732   0.714
 1518TIP3   OH2 4496   3.430   5.345   0.296
 1518TIP3    H1 4497   3.336   5.327   0.292
 1518TIP3    H2 4498   3.471   5.265   0.261
 1519TIP3   OH2 4499   2.613   5.579   0.131
 1519TIP3    H1 4500   2.594   5.656   0.077
 1519TIP3    H2 4501   2.528   5.551   0.163
 1520TIP3   OH2 4502   7.836   0.869   6.770
 1520TIP3    H1 4503   7.878   0.952   6.791
 1520TIP3    H2 4504   7.748   0.876   6.806
 1521TIP3   OH2 4505   2.749   5.353   0.051
 1521TIP3    H1 4506   2.710   5.439   0.067
 1521TIP3    H2 4507   2.706   5.295   0.113
 1522TIP3   OH2 4508   2.895   5.938   0.565
 1522TIP3    H1 4509   2.933   6.012   0.518
 1522TIP3    H2 4510   2.965   5.908   0.623
 1523TIP3   OH2 4511   2.524   5.802   0.002
 1523TIP3    H1 4512   2.430   5.811   0.021
 1523TIP3    H2 4513   2.554   5.892  -0.012
 1524TIP3   OH2 4514   3.240   5.586   0.535
 1524TIP3    H1 4515   3.214   5.581   0.627
 1524TIP3    H2 4516   3.324   5.541   0.531
 1525TIP3   OH2 4517   3.463   6.025   0.602
 1525TIP3    H1 4518   3.429   5.953   0.656
 1525TIP3    H2 4519   3.386   6.063   0.561
 1526TIP3   OH2 4520   2.581   4.721   1.074
 1526TIP3    H1 4521   2.486   4.730   1.078
 1526TIP3    H2 4522   2.604   4.671   1.152
 1527TIP3   OH2 4523   2.339   5.823   0.740
 1527TIP3    H1 4524   2.386   5.760   0.796
 1527TIP3    H2 4525   2.355   5.907   0.782
 1528TIP3   OH2 4526   7.940   1.118   6.852
 1528TIP3    H1 4527   7.878   1.174   6.899
 1528TIP3    H2 4528   7.978   1.174   6.785
 1529TIP3   OH2 4529   3.418   4.776   0.782
 1529TIP3    H1 4530   3.498   4.820   0.810
 1529TIP3    H2 4531   3.413   4.698   0.837
 1530TIP3   OH2 4532   0.464   0.519   6.901
 1530TIP3    H1 4533   0.423   0.544   6.818
 1530TIP3    H2 4534   0.514   0.596   6.928
 1531TIP3   OH2 4535   2.974   4.722   0.044
 1531TIP3    H1 4536   3.041   4.782   0.009
 1531TIP3    H2 4537   3.000   4.709   0.135
 1532TIP3   OH2 4538   3.265   5.014   0.833
 1532TIP3    H1 4539   3.293   5.057   0.914
 1532TIP3    H2 4540   3.315   4.933   0.830
 1533TIP3   OH2 4541   3.128   4.417   0.149
 1533TIP3    H1 4542   3.106   4.496   0.198
 1533TIP3    H2 4543   3.195   4.447   0.086
 1534TIP3   OH2 4544   8.307   0.425   6.891
 1534TIP3    H1 4545   8.292   0.517   6.914
 1534TIP3    H2 4546   8.401   0.413   6.900
 1535TIP3   OH2 4547   3.883   4.904   0.838
 1535TIP3    H1 4548   3.787   4.905   0.839
 1535TIP3    H2 4549   3.905   4.878   0.749
 1536TIP3   OH2 4550   3.555   5.105   0.219
 1536TIP3    H1 4551   3.480   5.046   0.222
 1536TIP3    H2 4552   3.621   5.063   0.274
 1537TIP3   OH2 4553   7.942   0.616   6.751
 1537TIP3    H1 4554   7.900   0.702   6.748
 1537TIP3    H2 4555   7.909   0.570   6.673
 1538TIP3   OH2 4556   3.514   6.069   0.149
 1538TIP3    H1 4557   3.490   6.094   0.060
 1538TIP3    H2 4558   3.607   6.093   0.156
 1539TIP3   OH2 4559   2.602   4.340   0.688
 1539TIP3    H1 4560   2.576   4.308   0.602
 1539TIP3    H2 4561   2.592   4.264   0.746
 1540TIP3   OH2 4562   2.096   5.589   0.034
 1540TIP3    H1 4563   2.022   5.642   0.066
 1540TIP3    H2 4564   2.125   5.634  -0.045
 1541TIP3   OH2 4565   2.329   6.130   1.146
 1541TIP3    H1 4566   2.410   6.138   1.196
 1541TIP3    H2 4567   2.317   6.036   1.135
 1542TIP3   OH2 4568   2.788   6.036   1.190
 1542TIP3    H1 4569   2.879   6.007   1.199
 1542TIP3    H2 4570   2.753   5.983   1.118
 1543TIP3   OH2 4571   3.400   5.981   0.963
 1543TIP3    H1 4572   3.421   5.911   1.026
 1543TIP3    H2 4573   3.473   6.043   0.972
 1544TIP3   OH2 4574   2.425   5.534   1.334
 1544TIP3    H1 4575   2.445   5.441   1.346
 1544TIP3    H2 4576   2.338   5.535   1.295
 1545TIP3   OH2 4577   3.046   5.610   1.116
 1545TIP3    H1 4578   2.998   5.628   1.036
 1545TIP3    H2 4579   3.084   5.523   1.103
 1546TIP3   OH2 4580   3.466   5.607   0.742
 1546TIP3    H1 4581   3.547   5.637   0.701
 1546TIP3    H2 4582   3.408   5.683   0.741
 1547TIP3   OH2 4583   2.539   5.279   1.342
 1547TIP3    H1 4584   2.616   5.257   1.289
 1547TIP3    H2 4585   2.574   5.295   1.430
 1548TIP3   OH2 4586   8.284   1.062   6.741
 1548TIP3    H1 4587   8.247   1.049   6.828
 1548TIP3    H2 4588   8.297   0.974   6.706
 1549TIP3   OH2 4589   2.904   5.158   0.999
 1549TIP3    H1 4590   2.819   5.200   1.009
 1549TIP3    H2 4591   2.936   5.187   0.914
 1550TIP3   OH2 4592   3.387   5.526   1.101
 1550TIP3    H1 4593   3.451   5.488   1.042
 1550TIP3    H2 4594   3.389   5.469   1.178
 1551TIP3   OH2 4595   3.005   4.927   1.108
 1551TIP3    H1 4596   3.009   4.856   1.044
 1551TIP3    H2 4597   2.972   5.002   1.060
 1552TIP3   OH2 4598   3.014   4.727   0.907
 1552TIP3    H1 4599   3.041   4.764   0.824
 1552TIP3    H2 4600   2.923   4.700   0.893
 1553TIP3   OH2 4601   3.019   5.257   0.773
 1553TIP3    H1 4602   3.107   5.295   0.764
 1553TIP3    H2 4603   2.962   5.317   0.726
 1554TIP3   OH2 4604   3.608   5.206   1.157
 1554TIP3    H1 4605   3.648   5.120   1.154
 1554TIP3    H2 4606   3.678   5.266   1.133
 1555TIP3   OH2 4607   3.590   5.452   0.924
 1555TIP3    H1 4608   3.539   5.507   0.865
 1555TIP3    H2 4609   3.679   5.452   0.887
 1556TIP3   OH2 4610   2.891   5.008   1.352
 1556TIP3    H1 4611   2.821   4.946   1.372
 1556TIP3    H2 4612   2.919   4.984   1.264
 1557TIP3   OH2 4613   3.135   4.496   1.009
 1557TIP3    H1 4614   3.095   4.576   0.976
 1557TIP3    H2 4615   3.068   4.429   0.996
 1558TIP3   OH2 4616   3.261   4.964   1.211
 1558TIP3    H1 4617   3.250   4.952   1.306
 1558TIP3    H2 4618   3.175   4.944   1.174
 1559TIP3   OH2 4619   3.510   4.922   1.086
 1559TIP3    H1 4620   3.430   4.922   1.139
 1559TIP3    H2 4621   3.580   4.897   1.147
 1560TIP3   OH2 4622   3.746   4.887   1.234
 1560TIP3    H1 4623   3.759   4.793   1.240
 1560TIP3    H2 4624   3.741   4.917   1.325
 1561TIP3   OH2 4625   2.722   4.789   1.414
 1561TIP3    H1 4626   2.728   4.700   1.379
 1561TIP3    H2 4627   2.760   4.782   1.502
 1562TIP3   OH2 4628   3.200   4.471   1.275
 1562TIP3    H1 4629   3.269   4.404   1.267
 1562TIP3    H2 4630   3.170   4.484   1.185
 1563TIP3   OH2 4631   3.297   4.685   1.419
 1563TIP3    H1 4632   3.265   4.613   1.364
 1563TIP3    H2 4633   3.224   4.748   1.420
 1564TIP3   OH2 4634   7.726   1.302   6.676
 1564TIP3    H1 4635   7.782   1.312   6.599
 1564TIP3    H2 4636   7.676   1.222   6.660
 1565TIP3   OH2 4637   1.903   5.755   0.155
 1565TIP3    H1 4638   1.825   5.702   0.172
 1565TIP3    H2 4639   1.956   5.747   0.234
 1566TIP3   OH2 4640   2.082   5.743   0.362
 1566TIP3    H1 4641   2.090   5.672   0.425
 1566TIP3    H2 4642   2.128   5.816   0.402
 1567TIP3   OH2 4643   3.748   6.172   0.459
 1567TIP3    H1 4644   3.699   6.096   0.428
 1567TIP3    H2 4645   3.835   6.163   0.419
 1568TIP3   OH2 4646   3.860   5.866   0.980
 1568TIP3    H1 4647   3.791   5.874   1.046
 1568TIP3    H2 4648   3.905   5.951   0.983
 1569TIP3   OH2 4649   3.781   5.629   0.231
 1569TIP3    H1 4650   3.851   5.629   0.166
 1569TIP3    H2 4651   3.701   5.614   0.181
 1570TIP3   OH2 4652   3.621   5.927   0.406
 1570TIP3    H1 4653   3.555   5.959   0.468
 1570TIP3    H2 4654   3.571   5.882   0.338
 1571TIP3   OH2 4655   0.713   1.079   6.880
 1571TIP3    H1 4656   0.758   0.997   6.861
 1571TIP3    H2 4657   0.737   1.101   6.970
 1572TIP3   OH2 4658   2.238   5.173   0.713
 1572TIP3    H1 4659   2.229   5.138   0.624
 1572TIP3    H2 4660   2.332   5.166   0.732
 1573TIP3   OH2 4661   3.833   5.448   0.815
 1573TIP3    H1 4662   3.914   5.397   0.823
 1573TIP3    H2 4663   3.863   5.534   0.784
 1574TIP3   OH2 4664   4.058   5.303   0.877
 1574TIP3    H1 4665   3.988   5.244   0.901
 1574TIP3    H2 4666   4.136   5.247   0.870
 1575TIP3   OH2 4667   0.803   0.826   6.800
 1575TIP3    H1 4668   0.837   0.737   6.812
 1575TIP3    H2 4669   0.834   0.852   6.713
 1576TIP3   OH2 4670   3.745   4.964   0.375
 1576TIP3    H1 4671   3.832   4.972   0.335
 1576TIP3    H2 4672   3.755   5.003   0.461
 1577TIP3   OH2 4673   3.825   5.122   0.602
 1577TIP3    H1 4674   3.750   5.163   0.646
 1577TIP3    H2 4675   3.849   5.184   0.534
 1578TIP3   OH2 4676   2.459   4.847   1.351
 1578TIP3    H1 4677   2.552   4.844   1.371
 1578TIP3    H2 4678   2.424   4.767   1.390
 1579TIP3   OH2 4679   4.305   4.735   1.118
 1579TIP3    H1 4680   4.371   4.681   1.073
 1579TIP3    H2 4681   4.265   4.786   1.047
 1580TIP3   OH2 4682   0.871   0.567   6.835
 1580TIP3    H1 4683   0.935   0.549   6.903
 1580TIP3    H2 4684   0.812   0.492   6.837
 1581TIP3   OH2 4685   2.442   4.565   0.699
 1581TIP3    H1 4686   2.494   4.486   0.708
 1581TIP3    H2 4687   2.506   4.634   0.681
 1582TIP3   OH2 4688   2.219   4.824   0.767
 1582TIP3    H1 4689   2.268   4.817   0.685
 1582TIP3    H2 4690   2.258   4.899   0.811
 1583TIP3   OH2 4691   4.150   4.852   0.927
 1583TIP3    H1 4692   4.071   4.893   0.964
 1583TIP3    H2 4693   4.117   4.783   0.870
 1584TIP3   OH2 4694   2.227   4.355   0.279
 1584TIP3    H1 4695   2.139   4.347   0.316
 1584TIP3    H2 4696   2.215   4.406   0.199
 1585TIP3   OH2 4697   2.425   4.385   1.087
 1585TIP3    H1 4698   2.377   4.383   1.170
 1585TIP3    H2 4699   2.370   4.437   1.029
 1586TIP3   OH2 4700   2.455   5.853   1.160
 1586TIP3    H1 4701   2.362   5.830   1.155
 1586TIP3    H2 4702   2.478   5.840   1.252
 1587TIP3   OH2 4703   2.668   5.894   0.713
 1587TIP3    H1 4704   2.615   5.966   0.679
 1587TIP3    H2 4705   2.753   5.904   0.670
 1588TIP3   OH2 4706   3.069   6.135   0.850
 1588TIP3    H1 4707   3.107   6.128   0.938
 1588TIP3    H2 4708   3.131   6.189   0.801
 1589TIP3   OH2 4709   3.251   6.309   0.732
 1589TIP3    H1 4710   3.321   6.311   0.667
 1589TIP3    H2 4711   3.288   6.353   0.808
 1590TIP3   OH2 4712   4.054   4.611   0.812
 1590TIP3    H1 4713   3.968   4.613   0.770
 1590TIP3    H2 4714   4.082   4.519   0.806
 1591TIP3   OH2 4715   2.337   6.130   0.765
 1591TIP3    H1 4716   2.244   6.142   0.744
 1591TIP3    H2 4717   2.357   6.199   0.828
 1592TIP3   OH2 4718   2.556   6.119   0.603
 1592TIP3    H1 4719   2.476   6.124   0.654
 1592TIP3    H2 4720   2.530   6.147   0.515
 1593TIP3   OH2 4721   2.969   6.146   0.397
 1593TIP3    H1 4722   2.892   6.163   0.343
 1593TIP3    H2 4723   2.985   6.228   0.443
 1594TIP3   OH2 4724   3.220   6.057   0.460
 1594TIP3    H1 4725   3.132   6.088   0.440
 1594TIP3    H2 4726   3.278   6.119   0.418
 1595TIP3   OH2 4727   3.407   6.219   0.359
 1595TIP3    H1 4728   3.395   6.312   0.341
 1595TIP3    H2 4729   3.450   6.185   0.280
 1596TIP3   OH2 4730   2.259   5.926   0.493
 1596TIP3    H1 4731   2.280   5.897   0.582
 1596TIP3    H2 4732   2.330   5.890   0.439
 1597TIP3   OH2 4733   2.455   5.807   0.348
 1597TIP3    H1 4734   2.464   5.720   0.386
 1597TIP3    H2 4735   2.544   5.842   0.348
 1598TIP3   OH2 4736   2.723   5.884   0.359
 1598TIP3    H1 4737   2.739   5.790   0.348
 1598TIP3    H2 4738   2.775   5.908   0.436
 1599TIP3   OH2 4739   3.266   4.537   0.444
 1599TIP3    H1 4740   3.230   4.465   0.496
 1599TIP3    H2 4741   3.335   4.497   0.391
 1600TIP3   OH2 4742   3.772   4.458   0.331
 1600TIP3    H1 4743   3.810   4.507   0.258
 1600TIP3    H2 4744   3.679   4.483   0.331
 1601TIP3   OH2 4745   3.892   4.529   0.093
 1601TIP3    H1 4746   3.961   4.470   0.063
 1601TIP3    H2 4747   3.927   4.617   0.079
 1602TIP3   OH2 4748   2.524   4.247   0.439
 1602TIP3    H1 4749   2.436   4.214   0.457
 1602TIP3    H2 4750   2.579   4.169   0.436
 1603TIP3   OH2 4751   2.304   4.121   0.137
 1603TIP3    H1 4752   2.356   4.168   0.072
 1603TIP3    H2 4753   2.281   4.188   0.202
 1604TIP3   OH2 4754   2.988   4.280   0.349
 1604TIP3    H1 4755   3.037   4.326   0.280
 1604TIP3    H2 4756   3.030   4.308   0.430
 1605TIP3   OH2 4757   3.479   4.423   0.309
 1605TIP3    H1 4758   3.498   4.390   0.222
 1605TIP3    H2 4759   3.486   4.346   0.366
 1606TIP3   OH2 4760   0.696   0.363   6.872
 1606TIP3    H1 4761   0.608   0.401   6.874
 1606TIP3    H2 4762   0.682   0.271   6.897
 1607TIP3   OH2 4763   8.101   0.228   6.859
 1607TIP3    H1 4764   8.151   0.147   6.847
 1607TIP3    H2 4765   8.167   0.296   6.866
 1608TIP3   OH2 4766   0.079   0.456   6.915
 1608TIP3    H1 4767   0.141   0.409   6.971
 1608TIP3    H2 4768   0.097   0.548   6.932
 1609TIP3   OH2 4769   2.737   4.518   1.327
 1609TIP3    H1 4770   2.702   4.452   1.386
 1609TIP3    H2 4771   2.829   4.527   1.351
 1610TIP3   OH2 4772   2.984   4.524   1.451
 1610TIP3    H1 4773   3.062   4.501   1.399
 1610TIP3    H2 4774   2.978   4.455   1.517
 1611TIP3   OH2 4775   3.807   4.615   1.237
 1611TIP3    H1 4776   3.824   4.586   1.327
 1611TIP3    H2 4777   3.892   4.610   1.194
 1612TIP3   OH2 4778   3.680   6.149   0.737
 1612TIP3    H1 4779   3.613   6.092   0.699
 1612TIP3    H2 4780   3.738   6.170   0.664
 1613TIP3   OH2 4781   4.312   5.350   0.181
 1613TIP3    H1 4782   4.324   5.278   0.243
 1613TIP3    H2 4783   4.362   5.423   0.218
 1614TIP3   OH2 4784   4.068   5.055   0.022
 1614TIP3    H1 4785   4.164   5.047   0.021
 1614TIP3    H2 4786   4.051   5.142  -0.013
 1615TIP3   OH2 4787   4.526   4.797   0.436
 1615TIP3    H1 4788   4.496   4.823   0.348
 1615TIP3    H2 4789   4.471   4.847   0.496
 1616TIP3   OH2 4790   4.463   4.888   0.188
 1616TIP3    H1 4791   4.514   4.968   0.182
 1616TIP3    H2 4792   4.450   4.860   0.097
 1617TIP3   OH2 4793   4.498   5.899   0.272
 1617TIP3    H1 4794   4.496   5.966   0.203
 1617TIP3    H2 4795   4.408   5.897   0.305
 1618TIP3   OH2 4796   4.906   4.617   0.111
 1618TIP3    H1 4797   4.855   4.537   0.095
 1618TIP3    H2 4798   4.859   4.662   0.181
 1619TIP3   OH2 4799   4.711   5.931   0.452
 1619TIP3    H1 4800   4.638   5.964   0.504
 1619TIP3    H2 4801   4.672   5.905   0.369
 1620TIP3   OH2 4802   4.469   5.499   0.644
 1620TIP3    H1 4803   4.466   5.590   0.614
 1620TIP3    H2 4804   4.413   5.452   0.582
 1621TIP3   OH2 4805   4.479   6.002   0.563
 1621TIP3    H1 4806   4.437   5.957   0.490
 1621TIP3    H2 4807   4.413   6.001   0.633
 1622TIP3   OH2 4808   4.124   5.687   0.340
 1622TIP3    H1 4809   4.074   5.629   0.283
 1622TIP3    H2 4810   4.071   5.695   0.419
 1623TIP3   OH2 4811   5.646   5.427   0.449
 1623TIP3    H1 4812   5.722   5.373   0.427
 1623TIP3    H2 4813   5.593   5.373   0.507
 1624TIP3   OH2 4814   4.243   5.945   0.362
 1624TIP3    H1 4815   4.198   6.001   0.426
 1624TIP3    H2 4816   4.198   5.861   0.369
 1625TIP3   OH2 4817   4.612   4.612   0.183
 1625TIP3    H1 4818   4.516   4.617   0.190
 1625TIP3    H2 4819   4.643   4.690   0.228
 1626TIP3   OH2 4820   5.231   4.779   0.404
 1626TIP3    H1 4821   5.289   4.749   0.474
 1626TIP3    H2 4822   5.150   4.805   0.449
 1627TIP3   OH2 4823   5.454   5.190   0.305
 1627TIP3    H1 4824   5.475   5.185   0.398
 1627TIP3    H2 4825   5.374   5.138   0.296
 1628TIP3   OH2 4826   4.579   5.139   0.182
 1628TIP3    H1 4827   4.593   5.137   0.277
 1628TIP3    H2 4828   4.578   5.232   0.160
 1629TIP3   OH2 4829   5.145   5.381   0.456
 1629TIP3    H1 4830   5.083   5.368   0.529
 1629TIP3    H2 4831   5.156   5.476   0.452
 1630TIP3   OH2 4832   4.343   5.173   0.399
 1630TIP3    H1 4833   4.320   5.259   0.434
 1630TIP3    H2 4834   4.308   5.110   0.462
 1631TIP3   OH2 4835   4.000   4.778   0.055
 1631TIP3    H1 4836   4.065   4.785   0.124
 1631TIP3    H2 4837   3.995   4.865   0.017
 1632TIP3   OH2 4838   4.401   5.810   0.761
 1632TIP3    H1 4839   4.464   5.818   0.832
 1632TIP3    H2 4840   4.316   5.810   0.805
 1633TIP3   OH2 4841   4.838   5.034   0.118
 1633TIP3    H1 4842   4.773   5.104   0.109
 1633TIP3    H2 4843   4.922   5.080   0.120
 1634TIP3   OH2 4844   4.882   5.729   0.269
 1634TIP3    H1 4845   4.955   5.739   0.330
 1634TIP3    H2 4846   4.909   5.779   0.191
 1635TIP3   OH2 4847   4.127   5.483   0.656
 1635TIP3    H1 4848   4.154   5.461   0.745
 1635TIP3    H2 4849   4.045   5.531   0.668
 1636TIP3   OH2 4850   5.008   5.541   0.645
 1636TIP3    H1 4851   4.917   5.514   0.655
 1636TIP3    H2 4852   5.004   5.613   0.582
 1637TIP3   OH2 4853   4.356   4.951   0.593
 1637TIP3    H1 4854   4.262   4.960   0.607
 1637TIP3    H2 4855   4.390   4.919   0.676
 1638TIP3   OH2 4856   4.142   6.195   0.182
 1638TIP3    H1 4857   4.164   6.121   0.126
 1638TIP3    H2 4858   4.082   6.158   0.247
 1639TIP3   OH2 4859   5.255   5.010   0.245
 1639TIP3    H1 4860   5.274   4.964   0.163
 1639TIP3    H2 4861   5.256   4.941   0.312
 1640TIP3   OH2 4862   5.070   5.224   0.241
 1640TIP3    H1 4863   5.101   5.279   0.312
 1640TIP3    H2 4864   5.139   5.160   0.227
 1641TIP3   OH2 4865   4.339   4.576   0.198
 1641TIP3    H1 4866   4.320   4.549   0.108
 1641TIP3    H2 4867   4.354   4.494   0.245
 1642TIP3   OH2 4868   4.472   6.278   0.738
 1642TIP3    H1 4869   4.470   6.193   0.783
 1642TIP3    H2 4870   4.445   6.259   0.648
 1643TIP3   OH2 4871   4.190   5.753   0.922
 1643TIP3    H1 4872   4.227   5.665   0.916
 1643TIP3    H2 4873   4.101   5.744   0.886
 1644TIP3   OH2 4874   4.945   5.822   0.532
 1644TIP3    H1 4875   4.859   5.862   0.516
 1644TIP3    H2 4876   4.954   5.823   0.627
 1645TIP3   OH2 4877   4.317   5.508   0.874
 1645TIP3    H1 4878   4.376   5.501   0.799
 1645TIP3    H2 4879   4.373   5.535   0.946
 1646TIP3   OH2 4880   4.607   5.369   0.397
 1646TIP3    H1 4881   4.584   5.441   0.456
 1646TIP3    H2 4882   4.676   5.404   0.342
 1647TIP3   OH2 4883   5.222   5.778   0.661
 1647TIP3    H1 4884   5.287   5.708   0.651
 1647TIP3    H2 4885   5.187   5.765   0.749
 1648TIP3   OH2 4886   4.745   5.129   0.712
 1648TIP3    H1 4887   4.773   5.037   0.717
 1648TIP3    H2 4888   4.708   5.138   0.624
 1649TIP3   OH2 4889   4.782   4.909   0.545
 1649TIP3    H1 4890   4.856   4.943   0.495
 1649TIP3    H2 4891   4.708   4.962   0.516
 1650TIP3   OH2 4892   4.853   5.459   0.288
 1650TIP3    H1 4893   4.944   5.454   0.257
 1650TIP3    H2 4894   4.827   5.550   0.272
 1651TIP3   OH2 4895   5.378   5.307   0.695
 1651TIP3    H1 4896   5.333   5.267   0.621
 1651TIP3    H2 4897   5.384   5.400   0.673
 1652TIP3   OH2 4898   4.639   5.305   0.889
 1652TIP3    H1 4899   4.561   5.286   0.942
 1652TIP3    H2 4900   4.647   5.229   0.831
 1653TIP3   OH2 4901   4.846   4.652   0.589
 1653TIP3    H1 4902   4.817   4.742   0.578
 1653TIP3    H2 4903   4.779   4.599   0.545
 1654TIP3   OH2 4904   5.059   5.173   0.702
 1654TIP3    H1 4905   5.085   5.202   0.789
 1654TIP3    H2 4906   4.965   5.186   0.698
 1655TIP3   OH2 4907   5.267   5.118   0.526
 1655TIP3    H1 4908   5.187   5.150   0.567
 1655TIP3    H2 4909   5.307   5.062   0.593
 1656TIP3   OH2 4910   5.674   5.150   0.840
 1656TIP3    H1 4911   5.668   5.058   0.866
 1656TIP3    H2 4912   5.607   5.194   0.892
 1657TIP3   OH2 4913   4.504   5.033   0.921
 1657TIP3    H1 4914   4.516   4.947   0.880
 1657TIP3    H2 4915   4.553   5.028   1.003
 1658TIP3   OH2 4916   5.005   4.704   0.801
 1658TIP3    H1 4917   5.072   4.636   0.805
 1658TIP3    H2 4918   4.947   4.676   0.730
 1659TIP3   OH2 4919   5.076   4.936   0.934
 1659TIP3    H1 4920   5.037   4.857   0.895
 1659TIP3    H2 4921   5.004   4.999   0.937
 1660TIP3   OH2 4922   4.047   5.424   0.223
 1660TIP3    H1 4923   4.022   5.412   0.131
 1660TIP3    H2 4924   4.139   5.401   0.226
 1661TIP3   OH2 4925   4.245   5.102   0.858
 1661TIP3    H1 4926   4.340   5.101   0.875
 1661TIP3    H2 4927   4.214   5.018   0.891
 1662TIP3   OH2 4928   6.015   5.115   0.647
 1662TIP3    H1 4929   6.069   5.036   0.638
 1662TIP3    H2 4930   6.068   5.185   0.609
 1663TIP3   OH2 4931   4.196   4.800   0.247
 1663TIP3    H1 4932   4.241   4.716   0.237
 1663TIP3    H2 4933   4.265   4.865   0.242
 1664TIP3   OH2 4934   3.994   5.037   0.289
 1664TIP3    H1 4935   4.021   5.043   0.198
 1664TIP3    H2 4936   3.975   5.128   0.314
 1665TIP3   OH2 4937   5.783   5.064   0.389
 1665TIP3    H1 4938   5.694   5.098   0.390
 1665TIP3    H2 4939   5.788   5.015   0.307
 1666TIP3   OH2 4940   4.209   4.624   0.575
 1666TIP3    H1 4941   4.166   4.628   0.661
 1666TIP3    H2 4942   4.159   4.684   0.520
 1667TIP3   OH2 4943   5.826   4.903   0.175
 1667TIP3    H1 4944   5.780   4.822   0.153
 1667TIP3    H2 4945   5.919   4.879   0.173
 1668TIP3   OH2 4946   4.267   6.426   0.246
 1668TIP3    H1 4947   4.212   6.488   0.197
 1668TIP3    H2 4948   4.234   6.340   0.221
 1669TIP3   OH2 4949   1.456   0.472   6.890
 1669TIP3    H1 4950   1.368   0.435   6.891
 1669TIP3    H2 4951   1.513   0.397   6.873
 1670TIP3   OH2 4952   4.529   4.773   0.815
 1670TIP3    H1 4953   4.497   4.702   0.871
 1670TIP3    H2 4954   4.622   4.780   0.836
 1671TIP3   OH2 4955   4.775   4.779   0.950
 1671TIP3    H1 4956   4.854   4.745   0.907
 1671TIP3    H2 4957   4.756   4.714   1.018
 1672TIP3   OH2 4958   5.529   4.747   0.812
 1672TIP3    H1 4959   5.579   4.730   0.891
 1672TIP3    H2 4960   5.587   4.799   0.757
 1673TIP3   OH2 4961   0.357   6.038   1.777
 1673TIP3    H1 4962   0.412   5.970   1.740
 1673TIP3    H2 4963   0.272   5.996   1.791
 1674TIP3   OH2 4964   1.889   6.351   0.616
 1674TIP3    H1 4965   1.912   6.433   0.660
 1674TIP3    H2 4966   1.883   6.375   0.523
 1675TIP3   OH2 4967   1.957   6.587   0.739
 1675TIP3    H1 4968   1.928   6.632   0.660
 1675TIP3    H2 4969   1.942   6.651   0.809
 1676TIP3   OH2 4970   1.691   6.237   0.772
 1676TIP3    H1 4971   1.617   6.297   0.763
 1676TIP3    H2 4972   1.756   6.267   0.709
 1677TIP3   OH2 4973   1.695   6.759   1.108
 1677TIP3    H1 4974   1.641   6.814   1.051
 1677TIP3    H2 4975   1.712   6.680   1.056
 1678TIP3   OH2 4976   1.227   6.116   1.116
 1678TIP3    H1 4977   1.299   6.087   1.172
 1678TIP3    H2 4978   1.150   6.072   1.151
 1679TIP3   OH2 4979   1.513   6.429   0.973
 1679TIP3    H1 4980   1.477   6.433   1.061
 1679TIP3    H2 4981   1.479   6.507   0.929
 1680TIP3   OH2 4982   1.204   6.751   1.292
 1680TIP3    H1 4983   1.182   6.660   1.310
 1680TIP3    H2 4984   1.250   6.780   1.370
 1681TIP3   OH2 4985   1.343   6.226   0.894
 1681TIP3    H1 4986   1.419   6.279   0.918
 1681TIP3    H2 4987   1.314   6.186   0.976
 1682TIP3   OH2 4988   1.759   6.542   0.949
 1682TIP3    H1 4989   1.681   6.488   0.959
 1682TIP3    H2 4990   1.806   6.505   0.875
 1683TIP3   OH2 4991   1.157   7.132   1.369
 1683TIP3    H1 4992   1.245   7.116   1.336
 1683TIP3    H2 4993   1.170   7.184   1.449
 1684TIP3   OH2 4994   1.543   6.730   1.336
 1684TIP3    H1 4995   1.559   6.636   1.349
 1684TIP3    H2 4996   1.594   6.752   1.258
 1685TIP3   OH2 4997   1.569   6.955   0.967
 1685TIP3    H1 4998   1.491   6.987   0.922
 1685TIP3    H2 4999   1.627   7.031   0.972
 1686TIP3   OH2 5000   0.974   5.999   1.150
 1686TIP3    H1 5001   0.902   6.042   1.103
 1686TIP3    H2 5002   0.955   5.906   1.144
 1687TIP3   OH2 5003   1.165   6.487   1.366
 1687TIP3    H1 5004   1.191   6.476   1.458
 1687TIP3    H2 5005   1.070   6.488   1.367
 1688TIP3   OH2 5006   1.387   6.481   1.205
 1688TIP3    H1 5007   1.306   6.478   1.256
 1688TIP3    H2 5008   1.457   6.467   1.268
 1689TIP3   OH2 5009   1.600   6.450   1.384
 1689TIP3    H1 5010   1.611   6.355   1.386
 1689TIP3    H2 5011   1.591   6.475   1.476
 1690TIP3   OH2 5012   1.059   6.043   1.413
 1690TIP3    H1 5013   1.124   5.974   1.406
 1690TIP3    H2 5014   1.007   6.036   1.332
 1691TIP3   OH2 5015   1.120   6.246   1.584
 1691TIP3    H1 5016   1.103   6.175   1.522
 1691TIP3    H2 5017   1.042   6.302   1.578
 1692TIP3   OH2 5018   1.722   7.418   1.100
 1692TIP3    H1 5019   1.653   7.390   1.159
 1692TIP3    H2 5020   1.720   7.513   1.105
 1693TIP3   OH2 5021   1.815   7.100   0.896
 1693TIP3    H1 5022   1.846   7.012   0.918
 1693TIP3    H2 5023   1.882   7.135   0.837
 1694TIP3   OH2 5024   1.915   6.857   0.963
 1694TIP3    H1 5025   1.851   6.824   1.026
 1694TIP3    H2 5026   1.995   6.807   0.982
 1695TIP3   OH2 5027   2.151   6.299   1.266
 1695TIP3    H1 5028   2.216   6.240   1.227
 1695TIP3    H2 5029   2.119   6.352   1.193
 1696TIP3   OH2 5030   2.010   6.425   1.067
 1696TIP3    H1 5031   1.939   6.465   1.118
 1696TIP3    H2 5032   1.969   6.351   1.022
 1697TIP3   OH2 5033   1.905   6.178   0.968
 1697TIP3    H1 5034   1.822   6.179   0.921
 1697TIP3    H2 5035   1.933   6.086   0.965
 1698TIP3   OH2 5036   1.729   5.953   0.424
 1698TIP3    H1 5037   1.777   6.033   0.402
 1698TIP3    H2 5038   1.637   5.980   0.425
 1699TIP3   OH2 5039   1.282   6.899   1.082
 1699TIP3    H1 5040   1.252   6.846   1.156
 1699TIP3    H2 5041   1.331   6.838   1.027
 1700TIP3   OH2 5042   0.827   6.092   1.662
 1700TIP3    H1 5043   0.900   6.059   1.609
 1700TIP3    H2 5044   0.795   6.016   1.710
 1701TIP3   OH2 5045   1.656   6.176   1.386
 1701TIP3    H1 5046   1.669   6.146   1.476
 1701TIP3    H2 5047   1.742   6.169   1.346
 1702TIP3   OH2 5048   2.205   6.965   0.430
 1702TIP3    H1 5049   2.219   6.896   0.495
 1702TIP3    H2 5050   2.276   6.953   0.366
 1703TIP3   OH2 5051   2.391   6.471   0.084
 1703TIP3    H1 5052   2.401   6.517  -0.000
 1703TIP3    H2 5053   2.398   6.378   0.062
 1704TIP3   OH2 5054   3.700   6.794   0.180
 1704TIP3    H1 5055   3.664   6.882   0.192
 1704TIP3    H2 5056   3.722   6.765   0.268
 1705TIP3   OH2 5057   2.394   6.445   0.522
 1705TIP3    H1 5058   2.342   6.486   0.454
 1705TIP3    H2 5059   2.342   6.456   0.602
 1706TIP3   OH2 5060   2.518   7.248   0.315
 1706TIP3    H1 5061   2.423   7.257   0.307
 1706TIP3    H2 5062   2.553   7.315   0.257
 1707TIP3   OH2 5063   2.269   6.568   0.311
 1707TIP3    H1 5064   2.326   6.642   0.333
 1707TIP3    H2 5065   2.308   6.530   0.232
 1708TIP3   OH2 5066   3.338   6.490   0.329
 1708TIP3    H1 5067   3.246   6.481   0.304
 1708TIP3    H2 5068   3.382   6.520   0.249
 1709TIP3   OH2 5069   2.724   6.138   0.244
 1709TIP3    H1 5070   2.724   6.049   0.279
 1709TIP3    H2 5071   2.647   6.180   0.284
 1710TIP3   OH2 5072   3.166   7.062   0.429
 1710TIP3    H1 5073   3.166   7.125   0.501
 1710TIP3    H2 5074   3.077   7.068   0.392
 1711TIP3   OH2 5075   2.411   6.999   0.208
 1711TIP3    H1 5076   2.429   6.975   0.117
 1711TIP3    H2 5077   2.475   7.067   0.228
 1712TIP3   OH2 5078   2.567   7.453   0.521
 1712TIP3    H1 5079   2.489   7.507   0.530
 1712TIP3    H2 5080   2.549   7.395   0.447
 1713TIP3   OH2 5081   2.327   7.106   0.688
 1713TIP3    H1 5082   2.332   7.190   0.734
 1713TIP3    H2 5083   2.233   7.090   0.677
 1714TIP3   OH2 5084   3.440   7.001   0.425
 1714TIP3    H1 5085   3.347   7.020   0.439
 1714TIP3    H2 5086   3.449   6.909   0.452
 1715TIP3   OH2 5087   2.111   7.402   0.628
 1715TIP3    H1 5088   2.156   7.359   0.701
 1715TIP3    H2 5089   2.023   7.365   0.629
 1716TIP3   OH2 5090   2.493   6.240   0.363
 1716TIP3    H1 5091   2.407   6.211   0.335
 1716TIP3    H2 5092   2.477   6.320   0.414
 1717TIP3   OH2 5093   3.029   6.348   0.570
 1717TIP3    H1 5094   3.103   6.342   0.630
 1717TIP3    H2 5095   2.953   6.327   0.625
 1718TIP3   OH2 5096   3.178   6.785   0.429
 1718TIP3    H1 5097   3.192   6.762   0.520
 1718TIP3    H2 5098   3.176   6.881   0.429
 1719TIP3   OH2 5099   2.438   6.778   0.367
 1719TIP3    H1 5100   2.453   6.818   0.453
 1719TIP3    H2 5101   2.437   6.851   0.305
 1720TIP3   OH2 5102   3.014   6.973   0.687
 1720TIP3    H1 5103   2.989   6.911   0.756
 1720TIP3    H2 5104   3.108   6.962   0.678
 1721TIP3   OH2 5105   2.253   6.773   0.625
 1721TIP3    H1 5106   2.338   6.805   0.655
 1721TIP3    H2 5107   2.245   6.686   0.664
 1722TIP3   OH2 5108   2.933   6.971   0.279
 1722TIP3    H1 5109   2.901   6.920   0.205
 1722TIP3    H2 5110   2.923   6.914   0.355
 1723TIP3   OH2 5111   2.696   6.510  -0.005
 1723TIP3    H1 5112   2.629   6.500   0.062
 1723TIP3    H2 5113   2.764   6.447   0.020
 1724TIP3   OH2 5114   3.086   6.474   0.205
 1724TIP3    H1 5115   3.042   6.524   0.275
 1724TIP3    H2 5116   3.014   6.442   0.151
 1725TIP3   OH2 5117   2.284   7.339   0.836
 1725TIP3    H1 5118   2.364   7.353   0.886
 1725TIP3    H2 5119   2.214   7.339   0.901
 1726TIP3   OH2 5120   2.817   6.775   0.119
 1726TIP3    H1 5121   2.807   6.719   0.042
 1726TIP3    H2 5122   2.780   6.724   0.191
 1727TIP3   OH2 5123   2.403   6.207   0.013
 1727TIP3    H1 5124   2.341   6.137   0.034
 1727TIP3    H2 5125   2.484   6.161  -0.008
 1728TIP3   OH2 5126   2.691   6.672   0.344
 1728TIP3    H1 5127   2.603   6.709   0.348
 1728TIP3    H2 5128   2.745   6.731   0.396
 1729TIP3   OH2 5129   2.848   7.415   0.507
 1729TIP3    H1 5130   2.873   7.410   0.599
 1729TIP3    H2 5131   2.759   7.450   0.508
 1730TIP3   OH2 5132   2.055   7.053   0.750
 1730TIP3    H1 5133   2.104   7.043   0.832
 1730TIP3    H2 5134   2.035   6.964   0.723
 1731TIP3   OH2 5135   2.778   7.125   0.722
 1731TIP3    H1 5136   2.740   7.112   0.636
 1731TIP3    H2 5137   2.867   7.091   0.714
 1732TIP3   OH2 5138   2.231   6.510   0.737
 1732TIP3    H1 5139   2.137   6.525   0.750
 1732TIP3    H2 5140   2.258   6.461   0.814
 1733TIP3   OH2 5141   2.990   6.584   0.435
 1733TIP3    H1 5142   3.069   6.638   0.442
 1733TIP3    H2 5143   3.008   6.508   0.491
 1734TIP3   OH2 5144   2.866   6.820   0.500
 1734TIP3    H1 5145   2.911   6.868   0.570
 1734TIP3    H2 5146   2.914   6.737   0.494
 1735TIP3   OH2 5147   3.466   6.724   0.477
 1735TIP3    H1 5148   3.409   6.649   0.461
 1735TIP3    H2 5149   3.533   6.718   0.409
 1736TIP3   OH2 5150   2.230   6.155   0.338
 1736TIP3    H1 5151   2.214   6.114   0.253
 1736TIP3    H2 5152   2.232   6.082   0.400
 1737TIP3   OH2 5153   2.076   7.292   1.008
 1737TIP3    H1 5154   2.117   7.207   0.992
 1737TIP3    H2 5155   2.004   7.273   1.068
 1738TIP3   OH2 5156   2.655   7.378   0.769
 1738TIP3    H1 5157   2.628   7.401   0.680
 1738TIP3    H2 5158   2.714   7.303   0.758
 1739TIP3   OH2 5159   3.090   7.393   0.383
 1739TIP3    H1 5160   3.131   7.479   0.391
 1739TIP3    H2 5161   2.998   7.407   0.406
 1740TIP3   OH2 5162   2.219   7.052   0.975
 1740TIP3    H1 5163   2.300   7.019   0.938
 1740TIP3    H2 5164   2.243   7.079   1.064
 1741TIP3   OH2 5165   2.504   6.922   0.593
 1741TIP3    H1 5166   2.446   6.988   0.631
 1741TIP3    H2 5167   2.575   6.972   0.554
 1742TIP3   OH2 5168   2.985   7.351   0.764
 1742TIP3    H1 5169   3.058   7.325   0.709
 1742TIP3    H2 5170   2.997   7.301   0.845
 1743TIP3   OH2 5171   2.639   6.740   0.760
 1743TIP3    H1 5172   2.652   6.660   0.709
 1743TIP3    H2 5173   2.607   6.803   0.696
 1744TIP3   OH2 5174   2.650   6.524   0.577
 1744TIP3    H1 5175   2.684   6.557   0.493
 1744TIP3    H2 5176   2.560   6.498   0.558
 1745TIP3   OH2 5177   2.686   7.079   0.461
 1745TIP3    H1 5178   2.764   7.063   0.408
 1745TIP3    H2 5179   2.638   7.147   0.413
 1746TIP3   OH2 5180   3.271   7.034   0.919
 1746TIP3    H1 5181   3.275   6.959   0.860
 1746TIP3    H2 5182   3.317   7.104   0.872
 1747TIP3   OH2 5183   3.198   7.280   0.602
 1747TIP3    H1 5184   3.155   7.323   0.528
 1747TIP3    H2 5185   3.291   7.279   0.579
 1748TIP3   OH2 5186   2.508   6.835   0.986
 1748TIP3    H1 5187   2.452   6.762   1.011
 1748TIP3    H2 5188   2.549   6.807   0.904
 1749TIP3   OH2 5189   2.770   6.290   0.657
 1749TIP3    H1 5190   2.730   6.373   0.631
 1749TIP3    H2 5191   2.702   6.224   0.638
 1750TIP3   OH2 5192   2.912   6.776   0.848
 1750TIP3    H1 5193   2.925   6.770   0.942
 1750TIP3    H2 5194   2.819   6.761   0.835
 1751TIP3   OH2 5195   3.122   6.674   0.690
 1751TIP3    H1 5196   3.048   6.694   0.747
 1751TIP3    H2 5197   3.199   6.678   0.748
 1752TIP3   OH2 5198   3.340   6.692   0.869
 1752TIP3    H1 5199   3.362   6.599   0.879
 1752TIP3    H2 5200   3.335   6.725   0.959
 1753TIP3   OH2 5201   2.374   6.601   1.056
 1753TIP3    H1 5202   2.378   6.513   1.018
 1753TIP3    H2 5203   2.412   6.592   1.143
 1754TIP3   OH2 5204   2.837   6.279   0.920
 1754TIP3    H1 5205   2.912   6.219   0.915
 1754TIP3    H2 5206   2.807   6.286   0.829
 1755TIP3   OH2 5207   2.921   6.499   1.063
 1755TIP3    H1 5208   2.895   6.425   1.007
 1755TIP3    H2 5209   2.847   6.560   1.058
 1756TIP3   OH2 5210   3.406   7.745   0.676
 1756TIP3    H1 5211   3.336   7.728   0.739
 1756TIP3    H2 5212   3.432   7.836   0.693
 1757TIP3   OH2 5213   3.425   7.337   0.462
 1757TIP3    H1 5214   3.506   7.294   0.489
 1757TIP3    H2 5215   3.418   7.317   0.368
 1758TIP3   OH2 5216   3.648   7.189   0.532
 1758TIP3    H1 5217   3.670   7.099   0.509
 1758TIP3    H2 5218   3.721   7.241   0.498
 1759TIP3   OH2 5219   2.115   6.680   1.013
 1759TIP3    H1 5220   2.209   6.666   1.026
 1759TIP3    H2 5221   2.075   6.595   1.034
 1760TIP3   OH2 5222   3.930   6.563   0.853
 1760TIP3    H1 5223   3.958   6.474   0.830
 1760TIP3    H2 5224   3.965   6.618   0.782
 1761TIP3   OH2 5225   2.051   6.365   0.344
 1761TIP3    H1 5226   2.113   6.291   0.349
 1761TIP3    H2 5227   2.097   6.437   0.387
 1762TIP3   OH2 5228   3.760   6.655   0.404
 1762TIP3    H1 5229   3.749   6.669   0.498
 1762TIP3    H2 5230   3.731   6.565   0.389
 1763TIP3   OH2 5231   2.072   6.183   0.734
 1763TIP3    H1 5232   2.029   6.183   0.819
 1763TIP3    H2 5233   2.014   6.235   0.678
 1764TIP3   OH2 5234   3.630   6.421   0.372
 1764TIP3    H1 5235   3.561   6.426   0.439
 1764TIP3    H2 5236   3.680   6.343   0.396
 1765TIP3   OH2 5237   2.877   6.314   0.088
 1765TIP3    H1 5238   2.823   6.261   0.147
 1765TIP3    H2 5239   2.952   6.259   0.068
 1766TIP3   OH2 5240   2.176   6.055   0.085
 1766TIP3    H1 5241   2.081   6.043   0.095
 1766TIP3    H2 5242   2.212   5.966   0.089
 1767TIP3   OH2 5243   8.302   2.054   6.929
 1767TIP3    H1 5244   8.377   2.041   6.871
 1767TIP3    H2 5245   8.340   2.079   7.013
 1768TIP3   OH2 5246   2.373   6.333   0.961
 1768TIP3    H1 5247   2.338   6.268   1.021
 1768TIP3    H2 5248   2.466   6.341   0.985
 1769TIP3   OH2 5249   2.618   6.336   1.086
 1769TIP3    H1 5250   2.698   6.314   1.037
 1769TIP3    H2 5251   2.613   6.268   1.154
 1770TIP3   OH2 5252   3.419   6.435   0.911
 1770TIP3    H1 5253   3.444   6.402   0.997
 1770TIP3    H2 5254   3.502   6.449   0.865
 1771TIP3   OH2 5255   3.906   7.547   0.376
 1771TIP3    H1 5256   3.869   7.476   0.429
 1771TIP3    H2 5257   3.839   7.565   0.310
 1772TIP3   OH2 5258   3.900   7.284   0.487
 1772TIP3    H1 5259   3.944   7.206   0.451
 1772TIP3    H2 5260   3.966   7.326   0.541
 1773TIP3   OH2 5261   4.354   7.035   0.348
 1773TIP3    H1 5262   4.333   7.079   0.431
 1773TIP3    H2 5263   4.443   7.002   0.360
 1774TIP3   OH2 5264   4.182   6.879   0.536
 1774TIP3    H1 5265   4.245   6.857   0.468
 1774TIP3    H2 5266   4.233   6.881   0.617
 1775TIP3   OH2 5267   4.680   6.774   0.506
 1775TIP3    H1 5268   4.707   6.708   0.442
 1775TIP3    H2 5269   4.628   6.836   0.457
 1776TIP3   OH2 5270   3.967   6.836   0.361
 1776TIP3    H1 5271   4.046   6.822   0.413
 1776TIP3    H2 5272   3.926   6.749   0.358
 1777TIP3   OH2 5273   3.752   6.538   0.096
 1777TIP3    H1 5274   3.759   6.499   0.183
 1777TIP3    H2 5275   3.726   6.629   0.112
 1778TIP3   OH2 5276   4.151   6.585   0.450
 1778TIP3    H1 5277   4.166   6.514   0.387
 1778TIP3    H2 5278   4.233   6.635   0.450
 1779TIP3   OH2 5279   4.444   6.598   0.724
 1779TIP3    H1 5280   4.479   6.548   0.651
 1779TIP3    H2 5281   4.390   6.535   0.773
 1780TIP3   OH2 5282   1.312   0.007   3.953
 1780TIP3    H1 5283   1.348  -0.055   4.017
 1780TIP3    H2 5284   1.388   0.055   3.920
 1781TIP3   OH2 5285   1.081   0.457   3.942
 1781TIP3    H1 5286   1.146   0.389   3.926
 1781TIP3    H2 5287   1.072   0.460   4.038
 1782TIP3   OH2 5288   7.848   7.615   4.489
 1782TIP3    H1 5289   7.752   7.608   4.487
 1782TIP3    H2 5290   7.870   7.615   4.582
 1783TIP3   OH2 5291   1.322   0.302   4.015
 1783TIP3    H1 5292   1.277   0.227   4.054
 1783TIP3    H2 5293   1.409   0.269   3.991
 1784TIP3   OH2 5294   1.796   0.184   4.535
 1784TIP3    H1 5295   1.832   0.134   4.462
 1784TIP3    H2 5296   1.714   0.219   4.501
 1785TIP3   OH2 5297   7.689   7.825   4.334
 1785TIP3    H1 5298   7.618   7.765   4.358
 1785TIP3    H2 5299   7.716   7.797   4.246
 1786TIP3   OH2 5300   1.178   0.149   4.210
 1786TIP3    H1 5301   1.132   0.232   4.216
 1786TIP3    H2 5302   1.229   0.144   4.291
 1787TIP3   OH2 5303   1.938   0.626   4.564
 1787TIP3    H1 5304   1.950   0.531   4.559
 1787TIP3    H2 5305   1.850   0.636   4.600
 1788TIP3   OH2 5306   1.049   0.298   4.646
 1788TIP3    H1 5307   1.122   0.250   4.685
 1788TIP3    H2 5308   0.988   0.312   4.718
 1789TIP3   OH2 5309   7.458   7.698   4.900
 1789TIP3    H1 5310   7.408   7.777   4.879
 1789TIP3    H2 5311   7.395   7.640   4.944
 1790TIP3   OH2 5312   1.634   0.926   4.626
 1790TIP3    H1 5313   1.622   0.939   4.532
 1790TIP3    H2 5314   1.714   0.973   4.648
 1791TIP3   OH2 5315   7.299   7.906   4.352
 1791TIP3    H1 5316   7.369   7.971   4.356
 1791TIP3    H2 5317   7.220   7.953   4.377
 1792TIP3   OH2 5318   1.400   0.375   4.597
 1792TIP3    H1 5319   1.354   0.292   4.590
 1792TIP3    H2 5320   1.391   0.400   4.690
 1793TIP3   OH2 5321   2.002   0.359   4.562
 1793TIP3    H1 5322   1.918   0.316   4.574
 1793TIP3    H2 5323   2.035   0.326   4.479
 1794TIP3   OH2 5324   7.108   7.856   4.124
 1794TIP3    H1 5325   7.084   7.842   4.215
 1794TIP3    H2 5326   7.185   7.800   4.110
 1795TIP3   OH2 5327   0.914   0.455   4.453
 1795TIP3    H1 5328   0.914   0.549   4.472
 1795TIP3    H2 5329   0.972   0.417   4.519
 1796TIP3   OH2 5330   1.296   0.140   4.461
 1796TIP3    H1 5331   1.293   0.061   4.515
 1796TIP3    H2 5332   1.389   0.158   4.449
 1797TIP3   OH2 5333   1.499   0.617   4.427
 1797TIP3    H1 5334   1.443   0.543   4.402
 1797TIP3    H2 5335   1.458   0.693   4.386
 1798TIP3   OH2 5336   1.521   0.686   4.064
 1798TIP3    H1 5337   1.475   0.665   3.983
 1798TIP3    H2 5338   1.614   0.689   4.038
 1799TIP3   OH2 5339   1.442   0.361   4.879
 1799TIP3    H1 5340   1.450   0.328   4.969
 1799TIP3    H2 5341   1.463   0.454   4.886
 1800TIP3   OH2 5342   1.573   0.157   4.716
 1800TIP3    H1 5343   1.659   0.163   4.674
 1800TIP3    H2 5344   1.546   0.247   4.728
 1801TIP3   OH2 5345   7.314   7.932   4.830
 1801TIP3    H1 5346   7.256   8.004   4.804
 1801TIP3    H2 5347   7.396   7.950   4.785
 1802TIP3   OH2 5348   1.787   0.638   4.040
 1802TIP3    H1 5349   1.811   0.677   4.124
 1802TIP3    H2 5350   1.848   0.677   3.977
 1803TIP3   OH2 5351   1.810   0.717   4.310
 1803TIP3    H1 5352   1.785   0.628   4.336
 1803TIP3    H2 5353   1.889   0.736   4.360
 1804TIP3   OH2 5354   1.802   0.370   4.878
 1804TIP3    H1 5355   1.738   0.378   4.949
 1804TIP3    H2 5356   1.855   0.450   4.886
 1805TIP3   OH2 5357   1.752   0.163   4.110
 1805TIP3    H1 5358   1.825   0.145   4.050
 1805TIP3    H2 5359   1.732   0.255   4.095
 1806TIP3   OH2 5360   1.722   0.465   4.377
 1806TIP3    H1 5361   1.643   0.513   4.403
 1806TIP3    H2 5362   1.702   0.429   4.291
 1807TIP3   OH2 5363   7.543   8.007   4.715
 1807TIP3    H1 5364   7.626   7.960   4.707
 1807TIP3    H2 5365   7.544   8.068   4.640
 1808TIP3   OH2 5366   7.744   7.837   4.780
 1808TIP3    H1 5367   7.730   7.843   4.874
 1808TIP3    H2 5368   7.819   7.778   4.770
 1809TIP3   OH2 5369   7.315   7.454   4.280
 1809TIP3    H1 5370   7.334   7.390   4.211
 1809TIP3    H2 5371   7.374   7.527   4.261
 1810TIP3   OH2 5372   7.465   7.688   4.401
 1810TIP3    H1 5373   7.388   7.744   4.410
 1810TIP3    H2 5374   7.495   7.674   4.491
 1811TIP3   OH2 5375   1.254   0.550   3.596
 1811TIP3    H1 5376   1.292   0.472   3.556
 1811TIP3    H2 5377   1.320   0.579   3.659
 1812TIP3   OH2 5378   0.967   0.651   4.797
 1812TIP3    H1 5379   1.013   0.630   4.878
 1812TIP3    H2 5380   1.028   0.707   4.749
 1813TIP3   OH2 5381   1.193   0.784   4.686
 1813TIP3    H1 5382   1.163   0.828   4.607
 1813TIP3    H2 5383   1.260   0.843   4.722
 1814TIP3   OH2 5384   0.978   0.661   4.168
 1814TIP3    H1 5385   0.886   0.633   4.169
 1814TIP3    H2 5386   0.989   0.711   4.249
 1815TIP3   OH2 5387   1.239   0.589   4.153
 1815TIP3    H1 5388   1.145   0.610   4.149
 1815TIP3    H2 5389   1.281   0.674   4.167
 1816TIP3   OH2 5390   1.379   0.808   4.255
 1816TIP3    H1 5391   1.374   0.900   4.228
 1816TIP3    H2 5392   1.436   0.767   4.190
 1817TIP3   OH2 5393   1.673   0.655   4.650
 1817TIP3    H1 5394   1.609   0.621   4.587
 1817TIP3    H2 5395   1.656   0.750   4.651
 1818TIP3   OH2 5396   2.931   0.022   3.385
 1818TIP3    H1 5397   2.894   0.108   3.362
 1818TIP3    H2 5398   2.869  -0.041   3.348
 1819TIP3   OH2 5399   2.947   0.039   3.770
 1819TIP3    H1 5400   2.979   0.006   3.854
 1819TIP3    H2 5401   2.885  -0.027   3.740
 1820TIP3   OH2 5402   7.924   7.946   4.142
 1820TIP3    H1 5403   7.957   7.916   4.227
 1820TIP3    H2 5404   8.003   7.967   4.092
 1821TIP3   OH2 5405   3.114   0.319   3.579
 1821TIP3    H1 5406   3.119   0.317   3.484
 1821TIP3    H2 5407   3.137   0.409   3.602
 1822TIP3   OH2 5408   2.211   0.312   3.854
 1822TIP3    H1 5409   2.201   0.217   3.854
 1822TIP3    H2 5410   2.305   0.327   3.841
 1823TIP3   OH2 5411   7.669   7.938   3.815
 1823TIP3    H1 5412   7.683   7.863   3.757
 1823TIP3    H2 5413   7.753   7.983   3.818
 1824TIP3   OH2 5414   2.849   0.768   3.476
 1824TIP3    H1 5415   2.886   0.694   3.429
 1824TIP3    H2 5416   2.858   0.745   3.569
 1825TIP3   OH2 5417   0.360   7.754   3.850
 1825TIP3    H1 5418   0.430   7.689   3.858
 1825TIP3    H2 5419   0.303   7.719   3.781
 1826TIP3   OH2 5420   8.092   7.397   3.860
 1826TIP3    H1 5421   8.125   7.363   3.777
 1826TIP3    H2 5422   8.020   7.337   3.883
 1827TIP3   OH2 5423   0.290   7.514   3.501
 1827TIP3    H1 5424   0.369   7.460   3.503
 1827TIP3    H2 5425   0.279   7.535   3.408
 1828TIP3   OH2 5426   7.839   7.611   3.865
 1828TIP3    H1 5427   7.932   7.616   3.888
 1828TIP3    H2 5428   7.833   7.656   3.780
 1829TIP3   OH2 5429   8.213   7.817   3.756
 1829TIP3    H1 5430   8.308   7.805   3.763
 1829TIP3    H2 5431   8.181   7.733   3.721
 1830TIP3   OH2 5432   0.988   7.828   3.971
 1830TIP3    H1 5433   0.894   7.844   3.977
 1830TIP3    H2 5434   1.020   7.843   4.060
 1831TIP3   OH2 5435   2.828   0.247   3.265
 1831TIP3    H1 5436   2.796   0.216   3.180
 1831TIP3    H2 5437   2.774   0.324   3.283
 1832TIP3   OH2 5438   2.636   0.192   4.012
 1832TIP3    H1 5439   2.563   0.247   4.039
 1832TIP3    H2 5440   2.714   0.247   4.025
 1833TIP3   OH2 5441   8.081   7.633   3.988
 1833TIP3    H1 5442   8.156   7.659   4.041
 1833TIP3    H2 5443   8.109   7.552   3.945
 1834TIP3   OH2 5444   2.443   0.366   4.105
 1834TIP3    H1 5445   2.429   0.456   4.075
 1834TIP3    H2 5446   2.369   0.349   4.164
 1835TIP3   OH2 5447   3.173   0.599   3.648
 1835TIP3    H1 5448   3.100   0.641   3.694
 1835TIP3    H2 5449   3.204   0.666   3.587
 1836TIP3   OH2 5450   2.963   0.584   3.307
 1836TIP3    H1 5451   3.014   0.503   3.300
 1836TIP3    H2 5452   3.018   0.650   3.265
 1837TIP3   OH2 5453   3.086   0.337   3.275
 1837TIP3    H1 5454   3.126   0.309   3.192
 1837TIP3    H2 5455   2.998   0.298   3.273
 1838TIP3   OH2 5456   3.493   0.466   3.974
 1838TIP3    H1 5457   3.475   0.395   3.913
 1838TIP3    H2 5458   3.467   0.545   3.926
 1839TIP3   OH2 5459   8.435   7.881   3.222
 1839TIP3    H1 5460   8.353   7.920   3.191
 1839TIP3    H2 5461   8.485   7.865   3.143
 1840TIP3   OH2 5462   3.668   0.122   3.819
 1840TIP3    H1 5463   3.589   0.175   3.823
 1840TIP3    H2 5464   3.694   0.124   3.727
 1841TIP3   OH2 5465   0.286   7.998   3.186
 1841TIP3    H1 5466   0.227   8.009   3.260
 1841TIP3    H2 5467   0.372   7.982   3.227
 1842TIP3   OH2 5468   3.324   0.018   4.080
 1842TIP3    H1 5469   3.331   0.090   4.143
 1842TIP3    H2 5470   3.230   0.006   4.068
 1843TIP3   OH2 5471   8.040   7.948   3.593
 1843TIP3    H1 5472   8.004   7.871   3.550
 1843TIP3    H2 5473   8.111   7.914   3.648
 1844TIP3   OH2 5474   2.457   0.361   3.720
 1844TIP3    H1 5475   2.417   0.352   3.633
 1844TIP3    H2 5476   2.535   0.306   3.717
 1845TIP3   OH2 5477   8.146   7.976   3.976
 1845TIP3    H1 5478   8.177   7.919   3.906
 1845TIP3    H2 5479   8.208   8.049   3.977
 1846TIP3   OH2 5480   2.630   0.464   4.287
 1846TIP3    H1 5481   2.571   0.525   4.332
 1846TIP3    H2 5482   2.574   0.415   4.228
 1847TIP3   OH2 5483   0.121   7.840   3.022
 1847TIP3    H1 5484   0.187   7.889   3.071
 1847TIP3    H2 5485   0.148   7.849   2.931
 1848TIP3   OH2 5486   2.402   0.068   4.397
 1848TIP3    H1 5487   2.412   0.156   4.433
 1848TIP3    H2 5488   2.315   0.039   4.424
 1849TIP3   OH2 5489   2.701   0.490   3.284
 1849TIP3    H1 5490   2.785   0.534   3.296
 1849TIP3    H2 5491   2.650   0.550   3.230
 1850TIP3   OH2 5492   2.430   0.636   4.367
 1850TIP3    H1 5493   2.399   0.637   4.277
 1850TIP3    H2 5494   2.351   0.619   4.419
 1851TIP3   OH2 5495   3.298   0.418   2.623
 1851TIP3    H1 5496   3.290   0.511   2.602
 1851TIP3    H2 5497   3.387   0.396   2.598
 1852TIP3   OH2 5498   2.077   0.211   4.343
 1852TIP3    H1 5499   2.011   0.174   4.284
 1852TIP3    H2 5500   2.107   0.136   4.396
 1853TIP3   OH2 5501   1.900   0.372   3.940
 1853TIP3    H1 5502   1.995   0.374   3.953
 1853TIP3    H2 5503   1.867   0.445   3.992
 1854TIP3   OH2 5504   3.709   0.832   4.020
 1854TIP3    H1 5505   3.720   0.738   4.033
 1854TIP3    H2 5506   3.629   0.854   4.068
 1855TIP3   OH2 5507   2.813   0.611   4.145
 1855TIP3    H1 5508   2.812   0.702   4.174
 1855TIP3    H2 5509   2.752   0.566   4.203
 1856TIP3   OH2 5510   2.607   0.702   3.112
 1856TIP3    H1 5511   2.569   0.686   3.026
 1856TIP3    H2 5512   2.570   0.786   3.139
 1857TIP3   OH2 5513   2.038   0.585   3.483
 1857TIP3    H1 5514   2.085   0.574   3.566
 1857TIP3    H2 5515   1.994   0.501   3.468
 1858TIP3   OH2 5516   2.806   0.630   2.755
 1858TIP3    H1 5517   2.857   0.560   2.714
 1858TIP3    H2 5518   2.842   0.640   2.843
 1859TIP3   OH2 5519   2.865   0.692   3.014
 1859TIP3    H1 5520   2.783   0.682   3.062
 1859TIP3    H2 5521   2.933   0.692   3.082
 1860TIP3   OH2 5522   0.773   7.964   4.265
 1860TIP3    H1 5523   0.701   8.012   4.304
 1860TIP3    H2 5524   0.743   7.943   4.176
 1861TIP3   OH2 5525   2.245   0.413   4.293
 1861TIP3    H1 5526   2.293   0.409   4.375
 1861TIP3    H2 5527   2.180   0.342   4.300
 1862TIP3   OH2 5528   0.480   7.802   4.264
 1862TIP3    H1 5529   0.503   7.860   4.337
 1862TIP3    H2 5530   0.498   7.854   4.185
 1863TIP3   OH2 5531   0.202   7.868   2.762
 1863TIP3    H1 5532   0.160   7.870   2.676
 1863TIP3    H2 5533   0.293   7.892   2.745
 1864TIP3   OH2 5534   8.240   7.777   4.161
 1864TIP3    H1 5535   8.175   7.766   4.230
 1864TIP3    H2 5536   8.212   7.856   4.114
 1865TIP3   OH2 5537   8.098   7.608   3.593
 1865TIP3    H1 5538   8.033   7.544   3.564
 1865TIP3    H2 5539   8.181   7.578   3.555
 1866TIP3   OH2 5540   0.025   7.694   3.398
 1866TIP3    H1 5541  -0.017   7.758   3.341
 1866TIP3    H2 5542   0.102   7.665   3.349
 1867TIP3   OH2 5543   0.233   7.973   4.413
 1867TIP3    H1 5544   0.218   7.903   4.477
 1867TIP3    H2 5545   0.326   7.994   4.423
 1868TIP3   OH2 5546   0.186   7.723   3.627
 1868TIP3    H1 5547   0.122   7.745   3.560
 1868TIP3    H2 5548   0.224   7.640   3.597
 1869TIP3   OH2 5549   8.029   7.770   4.355
 1869TIP3    H1 5550   8.082   7.811   4.423
 1869TIP3    H2 5551   7.963   7.720   4.402
 1870TIP3   OH2 5552   0.232   7.939   3.999
 1870TIP3    H1 5553   0.278   7.878   3.942
 1870TIP3    H2 5554   0.210   7.888   4.077
 1871TIP3   OH2 5555   3.425   1.167   4.116
 1871TIP3    H1 5556   3.422   1.186   4.023
 1871TIP3    H2 5557   3.504   1.211   4.147
 1872TIP3   OH2 5558   2.385   0.310   4.533
 1872TIP3    H1 5559   2.467   0.319   4.581
 1872TIP3    H2 5560   2.318   0.303   4.601
 1873TIP3   OH2 5561  -0.018   7.798   3.799
 1873TIP3    H1 5562   0.055   7.759   3.751
 1873TIP3    H2 5563  -0.013   7.758   3.886
 1874TIP3   OH2 5564   8.484   7.697   4.053
 1874TIP3    H1 5565   8.404   7.716   4.102
 1874TIP3    H2 5566   8.555   7.711   4.116
 1875TIP3   OH2 5567   2.528   0.001   3.166
 1875TIP3    H1 5568   2.443  -0.020   3.128
 1875TIP3    H2 5569   2.508   0.040   3.251
 1876TIP3   OH2 5570   3.443   0.273   3.791
 1876TIP3    H1 5571   3.473   0.321   3.714
 1876TIP3    H2 5572   3.366   0.225   3.761
 1877TIP3   OH2 5573   2.864   0.334   4.089
 1877TIP3    H1 5574   2.916   0.302   4.163
 1877TIP3    H2 5575   2.853   0.427   4.108
 1878TIP3   OH2 5576   0.247   7.626   3.248
 1878TIP3    H1 5577   0.328   7.674   3.235
 1878TIP3    H2 5578   0.220   7.599   3.160
 1879TIP3   OH2 5579   2.252   0.034   3.823
 1879TIP3    H1 5580   2.287   0.010   3.738
 1879TIP3    H2 5581   2.320   0.009   3.886
 1880TIP3   OH2 5582   2.699   0.168   3.033
 1880TIP3    H1 5583   2.650   0.250   3.025
 1880TIP3    H2 5584   2.640   0.108   3.078
 1881TIP3   OH2 5585   7.815   8.011   4.497
 1881TIP3    H1 5586   7.862   7.986   4.577
 1881TIP3    H2 5587   7.780   7.929   4.463
 1882TIP3   OH2 5588   2.850   0.108   4.490
 1882TIP3    H1 5589   2.778   0.050   4.465
 1882TIP3    H2 5590   2.928   0.068   4.452
 1883TIP3   OH2 5591   3.086   0.627   4.073
 1883TIP3    H1 5592   2.992   0.615   4.081
 1883TIP3    H2 5593   3.113   0.663   4.158
 1884TIP3   OH2 5594   0.600   7.718   2.960
 1884TIP3    H1 5595   0.537   7.683   2.896
 1884TIP3    H2 5596   0.628   7.802   2.923
 1885TIP3   OH2 5597   3.742   0.559   4.042
 1885TIP3    H1 5598   3.651   0.533   4.050
 1885TIP3    H2 5599   3.772   0.520   3.960
 1886TIP3   OH2 5600   3.211   0.472   2.886
 1886TIP3    H1 5601   3.181   0.392   2.930
 1886TIP3    H2 5602   3.236   0.444   2.798
 1887TIP3   OH2 5603   3.234   0.091   3.753
 1887TIP3    H1 5604   3.264   0.049   3.834
 1887TIP3    H2 5605   3.248   0.024   3.686
 1888TIP3   OH2 5606   2.318   0.355   3.479
 1888TIP3    H1 5607   2.323   0.432   3.423
 1888TIP3    H2 5608   2.224   0.342   3.494
 1889TIP3   OH2 5609   2.429   0.118   3.390
 1889TIP3    H1 5610   2.401   0.204   3.421
 1889TIP3    H2 5611   2.413   0.060   3.463
 1890TIP3   OH2 5612   2.639   0.681   3.936
 1890TIP3    H1 5613   2.678   0.752   3.884
 1890TIP3    H2 5614   2.710   0.652   3.993
 1891TIP3   OH2 5615   2.265   0.583   3.325
 1891TIP3    H1 5616   2.180   0.596   3.368
 1891TIP3    H2 5617   2.309   0.668   3.334
 1892TIP3   OH2 5618   3.040   0.295   3.878
 1892TIP3    H1 5619   2.965   0.306   3.936
 1892TIP3    H2 5620   3.115   0.324   3.930
 1893TIP3   OH2 5621   3.010   0.209   2.771
 1893TIP3    H1 5622   3.046   0.204   2.860
 1893TIP3    H2 5623   2.925   0.165   2.777
 1894TIP3   OH2 5624   3.219   0.852   3.961
 1894TIP3    H1 5625   3.154   0.783   3.968
 1894TIP3    H2 5626   3.194   0.901   3.882
 1895TIP3   OH2 5627   3.285   0.690   2.583
 1895TIP3    H1 5628   3.286   0.740   2.501
 1895TIP3    H2 5629   3.219   0.733   2.637
 1896TIP3   OH2 5630   3.148   0.202   3.016
 1896TIP3    H1 5631   3.126   0.126   3.069
 1896TIP3    H2 5632   3.241   0.192   2.996
 1897TIP3   OH2 5633   2.089   0.590   4.108
 1897TIP3    H1 5634   2.146   0.536   4.163
 1897TIP3    H2 5635   2.096   0.678   4.146
 1898TIP3   OH2 5636   2.271   0.207   3.119
 1898TIP3    H1 5637   2.337   0.199   3.187
 1898TIP3    H2 5638   2.280   0.297   3.087
 1899TIP3   OH2 5639   2.541   0.383   3.001
 1899TIP3    H1 5640   2.464   0.423   3.041
 1899TIP3    H2 5641   2.531   0.400   2.907
 1900TIP3   OH2 5642   8.331   7.515   3.483
 1900TIP3    H1 5643   8.395   7.581   3.456
 1900TIP3    H2 5644   8.378   7.432   3.478
 1901TIP3   OH2 5645   0.195   7.779   4.219
 1901TIP3    H1 5646   0.190   7.845   4.288
 1901TIP3    H2 5647   0.279   7.737   4.231
 1902TIP3   OH2 5648   2.293   0.481   3.072
 1902TIP3    H1 5649   2.270   0.552   3.011
 1902TIP3    H2 5650   2.281   0.519   3.159
 1903TIP3   OH2 5651   0.406   7.897   3.575
 1903TIP3    H1 5652   0.335   7.836   3.597
 1903TIP3    H2 5653   0.481   7.865   3.626
 1904TIP3   OH2 5654   3.265   0.830   3.520
 1904TIP3    H1 5655   3.226   0.881   3.449
 1904TIP3    H2 5656   3.360   0.842   3.508
 1905TIP3   OH2 5657   1.930   0.342   3.429
 1905TIP3    H1 5658   1.844   0.373   3.402
 1905TIP3    H2 5659   1.957   0.284   3.357
 1906TIP3   OH2 5660   2.062   0.873   4.534
 1906TIP3    H1 5661   2.147   0.870   4.579
 1906TIP3    H2 5662   2.027   0.784   4.543
 1907TIP3   OH2 5663   2.526   0.797   4.566
 1907TIP3    H1 5664   2.616   0.767   4.582
 1907TIP3    H2 5665   2.497   0.745   4.491
 1908TIP3   OH2 5666   2.485   0.419   2.732
 1908TIP3    H1 5667   2.410   0.367   2.702
 1908TIP3    H2 5668   2.558   0.388   2.678
 1909TIP3   OH2 5669   3.143   0.729   4.320
 1909TIP3    H1 5670   3.153   0.659   4.384
 1909TIP3    H2 5671   3.217   0.787   4.336
 1910TIP3   OH2 5672   2.936   0.429   2.622
 1910TIP3    H1 5673   2.979   0.361   2.675
 1910TIP3    H2 5674   2.987   0.431   2.541
 1911TIP3   OH2 5675   2.196   0.275   4.737
 1911TIP3    H1 5676   2.200   0.179   4.736
 1911TIP3    H2 5677   2.119   0.296   4.685
 1912TIP3   OH2 5678   2.783   0.377   4.499
 1912TIP3    H1 5679   2.739   0.393   4.416
 1912TIP3    H2 5680   2.820   0.289   4.490
 1913TIP3   OH2 5681   2.756   0.099   2.776
 1913TIP3    H1 5682   2.738   0.126   2.866
 1913TIP3    H2 5683   2.721   0.010   2.770
 1914TIP3   OH2 5684   3.228   0.386   4.050
 1914TIP3    H1 5685   3.322   0.401   4.059
 1914TIP3    H2 5686   3.189   0.472   4.064
 1915TIP3   OH2 5687   7.996   8.006   4.705
 1915TIP3    H1 5688   8.074   7.953   4.691
 1915TIP3    H2 5689   8.007   8.041   4.794
 1916TIP3   OH2 5690   8.314   7.956   4.396
 1916TIP3    H1 5691   8.231   8.003   4.392
 1916TIP3    H2 5692   8.353   7.969   4.309
 1917TIP3   OH2 5693   3.172   0.279   4.496
 1917TIP3    H1 5694   3.241   0.227   4.455
 1917TIP3    H2 5695   3.144   0.227   4.571
 1918TIP3   OH2 5696   0.436   7.960   2.639
 1918TIP3    H1 5697   0.414   7.911   2.560
 1918TIP3    H2 5698   0.416   8.051   2.618
 1919TIP3   OH2 5699   8.373   7.714   4.507
 1919TIP3    H1 5700   8.362   7.648   4.438
 1919TIP3    H2 5701   8.360   7.798   4.462
 1920TIP3   OH2 5702   2.777   0.007   4.164
 1920TIP3    H1 5703   2.855  -0.019   4.115
 1920TIP3    H2 5704   2.732   0.070   4.107
 1921TIP3   OH2 5705   8.214   7.832   4.709
 1921TIP3    H1 5706   8.214   7.770   4.782
 1921TIP3    H2 5707   8.272   7.793   4.644
 1922TIP3   OH2 5708   0.147   7.766   4.567
 1922TIP3    H1 5709   0.179   7.713   4.640
 1922TIP3    H2 5710   0.057   7.738   4.555
 1923TIP3   OH2 5711   2.272   0.688   2.884
 1923TIP3    H1 5712   2.367   0.691   2.873
 1923TIP3    H2 5713   2.238   0.737   2.809
 1924TIP3   OH2 5714   1.654   0.640   3.521
 1924TIP3    H1 5715   1.661   0.576   3.450
 1924TIP3    H2 5716   1.697   0.598   3.596
 1925TIP3   OH2 5717   1.792   0.532   3.727
 1925TIP3    H1 5718   1.802   0.448   3.771
 1925TIP3    H2 5719   1.857   0.589   3.769
 1926TIP3   OH2 5720   3.537   0.884   3.522
 1926TIP3    H1 5721   3.551   0.907   3.614
 1926TIP3    H2 5722   3.585   0.951   3.473
 1927TIP3   OH2 5723   3.546   0.915   3.800
 1927TIP3    H1 5724   3.498   0.832   3.801
 1927TIP3    H2 5725   3.617   0.903   3.863
 1928TIP3   OH2 5726   3.619   0.604   4.388
 1928TIP3    H1 5727   3.542   0.616   4.443
 1928TIP3    H2 5728   3.663   0.689   4.389
 1929TIP3   OH2 5729   3.415   0.171   2.970
 1929TIP3    H1 5730   3.475   0.236   2.935
 1929TIP3    H2 5731   3.460   0.135   3.047
 1930TIP3   OH2 5732   3.541   0.054   3.180
 1930TIP3    H1 5733   3.479   0.023   3.245
 1930TIP3    H2 5734   3.614   0.090   3.231
 1931TIP3   OH2 5735   3.594   0.407   3.608
 1931TIP3    H1 5736   3.647   0.337   3.571
 1931TIP3    H2 5737   3.606   0.481   3.548
 1932TIP3   OH2 5738   3.393   0.680   3.820
 1932TIP3    H1 5739   3.333   0.730   3.875
 1932TIP3    H2 5740   3.337   0.639   3.754
 1933TIP3   OH2 5741   0.635   7.956   2.827
 1933TIP3    H1 5742   0.568   7.951   2.759
 1933TIP3    H2 5743   0.612   8.034   2.878
 1934TIP3   OH2 5744   0.441   7.628   2.756
 1934TIP3    H1 5745   0.460   7.662   2.669
 1934TIP3    H2 5746   0.411   7.538   2.740
 1935TIP3   OH2 5747   0.517   7.943   3.331
 1935TIP3    H1 5748   0.526   7.852   3.304
 1935TIP3    H2 5749   0.481   7.938   3.420
 1936TIP3   OH2 5750   2.008   0.045   4.073
 1936TIP3    H1 5751   1.991  -0.012   3.998
 1936TIP3    H2 5752   2.097   0.024   4.100
 1937TIP3   OH2 5753   3.587   0.265   4.169
 1937TIP3    H1 5754   3.669   0.222   4.149
 1937TIP3    H2 5755   3.577   0.332   4.102
 1938TIP3   OH2 5756   3.817   0.112   4.168
 1938TIP3    H1 5757   3.761   0.041   4.200
 1938TIP3    H2 5758   3.884   0.122   4.235
 1939TIP3   OH2 5759   0.517   7.693   3.216
 1939TIP3    H1 5760   0.529   7.599   3.224
 1939TIP3    H2 5761   0.550   7.715   3.129
 1940TIP3   OH2 5762   0.640   7.888   3.717
 1940TIP3    H1 5763   0.724   7.894   3.673
 1940TIP3    H2 5764   0.661   7.877   3.809
 1941TIP3   OH2 5765   0.728   7.937   3.982
 1941TIP3    H1 5766   0.643   7.973   4.006
 1941TIP3    H2 5767   0.771   8.009   3.935
 1942TIP3   OH2 5768   7.917   7.621   4.756
 1942TIP3    H1 5769   7.972   7.662   4.823
 1942TIP3    H2 5770   7.916   7.528   4.780
 1943TIP3   OH2 5771   7.635   7.542   4.203
 1943TIP3    H1 5772   7.647   7.616   4.143
 1943TIP3    H2 5773   7.723   7.507   4.216
 1944TIP3   OH2 5774   3.088   0.780   3.167
 1944TIP3    H1 5775   3.148   0.775   3.092
 1944TIP3    H2 5776   3.120   0.854   3.219
 1945TIP3   OH2 5777   2.224   0.597   4.551
 1945TIP3    H1 5778   2.128   0.590   4.549
 1945TIP3    H2 5779   2.248   0.580   4.642
 1946TIP3   OH2 5780   2.412   0.641   4.083
 1946TIP3    H1 5781   2.357   0.714   4.053
 1946TIP3    H2 5782   2.496   0.655   4.040
 1947TIP3   OH2 5783   2.808   0.875   4.227
 1947TIP3    H1 5784   2.841   0.867   4.316
 1947TIP3    H2 5785   2.874   0.927   4.181
 1948TIP3   OH2 5786   3.010   1.019   4.104
 1948TIP3    H1 5787   3.082   0.968   4.067
 1948TIP3    H2 5788   3.053   1.085   4.159
 1949TIP3   OH2 5789   2.068   0.876   4.147
 1949TIP3    H1 5790   1.979   0.899   4.119
 1949TIP3    H2 5791   2.092   0.944   4.210
 1950TIP3   OH2 5792   2.294   0.870   3.987
 1950TIP3    H1 5793   2.212   0.876   4.035
 1950TIP3    H2 5794   2.273   0.899   3.898
 1951TIP3   OH2 5795   2.728   0.883   3.769
 1951TIP3    H1 5796   2.653   0.900   3.712
 1951TIP3    H2 5797   2.742   0.966   3.816
 1952TIP3   OH2 5798   2.988   0.787   3.754
 1952TIP3    H1 5799   2.898   0.816   3.768
 1952TIP3    H2 5800   3.037   0.868   3.737
 1953TIP3   OH2 5801   3.176   0.994   3.723
 1953TIP3    H1 5802   3.175   1.083   3.689
 1953TIP3    H2 5803   3.212   0.941   3.652
 1954TIP3   OH2 5804   1.999   0.675   3.862
 1954TIP3    H1 5805   2.034   0.651   3.947
 1954TIP3    H2 5806   2.061   0.638   3.799
 1955TIP3   OH2 5807   2.183   0.547   3.712
 1955TIP3    H1 5808   2.189   0.464   3.759
 1955TIP3    H2 5809   2.271   0.585   3.719
 1956TIP3   OH2 5810   2.447   0.638   3.740
 1956TIP3    H1 5811   2.462   0.544   3.725
 1956TIP3    H2 5812   2.505   0.660   3.813
 1957TIP3   OH2 5813   1.708   0.466   3.307
 1957TIP3    H1 5814   1.640   0.421   3.257
 1957TIP3    H2 5815   1.722   0.549   3.260
 1958TIP3   OH2 5816   2.542   0.668   2.834
 1958TIP3    H1 5817   2.633   0.678   2.805
 1958TIP3    H2 5818   2.514   0.585   2.794
 1959TIP3   OH2 5819   3.244   0.742   2.939
 1959TIP3    H1 5820   3.236   0.647   2.925
 1959TIP3    H2 5821   3.203   0.781   2.861
 1960TIP3   OH2 5822   3.455   0.893   4.115
 1960TIP3    H1 5823   3.375   0.867   4.069
 1960TIP3    H2 5824   3.446   0.987   4.127
 1961TIP3   OH2 5825   4.729   0.262   2.888
 1961TIP3    H1 5826   4.714   0.355   2.870
 1961TIP3    H2 5827   4.658   0.217   2.843
 1962TIP3   OH2 5828   4.744   0.313   3.269
 1962TIP3    H1 5829   4.786   0.297   3.354
 1962TIP3    H2 5830   4.698   0.231   3.249
 1963TIP3   OH2 5831   4.017   0.171   3.613
 1963TIP3    H1 5832   4.050   0.126   3.691
 1963TIP3    H2 5833   4.095   0.207   3.571
 1964TIP3   OH2 5834   5.005   0.593   2.956
 1964TIP3    H1 5835   4.992   0.531   3.028
 1964TIP3    H2 5836   5.029   0.675   2.999
 1965TIP3   OH2 5837   4.026   0.571   3.319
 1965TIP3    H1 5838   4.004   0.477   3.320
 1965TIP3    H2 5839   4.122   0.573   3.310
 1966TIP3   OH2 5840   0.865   7.840   3.158
 1966TIP3    H1 5841   0.807   7.917   3.158
 1966TIP3    H2 5842   0.843   7.794   3.077
 1967TIP3   OH2 5843   3.776   0.132   3.298
 1967TIP3    H1 5844   3.838   0.062   3.317
 1967TIP3    H2 5845   3.830   0.208   3.280
 1968TIP3   OH2 5846   4.668   1.012   2.974
 1968TIP3    H1 5847   4.688   0.950   2.904
 1968TIP3    H2 5848   4.677   0.961   3.055
 1969TIP3   OH2 5849   4.544   0.513   3.290
 1969TIP3    H1 5850   4.590   0.437   3.257
 1969TIP3    H2 5851   4.612   0.570   3.325
 1970TIP3   OH2 5852   2.091   8.031   3.318
 1970TIP3    H1 5853   2.112   7.938   3.312
 1970TIP3    H2 5854   2.044   8.050   3.237
 1971TIP3   OH2 5855   1.535   7.569   3.238
 1971TIP3    H1 5856   1.523   7.586   3.331
 1971TIP3    H2 5857   1.446   7.559   3.204
 1972TIP3   OH2 5858   2.069   7.727   3.000
 1972TIP3    H1 5859   2.150   7.723   3.050
 1972TIP3    H2 5860   2.089   7.789   2.929
 1973TIP3   OH2 5861   1.143   7.984   3.379
 1973TIP3    H1 5862   1.168   7.981   3.472
 1973TIP3    H2 5863   1.194   7.915   3.338
 1974TIP3   OH2 5864   4.347   0.115   3.210
 1974TIP3    H1 5865   4.443   0.105   3.213
 1974TIP3    H2 5866   4.317   0.033   3.170
 1975TIP3   OH2 5867   5.639   0.114   3.442
 1975TIP3    H1 5868   5.543   0.116   3.444
 1975TIP3    H2 5869   5.665   0.100   3.533
 1976TIP3   OH2 5870   4.648   0.481   2.733
 1976TIP3    H1 5871   4.608   0.453   2.651
 1976TIP3    H2 5872   4.595   0.556   2.762
 1977TIP3   OH2 5873   4.394   0.431   3.508
 1977TIP3    H1 5874   4.335   0.499   3.540
 1977TIP3    H2 5875   4.437   0.471   3.432
 1978TIP3   OH2 5876   1.281   7.821   3.573
 1978TIP3    H1 5877   1.354   7.884   3.575
 1978TIP3    H2 5878   1.288   7.779   3.488
 1979TIP3   OH2 5879   4.222   0.624   3.604
 1979TIP3    H1 5880   4.208   0.714   3.575
 1979TIP3    H2 5881   4.143   0.603   3.654
 1980TIP3   OH2 5882   3.592   0.347   2.851
 1980TIP3    H1 5883   3.562   0.369   2.763
 1980TIP3    H2 5884   3.617   0.430   2.890
 1981TIP3   OH2 5885   5.039   0.833   3.099
 1981TIP3    H1 5886   4.951   0.824   3.136
 1981TIP3    H2 5887   5.039   0.918   3.055
 1982TIP3   OH2 5888   4.744   0.862   2.750
 1982TIP3    H1 5889   4.797   0.783   2.740
 1982TIP3    H2 5890   4.802   0.933   2.724
 1983TIP3   OH2 5891   4.883   0.632   2.713
 1983TIP3    H1 5892   4.814   0.565   2.713
 1983TIP3    H2 5893   4.936   0.612   2.790
 1984TIP3   OH2 5894   5.277   0.722   3.448
 1984TIP3    H1 5895   5.259   0.648   3.390
 1984TIP3    H2 5896   5.263   0.799   3.393
 1985TIP3   OH2 5897   4.552   0.143   2.711
 1985TIP3    H1 5898   4.468   0.183   2.688
 1985TIP3    H2 5899   4.600   0.140   2.628
 1986TIP3   OH2 5900   1.684   7.988   2.394
 1986TIP3    H1 5901   1.752   8.042   2.434
 1986TIP3    H2 5902   1.717   7.898   2.401
 1987TIP3   OH2 5903   5.456   0.394   3.305
 1987TIP3    H1 5904   5.371   0.438   3.304
 1987TIP3    H2 5905   5.485   0.397   3.214
 1988TIP3   OH2 5906   4.914   0.228   2.683
 1988TIP3    H1 5907   4.858   0.246   2.758
 1988TIP3    H2 5908   5.002   0.224   2.719
 1989TIP3   OH2 5909   5.152   0.292   3.591
 1989TIP3    H1 5910   5.132   0.365   3.649
 1989TIP3    H2 5911   5.068   0.272   3.548
 1990TIP3   OH2 5912   4.129   0.210   3.066
 1990TIP3    H1 5913   4.098   0.142   3.006
 1990TIP3    H2 5914   4.206   0.172   3.108
 1991TIP3   OH2 5915   4.288   0.611   3.220
 1991TIP3    H1 5916   4.267   0.597   3.128
 1991TIP3    H2 5917   4.377   0.576   3.230
 1992TIP3   OH2 5918   4.238   0.217   3.441
 1992TIP3    H1 5919   4.274   0.184   3.359
 1992TIP3    H2 5920   4.292   0.293   3.463
 1993TIP3   OH2 5921   4.798   0.822   3.226
 1993TIP3    H1 5922   4.787   0.904   3.275
 1993TIP3    H2 5923   4.786   0.753   3.292
 1994TIP3   OH2 5924   4.419   0.721   3.774
 1994TIP3    H1 5925   4.359   0.779   3.820
 1994TIP3    H2 5926   4.363   0.669   3.717
 1995TIP3   OH2 5927   4.744   0.093   2.511
 1995TIP3    H1 5928   4.805   0.149   2.559
 1995TIP3    H2 5929   4.776   0.094   2.421
 1996TIP3   OH2 5930   4.176   0.299   3.876
 1996TIP3    H1 5931   4.186   0.387   3.911
 1996TIP3    H2 5932   4.084   0.277   3.892
 1997TIP3   OH2 5933   4.509   0.716   2.772
 1997TIP3    H1 5934   4.581   0.778   2.769
 1997TIP3    H2 5935   4.446   0.750   2.708
 1998TIP3   OH2 5936   4.211   0.881   3.859
 1998TIP3    H1 5937   4.185   0.891   3.767
 1998TIP3    H2 5938   4.129   0.865   3.906
 1999TIP3   OH2 5939   4.008   0.036   2.877
 1999TIP3    H1 5940   3.937   0.092   2.846
 1999TIP3    H2 5941   3.964  -0.038   2.919
 2000TIP3   OH2 5942   5.086   0.674   2.123
 2000TIP3    H1 5943   5.078   0.766   2.100
 2000TIP3    H2 5944   5.178   0.653   2.106
 2001TIP3   OH2 5945   3.808   0.435   3.807
 2001TIP3    H1 5946   3.737   0.415   3.746
 2001TIP3    H2 5947   3.843   0.349   3.830
 2002TIP3   OH2 5948   3.656   0.635   3.459
 2002TIP3    H1 5949   3.748   0.654   3.478
 2002TIP3    H2 5950   3.608   0.713   3.489
 2003TIP3   OH2 5951   5.505   1.077   3.509
 2003TIP3    H1 5952   5.513   0.982   3.524
 2003TIP3    H2 5953   5.426   1.102   3.557
 2004TIP3   OH2 5954   4.611   0.862   3.636
 2004TIP3    H1 5955   4.604   0.952   3.666
 2004TIP3    H2 5956   4.544   0.815   3.686
 2005TIP3   OH2 5957   4.385   0.977   2.576
 2005TIP3    H1 5958   4.354   0.944   2.492
 2005TIP3    H2 5959   4.317   1.038   2.605
 2006TIP3   OH2 5960   3.829   0.815   2.968
 2006TIP3    H1 5961   3.873   0.809   3.053
 2006TIP3    H2 5962   3.778   0.735   2.961
 2007TIP3   OH2 5963   4.597   0.900   2.223
 2007TIP3    H1 5964   4.650   0.828   2.188
 2007TIP3    H2 5965   4.629   0.912   2.312
 2008TIP3   OH2 5966   4.643   0.943   2.492
 2008TIP3    H1 5967   4.556   0.952   2.530
 2008TIP3    H2 5968   4.695   0.904   2.562
 2009TIP3   OH2 5969   5.380   0.213   3.746
 2009TIP3    H1 5970   5.315   0.269   3.703
 2009TIP3    H2 5971   5.371   0.128   3.702
 2010TIP3   OH2 5972   4.000   0.630   3.769
 2010TIP3    H1 5973   4.052   0.623   3.849
 2010TIP3    H2 5974   3.931   0.564   3.780
 2011TIP3   OH2 5975   2.470   7.965   3.703
 2011TIP3    H1 5976   2.389   7.957   3.752
 2011TIP3    H2 5977   2.446   7.948   3.612
 2012TIP3   OH2 5978   4.825   0.078   2.254
 2012TIP3    H1 5979   4.778   0.076   2.171
 2012TIP3    H2 5980   4.911   0.114   2.232
 2013TIP3   OH2 5981   4.300   0.010   3.607
 2013TIP3    H1 5982   4.252   0.028   3.687
 2013TIP3    H2 5983   4.275   0.081   3.547
 2014TIP3   OH2 5984   1.385   7.931   3.076
 2014TIP3    H1 5985   1.292   7.911   3.079
 2014TIP3    H2 5986   1.418   7.881   3.001
 2015TIP3   OH2 5987   1.827   7.960   2.862
 2015TIP3    H1 5988   1.776   8.030   2.821
 2015TIP3    H2 5989   1.881   7.925   2.790
 2016TIP3   OH2 5990   4.860   0.251   3.902
 2016TIP3    H1 5991   4.838   0.168   3.945
 2016TIP3    H2 5992   4.955   0.256   3.908
 2017TIP3   OH2 5993   4.837   0.060   3.048
 2017TIP3    H1 5994   4.799   0.138   3.007
 2017TIP3    H2 5995   4.771  -0.008   3.036
 2018TIP3   OH2 5996   4.125   0.015   3.815
 2018TIP3    H1 5997   4.135   0.088   3.877
 2018TIP3    H2 5998   4.090  -0.057   3.868
 2019TIP3   OH2 5999   0.903   7.688   2.934
 2019TIP3    H1 6000   0.982   7.687   2.881
 2019TIP3    H2 6001   0.915   7.616   2.997
 2020TIP3   OH2 6002   4.898   0.227   3.487
 2020TIP3    H1 6003   4.915   0.157   3.424
 2020TIP3    H2 6004   4.857   0.183   3.562
 2021TIP3   OH2 6005   1.134   7.820   3.086
 2021TIP3    H1 6006   1.043   7.832   3.112
 2021TIP3    H2 6007   1.131   7.751   3.020
 2022TIP3   OH2 6008   1.419   7.773   2.847
 2022TIP3    H1 6009   1.514   7.773   2.835
 2022TIP3    H2 6010   1.385   7.792   2.759
 2023TIP3   OH2 6011   1.280   7.767   2.618
 2023TIP3    H1 6012   1.209   7.729   2.565
 2023TIP3    H2 6013   1.333   7.815   2.555
 2024TIP3   OH2 6014   5.222   1.422   3.603
 2024TIP3    H1 6015   5.221   1.438   3.509
 2024TIP3    H2 6016   5.302   1.466   3.633
 2025TIP3   OH2 6017   4.167   0.557   3.996
 2025TIP3    H1 6018   4.248   0.570   4.046
 2025TIP3    H2 6019   4.098   0.555   4.063
 2026TIP3   OH2 6020   4.616   0.071   3.262
 2026TIP3    H1 6021   4.653  -0.014   3.237
 2026TIP3    H2 6022   4.600   0.064   3.356
 2027TIP3   OH2 6023   4.559   0.038   3.525
 2027TIP3    H1 6024   4.476   0.029   3.572
 2027TIP3    H2 6025   4.610   0.099   3.579
 2028TIP3   OH2 6026   4.311   0.265   2.649
 2028TIP3    H1 6027   4.237   0.207   2.630
 2028TIP3    H2 6028   4.290   0.305   2.733
 2029TIP3   OH2 6029   5.219   0.527   3.267
 2029TIP3    H1 6030   5.254   0.576   3.194
 2029TIP3    H2 6031   5.135   0.493   3.236
 2030TIP3   OH2 6032   1.817   7.754   2.429
 2030TIP3    H1 6033   1.778   7.679   2.474
 2030TIP3    H2 6034   1.893   7.777   2.481
 2031TIP3   OH2 6035   4.735   0.570   3.689
 2031TIP3    H1 6036   4.794   0.566   3.764
 2031TIP3    H2 6037   4.696   0.657   3.693
 2032TIP3   OH2 6038   1.970   7.868   2.645
 2032TIP3    H1 6039   2.048   7.885   2.697
 2032TIP3    H2 6040   1.958   7.946   2.592
 2033TIP3   OH2 6041   4.002   0.296   3.294
 2033TIP3    H1 6042   4.039   0.273   3.209
 2033TIP3    H2 6043   4.058   0.252   3.357
 2034TIP3   OH2 6044   4.484   0.420   2.509
 2034TIP3    H1 6045   4.443   0.507   2.508
 2034TIP3    H2 6046   4.420   0.365   2.555
 2035TIP3   OH2 6047   3.913   0.200   3.923
 2035TIP3    H1 6048   3.906   0.184   4.017
 2035TIP3    H2 6049   3.839   0.153   3.885
 2036TIP3   OH2 6050   4.618   0.360   3.967
 2036TIP3    H1 6051   4.556   0.292   3.942
 2036TIP3    H2 6052   4.702   0.330   3.932
 2037TIP3   OH2 6053   4.878   0.891   3.558
 2037TIP3    H1 6054   4.784   0.874   3.564
 2037TIP3    H2 6055   4.902   0.926   3.644
 2038TIP3   OH2 6056   2.393   7.972   2.416
 2038TIP3    H1 6057   2.325   7.936   2.359
 2038TIP3    H2 6058   2.407   8.061   2.385
 2039TIP3   OH2 6059   5.525   0.799   3.532
 2039TIP3    H1 6060   5.431   0.785   3.526
 2039TIP3    H2 6061   5.560   0.768   3.449
 2040TIP3   OH2 6062   5.005   0.742   2.387
 2040TIP3    H1 6063   4.978   0.672   2.446
 2040TIP3    H2 6064   5.026   0.699   2.305
 2041TIP3   OH2 6065   4.982   0.417   3.169
 2041TIP3    H1 6066   4.894   0.391   3.195
 2041TIP3    H2 6067   5.021   0.337   3.133
 2042TIP3   OH2 6068   4.146   0.622   2.976
 2042TIP3    H1 6069   4.139   0.697   2.918
 2042TIP3    H2 6070   4.057   0.610   3.010
 2043TIP3   OH2 6071   0.882   7.941   2.712
 2043TIP3    H1 6072   0.924   8.027   2.721
 2043TIP3    H2 6073   0.801   7.948   2.762
 2044TIP3   OH2 6074   4.229   0.381   2.875
 2044TIP3    H1 6075   4.215   0.471   2.906
 2044TIP3    H2 6076   4.195   0.326   2.945
 2045TIP3   OH2 6077   4.430   0.935   3.430
 2045TIP3    H1 6078   4.468   1.008   3.381
 2045TIP3    H2 6079   4.503   0.901   3.483
 2046TIP3   OH2 6080   4.060   0.841   2.822
 2046TIP3    H1 6081   3.973   0.842   2.862
 2046TIP3    H2 6082   4.090   0.932   2.826
 2047TIP3   OH2 6083   4.780   0.607   3.410
 2047TIP3    H1 6084   4.771   0.591   3.504
 2047TIP3    H2 6085   4.857   0.556   3.384
 2048TIP3   OH2 6086   4.772   0.478   2.262
 2048TIP3    H1 6087   4.820   0.451   2.340
 2048TIP3    H2 6088   4.687   0.434   2.269
 2049TIP3   OH2 6089   5.034   1.095   3.442
 2049TIP3    H1 6090   4.965   1.032   3.462
 2049TIP3    H2 6091   4.998   1.148   3.371
 2050TIP3   OH2 6092   5.080   0.944   2.076
 2050TIP3    H1 6093   5.089   0.999   1.998
 2050TIP3    H2 6094   5.012   0.987   2.128
 2051TIP3   OH2 6095   4.934   0.399   2.464
 2051TIP3    H1 6096   4.921   0.350   2.545
 2051TIP3    H2 6097   5.028   0.412   2.458
 2052TIP3   OH2 6098   3.858   0.826   3.591
 2052TIP3    H1 6099   3.908   0.764   3.645
 2052TIP3    H2 6100   3.872   0.911   3.633
 2053TIP3   OH2 6101   4.132   0.449   2.295
 2053TIP3    H1 6102   4.140   0.359   2.265
 2053TIP3    H2 6103   4.112   0.441   2.389
 2054TIP3   OH2 6104   4.068   0.461   2.564
 2054TIP3    H1 6105   4.133   0.433   2.628
 2054TIP3    H2 6106   4.069   0.557   2.569
 2055TIP3   OH2 6107   3.802   0.183   2.773
 2055TIP3    H1 6108   3.733   0.230   2.820
 2055TIP3    H2 6109   3.821   0.238   2.697
 2056TIP3   OH2 6110   4.348   0.658   2.509
 2056TIP3    H1 6111   4.259   0.676   2.537
 2056TIP3    H2 6112   4.365   0.721   2.439
 2057TIP3   OH2 6113   1.686   7.733   2.836
 2057TIP3    H1 6114   1.731   7.816   2.852
 2057TIP3    H2 6115   1.675   7.694   2.923
 2058TIP3   OH2 6116   4.802   0.069   3.693
 2058TIP3    H1 6117   4.766   0.140   3.746
 2058TIP3    H2 6118   4.869   0.029   3.749
 2059TIP3   OH2 6119   4.092   0.733   2.573
 2059TIP3    H1 6120   4.070   0.804   2.512
 2059TIP3    H2 6121   4.078   0.771   2.660
 2060TIP3   OH2 6122   5.081   0.178   3.073
 2060TIP3    H1 6123   5.001   0.127   3.079
 2060TIP3    H2 6124   5.143   0.134   3.131
 2061TIP3   OH2 6125   3.820   0.340   2.544
 2061TIP3    H1 6126   3.891   0.403   2.555
 2061TIP3    H2 6127   3.854   0.274   2.483
 2062TIP3   OH2 6128   0.753   7.732   2.595
 2062TIP3    H1 6129   0.805   7.801   2.636
 2062TIP3    H2 6130   0.752   7.662   2.659
 2063TIP3   OH2 6131   5.067   1.096   3.016
 2063TIP3    H1 6132   5.029   1.149   2.946
 2063TIP3    H2 6133   5.161   1.105   3.004
 2064TIP3   OH2 6134   3.645   0.604   2.945
 2064TIP3    H1 6135   3.605   0.642   3.023
 2064TIP3    H2 6136   3.600   0.647   2.872
 2065TIP3   OH2 6137   3.856   1.132   4.014
 2065TIP3    H1 6138   3.939   1.137   4.062
 2065TIP3    H2 6139   3.839   1.038   4.004
 2066TIP3   OH2 6140   4.320   1.041   4.055
 2066TIP3    H1 6141   4.411   1.013   4.063
 2066TIP3    H2 6142   4.285   0.988   3.983
 2067TIP3   OH2 6143   4.284   0.646   2.186
 2067TIP3    H1 6144   4.237   0.574   2.227
 2067TIP3    H2 6145   4.358   0.605   2.141
 2068TIP3   OH2 6146   4.940   0.985   3.807
 2068TIP3    H1 6147   4.953   0.917   3.874
 2068TIP3    H2 6148   5.013   1.046   3.820
 2069TIP3   OH2 6149   4.730   0.695   2.104
 2069TIP3    H1 6150   4.761   0.626   2.163
 2069TIP3    H2 6151   4.787   0.688   2.027
 2070TIP3   OH2 6152   3.971   0.547   4.199
 2070TIP3    H1 6153   4.003   0.456   4.201
 2070TIP3    H2 6154   3.884   0.541   4.161
 2071TIP3   OH2 6155   3.949   0.147   2.402
 2071TIP3    H1 6156   3.997   0.121   2.480
 2071TIP3    H2 6157   4.016   0.161   2.336
 2072TIP3   OH2 6158   4.576   0.632   3.980
 2072TIP3    H1 6159   4.528   0.652   3.900
 2072TIP3    H2 6160   4.603   0.541   3.970
 2073TIP3   OH2 6161   4.520   0.365   2.241
 2073TIP3    H1 6162   4.497   0.372   2.334
 2073TIP3    H2 6163   4.492   0.277   2.216
 2074TIP3   OH2 6164   5.043   0.668   3.588
 2074TIP3    H1 6165   5.123   0.693   3.542
 2074TIP3    H2 6166   4.982   0.739   3.570
 2075TIP3   OH2 6167   4.101   0.304   4.164
 2075TIP3    H1 6168   4.191   0.279   4.143
 2075TIP3    H2 6169   4.072   0.239   4.228
 2076TIP3   OH2 6170   4.108   0.083   2.617
 2076TIP3    H1 6171   4.083   0.050   2.704
 2076TIP3    H2 6172   4.156   0.011   2.576
 2077TIP3   OH2 6173   4.433   0.182   3.837
 2077TIP3    H1 6174   4.348   0.224   3.851
 2077TIP3    H2 6175   4.473   0.233   3.766
 2078TIP3   OH2 6176   1.421   7.928   2.454
 2078TIP3    H1 6177   1.385   7.927   2.365
 2078TIP3    H2 6178   1.513   7.953   2.442
 2079TIP3   OH2 6179   4.918   0.552   3.926
 2079TIP3    H1 6180   4.996   0.522   3.881
 2079TIP3    H2 6181   4.913   0.497   4.004
 2080TIP3   OH2 6182   5.045   0.186   2.121
 2080TIP3    H1 6183   5.028   0.144   2.037
 2080TIP3    H2 6184   5.022   0.278   2.107
 2081TIP3   OH2 6185   1.706   7.945   3.894
 2081TIP3    H1 6186   1.656   7.884   3.840
 2081TIP3    H2 6187   1.667   8.031   3.874
 2082TIP3   OH2 6188   4.597   0.312   3.652
 2082TIP3    H1 6189   4.657   0.385   3.669
 2082TIP3    H2 6190   4.529   0.350   3.596
 2083TIP3   OH2 6191   5.131   0.206   3.954
 2083TIP3    H1 6192   5.122   0.200   4.049
 2083TIP3    H2 6193   5.200   0.271   3.940
 2084TIP3   OH2 6194   5.158   0.508   3.772
 2084TIP3    H1 6195   5.107   0.567   3.716
 2084TIP3    H2 6196   5.247   0.514   3.738
 2085TIP3   OH2 6197   4.397   0.130   4.157
 2085TIP3    H1 6198   4.359   0.126   4.244
 2085TIP3    H2 6199   4.474   0.073   4.162
 2086TIP3   OH2 6200   1.956   8.024   3.994
 2086TIP3    H1 6201   1.971   7.994   4.084
 2086TIP3    H2 6202   1.873   7.984   3.969
 2087TIP3   OH2 6203   4.087   0.946   2.396
 2087TIP3    H1 6204   4.176   0.925   2.366
 2087TIP3    H2 6205   4.047   0.991   2.322
 2088TIP3   OH2 6206   3.547   0.327   2.549
 2088TIP3    H1 6207   3.642   0.337   2.551
 2088TIP3    H2 6208   3.533   0.238   2.517
 2089TIP3   OH2 6209   3.452   0.900   3.026
 2089TIP3    H1 6210   3.386   0.845   2.984
 2089TIP3    H2 6211   3.496   0.842   3.088
 2090TIP3   OH2 6212   3.599   0.740   3.197
 2090TIP3    H1 6213   3.594   0.672   3.264
 2090TIP3    H2 6214   3.650   0.810   3.238
 2091TIP3   OH2 6215   5.338   1.141   3.008
 2091TIP3    H1 6216   5.358   1.171   3.097
 2091TIP3    H2 6217   5.395   1.194   2.952
 2092TIP3   OH2 6218   5.352   1.178   3.289
 2092TIP3    H1 6219   5.305   1.094   3.282
 2092TIP3    H2 6220   5.422   1.161   3.352
 2093TIP3   OH2 6221   5.409   0.873   3.861
 2093TIP3    H1 6222   5.333   0.885   3.919
 2093TIP3    H2 6223   5.455   0.956   3.864
 2094TIP3   OH2 6224   5.208   0.423   2.454
 2094TIP3    H1 6225   5.262   0.496   2.422
 2094TIP3    H2 6226   5.256   0.389   2.529
 2095TIP3   OH2 6227   5.351   0.313   2.656
 2095TIP3    H1 6228   5.285   0.292   2.722
 2095TIP3    H2 6229   5.423   0.352   2.707
 2096TIP3   OH2 6230   5.395   0.663   3.104
 2096TIP3    H1 6231   5.445   0.592   3.065
 2096TIP3    H2 6232   5.402   0.735   3.041
 2097TIP3   OH2 6233   5.210   0.939   3.293
 2097TIP3    H1 6234   5.142   0.984   3.343
 2097TIP3    H2 6235   5.162   0.898   3.220
 2098TIP3   OH2 6236   5.250   0.201   2.299
 2098TIP3    H1 6237   5.178   0.200   2.236
 2098TIP3    H2 6238   5.234   0.280   2.351
 2099TIP3   OH2 6239   2.229   7.873   2.219
 2099TIP3    H1 6240   2.244   7.929   2.143
 2099TIP3    H2 6241   2.224   7.784   2.184
 2100TIP3   OH2 6242   5.156   0.188   2.811
 2100TIP3    H1 6243   5.210   0.111   2.795
 2100TIP3    H2 6244   5.146   0.191   2.906
 2101TIP3   OH2 6245   3.753   0.191   3.564
 2101TIP3    H1 6246   3.745   0.161   3.473
 2101TIP3    H2 6247   3.847   0.190   3.581
 2102TIP3   OH2 6248   5.408   0.529   3.660
 2102TIP3    H1 6249   5.480   0.468   3.644
 2102TIP3    H2 6250   5.414   0.593   3.589
 2103TIP3   OH2 6251   5.622   0.361   3.656
 2103TIP3    H1 6252   5.588   0.273   3.673
 2103TIP3    H2 6253   5.686   0.376   3.726
 2104TIP3   OH2 6254   2.416   7.973   2.688
 2104TIP3    H1 6255   2.381   7.887   2.713
 2104TIP3    H2 6256   2.404   7.977   2.593
 2105TIP3   OH2 6257   5.273   0.069   3.227
 2105TIP3    H1 6258   5.351   0.090   3.176
 2105TIP3    H2 6259   5.293   0.099   3.315
 2106TIP3   OH2 6260   5.366   0.182   3.454
 2106TIP3    H1 6261   5.288   0.215   3.500
 2106TIP3    H2 6262   5.401   0.259   3.410
 2107TIP3   OH2 6263   1.078   7.837   4.241
 2107TIP3    H1 6264   1.123   7.757   4.215
 2107TIP3    H2 6265   1.023   7.812   4.315
 2108TIP3   OH2 6266   0.910   7.878   3.635
 2108TIP3    H1 6267   0.944   7.855   3.548
 2108TIP3    H2 6268   0.987   7.910   3.683
 2109TIP3   OH2 6269   4.891   1.065   2.652
 2109TIP3    H1 6270   4.945   1.050   2.575
 2109TIP3    H2 6271   4.939   1.131   2.703
 2110TIP3   OH2 6272   3.986   0.851   4.021
 2110TIP3    H1 6273   3.892   0.833   4.014
 2110TIP3    H2 6274   4.007   0.833   4.112
 2111TIP3   OH2 6275   4.199   0.901   3.576
 2111TIP3    H1 6276   4.149   0.975   3.544
 2111TIP3    H2 6277   4.285   0.910   3.534
 2112TIP3   OH2 6278   4.599   1.129   3.713
 2112TIP3    H1 6279   4.635   1.122   3.802
 2112TIP3    H2 6280   4.662   1.183   3.666
 2113TIP3   OH2 6281   4.792   1.285   3.591
 2113TIP3    H1 6282   4.857   1.230   3.546
 2113TIP3    H2 6283   4.844   1.344   3.645
 2114TIP3   OH2 6284   3.862   1.141   3.623
 2114TIP3    H1 6285   3.770   1.154   3.601
 2114TIP3    H2 6286   3.881   1.207   3.690
 2115TIP3   OH2 6287   4.091   1.133   3.471
 2115TIP3    H1 6288   4.009   1.136   3.521
 2115TIP3    H2 6289   4.065   1.156   3.382
 2116TIP3   OH2 6290   4.503   1.149   3.268
 2116TIP3    H1 6291   4.425   1.161   3.213
 2116TIP3    H2 6292   4.513   1.233   3.314
 2117TIP3   OH2 6293   4.767   1.082   3.312
 2117TIP3    H1 6294   4.675   1.105   3.294
 2117TIP3    H2 6295   4.817   1.152   3.270
 2118TIP3   OH2 6296   4.965   1.255   3.216
 2118TIP3    H1 6297   4.969   1.343   3.179
 2118TIP3    H2 6298   5.000   1.198   3.148
 2119TIP3   OH2 6299   3.773   0.918   3.340
 2119TIP3    H1 6300   3.794   0.893   3.430
 2119TIP3    H2 6301   3.846   0.885   3.288
 2120TIP3   OH2 6302   3.977   0.807   3.200
 2120TIP3    H1 6303   3.986   0.723   3.246
 2120TIP3    H2 6304   4.064   0.846   3.205
 2121TIP3   OH2 6305   4.245   0.886   3.229
 2121TIP3    H1 6306   4.261   0.793   3.214
 2121TIP3    H2 6307   4.300   0.908   3.304
 2122TIP3   OH2 6308   3.527   0.715   2.722
 2122TIP3    H1 6309   3.444   0.689   2.683
 2122TIP3    H2 6310   3.538   0.807   2.696
 2123TIP3   OH2 6311   4.342   0.872   2.321
 2123TIP3    H1 6312   4.424   0.900   2.281
 2123TIP3    H2 6313   4.311   0.801   2.265
 2124TIP3   OH2 6314   5.039   1.011   2.423
 2124TIP3    H1 6315   5.033   0.916   2.416
 2124TIP3    H2 6316   4.996   1.043   2.344
 2125TIP3   OH2 6317   3.648   0.707   2.395
 2125TIP3    H1 6318   3.645   0.717   2.491
 2125TIP3    H2 6319   3.731   0.662   2.379
 2126TIP3   OH2 6320   5.256   1.148   3.606
 2126TIP3    H1 6321   5.181   1.119   3.553
 2126TIP3    H2 6322   5.245   1.242   3.614
 2127TIP3   OH2 6323   6.546   0.544   2.352
 2127TIP3    H1 6324   6.492   0.618   2.322
 2127TIP3    H2 6325   6.484   0.472   2.360
 2128TIP3   OH2 6326   6.528   0.563   2.753
 2128TIP3    H1 6327   6.573   0.541   2.835
 2128TIP3    H2 6328   6.492   0.479   2.723
 2129TIP3   OH2 6329   5.818   0.426   3.095
 2129TIP3    H1 6330   5.853   0.377   3.169
 2129TIP3    H2 6331   5.896   0.453   3.045
 2130TIP3   OH2 6332   6.804   0.856   2.434
 2130TIP3    H1 6333   6.776   0.793   2.501
 2130TIP3    H2 6334   6.825   0.935   2.483
 2131TIP3   OH2 6335   5.820   0.830   2.808
 2131TIP3    H1 6336   5.801   0.736   2.806
 2131TIP3    H2 6337   5.915   0.835   2.796
 2132TIP3   OH2 6338   5.489   0.081   2.594
 2132TIP3    H1 6339   5.449   0.169   2.597
 2132TIP3    H2 6340   5.425   0.025   2.638
 2133TIP3   OH2 6341   5.578   0.393   2.786
 2133TIP3    H1 6342   5.638   0.320   2.805
 2133TIP3    H2 6343   5.636   0.468   2.770
 2134TIP3   OH2 6344   6.464   1.259   2.462
 2134TIP3    H1 6345   6.486   1.195   2.394
 2134TIP3    H2 6346   6.474   1.211   2.544
 2135TIP3   OH2 6347   6.335   0.767   2.777
 2135TIP3    H1 6348   6.381   0.689   2.745
 2135TIP3    H2 6349   6.405   0.824   2.808
 2136TIP3   OH2 6350   6.708   0.267   2.816
 2136TIP3    H1 6351   6.713   0.171   2.816
 2136TIP3    H2 6352   6.693   0.291   2.724
 2137TIP3   OH2 6353   3.349   7.832   2.730
 2137TIP3    H1 6354   3.337   7.859   2.821
 2137TIP3    H2 6355   3.260   7.820   2.697
 2138TIP3   OH2 6356   0.671   2.535   1.990
 2138TIP3    H1 6357   0.765   2.538   2.007
 2138TIP3    H2 6358   0.646   2.627   1.978
 2139TIP3   OH2 6359   5.763   0.208   2.857
 2139TIP3    H1 6360   5.803   0.190   2.942
 2139TIP3    H2 6361   5.831   0.186   2.793
 2140TIP3   OH2 6362   6.144   0.338   2.694
 2140TIP3    H1 6363   6.240   0.334   2.692
 2140TIP3    H2 6364   6.115   0.268   2.637
 2141TIP3   OH2 6365   7.391   0.279   2.988
 2141TIP3    H1 6366   7.310   0.327   2.974
 2141TIP3    H2 6367   7.423   0.309   3.073
 2142TIP3   OH2 6368   6.388   0.739   2.235
 2142TIP3    H1 6369   6.374   0.727   2.141
 2142TIP3    H2 6370   6.348   0.823   2.256
 2143TIP3   OH2 6371   6.185   0.680   2.992
 2143TIP3    H1 6372   6.127   0.750   3.024
 2143TIP3    H2 6373   6.231   0.720   2.918
 2144TIP3   OH2 6374   5.910   0.071   3.042
 2144TIP3    H1 6375   5.987   0.119   3.075
 2144TIP3    H2 6376   5.940   0.033   2.960
 2145TIP3   OH2 6377   6.019   0.879   3.091
 2145TIP3    H1 6378   6.006   0.969   3.060
 2145TIP3    H2 6379   5.940   0.859   3.141
 2146TIP3   OH2 6380   5.385   0.607   2.354
 2146TIP3    H1 6381   5.362   0.626   2.263
 2146TIP3    H2 6382   5.413   0.692   2.389
 2147TIP3   OH2 6383   6.838   1.090   2.588
 2147TIP3    H1 6384   6.750   1.080   2.625
 2147TIP3    H2 6385   6.835   1.175   2.543
 2148TIP3   OH2 6386   6.544   1.106   2.242
 2148TIP3    H1 6387   6.597   1.028   2.228
 2148TIP3    H2 6388   6.602   1.179   2.217
 2149TIP3   OH2 6389   6.706   0.896   2.179
 2149TIP3    H1 6390   6.694   0.811   2.136
 2149TIP3    H2 6391   6.745   0.875   2.264
 2150TIP3   OH2 6392   7.081   0.969   2.935
 2150TIP3    H1 6393   7.056   0.899   2.875
 2150TIP3    H2 6394   7.066   1.050   2.886
 2151TIP3   OH2 6395   6.333   0.360   2.170
 2151TIP3    H1 6396   6.269   0.426   2.145
 2151TIP3    H2 6397   6.394   0.356   2.097
 2152TIP3   OH2 6398   7.229   0.635   2.772
 2152TIP3    H1 6399   7.147   0.684   2.768
 2152TIP3    H2 6400   7.277   0.664   2.695
 2153TIP3   OH2 6401   6.725   0.445   2.172
 2153TIP3    H1 6402   6.669   0.477   2.242
 2153TIP3    H2 6403   6.806   0.416   2.216
 2154TIP3   OH2 6404   6.949   0.549   3.078
 2154TIP3    H1 6405   6.927   0.623   3.135
 2154TIP3    H2 6406   6.867   0.528   3.034
 2155TIP3   OH2 6407   5.936   0.470   2.554
 2155TIP3    H1 6408   5.894   0.409   2.494
 2155TIP3    H2 6409   6.009   0.421   2.592
 2156TIP3   OH2 6410   6.081   0.869   2.708
 2156TIP3    H1 6411   6.060   0.855   2.615
 2156TIP3    H2 6412   6.169   0.833   2.718
 2157TIP3   OH2 6413   6.035   0.463   2.916
 2157TIP3    H1 6414   6.076   0.425   2.838
 2157TIP3    H2 6415   6.091   0.538   2.938
 2158TIP3   OH2 6416   6.597   1.081   2.715
 2158TIP3    H1 6417   6.585   1.160   2.767
 2158TIP3    H2 6418   6.585   1.009   2.778
 2159TIP3   OH2 6419   6.216   0.978   3.260
 2159TIP3    H1 6420   6.155   1.035   3.306
 2159TIP3    H2 6421   6.161   0.925   3.202
 2160TIP3   OH2 6422   6.543   0.334   1.995
 2160TIP3    H1 6423   6.607   0.367   2.059
 2160TIP3    H2 6424   6.594   0.322   1.915
 2161TIP3   OH2 6425   5.976   0.549   3.366
 2161TIP3    H1 6426   5.978   0.639   3.399
 2161TIP3    H2 6427   5.884   0.523   3.375
 2162TIP3   OH2 6428   6.289   1.000   2.253
 2162TIP3    H1 6429   6.376   1.039   2.258
 2162TIP3    H2 6430   6.237   1.064   2.204
 2163TIP3   OH2 6431   6.007   1.136   3.345
 2163TIP3    H1 6432   5.983   1.146   3.253
 2163TIP3    H2 6433   5.923   1.123   3.390
 2164TIP3   OH2 6434   5.786   0.323   2.365
 2164TIP3    H1 6435   5.708   0.367   2.333
 2164TIP3    H2 6436   5.760   0.231   2.375
 2165TIP3   OH2 6437   6.803   0.929   1.635
 2165TIP3    H1 6438   6.835   1.018   1.621
 2165TIP3    H2 6439   6.883   0.876   1.647
 2166TIP3   OH2 6440   5.604   0.693   3.295
 2166TIP3    H1 6441   5.533   0.677   3.233
 2166TIP3    H2 6442   5.641   0.607   3.313
 2167TIP3   OH2 6443   5.456   0.884   2.944
 2167TIP3    H1 6444   5.550   0.898   2.952
 2167TIP3    H2 6445   5.417   0.963   2.981
 2168TIP3   OH2 6446   7.306   1.355   2.988
 2168TIP3    H1 6447   7.314   1.260   2.992
 2168TIP3    H2 6448   7.225   1.374   3.036
 2169TIP3   OH2 6449   6.408   1.118   3.122
 2169TIP3    H1 6450   6.400   1.208   3.152
 2169TIP3    H2 6451   6.342   1.070   3.172
 2170TIP3   OH2 6452   6.186   1.216   2.089
 2170TIP3    H1 6453   6.146   1.197   2.005
 2170TIP3    H2 6454   6.150   1.302   2.114
 2171TIP3   OH2 6455   5.625   1.081   2.457
 2171TIP3    H1 6456   5.672   1.073   2.540
 2171TIP3    H2 6457   5.576   0.999   2.448
 2172TIP3   OH2 6458   6.378   1.142   1.720
 2172TIP3    H1 6459   6.430   1.071   1.681
 2172TIP3    H2 6460   6.417   1.156   1.805
 2173TIP3   OH2 6461   6.440   1.193   1.984
 2173TIP3    H1 6462   6.356   1.195   2.029
 2173TIP3    H2 6463   6.500   1.152   2.047
 2174TIP3   OH2 6464   7.166   0.466   3.247
 2174TIP3    H1 6465   7.101   0.518   3.200
 2174TIP3    H2 6466   7.156   0.377   3.212
 2175TIP3   OH2 6467   5.797   0.888   3.258
 2175TIP3    H1 6468   5.851   0.877   3.336
 2175TIP3    H2 6469   5.728   0.822   3.267
 2176TIP3   OH2 6470   7.098   0.206   3.195
 2176TIP3    H1 6471   7.018   0.198   3.247
 2176TIP3    H2 6472   7.070   0.195   3.105
 2177TIP3   OH2 6473   6.112   0.267   3.090
 2177TIP3    H1 6474   6.064   0.285   3.171
 2177TIP3    H2 6475   6.079   0.332   3.028
 2178TIP3   OH2 6476   5.991   0.179   2.530
 2178TIP3    H1 6477   5.908   0.135   2.547
 2178TIP3    H2 6478   6.011   0.159   2.438
 2179TIP3   OH2 6479   6.502   0.246   2.351
 2179TIP3    H1 6480   6.435   0.273   2.289
 2179TIP3    H2 6481   6.507   0.151   2.341
 2180TIP3   OH2 6482   6.659   0.509   3.386
 2180TIP3    H1 6483   6.634   0.426   3.426
 2180TIP3    H2 6484   6.754   0.514   3.399
 2181TIP3   OH2 6485   6.691   0.291   2.544
 2181TIP3    H1 6486   6.612   0.300   2.490
 2181TIP3    H2 6487   6.738   0.217   2.505
 2182TIP3   OH2 6488   5.914   0.252   3.291
 2182TIP3    H1 6489   5.938   0.300   3.370
 2182TIP3    H2 6490   5.844   0.193   3.320
 2183TIP3   OH2 6491   2.786   7.980   2.377
 2183TIP3    H1 6492   2.729   7.911   2.342
 2183TIP3    H2 6493   2.733   8.024   2.444
 2184TIP3   OH2 6494   6.693   0.486   2.973
 2184TIP3    H1 6495   6.707   0.413   2.912
 2184TIP3    H2 6496   6.653   0.444   3.049
 2185TIP3   OH2 6497   5.764   0.039   2.602
 2185TIP3    H1 6498   5.676   0.072   2.621
 2185TIP3    H2 6499   5.751  -0.026   2.532
 2186TIP3   OH2 6500   6.020   0.096   2.266
 2186TIP3    H1 6501   6.109   0.063   2.271
 2186TIP3    H2 6502   5.976   0.037   2.204
 2187TIP3   OH2 6503   5.856  -0.006   2.068
 2187TIP3    H1 6504   5.762  -0.025   2.062
 2187TIP3    H2 6505   5.872   0.057   1.998
 2188TIP3   OH2 6506   7.015   1.679   3.089
 2188TIP3    H1 6507   7.012   1.694   2.994
 2188TIP3    H2 6508   7.094   1.725   3.118
 2189TIP3   OH2 6509   5.958   0.810   3.484
 2189TIP3    H1 6510   6.040   0.824   3.532
 2189TIP3    H2 6511   5.890   0.812   3.551
 2190TIP3   OH2 6512   6.419   0.310   2.721
 2190TIP3    H1 6513   6.461   0.229   2.691
 2190TIP3    H2 6514   6.413   0.300   2.816
 2191TIP3   OH2 6515   6.363   0.317   2.994
 2191TIP3    H1 6516   6.282   0.306   3.042
 2191TIP3    H2 6517   6.418   0.370   3.051
 2192TIP3   OH2 6518   6.114   0.531   2.115
 2192TIP3    H1 6519   6.051   0.459   2.108
 2192TIP3    H2 6520   6.098   0.568   2.201
 2193TIP3   OH2 6521   7.003   0.790   2.747
 2193TIP3    H1 6522   7.039   0.834   2.670
 2193TIP3    H2 6523   6.917   0.759   2.718
 2194TIP3   OH2 6524   6.530   0.826   3.171
 2194TIP3    H1 6525   6.591   0.826   3.244
 2194TIP3    H2 6526   6.495   0.915   3.169
 2195TIP3   OH2 6527   5.805   0.554   2.779
 2195TIP3    H1 6528   5.843   0.535   2.693
 2195TIP3    H2 6529   5.868   0.519   2.841
 2196TIP3   OH2 6530   6.285   0.686   1.969
 2196TIP3    H1 6531   6.237   0.769   1.972
 2196TIP3    H2 6532   6.231   0.625   2.019
 2197TIP3   OH2 6533   5.707   0.455   3.407
 2197TIP3    H1 6534   5.706   0.437   3.500
 2197TIP3    H2 6535   5.628   0.413   3.373
 2198TIP3   OH2 6536   6.418   0.617   3.457
 2198TIP3    H1 6537   6.356   0.549   3.430
 2198TIP3    H2 6538   6.501   0.589   3.420
 2199TIP3   OH2 6539   6.676   1.148   3.045
 2199TIP3    H1 6540   6.582   1.131   3.050
 2199TIP3    H2 6541   6.698   1.183   3.132
 2200TIP3   OH2 6542   7.329   1.079   3.004
 2200TIP3    H1 6543   7.238   1.049   3.011
 2200TIP3    H2 6544   7.359   1.043   2.920
 2201TIP3   OH2 6545   6.773   1.015   1.931
 2201TIP3    H1 6546   6.757   0.970   2.014
 2201TIP3    H2 6547   6.756   0.949   1.864
 2202TIP3   OH2 6548   6.762   0.684   2.655
 2202TIP3    H1 6549   6.674   0.650   2.672
 2202TIP3    H2 6550   6.809   0.609   2.618
 2203TIP3   OH2 6551   5.949   0.875   2.460
 2203TIP3    H1 6552   5.946   0.952   2.403
 2203TIP3    H2 6553   5.857   0.857   2.480
 2204TIP3   OH2 6554   5.481   0.188   2.155
 2204TIP3    H1 6555   5.525   0.270   2.179
 2204TIP3    H2 6556   5.402   0.187   2.209
 2205TIP3   OH2 6557   6.025   0.634   2.348
 2205TIP3    H1 6558   6.019   0.723   2.382
 2205TIP3    H2 6559   6.000   0.578   2.422
 2206TIP3   OH2 6560   6.226   1.191   2.916
 2206TIP3    H1 6561   6.262   1.265   2.867
 2206TIP3    H2 6562   6.300   1.158   2.967
 2207TIP3   OH2 6563   5.857   1.096   2.309
 2207TIP3    H1 6564   5.771   1.101   2.351
 2207TIP3    H2 6565   5.891   1.185   2.316
 2208TIP3   OH2 6566   6.577   0.859   2.889
 2208TIP3    H1 6567   6.573   0.840   2.983
 2208TIP3    H2 6568   6.644   0.800   2.855
 2209TIP3   OH2 6569   6.520   0.763   1.842
 2209TIP3    H1 6570   6.592   0.729   1.895
 2209TIP3    H2 6571   6.441   0.732   1.886
 2210TIP3   OH2 6572   6.832   1.352   2.929
 2210TIP3    H1 6573   6.762   1.290   2.948
 2210TIP3    H2 6574   6.798   1.406   2.858
 2211TIP3   OH2 6575   6.876   1.190   1.588
 2211TIP3    H1 6576   6.862   1.222   1.498
 2211TIP3    H2 6577   6.814   1.240   1.640
 2212TIP3   OH2 6578   6.715   0.672   2.012
 2212TIP3    H1 6579   6.710   0.590   2.062
 2212TIP3    H2 6580   6.808   0.683   1.994
 2213TIP3   OH2 6581   5.652   1.088   3.082
 2213TIP3    H1 6582   5.703   1.026   3.134
 2213TIP3    H2 6583   5.670   1.173   3.121
 2214TIP3   OH2 6584   5.908   0.716   1.776
 2214TIP3    H1 6585   5.924   0.626   1.748
 2214TIP3    H2 6586   5.899   0.710   1.871
 2215TIP3   OH2 6587   5.868   0.716   2.049
 2215TIP3    H1 6588   5.943   0.686   2.101
 2215TIP3    H2 6589   5.870   0.812   2.058
 2216TIP3   OH2 6590   5.570   0.433   2.247
 2216TIP3    H1 6591   5.508   0.483   2.300
 2216TIP3    H2 6592   5.591   0.492   2.175
 2217TIP3   OH2 6593   6.133   0.907   1.979
 2217TIP3    H1 6594   6.050   0.932   2.019
 2217TIP3    H2 6595   6.153   0.979   1.919
 2218TIP3   OH2 6596   6.268   0.007   2.325
 2218TIP3    H1 6597   6.361  -0.013   2.327
 2218TIP3    H2 6598   6.245   0.030   2.415
 2219TIP3   OH2 6599   6.592   0.331   3.178
 2219TIP3    H1 6600   6.566   0.404   3.233
 2219TIP3    H2 6601   6.655   0.282   3.231
 2220TIP3   OH2 6602   5.883   0.991   2.059
 2220TIP3    H1 6603   5.856   1.061   2.000
 2220TIP3    H2 6604   5.874   1.028   2.146
 2221TIP3   OH2 6605   6.897   0.461   2.566
 2221TIP3    H1 6606   6.818   0.407   2.560
 2221TIP3    H2 6607   6.957   0.410   2.620
 2222TIP3   OH2 6608   5.620   0.594   2.029
 2222TIP3    H1 6609   5.693   0.656   2.040
 2222TIP3    H2 6610   5.656   0.525   1.974
 2223TIP3   OH2 6611   2.750   7.961   2.071
 2223TIP3    H1 6612   2.722   8.039   2.119
 2223TIP3    H2 6613   2.670   7.909   2.062
 2224TIP3   OH2 6614   6.855   1.353   2.500
 2224TIP3    H1 6615   6.813   1.406   2.433
 2224TIP3    H2 6616   6.949   1.366   2.486
 2225TIP3   OH2 6617   5.448   0.866   2.437
 2225TIP3    H1 6618   5.406   0.902   2.516
 2225TIP3    H2 6619   5.400   0.906   2.364
 2226TIP3   OH2 6620   5.657   1.391   3.500
 2226TIP3    H1 6621   5.738   1.400   3.550
 2226TIP3    H2 6622   5.649   1.297   3.484
 2227TIP3   OH2 6623   6.115   1.297   3.541
 2227TIP3    H1 6624   6.207   1.270   3.549
 2227TIP3    H2 6625   6.081   1.244   3.469
 2228TIP3   OH2 6626   6.061   0.926   1.678
 2228TIP3    H1 6627   6.019   0.849   1.715
 2228TIP3    H2 6628   6.138   0.892   1.632
 2229TIP3   OH2 6629   6.735   1.243   3.295
 2229TIP3    H1 6630   6.748   1.174   3.361
 2229TIP3    H2 6631   6.809   1.302   3.308
 2230TIP3   OH2 6632   6.527   0.928   1.627
 2230TIP3    H1 6633   6.521   0.867   1.701
 2230TIP3    H2 6634   6.621   0.934   1.609
 2231TIP3   OH2 6635   5.758   0.803   3.683
 2231TIP3    H1 6636   5.791   0.713   3.684
 2231TIP3    H2 6637   5.671   0.796   3.645
 2232TIP3   OH2 6638   5.757   0.391   1.903
 2232TIP3    H1 6639   5.811   0.363   1.977
 2232TIP3    H2 6640   5.819   0.409   1.833
 2233TIP3   OH2 6641   6.371   0.889   3.468
 2233TIP3    H1 6642   6.325   0.908   3.386
 2233TIP3    H2 6643   6.400   0.798   3.458
 2234TIP3   OH2 6644   6.232   0.625   1.701
 2234TIP3    H1 6645   6.263   0.645   1.789
 2234TIP3    H2 6646   6.181   0.544   1.711
 2235TIP3   OH2 6647   6.844   0.927   3.079
 2235TIP3    H1 6648   6.923   0.949   3.031
 2235TIP3    H2 6649   6.782   0.997   3.058
 2236TIP3   OH2 6650   5.885   0.560   3.653
 2236TIP3    H1 6651   5.976   0.539   3.631
 2236TIP3    H2 6652   5.862   0.496   3.721
 2237TIP3   OH2 6653   5.929   0.321   2.125
 2237TIP3    H1 6654   5.879   0.341   2.204
 2237TIP3    H2 6655   5.984   0.246   2.150
 2238TIP3   OH2 6656   6.229   0.434   3.329
 2238TIP3    H1 6657   6.145   0.477   3.341
 2238TIP3    H2 6658   6.271   0.484   3.259
 2239TIP3   OH2 6659   6.726   0.804   3.429
 2239TIP3    H1 6660   6.800   0.775   3.376
 2239TIP3    H2 6661   6.722   0.742   3.502
 2240TIP3   OH2 6662   6.332   0.180   3.381
 2240TIP3    H1 6663   6.289   0.121   3.320
 2240TIP3    H2 6664   6.301   0.268   3.357
 2241TIP3   OH2 6665   6.387   0.574   3.148
 2241TIP3    H1 6666   6.447   0.648   3.159
 2241TIP3    H2 6667   6.320   0.607   3.088
 2242TIP3   OH2 6668   6.924   0.454   3.456
 2242TIP3    H1 6669   6.921   0.443   3.551
 2242TIP3    H2 6670   7.004   0.506   3.441
 2243TIP3   OH2 6671   6.955   0.764   3.262
 2243TIP3    H1 6672   6.905   0.824   3.207
 2243TIP3    H2 6673   7.045   0.771   3.228
 2244TIP3   OH2 6674   6.191   0.389   3.664
 2244TIP3    H1 6675   6.148   0.366   3.746
 2244TIP3    H2 6676   6.267   0.332   3.659
 2245TIP3   OH2 6677   6.582   0.269   3.475
 2245TIP3    H1 6678   6.599   0.239   3.565
 2245TIP3    H2 6679   6.502   0.224   3.450
 2246TIP3   OH2 6680   5.861   1.208   1.882
 2246TIP3    H1 6681   5.954   1.193   1.865
 2246TIP3    H2 6682   5.827   1.242   1.799
 2247TIP3   OH2 6683   5.347   0.599   2.077
 2247TIP3    H1 6684   5.438   0.617   2.052
 2247TIP3    H2 6685   5.327   0.515   2.036
 2248TIP3   OH2 6686   5.247   1.163   2.517
 2248TIP3    H1 6687   5.183   1.108   2.472
 2248TIP3    H2 6688   5.291   1.103   2.578
 2249TIP3   OH2 6689   5.391   0.999   2.687
 2249TIP3    H1 6690   5.384   0.929   2.752
 2249TIP3    H2 6691   5.445   1.065   2.729
 2250TIP3   OH2 6692   7.123   1.402   2.487
 2250TIP3    H1 6693   7.147   1.432   2.574
 2250TIP3    H2 6694   7.186   1.445   2.428
 2251TIP3   OH2 6695   7.142   1.434   2.768
 2251TIP3    H1 6696   7.099   1.349   2.766
 2251TIP3    H2 6697   7.217   1.422   2.826
 2252TIP3   OH2 6698   7.207   1.128   3.351
 2252TIP3    H1 6699   7.131   1.139   3.408
 2252TIP3    H2 6700   7.250   1.213   3.352
 2253TIP3   OH2 6701   6.984   0.695   1.987
 2253TIP3    H1 6702   7.052   0.760   1.964
 2253TIP3    H2 6703   7.030   0.633   2.043
 2254TIP3   OH2 6704   7.118   0.533   2.168
 2254TIP3    H1 6705   7.057   0.465   2.194
 2254TIP3    H2 6706   7.150   0.570   2.250
 2255TIP3   OH2 6707   7.191   0.903   2.575
 2255TIP3    H1 6708   7.235   0.839   2.519
 2255TIP3    H2 6709   7.196   0.985   2.526
 2256TIP3   OH2 6710   7.007   1.189   2.786
 2256TIP3    H1 6711   6.941   1.238   2.835
 2256TIP3    H2 6712   6.959   1.150   2.713
 2257TIP3   OH2 6713   6.958   0.362   2.315
 2257TIP3    H1 6714   7.022   0.297   2.343
 2257TIP3    H2 6715   6.934   0.410   2.394
 2258TIP3   OH2 6716   5.554   0.446   3.053
 2258TIP3    H1 6717   5.545   0.423   2.961
 2258TIP3    H2 6718   5.648   0.446   3.069
 2259TIP3   OH2 6719   7.202   0.790   3.143
 2259TIP3    H1 6720   7.272   0.728   3.123
 2259TIP3    H2 6721   7.189   0.839   3.062
 2260TIP3   OH2 6722   7.404   0.605   3.140
 2260TIP3    H1 6723   7.354   0.530   3.170
 2260TIP3    H2 6724   7.477   0.612   3.202
 2261TIP3   OH2 6725   7.080   0.317   2.712
 2261TIP3    H1 6726   7.157   0.346   2.662
 2261TIP3    H2 6727   7.095   0.350   2.801
 2262TIP3   OH2 6728   7.164   0.434   2.945
 2262TIP3    H1 6729   7.087   0.469   2.990
 2262TIP3    H2 6730   7.196   0.507   2.892
 2263TIP3   OH2 6731   5.689   0.077   3.729
 2263TIP3    H1 6732   5.737   0.002   3.693
 2263TIP3    H2 6733   5.656   0.046   3.814
 2264TIP3   OH2 6734   5.534   0.132   3.144
 2264TIP3    H1 6735   5.581   0.121   3.061
 2264TIP3    H2 6736   5.596   0.176   3.201
 2265TIP3   OH2 6737   6.683   1.318   2.148
 2265TIP3    H1 6738   6.740   1.310   2.072
 2265TIP3    H2 6739   6.724   1.386   2.201
 2266TIP3   OH2 6740   5.778   1.115   3.507
 2266TIP3    H1 6741   5.686   1.090   3.502
 2266TIP3    H2 6742   5.802   1.100   3.599
 2267TIP3   OH2 6743   5.996   1.156   3.064
 2267TIP3    H1 6744   5.947   1.232   3.032
 2267TIP3    H2 6745   6.082   1.164   3.021
 2268TIP3   OH2 6746   6.393   1.385   3.202
 2268TIP3    H1 6747   6.431   1.379   3.289
 2268TIP3    H2 6748   6.455   1.439   3.153
 2269TIP3   OH2 6749   6.584   1.541   3.077
 2269TIP3    H1 6750   6.646   1.487   3.027
 2269TIP3    H2 6751   6.639   1.598   3.131
 2270TIP3   OH2 6752   5.657   1.395   3.113
 2270TIP3    H1 6753   5.565   1.412   3.091
 2270TIP3    H2 6754   5.679   1.461   3.177
 2271TIP3   OH2 6755   5.888   1.388   2.963
 2271TIP3    H1 6756   5.805   1.392   3.010
 2271TIP3    H2 6757   5.865   1.410   2.873
 2272TIP3   OH2 6758   6.300   1.404   2.755
 2272TIP3    H1 6759   6.229   1.415   2.692
 2272TIP3    H2 6760   6.310   1.490   2.795
 2273TIP3   OH2 6761   6.563   1.340   2.805
 2273TIP3    H1 6762   6.472   1.360   2.784
 2273TIP3    H2 6763   6.614   1.407   2.759
 2274TIP3   OH2 6764   6.762   1.510   2.705
 2274TIP3    H1 6765   6.765   1.598   2.668
 2274TIP3    H2 6766   6.793   1.453   2.635
 2275TIP3   OH2 6767   5.568   1.174   2.831
 2275TIP3    H1 6768   5.594   1.150   2.920
 2275TIP3    H2 6769   5.640   1.143   2.776
 2276TIP3   OH2 6770   5.772   1.067   2.688
 2276TIP3    H1 6771   5.782   0.983   2.732
 2276TIP3    H2 6772   5.859   1.107   2.691
 2277TIP3   OH2 6773   6.040   1.146   2.713
 2277TIP3    H1 6774   6.057   1.053   2.697
 2277TIP3    H2 6775   6.095   1.168   2.788
 2278TIP3   OH2 6776   5.319   0.974   2.221
 2278TIP3    H1 6777   5.238   0.941   2.181
 2278TIP3    H2 6778   5.327   1.064   2.189
 2279TIP3   OH2 6779   6.123   1.146   1.822
 2279TIP3    H1 6780   6.210   1.165   1.787
 2279TIP3    H2 6781   6.089   1.078   1.764
 2280TIP3   OH2 6782   6.839   1.277   1.921
 2280TIP3    H1 6783   6.825   1.183   1.923
 2280TIP3    H2 6784   6.794   1.307   1.843
 2281TIP3   OH2 6785   5.450   1.008   1.837
 2281TIP3    H1 6786   5.433   0.981   1.927
 2281TIP3    H2 6787   5.529   0.961   1.813
 2282TIP3   OH2 6788   7.054   1.406   3.090
 2282TIP3    H1 6789   6.980   1.376   3.039
 2282TIP3    H2 6790   7.040   1.500   3.100
 2283TIP3   OH2 6791   7.591   1.095   2.317
 2283TIP3    H1 6792   7.554   1.008   2.308
 2283TIP3    H2 6793   7.621   1.100   2.408
 2284TIP3   OH2 6794   7.383   0.589   2.279
 2284TIP3    H1 6795   7.398   0.495   2.267
 2284TIP3    H2 6796   7.354   0.619   2.193
 2285TIP3   OH2 6797   7.201   0.854   1.924
 2285TIP3    H1 6798   7.255   0.832   1.848
 2285TIP3    H2 6799   7.215   0.948   1.937
 2286TIP3   OH2 6800   7.765   1.474   2.872
 2286TIP3    H1 6801   7.746   1.439   2.785
 2286TIP3    H2 6802   7.700   1.433   2.929
 2287TIP3   OH2 6803   7.388   0.953   2.767
 2287TIP3    H1 6804   7.315   0.928   2.710
 2287TIP3    H2 6805   7.421   0.871   2.802
 2288TIP3   OH2 6806   7.242   1.150   2.453
 2288TIP3    H1 6807   7.325   1.189   2.481
 2288TIP3    H2 6808   7.177   1.218   2.468
 2289TIP3   OH2 6809   7.411   1.356   1.944
 2289TIP3    H1 6810   7.477   1.348   2.013
 2289TIP3    H2 6811   7.379   1.267   1.931
 2290TIP3   OH2 6812   7.568   1.159   2.729
 2290TIP3    H1 6813   7.634   1.134   2.793
 2290TIP3    H2 6814   7.501   1.090   2.736
 2291TIP3   OH2 6815   7.724   1.042   2.931
 2291TIP3    H1 6816   7.795   1.085   2.979
 2291TIP3    H2 6817   7.689   0.977   2.992
 2292TIP3   OH2 6818   7.493   0.739   2.900
 2292TIP3    H1 6819   7.557   0.766   2.966
 2292TIP3    H2 6820   7.444   0.668   2.943
 2293TIP3   OH2 6821   7.432   1.337   2.564
 2293TIP3    H1 6822   7.487   1.282   2.620
 2293TIP3    H2 6823   7.451   1.426   2.592
 2294TIP3   OH2 6824   7.246   1.126   1.925
 2294TIP3    H1 6825   7.204   1.174   1.997
 2294TIP3    H2 6826   7.201   1.158   1.847
 2295TIP3   OH2 6827   7.427   1.635   2.973
 2295TIP3    H1 6828   7.506   1.637   3.028
 2295TIP3    H2 6829   7.404   1.543   2.968
 2296TIP3   OH2 6830   7.532   1.052   3.193
 2296TIP3    H1 6831   7.567   0.965   3.178
 2296TIP3    H2 6832   7.456   1.059   3.135
 2297TIP3   OH2 6833   7.668   0.809   3.110
 2297TIP3    H1 6834   7.757   0.777   3.094
 2297TIP3    H2 6835   7.637   0.758   3.184
 2298TIP3   OH2 6836   7.044   1.431   2.011
 2298TIP3    H1 6837   6.977   1.377   1.968
 2298TIP3    H2 6838   7.089   1.371   2.070
 2299TIP3   OH2 6839   7.181   1.255   2.173
 2299TIP3    H1 6840   7.172   1.184   2.237
 2299TIP3    H2 6841   7.241   1.317   2.214
 2300TIP3   OH2 6842   7.377   0.682   2.536
 2300TIP3    H1 6843   7.376   0.651   2.445
 2300TIP3    H2 6844   7.467   0.709   2.551
 2301TIP3   OH2 6845   7.475   0.354   3.273
 2301TIP3    H1 6846   7.561   0.391   3.254
 2301TIP3    H2 6847   7.491   0.260   3.283
 2302TIP3   OH2 6848   7.327   0.393   2.604
 2302TIP3    H1 6849   7.378   0.383   2.523
 2302TIP3    H2 6850   7.341   0.483   2.630
 2303TIP3   OH2 6851   7.578   1.364   3.043
 2303TIP3    H1 6852   7.490   1.350   3.008
 2303TIP3    H2 6853   7.575   1.330   3.132
 2304TIP3   OH2 6854   7.449   1.621   2.604
 2304TIP3    H1 6855   7.360   1.648   2.580
 2304TIP3    H2 6856   7.483   1.694   2.656
 2305TIP3   OH2 6857   7.644   1.528   2.421
 2305TIP3    H1 6858   7.585   1.563   2.488
 2305TIP3    H2 6859   7.649   1.598   2.355
 2306TIP3   OH2 6860   7.356   1.425   2.310
 2306TIP3    H1 6861   7.387   1.404   2.398
 2306TIP3    H2 6862   7.430   1.402   2.252
 2307TIP3   OH2 6863   7.572   1.327   2.172
 2307TIP3    H1 6864   7.581   1.242   2.213
 2307TIP3    H2 6865   7.641   1.381   2.210
 2308TIP3   OH2 6866   7.136   1.213   1.682
 2308TIP3    H1 6867   7.045   1.193   1.657
 2308TIP3    H2 6868   7.142   1.308   1.676
 2309TIP3   OH2 6869   7.227   1.175   1.411
 2309TIP3    H1 6870   7.206   1.185   1.504
 2309TIP3    H2 6871   7.310   1.127   1.410
 2310TIP3   OH2 6872   0.763   1.583   3.532
 2310TIP3    H1 6873   0.726   1.656   3.482
 2310TIP3    H2 6874   0.733   1.599   3.622
 2311TIP3   OH2 6875   0.791   1.569   3.933
 2311TIP3    H1 6876   0.838   1.559   4.016
 2311TIP3    H2 6877   0.750   1.484   3.918
 2312TIP3   OH2 6878   0.071   1.444   4.295
 2312TIP3    H1 6879   0.106   1.386   4.362
 2312TIP3    H2 6880   0.147   1.467   4.241
 2313TIP3   OH2 6881   1.056   1.881   3.618
 2313TIP3    H1 6882   1.041   1.817   3.688
 2313TIP3    H2 6883   1.074   1.963   3.664
 2314TIP3   OH2 6884   0.074   1.859   4.002
 2314TIP3    H1 6885   0.055   1.765   4.003
 2314TIP3    H2 6886   0.169   1.864   3.993
 2315TIP3   OH2 6887   0.708   2.304   3.630
 2315TIP3    H1 6888   0.733   2.238   3.565
 2315TIP3    H2 6889   0.711   2.259   3.714
 2316TIP3   OH2 6890   0.597   1.789   3.958
 2316TIP3    H1 6891   0.642   1.711   3.926
 2316TIP3    H2 6892   0.667   1.847   3.989
 2317TIP3   OH2 6893   1.643   1.126   3.954
 2317TIP3    H1 6894   1.653   1.214   3.992
 2317TIP3    H2 6895   1.676   1.135   3.865
 2318TIP3   OH2 6896   1.006   1.280   3.995
 2318TIP3    H1 6897   1.094   1.244   3.986
 2318TIP3    H2 6898   0.972   1.281   3.906
 2319TIP3   OH2 6899   1.069   1.071   3.584
 2319TIP3    H1 6900   1.134   1.075   3.654
 2319TIP3    H2 6901   1.116   1.100   3.505
 2320TIP3   OH2 6902   0.399   1.348   3.894
 2320TIP3    H1 6903   0.494   1.362   3.898
 2320TIP3    H2 6904   0.389   1.255   3.874
 2321TIP3   OH2 6905   1.683   1.341   4.136
 2321TIP3    H1 6906   1.593   1.373   4.132
 2321TIP3    H2 6907   1.721   1.383   4.213
 2322TIP3   OH2 6908   0.381   0.993   4.413
 2322TIP3    H1 6909   0.291   1.020   4.391
 2322TIP3    H2 6910   0.384   0.997   4.509
 2323TIP3   OH2 6911   0.650   1.791   3.398
 2323TIP3    H1 6912   0.645   1.784   3.302
 2323TIP3    H2 6913   0.600   1.870   3.418
 2324TIP3   OH2 6914   0.422   1.718   4.161
 2324TIP3    H1 6915   0.370   1.790   4.196
 2324TIP3    H2 6916   0.472   1.758   4.090
 2325TIP3   OH2 6917   1.206   1.102   3.819
 2325TIP3    H1 6918   1.259   1.025   3.841
 2325TIP3    H2 6919   1.263   1.176   3.836
 2326TIP3   OH2 6920   0.196   1.045   4.188
 2326TIP3    H1 6921   0.254   1.120   4.204
 2326TIP3    H2 6922   0.223   1.013   4.102
 2327TIP3   OH2 6923   0.270   1.921   4.272
 2327TIP3    H1 6924   0.258   2.011   4.244
 2327TIP3    H2 6925   0.188   1.898   4.316
 2328TIP3   OH2 6926   1.085   2.125   3.761
 2328TIP3    H1 6927   0.998   2.118   3.799
 2328TIP3    H2 6928   1.085   2.209   3.714
 2329TIP3   OH2 6929   1.455   1.053   4.149
 2329TIP3    H1 6930   1.364   1.064   4.123
 2329TIP3    H2 6931   1.506   1.069   4.069
 2330TIP3   OH2 6932   0.704   0.581   4.163
 2330TIP3    H1 6933   0.719   0.550   4.074
 2330TIP3    H2 6934   0.610   0.574   4.176
 2331TIP3   OH2 6935   0.793   2.143   3.419
 2331TIP3    H1 6936   0.845   2.064   3.405
 2331TIP3    H2 6937   0.851   2.214   3.394
 2332TIP3   OH2 6938   0.957   1.933   3.364
 2332TIP3    H1 6939   0.965   1.854   3.310
 2332TIP3    H2 6940   0.994   1.908   3.449
 2333TIP3   OH2 6941   1.316   2.019   4.106
 2333TIP3    H1 6942   1.302   1.944   4.048
 2333TIP3    H2 6943   1.302   2.096   4.050
 2334TIP3   OH2 6944   1.500   1.678   3.976
 2334TIP3    H1 6945   1.416   1.724   3.974
 2334TIP3    H2 6946   1.537   1.691   3.889
 2335TIP3   OH2 6947   0.960   1.507   3.350
 2335TIP3    H1 6948   0.901   1.536   3.419
 2335TIP3    H2 6949   1.042   1.487   3.395
 2336TIP3   OH2 6950   1.199   1.546   4.281
 2336TIP3    H1 6951   1.196   1.630   4.327
 2336TIP3    H2 6952   1.118   1.543   4.230
 2337TIP3   OH2 6953   0.189   1.486   3.775
 2337TIP3    H1 6954   0.167   1.436   3.696
 2337TIP3    H2 6955   0.266   1.443   3.810
 2338TIP3   OH2 6956   0.340   1.900   3.892
 2338TIP3    H1 6957   0.313   1.886   3.802
 2338TIP3    H2 6958   0.428   1.862   3.897
 2339TIP3   OH2 6959   0.287   1.485   4.116
 2339TIP3    H1 6960   0.325   1.450   4.035
 2339TIP3    H2 6961   0.334   1.567   4.131
 2340TIP3   OH2 6962   0.847   2.118   3.893
 2340TIP3    H1 6963   0.834   2.200   3.941
 2340TIP3    H2 6964   0.832   2.049   3.957
 2341TIP3   OH2 6965   0.472   2.016   4.438
 2341TIP3    H1 6966   0.413   2.075   4.485
 2341TIP3    H2 6967   0.413   1.966   4.380
 2342TIP3   OH2 6968   0.226   1.573   4.568
 2342TIP3    H1 6969   0.234   1.662   4.602
 2342TIP3    H2 6970   0.131   1.558   4.564
 2343TIP3   OH2 6971   0.533   2.050   3.400
 2343TIP3    H1 6972   0.623   2.078   3.417
 2343TIP3    H2 6973   0.486   2.131   3.380
 2344TIP3   OH2 6974   0.269   2.179   4.531
 2344TIP3    H1 6975   0.247   2.190   4.438
 2344TIP3    H2 6976   0.189   2.142   4.570
 2345TIP3   OH2 6977   1.126   1.969   2.774
 2345TIP3    H1 6978   1.121   2.064   2.761
 2345TIP3    H2 6979   1.217   1.947   2.753
 2346TIP3   OH2 6980   8.354   1.709   4.450
 2346TIP3    H1 6981   8.322   1.666   4.370
 2346TIP3    H2 6982   8.388   1.637   4.504
 2347TIP3   OH2 6983   8.260   1.885   4.037
 2347TIP3    H1 6984   8.354   1.890   4.054
 2347TIP3    H2 6985   8.220   1.926   4.114
 2348TIP3   OH2 6986   1.546   2.369   4.175
 2348TIP3    H1 6987   1.550   2.275   4.192
 2348TIP3    H2 6988   1.467   2.397   4.221
 2349TIP3   OH2 6989   0.660   2.161   4.302
 2349TIP3    H1 6990   0.652   2.252   4.331
 2349TIP3    H2 6991   0.591   2.114   4.349
 2350TIP3   OH2 6992   0.442   2.275   3.266
 2350TIP3    H1 6993   0.401   2.252   3.182
 2350TIP3    H2 6994   0.405   2.360   3.288
 2351TIP3   OH2 6995   8.366   2.120   3.637
 2351TIP3    H1 6996   8.434   2.108   3.704
 2351TIP3    H2 6997   8.287   2.082   3.676
 2352TIP3   OH2 6998   0.628   2.176   2.893
 2352TIP3    H1 6999   0.687   2.108   2.858
 2352TIP3    H2 7000   0.665   2.197   2.978
 2353TIP3   OH2 7001   0.693   2.242   3.156
 2353TIP3    H1 7002   0.608   2.247   3.199
 2353TIP3    H2 7003   0.752   2.206   3.222
 2354TIP3   OH2 7004   1.446   1.496   4.451
 2354TIP3    H1 7005   1.365   1.514   4.404
 2354TIP3    H2 7006   1.463   1.403   4.436
 2355TIP3   OH2 7007   0.045   1.907   4.433
 2355TIP3    H1 7008   0.094   1.884   4.513
 2355TIP3    H2 7009  -0.028   1.845   4.431
 2356TIP3   OH2 7010   0.384   0.790   4.235
 2356TIP3    H1 7011   0.320   0.728   4.268
 2356TIP3    H2 7012   0.390   0.857   4.303
 2357TIP3   OH2 7013   0.976   0.940   4.535
 2357TIP3    H1 7014   1.004   0.866   4.482
 2357TIP3    H2 7015   0.889   0.916   4.567
 2358TIP3   OH2 7016   1.205   1.290   4.383
 2358TIP3    H1 7017   1.166   1.290   4.471
 2358TIP3    H2 7018   1.190   1.378   4.351
 2359TIP3   OH2 7019   0.371   1.265   4.258
 2359TIP3    H1 7020   0.331   1.274   4.345
 2359TIP3    H2 7021   0.343   1.343   4.211
 2360TIP3   OH2 7022   0.775   1.297   3.506
 2360TIP3    H1 7023   0.724   1.378   3.506
 2360TIP3    H2 7024   0.835   1.306   3.432
 2361TIP3   OH2 7025   0.922   1.492   4.597
 2361TIP3    H1 7026   0.897   1.423   4.659
 2361TIP3    H2 7027   1.015   1.506   4.613
 2362TIP3   OH2 7028   0.929   1.252   3.734
 2362TIP3    H1 7029   0.854   1.279   3.682
 2362TIP3    H2 7030   0.969   1.182   3.682
 2363TIP3   OH2 7031   0.220   1.302   4.487
 2363TIP3    H1 7032   0.235   1.387   4.529
 2363TIP3    H2 7033   0.190   1.245   4.557
 2364TIP3   OH2 7034   0.947   1.491   4.158
 2364TIP3    H1 7035   0.969   1.417   4.102
 2364TIP3    H2 7036   0.901   1.452   4.233
 2365TIP3   OH2 7037   0.611   1.052   3.845
 2365TIP3    H1 7038   0.562   1.034   3.925
 2365TIP3    H2 7039   0.663   0.973   3.830
 2366TIP3   OH2 7040   1.181   1.051   4.123
 2366TIP3    H1 7041   1.119   1.079   4.190
 2366TIP3    H2 7042   1.128   1.006   4.058
 2367TIP3   OH2 7043   1.265   2.721   4.264
 2367TIP3    H1 7044   1.261   2.737   4.170
 2367TIP3    H2 7045   1.344   2.766   4.293
 2368TIP3   OH2 7046   0.206   1.843   4.672
 2368TIP3    H1 7047   0.283   1.844   4.729
 2368TIP3    H2 7048   0.159   1.924   4.694
 2369TIP3   OH2 7049   0.674   1.313   3.927
 2369TIP3    H1 7050   0.670   1.229   3.880
 2369TIP3    H2 7051   0.673   1.288   4.020
 2370TIP3   OH2 7052   0.646   1.253   4.194
 2370TIP3    H1 7053   0.554   1.263   4.217
 2370TIP3    H2 7054   0.692   1.312   4.253
 2371TIP3   OH2 7055   1.266   1.815   3.927
 2371TIP3    H1 7056   1.304   1.864   3.854
 2371TIP3    H2 7057   1.186   1.777   3.892
 2372TIP3   OH2 7058   0.781   1.892   4.343
 2372TIP3    H1 7059   0.833   1.886   4.423
 2372TIP3    H2 7060   0.741   1.979   4.347
 2373TIP3   OH2 7061   0.048   1.584   3.996
 2373TIP3    H1 7062   0.073   1.557   3.907
 2373TIP3    H2 7063   0.115   1.544   4.052
 2374TIP3   OH2 7064   0.585   1.745   3.125
 2374TIP3    H1 7065   0.526   1.820   3.125
 2374TIP3    H2 7066   0.530   1.671   3.148
 2375TIP3   OH2 7067   8.452   1.525   4.637
 2375TIP3    H1 7068   8.497   1.540   4.720
 2375TIP3    H2 7069   8.362   1.502   4.662
 2376TIP3   OH2 7070   0.692   1.645   4.632
 2376TIP3    H1 7071   0.623   1.586   4.602
 2376TIP3    H2 7072   0.773   1.602   4.604
 2377TIP3   OH2 7073   0.930   2.183   4.229
 2377TIP3    H1 7074   0.835   2.170   4.233
 2377TIP3    H2 7075   0.952   2.221   4.313
 2378TIP3   OH2 7076   1.330   1.233   3.109
 2378TIP3    H1 7077   1.258   1.180   3.077
 2378TIP3    H2 7078   1.319   1.318   3.066
 2379TIP3   OH2 7079   1.562   2.086   4.202
 2379TIP3    H1 7080   1.468   2.076   4.189
 2379TIP3    H2 7081   1.601   2.064   4.117
 2380TIP3   OH2 7082   1.067   2.043   3.046
 2380TIP3    H1 7083   1.030   1.977   3.105
 2380TIP3    H2 7084   1.075   1.998   2.962
 2381TIP3   OH2 7085   1.036   1.687   3.825
 2381TIP3    H1 7086   0.948   1.661   3.854
 2381TIP3    H2 7087   1.073   1.606   3.789
 2382TIP3   OH2 7088   0.196   1.911   3.652
 2382TIP3    H1 7089   0.196   1.978   3.583
 2382TIP3    H2 7090   0.117   1.929   3.702
 2383TIP3   OH2 7091   0.340   1.675   3.632
 2383TIP3    H1 7092   0.296   1.758   3.615
 2383TIP3    H2 7093   0.278   1.625   3.684
 2384TIP3   OH2 7094   0.481   2.234   4.094
 2384TIP3    H1 7095   0.513   2.309   4.044
 2384TIP3    H2 7096   0.557   2.204   4.143
 2385TIP3   OH2 7097   0.118   2.132   3.506
 2385TIP3    H1 7098   0.024   2.137   3.523
 2385TIP3    H2 7099   0.146   2.224   3.497
 2386TIP3   OH2 7100   0.828   1.899   4.070
 2386TIP3    H1 7101   0.811   1.894   4.165
 2386TIP3    H2 7102   0.916   1.862   4.059
 2387TIP3   OH2 7103   0.828   1.764   2.971
 2387TIP3    H1 7104   0.888   1.750   3.044
 2387TIP3    H2 7105   0.740   1.755   3.009
 2388TIP3   OH2 7106   1.078   2.398   4.107
 2388TIP3    H1 7107   1.007   2.336   4.122
 2388TIP3    H2 7108   1.048   2.452   4.034
 2389TIP3   OH2 7109   1.133   2.243   2.745
 2389TIP3    H1 7110   1.158   2.307   2.678
 2389TIP3    H2 7111   1.063   2.286   2.795
 2390TIP3   OH2 7112   1.005   1.721   3.179
 2390TIP3    H1 7113   0.981   1.643   3.230
 2390TIP3    H2 7114   1.098   1.710   3.161
 2391TIP3   OH2 7115   8.441   2.117   4.239
 2391TIP3    H1 7116   8.468   2.051   4.304
 2391TIP3    H2 7117   8.451   2.200   4.285
 2392TIP3   OH2 7118   1.002   1.116   4.328
 2392TIP3    H1 7119   1.079   1.169   4.352
 2392TIP3    H2 7120   0.988   1.059   4.403
 2393TIP3   OH2 7121   0.412   1.950   3.163
 2393TIP3    H1 7122   0.431   1.981   3.252
 2393TIP3    H2 7123   0.386   2.028   3.115
 2394TIP3   OH2 7124   0.843   1.349   4.369
 2394TIP3    H1 7125   0.869   1.390   4.451
 2394TIP3    H2 7126   0.888   1.265   4.368
 2395TIP3   OH2 7127   1.468   1.229   4.366
 2395TIP3    H1 7128   1.373   1.236   4.374
 2395TIP3    H2 7129   1.482   1.177   4.287
 2396TIP3   OH2 7130   1.135   1.439   3.740
 2396TIP3    H1 7131   1.064   1.374   3.743
 2396TIP3    H2 7132   1.205   1.400   3.792
 2397TIP3   OH2 7133   1.109   2.390   3.676
 2397TIP3    H1 7134   1.068   2.443   3.607
 2397TIP3    H2 7135   1.203   2.402   3.662
 2398TIP3   OH2 7136   8.412   2.360   4.703
 2398TIP3    H1 7137   8.488   2.381   4.757
 2398TIP3    H2 7138   8.380   2.444   4.672
 2399TIP3   OH2 7139   0.351   2.366   4.717
 2399TIP3    H1 7140   0.443   2.348   4.733
 2399TIP3    H2 7141   0.326   2.302   4.650
 2400TIP3   OH2 7142   0.983   2.284   4.479
 2400TIP3    H1 7143   0.999   2.214   4.542
 2400TIP3    H2 7144   1.057   2.343   4.490
 2401TIP3   OH2 7145   0.809   1.987   2.806
 2401TIP3    H1 7146   0.810   1.908   2.860
 2401TIP3    H2 7147   0.892   1.985   2.759
 2402TIP3   OH2 7148   8.453   1.827   4.863
 2402TIP3    H1 7149   8.508   1.758   4.827
 2402TIP3    H2 7150   8.394   1.851   4.791
 2403TIP3   OH2 7151   0.625   1.918   4.644
 2403TIP3    H1 7152   0.581   1.937   4.561
 2403TIP3    H2 7153   0.661   1.830   4.632
 2404TIP3   OH2 7154   1.093   1.956   4.255
 2404TIP3    H1 7155   1.171   1.984   4.207
 2404TIP3    H2 7156   1.031   2.028   4.243
 2405TIP3   OH2 7157   0.095   1.577   4.865
 2405TIP3    H1 7158   0.157   1.504   4.868
 2405TIP3    H2 7159   0.102   1.618   4.951
 2406TIP3   OH2 7160   0.491   1.477   4.530
 2406TIP3    H1 7161   0.405   1.518   4.536
 2406TIP3    H2 7162   0.523   1.500   4.443
 2407TIP3   OH2 7163   0.979   1.835   4.612
 2407TIP3    H1 7164   1.047   1.796   4.557
 2407TIP3    H2 7165   0.976   1.778   4.689
 2408TIP3   OH2 7166   0.595   1.244   4.634
 2408TIP3    H1 7167   0.614   1.187   4.560
 2408TIP3    H2 7168   0.559   1.324   4.595
 2409TIP3   OH2 7169   0.638   1.079   4.416
 2409TIP3    H1 7170   0.667   1.119   4.333
 2409TIP3    H2 7171   0.548   1.053   4.399
 2410TIP3   OH2 7172   0.602   1.563   4.298
 2410TIP3    H1 7173   0.685   1.611   4.293
 2410TIP3    H2 7174   0.541   1.618   4.248
 2411TIP3   OH2 7175   1.190   1.528   4.682
 2411TIP3    H1 7176   1.230   1.441   4.679
 2411TIP3    H2 7177   1.265   1.588   4.674
 2412TIP3   OH2 7178   1.221   1.787   4.424
 2412TIP3    H1 7179   1.166   1.847   4.374
 2412TIP3    H2 7180   1.310   1.802   4.393
 2413TIP3   OH2 7181   0.497   1.328   4.895
 2413TIP3    H1 7182   0.404   1.344   4.914
 2413TIP3    H2 7183   0.498   1.304   4.802
 2414TIP3   OH2 7184   0.708   0.878   4.590
 2414TIP3    H1 7185   0.679   0.951   4.535
 2414TIP3    H2 7186   0.718   0.805   4.529
 2415TIP3   OH2 7187   0.842   1.280   4.753
 2415TIP3    H1 7188   0.831   1.265   4.847
 2415TIP3    H2 7189   0.757   1.260   4.715
 2416TIP3   OH2 7190   1.092   1.250   4.624
 2416TIP3    H1 7191   1.011   1.237   4.673
 2416TIP3    H2 7192   1.161   1.214   4.681
 2417TIP3   OH2 7193   1.329   1.204   4.765
 2417TIP3    H1 7194   1.343   1.109   4.773
 2417TIP3    H2 7195   1.324   1.235   4.856
 2418TIP3   OH2 7196   0.745   0.802   4.848
 2418TIP3    H1 7197   0.814   0.738   4.828
 2418TIP3    H2 7198   0.713   0.829   4.762
 2419TIP3   OH2 7199   0.890   1.007   4.946
 2419TIP3    H1 7200   0.844   0.932   4.907
 2419TIP3    H2 7201   0.823   1.073   4.959
 2420TIP3   OH2 7202   8.180   2.038   3.819
 2420TIP3    H1 7203   8.210   1.975   3.885
 2420TIP3    H2 7204   8.125   2.100   3.868
 2421TIP3   OH2 7205   1.381   2.439   3.668
 2421TIP3    H1 7206   1.401   2.469   3.757
 2421TIP3    H2 7207   1.436   2.493   3.611
 2422TIP3   OH2 7208   1.394   2.476   3.950
 2422TIP3    H1 7209   1.347   2.392   3.944
 2422TIP3    H2 7210   1.465   2.459   4.013
 2423TIP3   OH2 7211   1.457   2.172   4.527
 2423TIP3    H1 7212   1.383   2.184   4.586
 2423TIP3    H2 7213   1.503   2.256   4.529
 2424TIP3   OH2 7214   1.278   1.686   3.131
 2424TIP3    H1 7215   1.331   1.760   3.101
 2424TIP3    H2 7216   1.326   1.651   3.206
 2425TIP3   OH2 7217   1.410   1.556   3.335
 2425TIP3    H1 7218   1.341   1.524   3.393
 2425TIP3    H2 7219   1.475   1.594   3.394
 2426TIP3   OH2 7220   1.449   1.951   3.766
 2426TIP3    H1 7221   1.502   1.883   3.724
 2426TIP3    H2 7222   1.452   2.025   3.706
 2427TIP3   OH2 7223   1.251   2.238   3.955
 2427TIP3    H1 7224   1.183   2.283   4.006
 2427TIP3    H2 7225   1.203   2.197   3.883
 2428TIP3   OH2 7226   1.286   1.469   2.965
 2428TIP3    H1 7227   1.217   1.488   2.901
 2428TIP3    H2 7228   1.281   1.543   3.026
 2429TIP3   OH2 7229   1.202   1.428   3.472
 2429TIP3    H1 7230   1.215   1.335   3.458
 2429TIP3    H2 7231   1.185   1.436   3.566
 2430TIP3   OH2 7232   8.333   1.541   4.197
 2430TIP3    H1 7233   8.372   1.573   4.115
 2430TIP3    H2 7234   8.404   1.496   4.242
 2431TIP3   OH2 7235   1.479   1.829   4.331
 2431TIP3    H1 7236   1.545   1.762   4.312
 2431TIP3    H2 7237   1.502   1.902   4.273
 2432TIP3   OH2 7238   1.655   1.617   4.321
 2432TIP3    H1 7239   1.584   1.575   4.369
 2432TIP3    H2 7240   1.733   1.565   4.343
 2433TIP3   OH2 7241   1.247   1.159   3.385
 2433TIP3    H1 7242   1.285   1.072   3.394
 2433TIP3    H2 7243   1.279   1.191   3.301
 2434TIP3   OH2 7244   1.348   1.325   3.881
 2434TIP3    H1 7245   1.430   1.340   3.833
 2434TIP3    H2 7246   1.367   1.358   3.969
 2435TIP3   OH2 7247   1.422   1.454   4.116
 2435TIP3    H1 7248   1.348   1.484   4.169
 2435TIP3    H2 7249   1.454   1.534   4.073
 2436TIP3   OH2 7250   1.891   1.050   4.646
 2436TIP3    H1 7251   1.956   0.995   4.603
 2436TIP3    H2 7252   1.853   1.102   4.575
 2437TIP3   OH2 7253   1.327   0.893   3.411
 2437TIP3    H1 7254   1.370   0.867   3.492
 2437TIP3    H2 7255   1.255   0.830   3.401
 2438TIP3   OH2 7256   1.739   1.180   4.465
 2438TIP3    H1 7257   1.663   1.218   4.510
 2438TIP3    H2 7258   1.701   1.115   4.405
 2439TIP3   OH2 7259   0.937   2.349   3.320
 2439TIP3    H1 7260   0.993   2.342   3.243
 2439TIP3    H2 7261   0.975   2.420   3.372
 2440TIP3   OH2 7262   0.061   2.081   4.696
 2440TIP3    H1 7263  -0.027   2.072   4.660
 2440TIP3    H2 7264   0.053   2.150   4.762
 2441TIP3   OH2 7265   0.260   2.197   4.252
 2441TIP3    H1 7266   0.204   2.266   4.217
 2441TIP3    H2 7267   0.342   2.207   4.204
 2442TIP3   OH2 7268   0.648   2.427   4.379
 2442TIP3    H1 7269   0.685   2.422   4.467
 2442TIP3    H2 7270   0.710   2.481   4.330
 2443TIP3   OH2 7271   0.840   2.582   4.255
 2443TIP3    H1 7272   0.905   2.530   4.206
 2443TIP3    H2 7273   0.893   2.641   4.309
 2444TIP3   OH2 7274   1.650   0.946   4.340
 2444TIP3    H1 7275   1.574   0.952   4.282
 2444TIP3    H2 7276   1.686   0.858   4.324
 2445TIP3   OH2 7277   8.453   2.396   4.307
 2445TIP3    H1 7278   8.362   2.402   4.277
 2445TIP3    H2 7279   8.466   2.475   4.360
 2446TIP3   OH2 7280   0.160   2.425   4.128
 2446TIP3    H1 7281   0.079   2.417   4.178
 2446TIP3    H2 7282   0.132   2.435   4.037
 2447TIP3   OH2 7283   0.555   2.445   3.931
 2447TIP3    H1 7284   0.486   2.453   3.865
 2447TIP3    H2 7285   0.564   2.533   3.967
 2448TIP3   OH2 7286   0.815   2.378   3.981
 2448TIP3    H1 7287   0.724   2.399   3.962
 2448TIP3    H2 7288   0.866   2.444   3.935
 2449TIP3   OH2 7289   1.013   2.548   3.880
 2449TIP3    H1 7290   1.016   2.636   3.842
 2449TIP3    H2 7291   1.044   2.491   3.809
 2450TIP3   OH2 7292   8.369   2.236   4.000
 2450TIP3    H1 7293   8.379   2.193   4.085
 2450TIP3    H2 7294   8.412   2.177   3.938
 2451TIP3   OH2 7295   0.040   2.079   3.845
 2451TIP3    H1 7296   0.044   2.005   3.906
 2451TIP3    H2 7297   0.123   2.124   3.856
 2452TIP3   OH2 7298   0.300   2.178   3.888
 2452TIP3    H1 7299   0.320   2.085   3.878
 2452TIP3    H2 7300   0.350   2.206   3.965
 2453TIP3   OH2 7301   0.773   0.811   3.891
 2453TIP3    H1 7302   0.836   0.876   3.923
 2453TIP3    H2 7303   0.792   0.804   3.797
 2454TIP3   OH2 7304   1.335   0.869   3.866
 2454TIP3    H1 7305   1.389   0.845   3.790
 2454TIP3    H2 7306   1.253   0.822   3.852
 2455TIP3   OH2 7307   1.473   0.814   3.634
 2455TIP3    H1 7308   1.533   0.749   3.597
 2455TIP3    H2 7309   1.519   0.898   3.623
 2456TIP3   OH2 7310   1.106   0.729   3.837
 2456TIP3    H1 7311   1.040   0.761   3.776
 2456TIP3    H2 7312   1.063   0.657   3.883
 2457TIP3   OH2 7313   0.377   2.187   3.011
 2457TIP3    H1 7314   0.461   2.183   2.965
 2457TIP3    H2 7315   0.312   2.200   2.942
 2458TIP3   OH2 7316   1.088   2.311   3.090
 2458TIP3    H1 7317   1.086   2.216   3.080
 2458TIP3    H2 7318   1.043   2.345   3.012
 2459TIP3   OH2 7319   1.402   0.940   4.783
 2459TIP3    H1 7320   1.420   0.904   4.870
 2459TIP3    H2 7321   1.484   0.929   4.735
 2460TIP3   OH2 7322   1.299   2.447   4.272
 2460TIP3    H1 7323   1.225   2.418   4.219
 2460TIP3    H2 7324   1.289   2.542   4.278
 2461TIP3   OH2 7325   2.572   1.827   2.994
 2461TIP3    H1 7326   2.544   1.914   2.966
 2461TIP3    H2 7327   2.497   1.790   3.040
 2462TIP3   OH2 7328   2.533   1.850   3.459
 2462TIP3    H1 7329   2.604   1.914   3.458
 2462TIP3    H2 7330   2.574   1.769   3.429
 2463TIP3   OH2 7331   1.878   1.692   3.778
 2463TIP3    H1 7332   1.915   1.637   3.846
 2463TIP3    H2 7333   1.954   1.719   3.725
 2464TIP3   OH2 7334   2.819   2.147   3.140
 2464TIP3    H1 7335   2.784   2.109   3.220
 2464TIP3    H2 7336   2.854   2.232   3.167
 2465TIP3   OH2 7337   1.865   2.110   3.461
 2465TIP3    H1 7338   1.849   2.016   3.469
 2465TIP3    H2 7339   1.960   2.118   3.454
 2466TIP3   OH2 7340   1.555   1.334   3.250
 2466TIP3    H1 7341   1.516   1.416   3.279
 2466TIP3    H2 7342   1.484   1.288   3.205
 2467TIP3   OH2 7343   1.638   1.639   3.475
 2467TIP3    H1 7344   1.688   1.562   3.499
 2467TIP3    H2 7345   1.704   1.705   3.454
 2468TIP3   OH2 7346   2.519   2.560   3.126
 2468TIP3    H1 7347   2.542   2.493   3.061
 2468TIP3    H2 7348   2.526   2.516   3.210
 2469TIP3   OH2 7349   2.378   2.075   3.455
 2469TIP3    H1 7350   2.417   1.988   3.450
 2469TIP3    H2 7351   2.453   2.135   3.449
 2470TIP3   OH2 7352   3.425   1.372   3.460
 2470TIP3    H1 7353   3.440   1.456   3.504
 2470TIP3    H2 7354   3.442   1.389   3.368
 2471TIP3   OH2 7355   2.777   1.552   3.445
 2471TIP3    H1 7356   2.812   1.471   3.481
 2471TIP3    H2 7357   2.731   1.526   3.366
 2472TIP3   OH2 7358   2.147   1.193   3.431
 2472TIP3    H1 7359   2.125   1.269   3.378
 2472TIP3    H2 7360   2.089   1.123   3.398
 2473TIP3   OH2 7361   2.848   1.296   3.077
 2473TIP3    H1 7362   2.910   1.289   3.150
 2473TIP3    H2 7363   2.897   1.341   3.008
 2474TIP3   OH2 7364   1.773   1.414   3.563
 2474TIP3    H1 7365   1.858   1.398   3.605
 2474TIP3    H2 7366   1.775   1.360   3.484
 2475TIP3   OH2 7367   2.189   1.609   3.380
 2475TIP3    H1 7368   2.280   1.583   3.390
 2475TIP3    H2 7369   2.145   1.529   3.351
 2476TIP3   OH2 7370   3.476   1.594   3.622
 2476TIP3    H1 7371   3.390   1.634   3.613
 2476TIP3    H2 7372   3.511   1.630   3.704
 2477TIP3   OH2 7373   2.128   1.205   3.887
 2477TIP3    H1 7374   2.081   1.242   3.812
 2477TIP3    H2 7375   2.071   1.222   3.962
 2478TIP3   OH2 7376   2.475   2.053   2.871
 2478TIP3    H1 7377   2.436   2.028   2.787
 2478TIP3    H2 7378   2.424   2.129   2.899
 2479TIP3   OH2 7379   2.225   1.978   3.668
 2479TIP3    H1 7380   2.169   2.049   3.701
 2479TIP3    H2 7381   2.278   2.020   3.600
 2480TIP3   OH2 7382   3.015   1.302   3.298
 2480TIP3    H1 7383   2.957   1.295   3.374
 2480TIP3    H2 7384   3.069   1.379   3.316
 2481TIP3   OH2 7385   2.022   1.309   3.652
 2481TIP3    H1 7386   2.076   1.385   3.673
 2481TIP3    H2 7387   2.069   1.265   3.581
 2482TIP3   OH2 7388   2.067   2.183   3.763
 2482TIP3    H1 7389   2.056   2.272   3.730
 2482TIP3    H2 7390   1.988   2.167   3.815
 2483TIP3   OH2 7391   1.439   1.885   3.014
 2483TIP3    H1 7392   1.404   1.910   2.929
 2483TIP3    H2 7393   1.464   1.968   3.055
 2484TIP3   OH2 7394   2.882   2.402   3.246
 2484TIP3    H1 7395   2.798   2.396   3.292
 2484TIP3    H2 7396   2.881   2.489   3.206
 2485TIP3   OH2 7397   3.220   1.254   3.617
 2485TIP3    H1 7398   3.137   1.287   3.585
 2485TIP3    H2 7399   3.285   1.286   3.554
 2486TIP3   OH2 7400   2.474   0.896   3.621
 2486TIP3    H1 7401   2.464   0.805   3.648
 2486TIP3    H2 7402   2.399   0.941   3.659
 2487TIP3   OH2 7403   2.592   2.411   2.898
 2487TIP3    H1 7404   2.645   2.332   2.892
 2487TIP3    H2 7405   2.651   2.482   2.872
 2488TIP3   OH2 7406   2.728   2.175   2.879
 2488TIP3    H1 7407   2.652   2.117   2.875
 2488TIP3    H2 7408   2.769   2.156   2.963
 2489TIP3   OH2 7409   3.127   2.269   3.612
 2489TIP3    H1 7410   3.097   2.195   3.559
 2489TIP3    H2 7411   3.106   2.346   3.559
 2490TIP3   OH2 7412   2.384   1.641   2.831
 2490TIP3    H1 7413   2.313   1.705   2.827
 2490TIP3    H2 7414   2.455   1.679   2.780
 2491TIP3   OH2 7415   2.382   1.471   2.553
 2491TIP3    H1 7416   2.416   1.524   2.625
 2491TIP3    H2 7417   2.459   1.425   2.520
 2492TIP3   OH2 7418   3.292   1.939   3.457
 2492TIP3    H1 7419   3.206   1.982   3.458
 2492TIP3    H2 7420   3.326   1.955   3.370
 2493TIP3   OH2 7421   2.773   1.763   2.823
 2493TIP3    H1 7422   2.713   1.788   2.893
 2493TIP3    H2 7423   2.853   1.738   2.868
 2494TIP3   OH2 7424   3.026   1.802   3.776
 2494TIP3    H1 7425   3.008   1.885   3.820
 2494TIP3    H2 7426   2.944   1.780   3.732
 2495TIP3   OH2 7427   1.999   1.747   3.227
 2495TIP3    H1 7428   1.963   1.684   3.164
 2495TIP3    H2 7429   2.072   1.701   3.269
 2496TIP3   OH2 7430   2.126   2.166   3.374
 2496TIP3    H1 7431   2.118   2.150   3.280
 2496TIP3    H2 7432   2.214   2.135   3.395
 2497TIP3   OH2 7433   2.093   1.747   3.601
 2497TIP3    H1 7434   2.134   1.713   3.522
 2497TIP3    H2 7435   2.142   1.826   3.622
 2498TIP3   OH2 7436   2.654   2.387   3.399
 2498TIP3    H1 7437   2.661   2.426   3.486
 2498TIP3    H2 7438   2.670   2.294   3.412
 2499TIP3   OH2 7439   2.269   2.291   3.925
 2499TIP3    H1 7440   2.207   2.347   3.970
 2499TIP3    H2 7441   2.214   2.235   3.869
 2500TIP3   OH2 7442   2.605   1.630   2.655
 2500TIP3    H1 7443   2.664   1.689   2.703
 2500TIP3    H2 7444   2.631   1.640   2.564
 2501TIP3   OH2 7445   2.017   1.829   4.086
 2501TIP3    H1 7446   2.017   1.924   4.095
 2501TIP3    H2 7447   1.926   1.806   4.071
 2502TIP3   OH2 7448   2.343   2.293   2.914
 2502TIP3    H1 7449   2.424   2.343   2.916
 2502TIP3    H2 7450   2.279   2.352   2.875
 2503TIP3   OH2 7451   2.049   2.440   4.008
 2503TIP3    H1 7452   2.029   2.449   3.915
 2503TIP3    H2 7453   1.963   2.426   4.050
 2504TIP3   OH2 7454   3.114   0.856   2.722
 2504TIP3    H1 7455   3.034   0.877   2.770
 2504TIP3    H2 7456   3.127   0.930   2.662
 2505TIP3   OH2 7457   1.864   1.587   3.033
 2505TIP3    H1 7458   1.788   1.638   3.004
 2505TIP3    H2 7459   1.826   1.505   3.065
 2506TIP3   OH2 7460   2.930   2.228   2.271
 2506TIP3    H1 7461   2.923   2.321   2.251
 2506TIP3    H2 7462   3.019   2.205   2.246
 2507TIP3   OH2 7463   1.649   1.996   3.961
 2507TIP3    H1 7464   1.581   1.976   3.897
 2507TIP3    H2 7465   1.685   1.910   3.985
 2508TIP3   OH2 7466   1.495   2.184   3.615
 2508TIP3    H1 7467   1.587   2.207   3.628
 2508TIP3    H2 7468   1.446   2.262   3.643
 2509TIP3   OH2 7469   3.357   2.649   3.668
 2509TIP3    H1 7470   3.363   2.555   3.679
 2509TIP3    H2 7471   3.277   2.674   3.715
 2510TIP3   OH2 7472   2.446   2.435   3.769
 2510TIP3    H1 7473   2.435   2.521   3.809
 2510TIP3    H2 7474   2.397   2.376   3.826
 2511TIP3   OH2 7475   2.226   2.539   2.733
 2511TIP3    H1 7476   2.181   2.515   2.651
 2511TIP3    H2 7477   2.184   2.620   2.760
 2512TIP3   OH2 7478   1.666   2.375   3.118
 2512TIP3    H1 7479   1.712   2.367   3.202
 2512TIP3    H2 7480   1.619   2.293   3.108
 2513TIP3   OH2 7481   2.438   2.455   2.374
 2513TIP3    H1 7482   2.488   2.380   2.341
 2513TIP3    H2 7483   2.470   2.468   2.463
 2514TIP3   OH2 7484   2.482   2.501   2.644
 2514TIP3    H1 7485   2.394   2.510   2.681
 2514TIP3    H2 7486   2.534   2.463   2.715
 2515TIP3   OH2 7487   3.247   1.751   3.938
 2515TIP3    H1 7488   3.167   1.767   3.888
 2515TIP3    H2 7489   3.263   1.657   3.929
 2516TIP3   OH2 7490   1.847   2.186   3.929
 2516TIP3    H1 7491   1.898   2.171   4.009
 2516TIP3    H2 7492   1.775   2.123   3.935
 2517TIP3   OH2 7493   2.236   0.989   3.745
 2517TIP3    H1 7494   2.153   0.958   3.711
 2517TIP3    H2 7495   2.215   1.071   3.790
 2518TIP3   OH2 7496   2.785   1.091   3.943
 2518TIP3    H1 7497   2.853   1.072   4.007
 2518TIP3    H2 7498   2.703   1.079   3.992
 2519TIP3   OH2 7499   2.995   1.520   3.858
 2519TIP3    H1 7500   2.953   1.515   3.944
 2519TIP3    H2 7501   2.968   1.604   3.822
 2520TIP3   OH2 7502   2.679   1.612   2.393
 2520TIP3    H1 7503   2.637   1.618   2.307
 2520TIP3    H2 7504   2.764   1.656   2.382
 2521TIP3   OH2 7505   2.403   0.964   2.752
 2521TIP3    H1 7506   2.355   0.984   2.832
 2521TIP3    H2 7507   2.494   0.957   2.780
 2522TIP3   OH2 7508   2.174   1.520   3.739
 2522TIP3    H1 7509   2.135   1.531   3.825
 2522TIP3    H2 7510   2.154   1.602   3.693
 2523TIP3   OH2 7511   2.042   1.397   3.282
 2523TIP3    H1 7512   1.954   1.368   3.306
 2523TIP3    H2 7513   2.053   1.367   3.191
 2524TIP3   OH2 7514   2.531   1.463   2.979
 2524TIP3    H1 7515   2.479   1.530   2.936
 2524TIP3    H2 7516   2.600   1.442   2.916
 2525TIP3   OH2 7517   2.726   1.734   4.074
 2525TIP3    H1 7518   2.700   1.668   4.138
 2525TIP3    H2 7519   2.819   1.751   4.093
 2526TIP3   OH2 7520   2.652   1.440   3.229
 2526TIP3    H1 7521   2.600   1.469   3.153
 2526TIP3    H2 7522   2.721   1.386   3.191
 2527TIP3   OH2 7523   2.004   1.525   3.962
 2527TIP3    H1 7524   2.061   1.578   4.016
 2527TIP3    H2 7525   1.986   1.446   4.014
 2528TIP3   OH2 7526   2.038   0.974   2.686
 2528TIP3    H1 7527   2.045   0.988   2.781
 2528TIP3    H2 7528   1.955   1.015   2.661
 2529TIP3   OH2 7529   1.601   1.042   3.567
 2529TIP3    H1 7530   1.673   1.087   3.611
 2529TIP3    H2 7531   1.630   1.032   3.477
 2530TIP3   OH2 7532   1.558   1.070   3.063
 2530TIP3    H1 7533   1.592   1.086   2.975
 2530TIP3    H2 7534   1.483   1.129   3.071
 2531TIP3   OH2 7535   2.798   1.694   3.682
 2531TIP3    H1 7536   2.787   1.659   3.593
 2531TIP3    H2 7537   2.721   1.662   3.730
 2532TIP3   OH2 7538   2.411   1.177   3.318
 2532TIP3    H1 7539   2.333   1.183   3.373
 2532TIP3    H2 7540   2.484   1.183   3.380
 2533TIP3   OH2 7541   1.807   1.266   3.335
 2533TIP3    H1 7542   1.720   1.274   3.296
 2533TIP3    H2 7543   1.834   1.176   3.317
 2534TIP3   OH2 7544   2.070   1.284   3.034
 2534TIP3    H1 7545   2.165   1.295   3.030
 2534TIP3    H2 7546   2.040   1.303   2.946
 2535TIP3   OH2 7547   2.847   1.290   3.518
 2535TIP3    H1 7548   2.838   1.301   3.613
 2535TIP3    H2 7549   2.776   1.231   3.494
 2536TIP3   OH2 7550   1.974   1.299   2.780
 2536TIP3    H1 7551   1.909   1.241   2.740
 2536TIP3    H2 7552   2.021   1.338   2.706
 2537TIP3   OH2 7553   3.054   2.980   3.749
 2537TIP3    H1 7554   3.054   2.991   3.654
 2537TIP3    H2 7555   3.130   3.030   3.779
 2538TIP3   OH2 7556   1.994   2.098   4.162
 2538TIP3    H1 7557   2.077   2.116   4.205
 2538TIP3    H2 7558   1.928   2.106   4.231
 2539TIP3   OH2 7559   2.438   1.496   3.420
 2539TIP3    H1 7560   2.515   1.470   3.370
 2539TIP3    H2 7561   2.458   1.470   3.510
 2540TIP3   OH2 7562   1.953   1.022   3.314
 2540TIP3    H1 7563   1.922   0.951   3.370
 2540TIP3    H2 7564   1.968   0.981   3.229
 2541TIP3   OH2 7565   2.439   1.441   3.704
 2541TIP3    H1 7566   2.352   1.481   3.714
 2541TIP3    H2 7567   2.497   1.499   3.754
 2542TIP3   OH2 7568   2.170   1.813   2.806
 2542TIP3    H1 7569   2.098   1.753   2.786
 2542TIP3    H2 7570   2.143   1.857   2.887
 2543TIP3   OH2 7571   3.053   2.074   3.432
 2543TIP3    H1 7572   3.072   2.123   3.352
 2543TIP3    H2 7573   2.958   2.066   3.433
 2544TIP3   OH2 7574   2.622   1.157   2.708
 2544TIP3    H1 7575   2.531   1.185   2.697
 2544TIP3    H2 7576   2.671   1.239   2.714
 2545TIP3   OH2 7577   2.562   2.109   3.870
 2545TIP3    H1 7578   2.643   2.119   3.920
 2545TIP3    H2 7579   2.575   2.166   3.794
 2546TIP3   OH2 7580   2.719   1.403   2.775
 2546TIP3    H1 7581   2.813   1.411   2.792
 2546TIP3    H2 7582   2.696   1.484   2.729
 2547TIP3   OH2 7583   1.858   1.819   3.454
 2547TIP3    H1 7584   1.899   1.805   3.368
 2547TIP3    H2 7585   1.927   1.795   3.517
 2548TIP3   OH2 7586   2.319   1.977   2.649
 2548TIP3    H1 7587   2.273   2.061   2.648
 2548TIP3    H2 7588   2.264   1.920   2.702
 2549TIP3   OH2 7589   1.741   1.765   4.094
 2549TIP3    H1 7590   1.746   1.736   4.185
 2549TIP3    H2 7591   1.666   1.716   4.058
 2550TIP3   OH2 7592   2.504   1.900   4.104
 2550TIP3    H1 7593   2.456   1.897   4.021
 2550TIP3    H2 7594   2.586   1.853   4.087
 2551TIP3   OH2 7595   2.711   2.467   3.695
 2551TIP3    H1 7596   2.617   2.450   3.707
 2551TIP3    H2 7597   2.743   2.484   3.784
 2552TIP3   OH2 7598   3.115   1.482   2.599
 2552TIP3    H1 7599   3.052   1.438   2.542
 2552TIP3    H2 7600   3.121   1.571   2.564
 2553TIP3   OH2 7601   3.370   2.373   3.683
 2553TIP3    H1 7602   3.278   2.350   3.689
 2553TIP3    H2 7603   3.399   2.336   3.600
 2554TIP3   OH2 7604   2.853   2.300   2.537
 2554TIP3    H1 7605   2.824   2.231   2.597
 2554TIP3    H2 7606   2.870   2.254   2.454
 2555TIP3   OH2 7607   1.986   2.172   3.123
 2555TIP3    H1 7608   1.981   2.248   3.064
 2555TIP3    H2 7609   1.904   2.174   3.172
 2556TIP3   OH2 7610   1.548   1.458   2.865
 2556TIP3    H1 7611   1.588   1.543   2.884
 2556TIP3    H2 7612   1.461   1.462   2.905
 2557TIP3   OH2 7613   2.066   1.929   3.026
 2557TIP3    H1 7614   2.049   2.018   3.056
 2557TIP3    H2 7615   2.045   1.873   3.101
 2558TIP3   OH2 7616   2.265   2.498   3.570
 2558TIP3    H1 7617   2.304   2.569   3.519
 2558TIP3    H2 7618   2.336   2.467   3.626
 2559TIP3   OH2 7619   1.902   2.394   2.975
 2559TIP3    H1 7620   1.815   2.403   3.014
 2559TIP3    H2 7621   1.939   2.482   2.978
 2560TIP3   OH2 7622   2.614   2.029   2.419
 2560TIP3    H1 7623   2.666   1.998   2.494
 2560TIP3    H2 7624   2.529   1.987   2.429
 2561TIP3   OH2 7625   2.891   2.649   3.587
 2561TIP3    H1 7626   2.820   2.593   3.618
 2561TIP3    H2 7627   2.849   2.711   3.528
 2562TIP3   OH2 7628   2.923   2.500   2.229
 2562TIP3    H1 7629   2.937   2.561   2.156
 2562TIP3    H2 7630   2.853   2.541   2.280
 2563TIP3   OH2 7631   1.955   1.278   4.093
 2563TIP3    H1 7632   1.861   1.290   4.097
 2563TIP3    H2 7633   1.975   1.222   4.168
 2564TIP3   OH2 7634   2.791   1.934   2.605
 2564TIP3    H1 7635   2.778   1.887   2.688
 2564TIP3    H2 7636   2.886   1.946   2.599
 2565TIP3   OH2 7637   1.698   2.394   3.741
 2565TIP3    H1 7638   1.751   2.337   3.796
 2565TIP3    H2 7639   1.712   2.482   3.776
 2566TIP3   OH2 7640   1.972   2.011   2.452
 2566TIP3    H1 7641   1.981   1.921   2.423
 2566TIP3    H2 7642   1.957   2.004   2.547
 2567TIP3   OH2 7643   1.910   2.014   2.724
 2567TIP3    H1 7644   1.971   1.991   2.794
 2567TIP3    H2 7645   1.908   2.110   2.725
 2568TIP3   OH2 7646   1.639   1.713   2.927
 2568TIP3    H1 7647   1.575   1.762   2.977
 2568TIP3    H2 7648   1.659   1.769   2.852
 2569TIP3   OH2 7649   2.815   1.319   3.787
 2569TIP3    H1 7650   2.887   1.373   3.822
 2569TIP3    H2 7651   2.809   1.245   3.847
 2570TIP3   OH2 7652   2.695   1.089   2.972
 2570TIP3    H1 7653   2.673   1.119   2.884
 2570TIP3    H2 7654   2.741   1.163   3.012
 2571TIP3   OH2 7655   2.177   2.207   2.647
 2571TIP3    H1 7656   2.092   2.228   2.683
 2571TIP3    H2 7657   2.201   2.284   2.594
 2572TIP3   OH2 7658   2.346   1.283   3.070
 2572TIP3    H1 7659   2.409   1.349   3.040
 2572TIP3    H2 7660   2.370   1.266   3.161
 2573TIP3   OH2 7661   2.629   1.567   3.865
 2573TIP3    H1 7662   2.654   1.627   3.935
 2573TIP3    H2 7663   2.685   1.490   3.877
 2574TIP3   OH2 7664   2.522   0.975   3.161
 2574TIP3    H1 7665   2.497   1.051   3.215
 2574TIP3    H2 7666   2.590   1.009   3.103
 2575TIP3   OH2 7667   1.925   2.286   2.725
 2575TIP3    H1 7668   1.905   2.355   2.662
 2575TIP3    H2 7669   1.915   2.328   2.810
 2576TIP3   OH2 7670   2.031   1.015   2.966
 2576TIP3    H1 7671   2.018   1.105   2.995
 2576TIP3    H2 7672   2.124   0.998   2.983
 2577TIP3   OH2 7673   3.262   1.483   3.840
 2577TIP3    H1 7674   3.167   1.486   3.851
 2577TIP3    H2 7675   3.275   1.441   3.755
 2578TIP3   OH2 7676   2.951   1.636   3.215
 2578TIP3    H1 7677   2.883   1.667   3.274
 2578TIP3    H2 7678   3.019   1.601   3.273
 2579TIP3   OH2 7679   1.662   1.886   2.708
 2579TIP3    H1 7680   1.728   1.954   2.721
 2579TIP3    H2 7681   1.703   1.824   2.648
 2580TIP3   OH2 7682   1.595   1.191   2.802
 2580TIP3    H1 7683   1.604   1.278   2.841
 2580TIP3    H2 7684   1.527   1.201   2.735
 2581TIP3   OH2 7685   2.902   2.666   3.167
 2581TIP3    H1 7686   2.860   2.715   3.096
 2581TIP3    H2 7687   2.996   2.676   3.151
 2582TIP3   OH2 7688   1.974   0.907   3.704
 2582TIP3    H1 7689   1.940   0.875   3.621
 2582TIP3    H2 7690   1.971   0.832   3.763
 2583TIP3   OH2 7691   1.491   2.150   3.100
 2583TIP3    H1 7692   1.453   2.189   3.179
 2583TIP3    H2 7693   1.448   2.195   3.028
 2584TIP3   OH2 7694   1.704   2.694   4.163
 2584TIP3    H1 7695   1.784   2.704   4.215
 2584TIP3    H2 7696   1.702   2.600   4.142
 2585TIP3   OH2 7697   2.160   2.595   4.206
 2585TIP3    H1 7698   2.251   2.568   4.213
 2585TIP3    H2 7699   2.125   2.545   4.133
 2586TIP3   OH2 7700   2.127   2.199   2.326
 2586TIP3    H1 7701   2.081   2.132   2.377
 2586TIP3    H2 7702   2.200   2.152   2.286
 2587TIP3   OH2 7703   2.780   2.533   3.958
 2587TIP3    H1 7704   2.796   2.463   4.022
 2587TIP3    H2 7705   2.852   2.594   3.971
 2588TIP3   OH2 7706   2.566   2.243   2.256
 2588TIP3    H1 7707   2.598   2.176   2.317
 2588TIP3    H2 7708   2.627   2.240   2.183
 2589TIP3   OH2 7709   1.794   2.089   4.357
 2589TIP3    H1 7710   1.815   1.996   4.367
 2589TIP3    H2 7711   1.707   2.089   4.317
 2590TIP3   OH2 7712   1.808   1.702   2.572
 2590TIP3    H1 7713   1.864   1.677   2.645
 2590TIP3    H2 7714   1.870   1.721   2.500
 2591TIP3   OH2 7715   2.419   2.179   4.131
 2591TIP3    H1 7716   2.387   2.205   4.045
 2591TIP3    H2 7717   2.471   2.101   4.114
 2592TIP3   OH2 7718   2.357   1.915   2.386
 2592TIP3    H1 7719   2.333   1.931   2.478
 2592TIP3    H2 7720   2.331   1.824   2.370
 2593TIP3   OH2 7721   2.860   2.151   3.728
 2593TIP3    H1 7722   2.899   2.234   3.699
 2593TIP3    H2 7723   2.814   2.118   3.651
 2594TIP3   OH2 7724   1.910   1.834   4.362
 2594TIP3    H1 7725   1.978   1.824   4.296
 2594TIP3    H2 7726   1.957   1.852   4.443
 2595TIP3   OH2 7727   1.975   1.620   2.776
 2595TIP3    H1 7728   1.946   1.602   2.865
 2595TIP3    H2 7729   2.009   1.537   2.744
 2596TIP3   OH2 7730   2.238   1.683   4.000
 2596TIP3    H1 7731   2.174   1.747   4.032
 2596TIP3    H2 7732   2.297   1.734   3.945
 2597TIP3   OH2 7733   2.103   1.430   2.581
 2597TIP3    H1 7734   2.073   1.453   2.493
 2597TIP3    H2 7735   2.195   1.457   2.583
 2598TIP3   OH2 7736   2.783   2.091   4.103
 2598TIP3    H1 7737   2.853   2.056   4.048
 2598TIP3    H2 7738   2.778   2.031   4.177
 2599TIP3   OH2 7739   2.901   1.738   2.287
 2599TIP3    H1 7740   2.886   1.699   2.201
 2599TIP3    H2 7741   2.877   1.830   2.276
 2600TIP3   OH2 7742   2.379   1.484   4.126
 2600TIP3    H1 7743   2.388   1.410   4.065
 2600TIP3    H2 7744   2.338   1.553   4.075
 2601TIP3   OH2 7745   2.390   1.279   3.930
 2601TIP3    H1 7746   2.418   1.320   3.848
 2601TIP3    H2 7747   2.298   1.256   3.915
 2602TIP3   OH2 7748   2.396   1.846   3.844
 2602TIP3    H1 7749   2.483   1.872   3.810
 2602TIP3    H2 7750   2.334   1.893   3.787
 2603TIP3   OH2 7751   2.993   1.774   4.172
 2603TIP3    H1 7752   3.046   1.694   4.175
 2603TIP3    H2 7753   3.057   1.845   4.159
 2604TIP3   OH2 7754   3.010   2.043   3.924
 2604TIP3    H1 7755   2.951   2.085   3.862
 2604TIP3    H2 7756   3.098   2.062   3.891
 2605TIP3   OH2 7757   2.264   1.563   4.369
 2605TIP3    H1 7758   2.194   1.499   4.384
 2605TIP3    H2 7759   2.293   1.547   4.280
 2606TIP3   OH2 7760   2.514   1.048   4.023
 2606TIP3    H1 7761   2.475   1.130   3.991
 2606TIP3    H2 7762   2.446   0.982   4.009
 2607TIP3   OH2 7763   2.637   1.524   4.229
 2607TIP3    H1 7764   2.625   1.512   4.323
 2607TIP3    H2 7765   2.550   1.509   4.192
 2608TIP3   OH2 7766   2.877   1.469   4.095
 2608TIP3    H1 7767   2.800   1.475   4.151
 2608TIP3    H2 7768   2.950   1.455   4.155
 2609TIP3   OH2 7769   3.116   1.450   4.245
 2609TIP3    H1 7770   3.130   1.356   4.253
 2609TIP3    H2 7771   3.110   1.481   4.335
 2610TIP3   OH2 7772   2.098   1.343   4.438
 2610TIP3    H1 7773   2.105   1.255   4.400
 2610TIP3    H2 7774   2.140   1.335   4.524
 2611TIP3   OH2 7775   2.577   1.031   4.289
 2611TIP3    H1 7776   2.646   0.966   4.284
 2611TIP3    H2 7777   2.548   1.042   4.198
 2612TIP3   OH2 7778   2.671   1.245   4.436
 2612TIP3    H1 7779   2.642   1.175   4.378
 2612TIP3    H2 7780   2.599   1.308   4.436
 2613TIP3   OH2 7781   1.919   2.484   2.534
 2613TIP3    H1 7782   2.010   2.470   2.509
 2613TIP3    H2 7783   1.883   2.539   2.465
 2614TIP3   OH2 7784   1.386   1.891   2.711
 2614TIP3    H1 7785   1.482   1.900   2.713
 2614TIP3    H2 7786   1.371   1.801   2.684
 2615TIP3   OH2 7787   1.298   2.462   3.182
 2615TIP3    H1 7788   1.231   2.410   3.137
 2615TIP3    H2 7789   1.342   2.400   3.239
 2616TIP3   OH2 7790   1.440   2.290   3.347
 2616TIP3    H1 7791   1.431   2.223   3.415
 2616TIP3    H2 7792   1.492   2.359   3.388
 2617TIP3   OH2 7793   3.174   2.706   3.161
 2617TIP3    H1 7794   3.194   2.722   3.253
 2617TIP3    H2 7795   3.221   2.774   3.113
 2618TIP3   OH2 7796   3.206   2.721   3.439
 2618TIP3    H1 7797   3.157   2.639   3.438
 2618TIP3    H2 7798   3.273   2.709   3.506
 2619TIP3   OH2 7799   3.260   2.437   4.018
 2619TIP3    H1 7800   3.188   2.447   4.080
 2619TIP3    H2 7801   3.302   2.523   4.016
 2620TIP3   OH2 7802   3.071   1.946   2.611
 2620TIP3    H1 7803   3.126   2.020   2.585
 2620TIP3    H2 7804   3.114   1.910   2.689
 2621TIP3   OH2 7805   3.195   1.804   2.816
 2621TIP3    H1 7806   3.127   1.763   2.869
 2621TIP3    H2 7807   3.256   1.842   2.879
 2622TIP3   OH2 7808   3.247   2.212   3.258
 2622TIP3    H1 7809   3.291   2.145   3.206
 2622TIP3    H2 7810   3.243   2.288   3.201
 2623TIP3   OH2 7811   3.058   2.483   3.447
 2623TIP3    H1 7812   2.993   2.535   3.495
 2623TIP3    H2 7813   3.010   2.447   3.373
 2624TIP3   OH2 7814   3.111   1.720   2.461
 2624TIP3    H1 7815   3.039   1.719   2.399
 2624TIP3    H2 7816   3.096   1.799   2.514
 2625TIP3   OH2 7817   2.942   1.366   2.422
 2625TIP3    H1 7818   2.901   1.387   2.338
 2625TIP3    H2 7819   2.927   1.272   2.432
 2626TIP3   OH2 7820   2.998   1.657   2.947
 2626TIP3    H1 7821   3.002   1.564   2.925
 2626TIP3    H2 7822   2.982   1.658   3.042
 2627TIP3   OH2 7823   1.614   1.725   3.733
 2627TIP3    H1 7824   1.605   1.697   3.642
 2627TIP3    H2 7825   1.708   1.725   3.749
 2628TIP3   OH2 7826   3.262   2.085   3.817
 2628TIP3    H1 7827   3.331   2.024   3.791
 2628TIP3    H2 7828   3.246   2.139   3.740
 2629TIP3   OH2 7829   3.451   1.875   3.804
 2629TIP3    H1 7830   3.378   1.837   3.853
 2629TIP3    H2 7831   3.527   1.821   3.827
 2630TIP3   OH2 7832   2.898   1.095   2.431
 2630TIP3    H1 7833   2.981   1.072   2.472
 2630TIP3    H2 7834   2.866   1.013   2.393
 2631TIP3   OH2 7835   2.996   1.391   2.840
 2631TIP3    H1 7836   3.039   1.307   2.855
 2631TIP3    H2 7837   3.039   1.427   2.762
 2632TIP3   OH2 7838   3.153   1.534   3.380
 2632TIP3    H1 7839   3.232   1.557   3.331
 2632TIP3    H2 7840   3.160   1.585   3.461
 2633TIP3   OH2 7841   3.220   1.707   3.592
 2633TIP3    H1 7842   3.153   1.734   3.654
 2633TIP3    H2 7843   3.244   1.788   3.546
 2634TIP3   OH2 7844   1.838   1.416   4.369
 2634TIP3    H1 7845   1.933   1.408   4.384
 2634TIP3    H2 7846   1.802   1.336   4.407
 2635TIP3   OH2 7847   3.677   1.300   4.133
 2635TIP3    H1 7848   3.742   1.244   4.091
 2635TIP3    H2 7849   3.639   1.351   4.061
 2636TIP3   OH2 7850   3.108   1.141   2.889
 2636TIP3    H1 7851   3.151   1.126   2.973
 2636TIP3    H2 7852   3.043   1.071   2.883
 2637TIP3   OH2 7853   1.814   1.132   3.724
 2637TIP3    H1 7854   1.867   1.053   3.727
 2637TIP3    H2 7855   1.876   1.202   3.702
 2638TIP3   OH2 7856   1.593   1.401   3.780
 2638TIP3    H1 7857   1.645   1.387   3.700
 2638TIP3    H2 7858   1.621   1.487   3.811
 2639TIP3   OH2 7859   3.528   1.423   3.941
 2639TIP3    H1 7860   3.452   1.464   3.983
 2639TIP3    H2 7861   3.490   1.356   3.884
 2640TIP3   OH2 7862   3.156   1.051   2.531
 2640TIP3    H1 7863   3.200   0.991   2.470
 2640TIP3    H2 7864   3.210   1.129   2.531
 2641TIP3   OH2 7865   1.592   0.934   3.299
 2641TIP3    H1 7866   1.501   0.919   3.326
 2641TIP3    H2 7867   1.585   0.981   3.216
 2642TIP3   OH2 7868   2.740   2.613   2.801
 2642TIP3    H1 7869   2.796   2.606   2.724
 2642TIP3    H2 7870   2.776   2.685   2.851
 2643TIP3   OH2 7871   1.814   0.966   4.101
 2643TIP3    H1 7872   1.765   0.974   4.183
 2643TIP3    H2 7873   1.760   1.012   4.036
 2644TIP3   OH2 7874   1.817   2.420   4.169
 2644TIP3    H1 7875   1.725   2.391   4.167
 2644TIP3    H2 7876   1.842   2.409   4.261
 2645TIP3   OH2 7877   2.042   2.458   3.726
 2645TIP3    H1 7878   1.991   2.533   3.695
 2645TIP3    H2 7879   2.126   2.466   3.681
 2646TIP3   OH2 7880   2.427   2.690   3.876
 2646TIP3    H1 7881   2.470   2.680   3.961
 2646TIP3    H2 7882   2.487   2.745   3.825
 2647TIP3   OH2 7883   2.607   2.845   3.740
 2647TIP3    H1 7884   2.646   2.794   3.668
 2647TIP3    H2 7885   2.681   2.887   3.782
 2648TIP3   OH2 7886   3.436   1.175   3.826
 2648TIP3    H1 7887   3.350   1.176   3.782
 2648TIP3    H2 7888   3.465   1.084   3.820
 2649TIP3   OH2 7889   1.701   2.687   3.780
 2649TIP3    H1 7890   1.611   2.706   3.756
 2649TIP3    H2 7891   1.725   2.757   3.842
 2650TIP3   OH2 7892   1.929   2.688   3.624
 2650TIP3    H1 7893   1.846   2.691   3.671
 2650TIP3    H2 7894   1.907   2.712   3.534
 2651TIP3   OH2 7895   2.351   2.707   3.411
 2651TIP3    H1 7896   2.280   2.716   3.349
 2651TIP3    H2 7897   2.360   2.793   3.452
 2652TIP3   OH2 7898   2.622   2.704   3.492
 2652TIP3    H1 7899   2.535   2.685   3.456
 2652TIP3    H2 7900   2.668   2.749   3.421
 2653TIP3   OH2 7901   2.840   2.843   3.369
 2653TIP3    H1 7902   2.826   2.925   3.322
 2653TIP3    H2 7903   2.859   2.779   3.300
 2654TIP3   OH2 7904   1.611   2.472   3.488
 2654TIP3    H1 7905   1.638   2.451   3.577
 2654TIP3    H2 7906   1.683   2.439   3.433
 2655TIP3   OH2 7907   1.814   2.354   3.349
 2655TIP3    H1 7908   1.825   2.270   3.394
 2655TIP3    H2 7909   1.899   2.396   3.355
 2656TIP3   OH2 7910   2.077   2.442   3.375
 2656TIP3    H1 7911   2.098   2.349   3.363
 2656TIP3    H2 7912   2.134   2.471   3.446
 2657TIP3   OH2 7913   2.643   1.102   3.458
 2657TIP3    H1 7914   2.607   1.030   3.510
 2657TIP3    H2 7915   2.709   1.062   3.403
 2658TIP3   OH2 7916   3.142   0.997   3.337
 2658TIP3    H1 7917   3.186   1.045   3.268
 2658TIP3    H2 7918   3.060   1.044   3.350
 2659TIP3   OH2 7919   3.264   1.084   3.111
 2659TIP3    H1 7920   3.333   1.024   3.082
 2659TIP3    H2 7921   3.301   1.171   3.098
 2660TIP3   OH2 7922   1.877   0.806   3.468
 2660TIP3    H1 7923   1.788   0.770   3.470
 2660TIP3    H2 7924   1.934   0.730   3.459
 2661TIP3   OH2 7925   1.719   0.710   3.187
 2661TIP3    H1 7926   1.754   0.748   3.106
 2661TIP3    H2 7927   1.679   0.784   3.233
 2662TIP3   OH2 7928   2.378   0.829   3.358
 2662TIP3    H1 7929   2.426   0.881   3.293
 2662TIP3    H2 7930   2.410   0.861   3.442
 2663TIP3   OH2 7931   2.845   0.984   3.314
 2663TIP3    H1 7932   2.876   0.952   3.229
 2663TIP3    H2 7933   2.849   0.909   3.372
 2664TIP3   OH2 7934   2.916   0.936   2.897
 2664TIP3    H1 7935   2.836   0.984   2.919
 2664TIP3    H2 7936   2.902   0.848   2.933
 2665TIP3   OH2 7937   1.376   2.274   2.884
 2665TIP3    H1 7938   1.292   2.242   2.852
 2665TIP3    H2 7939   1.382   2.363   2.850
 2666TIP3   OH2 7940   1.829   0.828   2.963
 2666TIP3    H1 7941   1.846   0.789   2.877
 2666TIP3    H2 7942   1.892   0.900   2.969
 2667TIP3   OH2 7943   2.303   1.025   2.997
 2667TIP3    H1 7944   2.362   0.981   3.058
 2667TIP3    H2 7945   2.312   1.118   3.017
 2668TIP3   OH2 7946   2.180   2.426   2.468
 2668TIP3    H1 7947   2.264   2.455   2.433
 2668TIP3    H2 7948   2.154   2.353   2.412
 2669TIP3   OH2 7949   2.889   2.569   2.569
 2669TIP3    H1 7950   2.881   2.474   2.563
 2669TIP3    H2 7951   2.841   2.603   2.494
 2670TIP3   OH2 7952   2.116   1.072   4.349
 2670TIP3    H1 7953   2.084   1.003   4.408
 2670TIP3    H2 7954   2.209   1.081   4.371
 2671TIP3   OH2 7955   2.365   1.079   4.470
 2671TIP3    H1 7956   2.440   1.063   4.413
 2671TIP3    H2 7957   2.368   1.008   4.535
 2672TIP3   OH2 7958   1.498   2.282   2.532
 2672TIP3    H1 7959   1.500   2.298   2.626
 2672TIP3    H2 7960   1.578   2.233   2.514
 2673TIP3   OH2 7961   3.182   1.179   4.257
 2673TIP3    H1 7962   3.199   1.149   4.346
 2673TIP3    H2 7963   3.267   1.174   4.213
 2674TIP3   OH2 7964   3.104   2.708   3.760
 2674TIP3    H1 7965   3.031   2.678   3.705
 2674TIP3    H2 7966   3.088   2.802   3.770
 2675TIP3   OH2 7967   4.369   2.084   2.507
 2675TIP3    H1 7968   4.347   2.175   2.483
 2675TIP3    H2 7969   4.299   2.032   2.468
 2676TIP3   OH2 7970   4.392   2.106   2.914
 2676TIP3    H1 7971   4.435   2.081   2.996
 2676TIP3    H2 7972   4.366   2.022   2.874
 2677TIP3   OH2 7973   3.692   1.982   3.261
 2677TIP3    H1 7974   3.712   1.903   3.311
 2677TIP3    H2 7975   3.729   2.053   3.314
 2678TIP3   OH2 7976   4.645   2.397   2.592
 2678TIP3    H1 7977   4.639   2.332   2.662
 2678TIP3    H2 7978   4.665   2.479   2.638
 2679TIP3   OH2 7979   3.673   2.370   2.941
 2679TIP3    H1 7980   3.654   2.279   2.963
 2679TIP3    H2 7981   3.768   2.375   2.940
 2680TIP3   OH2 7982   3.357   1.589   2.731
 2680TIP3    H1 7983   3.313   1.670   2.758
 2680TIP3    H2 7984   3.287   1.536   2.692
 2681TIP3   OH2 7985   3.421   1.889   2.960
 2681TIP3    H1 7986   3.472   1.811   2.984
 2681TIP3    H2 7987   3.487   1.953   2.933
 2682TIP3   OH2 7988   4.300   2.824   2.606
 2682TIP3    H1 7989   4.327   2.758   2.543
 2682TIP3    H2 7990   4.302   2.779   2.691
 2683TIP3   OH2 7991   4.190   2.311   2.934
 2683TIP3    H1 7992   4.242   2.236   2.906
 2683TIP3    H2 7993   4.253   2.373   2.970
 2684TIP3   OH2 7994   5.214   1.627   2.943
 2684TIP3    H1 7995   5.232   1.710   2.987
 2684TIP3    H2 7996   5.243   1.641   2.853
 2685TIP3   OH2 7997   4.559   1.770   2.953
 2685TIP3    H1 7998   4.613   1.698   2.984
 2685TIP3    H2 7999   4.562   1.763   2.857
 2686TIP3   OH2 8000   3.871   1.468   2.903
 2686TIP3    H1 8001   3.797   1.521   2.874
 2686TIP3    H2 8002   3.853   1.380   2.869
 2687TIP3   OH2 8003   4.650   1.552   2.545
 2687TIP3    H1 8004   4.715   1.551   2.616
 2687TIP3    H2 8005   4.698   1.585   2.469
 2688TIP3   OH2 8006   3.562   1.668   3.051
 2688TIP3    H1 8007   3.641   1.647   3.100
 2688TIP3    H2 8008   3.565   1.611   2.974
 2689TIP3   OH2 8009   5.271   1.846   3.107
 2689TIP3    H1 8010   5.182   1.883   3.104
 2689TIP3    H2 8011   5.309   1.882   3.187
 2690TIP3   OH2 8012   3.924   1.457   3.374
 2690TIP3    H1 8013   3.873   1.495   3.304
 2690TIP3    H2 8014   3.872   1.471   3.453
 2691TIP3   OH2 8015   4.279   2.306   2.363
 2691TIP3    H1 8016   4.238   2.276   2.282
 2691TIP3    H2 8017   4.227   2.382   2.389
 2692TIP3   OH2 8018   4.021   2.240   3.146
 2692TIP3    H1 8019   3.963   2.308   3.180
 2692TIP3    H2 8020   4.069   2.283   3.076
 2693TIP3   OH2 8021   4.809   1.591   2.762
 2693TIP3    H1 8022   4.776   1.565   2.848
 2693TIP3    H2 8023   4.869   1.664   2.780
 2694TIP3   OH2 8024   3.806   1.568   3.152
 2694TIP3    H1 8025   3.862   1.643   3.170
 2694TIP3    H2 8026   3.841   1.531   3.071
 2695TIP3   OH2 8027   3.858   2.438   3.246
 2695TIP3    H1 8028   3.848   2.528   3.218
 2695TIP3    H2 8029   3.779   2.420   3.298
 2696TIP3   OH2 8030   3.239   2.142   2.499
 2696TIP3    H1 8031   3.200   2.162   2.413
 2696TIP3    H2 8032   3.261   2.228   2.536
 2697TIP3   OH2 8033   4.677   2.642   2.733
 2697TIP3    H1 8034   4.590   2.633   2.773
 2697TIP3    H2 8035   4.674   2.727   2.689
 2698TIP3   OH2 8036   5.012   1.515   3.109
 2698TIP3    H1 8037   4.927   1.539   3.072
 2698TIP3    H2 8038   5.076   1.543   3.044
 2699TIP3   OH2 8039   4.258   1.139   3.108
 2699TIP3    H1 8040   4.255   1.048   3.137
 2699TIP3    H2 8041   4.182   1.179   3.149
 2700TIP3   OH2 8042   4.388   2.669   2.392
 2700TIP3    H1 8043   4.441   2.591   2.380
 2700TIP3    H2 8044   4.444   2.741   2.363
 2701TIP3   OH2 8045   4.526   2.439   2.347
 2701TIP3    H1 8046   4.453   2.377   2.348
 2701TIP3    H2 8047   4.577   2.418   2.426
 2702TIP3   OH2 8048   4.911   2.535   3.080
 2702TIP3    H1 8049   4.897   2.460   3.023
 2702TIP3    H2 8050   4.895   2.612   3.024
 2703TIP3   OH2 8051   4.194   1.940   2.346
 2703TIP3    H1 8052   4.111   1.984   2.329
 2703TIP3    H2 8053   4.240   1.942   2.261
 2704TIP3   OH2 8054   4.183   1.738   2.052
 2704TIP3    H1 8055   4.248   1.792   2.097
 2704TIP3    H2 8056   4.235   1.676   2.000
 2705TIP3   OH2 8057   5.096   2.187   2.947
 2705TIP3    H1 8058   5.013   2.235   2.948
 2705TIP3    H2 8059   5.131   2.202   2.859
 2706TIP3   OH2 8060   4.563   2.028   2.318
 2706TIP3    H1 8061   4.509   2.053   2.393
 2706TIP3    H2 8062   4.647   2.005   2.356
 2707TIP3   OH2 8063   4.789   2.047   3.257
 2707TIP3    H1 8064   4.788   2.132   3.301
 2707TIP3    H2 8065   4.708   2.046   3.205
 2708TIP3   OH2 8066   3.781   1.973   2.740
 2708TIP3    H1 8067   3.718   1.943   2.674
 2708TIP3    H2 8068   3.856   1.913   2.731
 2709TIP3   OH2 8069   3.938   2.423   2.855
 2709TIP3    H1 8070   3.918   2.411   2.762
 2709TIP3    H2 8071   4.026   2.389   2.865
 2710TIP3   OH2 8072   3.945   1.995   3.052
 2710TIP3    H1 8073   3.947   2.021   2.960
 2710TIP3    H2 8074   3.968   2.075   3.100
 2711TIP3   OH2 8075   4.441   2.630   2.868
 2711TIP3    H1 8076   4.427   2.714   2.911
 2711TIP3    H2 8077   4.424   2.564   2.936
 2712TIP3   OH2 8078   4.063   2.527   3.413
 2712TIP3    H1 8079   4.005   2.586   3.461
 2712TIP3    H2 8080   4.004   2.477   3.356
 2713TIP3   OH2 8081   4.396   1.889   2.150
 2713TIP3    H1 8082   4.454   1.946   2.201
 2713TIP3    H2 8083   4.425   1.899   2.060
 2714TIP3   OH2 8084   3.801   2.087   3.518
 2714TIP3    H1 8085   3.813   2.175   3.554
 2714TIP3    H2 8086   3.710   2.064   3.540
 2715TIP3   OH2 8087   4.142   2.544   2.400
 2715TIP3    H1 8088   4.222   2.597   2.405
 2715TIP3    H2 8089   4.080   2.600   2.353
 2716TIP3   OH2 8090   3.857   2.686   3.499
 2716TIP3    H1 8091   3.829   2.703   3.409
 2716TIP3    H2 8092   3.776   2.672   3.547
 2717TIP3   OH2 8093   4.900   1.110   2.203
 2717TIP3    H1 8094   4.823   1.129   2.256
 2717TIP3    H2 8095   4.910   1.185   2.146
 2718TIP3   OH2 8096   3.643   1.844   2.531
 2718TIP3    H1 8097   3.574   1.896   2.490
 2718TIP3    H2 8098   3.603   1.757   2.543
 2719TIP3   OH2 8099   4.728   2.488   1.753
 2719TIP3    H1 8100   4.721   2.582   1.735
 2719TIP3    H2 8101   4.819   2.466   1.733
 2720TIP3   OH2 8102   3.444   2.246   3.452
 2720TIP3    H1 8103   3.371   2.233   3.392
 2720TIP3    H2 8104   3.471   2.158   3.478
 2721TIP3   OH2 8105   3.283   2.452   3.109
 2721TIP3    H1 8106   3.370   2.482   3.137
 2721TIP3    H2 8107   3.225   2.526   3.130
 2722TIP3   OH2 8108   5.147   2.892   3.149
 2722TIP3    H1 8109   5.152   2.797   3.165
 2722TIP3    H2 8110   5.067   2.920   3.193
 2723TIP3   OH2 8111   4.249   2.676   3.274
 2723TIP3    H1 8112   4.242   2.767   3.304
 2723TIP3    H2 8113   4.182   2.629   3.325
 2724TIP3   OH2 8114   4.032   2.774   2.228
 2724TIP3    H1 8115   3.986   2.755   2.146
 2724TIP3    H2 8116   3.993   2.856   2.258
 2725TIP3   OH2 8117   3.465   2.631   2.603
 2725TIP3    H1 8118   3.508   2.623   2.688
 2725TIP3    H2 8119   3.415   2.550   2.594
 2726TIP3   OH2 8120   4.233   2.709   1.853
 2726TIP3    H1 8121   4.284   2.636   1.818
 2726TIP3    H2 8122   4.267   2.722   1.941
 2727TIP3   OH2 8123   4.285   2.751   2.123
 2727TIP3    H1 8124   4.199   2.754   2.165
 2727TIP3    H2 8125   4.344   2.717   2.191
 2728TIP3   OH2 8126   5.038   2.003   3.417
 2728TIP3    H1 8127   4.952   2.016   3.377
 2728TIP3    H2 8128   5.055   1.910   3.410
 2729TIP3   OH2 8129   3.634   2.441   3.407
 2729TIP3    H1 8130   3.673   2.451   3.494
 2729TIP3    H2 8131   3.566   2.375   3.420
 2730TIP3   OH2 8132   4.026   1.246   3.224
 2730TIP3    H1 8133   3.942   1.210   3.197
 2730TIP3    H2 8134   4.004   1.323   3.275
 2731TIP3   OH2 8135   4.571   1.362   3.433
 2731TIP3    H1 8136   4.641   1.339   3.494
 2731TIP3    H2 8137   4.490   1.349   3.484
 2732TIP3   OH2 8138   4.781   1.780   3.339
 2732TIP3    H1 8139   4.745   1.775   3.428
 2732TIP3    H2 8140   4.772   1.872   3.315
 2733TIP3   OH2 8141   4.484   1.894   1.896
 2733TIP3    H1 8142   4.431   1.885   1.817
 2733TIP3    H2 8143   4.565   1.936   1.866
 2734TIP3   OH2 8144   4.188   1.281   2.207
 2734TIP3    H1 8145   4.150   1.291   2.294
 2734TIP3    H2 8146   4.149   1.201   2.173
 2735TIP3   OH2 8147   3.965   1.780   3.223
 2735TIP3    H1 8148   3.916   1.797   3.303
 2735TIP3    H2 8149   3.952   1.859   3.170
 2736TIP3   OH2 8150   4.344   1.741   2.463
 2736TIP3    H1 8151   4.292   1.811   2.424
 2736TIP3    H2 8152   4.398   1.708   2.390
 2737TIP3   OH2 8153   4.512   1.994   3.559
 2737TIP3    H1 8154   4.487   1.926   3.622
 2737TIP3    H2 8155   4.603   2.013   3.579
 2738TIP3   OH2 8156   4.522   1.754   2.682
 2738TIP3    H1 8157   4.456   1.783   2.618
 2738TIP3    H2 8158   4.563   1.678   2.641
 2739TIP3   OH2 8159   3.795   1.789   3.441
 2739TIP3    H1 8160   3.799   1.854   3.510
 2739TIP3    H2 8161   3.779   1.706   3.487
 2740TIP3   OH2 8162   3.846   1.266   2.179
 2740TIP3    H1 8163   3.828   1.263   2.273
 2740TIP3    H2 8164   3.770   1.312   2.142
 2741TIP3   OH2 8165   3.393   1.307   3.036
 2741TIP3    H1 8166   3.465   1.342   3.088
 2741TIP3    H2 8167   3.432   1.291   2.950
 2742TIP3   OH2 8168   3.303   1.288   2.540
 2742TIP3    H1 8169   3.346   1.325   2.463
 2742TIP3    H2 8170   3.237   1.353   2.565
 2743TIP3   OH2 8171   4.535   1.985   3.127
 2743TIP3    H1 8172   4.553   1.911   3.068
 2743TIP3    H2 8173   4.492   1.945   3.202
 2744TIP3   OH2 8174   4.160   1.454   2.908
 2744TIP3    H1 8175   4.074   1.422   2.935
 2744TIP3    H2 8176   4.220   1.383   2.932
 2745TIP3   OH2 8177   3.605   1.514   2.824
 2745TIP3    H1 8178   3.521   1.537   2.785
 2745TIP3    H2 8179   3.624   1.427   2.790
 2746TIP3   OH2 8180   3.908   1.509   2.486
 2746TIP3    H1 8181   3.952   1.593   2.497
 2746TIP3    H2 8182   3.843   1.524   2.417
 2747TIP3   OH2 8183   4.705   1.522   3.006
 2747TIP3    H1 8184   4.673   1.534   3.096
 2747TIP3    H2 8185   4.676   1.434   2.982
 2748TIP3   OH2 8186   3.743   1.562   2.278
 2748TIP3    H1 8187   3.679   1.512   2.227
 2748TIP3    H2 8188   3.799   1.603   2.213
 2749TIP3   OH2 8189   4.858   3.235   3.242
 2749TIP3    H1 8190   4.856   3.256   3.149
 2749TIP3    H2 8191   4.935   3.283   3.275
 2750TIP3   OH2 8192   3.809   2.330   3.653
 2750TIP3    H1 8193   3.887   2.359   3.701
 2750TIP3    H2 8194   3.737   2.347   3.714
 2751TIP3   OH2 8195   4.286   1.736   2.923
 2751TIP3    H1 8196   4.379   1.759   2.927
 2751TIP3    H2 8197   4.259   1.735   3.015
 2752TIP3   OH2 8198   3.747   1.255   2.778
 2752TIP3    H1 8199   3.720   1.184   2.836
 2752TIP3    H2 8200   3.756   1.214   2.692
 2753TIP3   OH2 8201   4.232   1.723   3.189
 2753TIP3    H1 8202   4.145   1.758   3.209
 2753TIP3    H2 8203   4.292   1.776   3.242
 2754TIP3   OH2 8204   3.952   2.074   2.305
 2754TIP3    H1 8205   3.878   2.018   2.280
 2754TIP3    H2 8206   3.927   2.108   2.391
 2755TIP3   OH2 8207   4.865   2.330   2.902
 2755TIP3    H1 8208   4.903   2.380   2.830
 2755TIP3    H2 8209   4.785   2.292   2.866
 2756TIP3   OH2 8210   4.443   1.378   2.200
 2756TIP3    H1 8211   4.350   1.355   2.194
 2756TIP3    H2 8212   4.444   1.473   2.199
 2757TIP3   OH2 8213   4.372   2.401   3.329
 2757TIP3    H1 8214   4.425   2.393   3.409
 2757TIP3    H2 8215   4.331   2.488   3.336
 2758TIP3   OH2 8216   4.502   1.649   2.253
 2758TIP3    H1 8217   4.597   1.654   2.264
 2758TIP3    H2 8218   4.481   1.726   2.200
 2759TIP3   OH2 8219   3.655   2.078   2.973
 2759TIP3    H1 8220   3.706   2.044   2.899
 2759TIP3    H2 8221   3.699   2.043   3.050
 2760TIP3   OH2 8222   4.114   2.227   2.147
 2760TIP3    H1 8223   4.070   2.312   2.140
 2760TIP3    H2 8224   4.054   2.173   2.199
 2761TIP3   OH2 8225   3.538   2.005   3.572
 2761TIP3    H1 8226   3.537   1.980   3.664
 2761TIP3    H2 8227   3.460   1.964   3.535
 2762TIP3   OH2 8228   4.279   2.148   3.602
 2762TIP3    H1 8229   4.209   2.089   3.573
 2762TIP3    H2 8230   4.360   2.106   3.573
 2763TIP3   OH2 8231   4.519   2.694   3.200
 2763TIP3    H1 8232   4.424   2.682   3.206
 2763TIP3    H2 8233   4.544   2.733   3.284
 2764TIP3   OH2 8234   4.913   1.733   2.079
 2764TIP3    H1 8235   4.869   1.687   2.008
 2764TIP3    H2 8236   4.912   1.825   2.052
 2765TIP3   OH2 8237   5.158   2.605   3.174
 2765TIP3    H1 8238   5.063   2.595   3.165
 2765TIP3    H2 8239   5.193   2.580   3.088
 2766TIP3   OH2 8240   4.648   2.556   2.022
 2766TIP3    H1 8241   4.618   2.488   2.082
 2766TIP3    H2 8242   4.664   2.509   1.940
 2767TIP3   OH2 8243   4.639   2.202   2.796
 2767TIP3    H1 8244   4.550   2.185   2.827
 2767TIP3    H2 8245   4.669   2.118   2.761
 2768TIP3   OH2 8246   3.784   2.423   2.613
 2768TIP3    H1 8247   3.779   2.496   2.552
 2768TIP3    H2 8248   3.703   2.428   2.664
 2769TIP3   OH2 8249   3.349   1.715   2.321
 2769TIP3    H1 8250   3.387   1.801   2.341
 2769TIP3    H2 8251   3.267   1.713   2.370
 2770TIP3   OH2 8252   3.866   2.168   2.545
 2770TIP3    H1 8253   3.845   2.260   2.562
 2770TIP3    H2 8254   3.831   2.121   2.621
 2771TIP3   OH2 8255   4.068   2.750   3.067
 2771TIP3    H1 8256   4.103   2.824   3.018
 2771TIP3    H2 8257   4.141   2.719   3.121
 2772TIP3   OH2 8258   3.702   2.646   2.462
 2772TIP3    H1 8259   3.614   2.653   2.500
 2772TIP3    H2 8260   3.737   2.735   2.468
 2773TIP3   OH2 8261   4.417   2.419   3.056
 2773TIP3    H1 8262   4.398   2.412   3.150
 2773TIP3    H2 8263   4.507   2.389   3.047
 2774TIP3   OH2 8264   4.420   2.289   1.901
 2774TIP3    H1 8265   4.469   2.261   1.978
 2774TIP3    H2 8266   4.336   2.244   1.908
 2775TIP3   OH2 8267   4.670   2.908   3.079
 2775TIP3    H1 8268   4.599   2.846   3.097
 2775TIP3    H2 8269   4.636   2.963   3.009
 2776TIP3   OH2 8270   4.726   2.761   1.715
 2776TIP3    H1 8271   4.755   2.829   1.654
 2776TIP3    H2 8272   4.652   2.801   1.761
 2777TIP3   OH2 8273   3.751   1.539   3.576
 2777TIP3    H1 8274   3.656   1.550   3.582
 2777TIP3    H2 8275   3.776   1.500   3.659
 2778TIP3   OH2 8276   4.589   2.202   2.099
 2778TIP3    H1 8277   4.572   2.153   2.179
 2778TIP3    H2 8278   4.685   2.209   2.095
 2779TIP3   OH2 8279   3.492   2.632   3.225
 2779TIP3    H1 8280   3.544   2.573   3.280
 2779TIP3    H2 8281   3.502   2.718   3.267
 2780TIP3   OH2 8282   3.764   2.266   1.926
 2780TIP3    H1 8283   3.775   2.175   1.897
 2780TIP3    H2 8284   3.747   2.260   2.020
 2781TIP3   OH2 8285   3.703   2.275   2.196
 2781TIP3    H1 8286   3.774   2.250   2.256
 2781TIP3    H2 8287   3.700   2.370   2.200
 2782TIP3   OH2 8288   3.434   1.970   2.403
 2782TIP3    H1 8289   3.368   2.016   2.454
 2782TIP3    H2 8290   3.453   2.028   2.329
 2783TIP3   OH2 8291   4.619   1.569   3.258
 2783TIP3    H1 8292   4.681   1.631   3.298
 2783TIP3    H2 8293   4.603   1.504   3.326
 2784TIP3   OH2 8294   4.487   1.344   2.470
 2784TIP3    H1 8295   4.471   1.354   2.376
 2784TIP3    H2 8296   4.540   1.419   2.494
 2785TIP3   OH2 8297   3.974   2.459   2.133
 2785TIP3    H1 8298   3.888   2.484   2.168
 2785TIP3    H2 8299   3.999   2.532   2.077
 2786TIP3   OH2 8300   4.229   1.562   2.627
 2786TIP3    H1 8301   4.266   1.621   2.561
 2786TIP3    H2 8302   4.247   1.474   2.592
 2787TIP3   OH2 8303   4.440   1.835   3.340
 2787TIP3    H1 8304   4.458   1.890   3.416
 2787TIP3    H2 8305   4.488   1.754   3.358
 2788TIP3   OH2 8306   4.293   1.268   2.649
 2788TIP3    H1 8307   4.337   1.280   2.733
 2788TIP3    H2 8308   4.363   1.277   2.584
 2789TIP3   OH2 8309   3.724   2.546   2.208
 2789TIP3    H1 8310   3.703   2.618   2.148
 2789TIP3    H2 8311   3.713   2.584   2.295
 2790TIP3   OH2 8312   3.814   1.239   2.462
 2790TIP3    H1 8313   3.817   1.332   2.485
 2790TIP3    H2 8314   3.906   1.212   2.460
 2791TIP3   OH2 8315   5.049   1.731   3.323
 2791TIP3    H1 8316   4.954   1.737   3.333
 2791TIP3    H2 8317   5.062   1.673   3.248
 2792TIP3   OH2 8318   4.726   1.945   2.711
 2792TIP3    H1 8319   4.656   1.881   2.710
 2792TIP3    H2 8320   4.795   1.904   2.763
 2793TIP3   OH2 8321   3.457   2.145   2.188
 2793TIP3    H1 8322   3.527   2.210   2.198
 2793TIP3    H2 8323   3.491   2.083   2.124
 2794TIP3   OH2 8324   3.369   1.437   2.321
 2794TIP3    H1 8325   3.382   1.532   2.329
 2794TIP3    H2 8326   3.320   1.426   2.240
 2795TIP3   OH2 8327   4.697   2.907   2.650
 2795TIP3    H1 8328   4.656   2.959   2.580
 2795TIP3    H2 8329   4.791   2.921   2.637
 2796TIP3   OH2 8330   3.770   1.152   3.186
 2796TIP3    H1 8331   3.738   1.119   3.102
 2796TIP3    H2 8332   3.760   1.078   3.246
 2797TIP3   OH2 8333   3.286   2.410   2.582
 2797TIP3    H1 8334   3.245   2.448   2.660
 2797TIP3    H2 8335   3.242   2.453   2.508
 2798TIP3   OH2 8336   3.487   2.958   3.664
 2798TIP3    H1 8337   3.566   2.964   3.718
 2798TIP3    H2 8338   3.456   2.868   3.676
 2799TIP3   OH2 8339   3.955   2.860   3.692
 2799TIP3    H1 8340   4.048   2.841   3.704
 2799TIP3    H2 8341   3.927   2.801   3.622
 2800TIP3   OH2 8342   3.918   2.462   1.812
 2800TIP3    H1 8343   3.870   2.393   1.858
 2800TIP3    H2 8344   3.992   2.417   1.771
 2801TIP3   OH2 8345   4.579   2.795   3.447
 2801TIP3    H1 8346   4.592   2.727   3.514
 2801TIP3    H2 8347   4.652   2.855   3.460
 2802TIP3   OH2 8348   4.363   2.499   1.734
 2802TIP3    H1 8349   4.398   2.434   1.795
 2802TIP3    H2 8350   4.420   2.493   1.658
 2803TIP3   OH2 8351   3.598   2.339   3.836
 2803TIP3    H1 8352   3.609   2.245   3.846
 2803TIP3    H2 8353   3.512   2.349   3.796
 2804TIP3   OH2 8354   3.586   1.958   2.038
 2804TIP3    H1 8355   3.636   1.930   2.115
 2804TIP3    H2 8356   3.652   1.974   1.971
 2805TIP3   OH2 8357   4.219   2.426   3.618
 2805TIP3    H1 8358   4.172   2.448   3.537
 2805TIP3    H2 8359   4.251   2.337   3.604
 2806TIP3   OH2 8360   4.169   2.172   1.883
 2806TIP3    H1 8361   4.141   2.183   1.974
 2806TIP3    H2 8362   4.147   2.081   1.862
 2807TIP3   OH2 8363   4.682   2.465   3.219
 2807TIP3    H1 8364   4.762   2.497   3.177
 2807TIP3    H2 8365   4.621   2.539   3.213
 2808TIP3   OH2 8366   3.719   2.079   3.851
 2808TIP3    H1 8367   3.802   2.075   3.803
 2808TIP3    H2 8368   3.744   2.108   3.939
 2809TIP3   OH2 8369   3.753   1.888   2.253
 2809TIP3    H1 8370   3.723   1.849   2.335
 2809TIP3    H2 8371   3.806   1.819   2.212
 2810TIP3   OH2 8372   4.068   1.977   3.494
 2810TIP3    H1 8373   3.982   2.019   3.498
 2810TIP3    H2 8374   4.107   2.010   3.413
 2811TIP3   OH2 8375   3.911   1.707   2.114
 2811TIP3    H1 8376   3.881   1.719   2.024
 2811TIP3    H2 8377   4.006   1.711   2.108
 2812TIP3   OH2 8378   4.561   2.349   3.581
 2812TIP3    H1 8379   4.637   2.315   3.532
 2812TIP3    H2 8380   4.559   2.296   3.661
 2813TIP3   OH2 8381   4.703   1.999   1.761
 2813TIP3    H1 8382   4.681   1.956   1.678
 2813TIP3    H2 8383   4.679   2.091   1.747
 2814TIP3   OH2 8384   4.173   1.748   3.609
 2814TIP3    H1 8385   4.176   1.677   3.545
 2814TIP3    H2 8386   4.137   1.822   3.560
 2815TIP3   OH2 8387   4.183   1.545   3.408
 2815TIP3    H1 8388   4.207   1.587   3.326
 2815TIP3    H2 8389   4.092   1.518   3.396
 2816TIP3   OH2 8390   4.203   2.087   3.284
 2816TIP3    H1 8391   4.283   2.139   3.288
 2816TIP3    H2 8392   4.141   2.142   3.235
 2817TIP3   OH2 8393   4.780   2.034   3.658
 2817TIP3    H1 8394   4.833   1.956   3.668
 2817TIP3    H2 8395   4.843   2.106   3.654
 2818TIP3   OH2 8396   4.814   2.295   3.388
 2818TIP3    H1 8397   4.759   2.355   3.337
 2818TIP3    H2 8398   4.903   2.314   3.358
 2819TIP3   OH2 8399   4.060   1.824   3.855
 2819TIP3    H1 8400   3.989   1.764   3.875
 2819TIP3    H2 8401   4.087   1.801   3.766
 2820TIP3   OH2 8402   4.304   1.314   3.511
 2820TIP3    H1 8403   4.264   1.394   3.479
 2820TIP3    H2 8404   4.236   1.247   3.498
 2821TIP3   OH2 8405   4.430   1.782   3.714
 2821TIP3    H1 8406   4.421   1.769   3.808
 2821TIP3    H2 8407   4.342   1.764   3.679
 2822TIP3   OH2 8408   4.672   1.731   3.581
 2822TIP3    H1 8409   4.595   1.735   3.638
 2822TIP3    H2 8410   4.745   1.714   3.640
 2823TIP3   OH2 8411   4.911   1.705   3.731
 2823TIP3    H1 8412   4.925   1.611   3.738
 2823TIP3    H2 8413   4.906   1.736   3.821
 2824TIP3   OH2 8414   3.891   1.604   3.917
 2824TIP3    H1 8415   3.897   1.515   3.884
 2824TIP3    H2 8416   3.930   1.600   4.005
 2825TIP3   OH2 8417   4.372   1.287   3.776
 2825TIP3    H1 8418   4.441   1.221   3.769
 2825TIP3    H2 8419   4.341   1.300   3.686
 2826TIP3   OH2 8420   4.467   1.502   3.921
 2826TIP3    H1 8421   4.436   1.430   3.867
 2826TIP3    H2 8422   4.394   1.564   3.923
 2827TIP3   OH2 8423   3.722   2.755   2.027
 2827TIP3    H1 8424   3.812   2.736   2.000
 2827TIP3    H2 8425   3.684   2.800   1.952
 2828TIP3   OH2 8426   3.184   2.140   2.206
 2828TIP3    H1 8427   3.279   2.152   2.203
 2828TIP3    H2 8428   3.170   2.052   2.172
 2829TIP3   OH2 8429   3.094   2.721   2.668
 2829TIP3    H1 8430   3.029   2.668   2.622
 2829TIP3    H2 8431   3.137   2.660   2.728
 2830TIP3   OH2 8432   3.238   2.551   2.834
 2830TIP3    H1 8433   3.228   2.484   2.901
 2830TIP3    H2 8434   3.290   2.620   2.876
 2831TIP3   OH2 8435   4.969   2.959   2.646
 2831TIP3    H1 8436   4.985   2.982   2.738
 2831TIP3    H2 8437   5.016   3.025   2.596
 2832TIP3   OH2 8438   4.988   2.989   2.925
 2832TIP3    H1 8439   4.940   2.906   2.923
 2832TIP3    H2 8440   5.058   2.974   2.989
 2833TIP3   OH2 8441   5.050   2.687   3.496
 2833TIP3    H1 8442   4.976   2.696   3.556
 2833TIP3    H2 8443   5.093   2.772   3.498
 2834TIP3   OH2 8444   4.871   2.199   2.102
 2834TIP3    H1 8445   4.925   2.272   2.072
 2834TIP3    H2 8446   4.918   2.163   2.177
 2835TIP3   OH2 8447   5.005   2.059   2.303
 2835TIP3    H1 8448   4.936   2.028   2.361
 2835TIP3    H2 8449   5.069   2.100   2.361
 2836TIP3   OH2 8450   5.042   2.468   2.739
 2836TIP3    H1 8451   5.094   2.401   2.695
 2836TIP3    H2 8452   5.044   2.543   2.680
 2837TIP3   OH2 8453   4.843   2.752   2.928
 2837TIP3    H1 8454   4.777   2.797   2.980
 2837TIP3    H2 8455   4.795   2.712   2.856
 2838TIP3   OH2 8456   4.901   1.973   1.948
 2838TIP3    H1 8457   4.832   1.978   1.882
 2838TIP3    H2 8458   4.888   2.052   2.001
 2839TIP3   OH2 8459   4.815   1.624   1.843
 2839TIP3    H1 8460   4.746   1.669   1.795
 2839TIP3    H2 8461   4.789   1.532   1.844
 2840TIP3   OH2 8462   4.795   1.931   2.441
 2840TIP3    H1 8463   4.801   1.836   2.431
 2840TIP3    H2 8464   4.779   1.944   2.535
 2841TIP3   OH2 8465   3.416   1.979   3.219
 2841TIP3    H1 8466   3.403   1.951   3.128
 2841TIP3    H2 8467   3.511   1.990   3.226
 2842TIP3   OH2 8468   5.075   2.344   3.302
 2842TIP3    H1 8469   5.141   2.277   3.285
 2842TIP3    H2 8470   5.101   2.418   3.247
 2843TIP3   OH2 8471   5.248   2.128   3.292
 2843TIP3    H1 8472   5.174   2.087   3.338
 2843TIP3    H2 8473   5.323   2.072   3.312
 2844TIP3   OH2 8474   4.731   1.361   1.849
 2844TIP3    H1 8475   4.790   1.333   1.919
 2844TIP3    H2 8476   4.646   1.323   1.872
 2845TIP3   OH2 8477   4.788   1.645   2.319
 2845TIP3    H1 8478   4.834   1.562   2.333
 2845TIP3    H2 8479   4.831   1.684   2.243
 2846TIP3   OH2 8480   4.939   1.821   2.846
 2846TIP3    H1 8481   5.020   1.839   2.800
 2846TIP3    H2 8482   4.953   1.856   2.934
 2847TIP3   OH2 8483   5.009   1.960   3.079
 2847TIP3    H1 8484   4.940   1.989   3.138
 2847TIP3    H2 8485   5.042   2.040   3.039
 2848TIP3   OH2 8486   3.629   1.666   3.854
 2848TIP3    H1 8487   3.722   1.664   3.875
 2848TIP3    H2 8488   3.593   1.586   3.894
 2849TIP3   OH2 8489   5.474   1.556   3.618
 2849TIP3    H1 8490   5.540   1.500   3.576
 2849TIP3    H2 8491   5.437   1.607   3.546
 2850TIP3   OH2 8492   4.898   1.396   2.378
 2850TIP3    H1 8493   4.944   1.381   2.460
 2850TIP3    H2 8494   4.835   1.325   2.372
 2851TIP3   OH2 8495   3.604   1.376   3.203
 2851TIP3    H1 8496   3.658   1.297   3.209
 2851TIP3    H2 8497   3.666   1.448   3.196
 2852TIP3   OH2 8498   3.385   1.642   3.273
 2852TIP3    H1 8499   3.435   1.637   3.191
 2852TIP3    H2 8500   3.388   1.735   3.297
 2853TIP3   OH2 8501   5.322   1.679   3.427
 2853TIP3    H1 8502   5.247   1.718   3.472
 2853TIP3    H2 8503   5.283   1.611   3.372
 2854TIP3   OH2 8504   4.947   1.305   2.015
 2854TIP3    H1 8505   4.997   1.242   1.963
 2854TIP3    H2 8506   5.004   1.382   2.020
 2855TIP3   OH2 8507   3.375   1.158   2.769
 2855TIP3    H1 8508   3.290   1.144   2.810
 2855TIP3    H2 8509   3.357   1.210   2.691
 2856TIP3   OH2 8510   4.529   2.870   2.284
 2856TIP3    H1 8511   4.587   2.862   2.208
 2856TIP3    H2 8512   4.567   2.941   2.336
 2857TIP3   OH2 8513   3.595   1.194   3.588
 2857TIP3    H1 8514   3.550   1.197   3.673
 2857TIP3    H2 8515   3.543   1.251   3.531
 2858TIP3   OH2 8516   3.635   2.644   3.658
 2858TIP3    H1 8517   3.540   2.647   3.653
 2858TIP3    H2 8518   3.655   2.661   3.750
 2859TIP3   OH2 8519   3.839   2.713   3.216
 2859TIP3    H1 8520   3.787   2.787   3.186
 2859TIP3    H2 8521   3.923   2.724   3.172
 2860TIP3   OH2 8522   4.237   2.942   3.350
 2860TIP3    H1 8523   4.272   2.936   3.438
 2860TIP3    H2 8524   4.300   2.997   3.303
 2861TIP3   OH2 8525   4.431   3.097   3.227
 2861TIP3    H1 8526   4.498   3.045   3.183
 2861TIP3    H2 8527   4.480   3.156   3.285
 2862TIP3   OH2 8528   5.232   1.430   3.315
 2862TIP3    H1 8529   5.146   1.422   3.274
 2862TIP3    H2 8530   5.269   1.341   3.309
 2863TIP3   OH2 8531   3.494   2.952   3.260
 2863TIP3    H1 8532   3.403   2.969   3.239
 2863TIP3    H2 8533   3.515   3.016   3.329
 2864TIP3   OH2 8534   3.727   2.943   3.114
 2864TIP3    H1 8535   3.645   2.948   3.162
 2864TIP3    H2 8536   3.704   2.968   3.024
 2865TIP3   OH2 8537   4.142   2.962   2.904
 2865TIP3    H1 8538   4.068   2.975   2.845
 2865TIP3    H2 8539   4.153   3.046   2.948
 2866TIP3   OH2 8540   4.405   2.891   2.945
 2866TIP3    H1 8541   4.314   2.915   2.930
 2866TIP3    H2 8542   4.455   2.962   2.905
 2867TIP3   OH2 8543   4.606   3.068   2.855
 2867TIP3    H1 8544   4.605   3.156   2.817
 2867TIP3    H2 8545   4.636   3.011   2.784
 2868TIP3   OH2 8546   3.412   2.730   2.973
 2868TIP3    H1 8547   3.431   2.703   3.063
 2868TIP3    H2 8548   3.485   2.695   2.922
 2869TIP3   OH2 8549   3.616   2.613   2.834
 2869TIP3    H1 8550   3.626   2.530   2.879
 2869TIP3    H2 8551   3.701   2.656   2.842
 2870TIP3   OH2 8552   3.882   2.700   2.865
 2870TIP3    H1 8553   3.903   2.608   2.851
 2870TIP3    H2 8554   3.935   2.726   2.940
 2871TIP3   OH2 8555   4.388   1.284   2.907
 2871TIP3    H1 8556   4.369   1.229   2.983
 2871TIP3    H2 8557   4.483   1.279   2.897
 2872TIP3   OH2 8558   4.953   1.271   2.839
 2872TIP3    H1 8559   4.989   1.317   2.763
 2872TIP3    H2 8560   4.862   1.301   2.844
 2873TIP3   OH2 8561   5.057   1.346   2.598
 2873TIP3    H1 8562   5.125   1.284   2.572
 2873TIP3    H2 8563   5.097   1.432   2.586
 2874TIP3   OH2 8564   3.678   1.046   2.947
 2874TIP3    H1 8565   3.589   1.013   2.956
 2874TIP3    H2 8566   3.732   0.967   2.940
 2875TIP3   OH2 8567   3.516   0.967   2.615
 2875TIP3    H1 8568   3.532   1.010   2.531
 2875TIP3    H2 8569   3.472   1.032   2.668
 2876TIP3   OH2 8570   4.147   1.100   2.839
 2876TIP3    H1 8571   4.189   1.158   2.776
 2876TIP3    H2 8572   4.195   1.115   2.921
 2877TIP3   OH2 8573   4.661   1.256   2.853
 2877TIP3    H1 8574   4.673   1.230   2.762
 2877TIP3    H2 8575   4.669   1.174   2.902
 2878TIP3   OH2 8576   4.710   1.189   2.388
 2878TIP3    H1 8577   4.628   1.233   2.408
 2878TIP3    H2 8578   4.702   1.102   2.428
 2879TIP3   OH2 8579   3.169   2.529   2.362
 2879TIP3    H1 8580   3.084   2.498   2.330
 2879TIP3    H2 8581   3.175   2.619   2.331
 2880TIP3   OH2 8582   3.603   1.084   2.369
 2880TIP3    H1 8583   3.650   1.021   2.315
 2880TIP3    H2 8584   3.672   1.140   2.406
 2881TIP3   OH2 8585   4.088   1.297   2.463
 2881TIP3    H1 8586   4.145   1.279   2.538
 2881TIP3    H2 8587   4.038   1.375   2.489
 2882TIP3   OH2 8588   3.979   2.682   1.959
 2882TIP3    H1 8589   4.062   2.710   1.920
 2882TIP3    H2 8590   3.948   2.612   1.901
 2883TIP3   OH2 8591   4.683   2.825   2.056
 2883TIP3    H1 8592   4.675   2.730   2.049
 2883TIP3    H2 8593   4.638   2.859   1.978
 2884TIP3   OH2 8594   3.908   1.334   3.830
 2884TIP3    H1 8595   3.873   1.268   3.890
 2884TIP3    H2 8596   4.000   1.342   3.855
 2885TIP3   OH2 8597   4.155   1.340   3.952
 2885TIP3    H1 8598   4.233   1.317   3.902
 2885TIP3    H2 8599   4.148   1.272   4.019
 2886TIP3   OH2 8600   3.283   2.523   2.016
 2886TIP3    H1 8601   3.283   2.537   2.110
 2886TIP3    H2 8602   3.365   2.478   1.999
 2887TIP3   OH2 8603   4.978   1.434   3.739
 2887TIP3    H1 8604   4.994   1.406   3.829
 2887TIP3    H2 8605   5.063   1.428   3.697
 2888TIP3   OH2 8606   4.897   2.962   3.238
 2888TIP3    H1 8607   4.819   2.934   3.190
 2888TIP3    H2 8608   4.884   3.056   3.251
 2889TIP3   OH2 8609   6.172   2.350   1.982
 2889TIP3    H1 8610   6.142   2.437   1.956
 2889TIP3    H2 8611   6.101   2.292   1.957
 2890TIP3   OH2 8612   6.169   2.341   2.410
 2890TIP3    H1 8613   6.224   2.325   2.487
 2890TIP3    H2 8614   6.125   2.258   2.393
 2891TIP3   OH2 8615   5.468   2.200   2.753
 2891TIP3    H1 8616   5.507   2.151   2.825
 2891TIP3    H2 8617   5.542   2.228   2.700
 2892TIP3   OH2 8618   6.437   2.652   2.082
 2892TIP3    H1 8619   6.428   2.584   2.149
 2892TIP3    H2 8620   6.459   2.731   2.130
 2893TIP3   OH2 8621   5.465   2.623   2.429
 2893TIP3    H1 8622   5.446   2.530   2.441
 2893TIP3    H2 8623   5.560   2.628   2.425
 2894TIP3   OH2 8624   5.146   1.830   2.219
 2894TIP3    H1 8625   5.113   1.915   2.247
 2894TIP3    H2 8626   5.070   1.787   2.180
 2895TIP3   OH2 8627   5.229   2.150   2.445
 2895TIP3    H1 8628   5.280   2.073   2.472
 2895TIP3    H2 8629   5.295   2.217   2.426
 2896TIP3   OH2 8630   6.100   3.075   2.098
 2896TIP3    H1 8631   6.125   3.011   2.032
 2896TIP3    H2 8632   6.109   3.028   2.181
 2897TIP3   OH2 8633   5.982   2.563   2.413
 2897TIP3    H1 8634   6.027   2.482   2.389
 2897TIP3    H2 8635   6.051   2.621   2.444
 2898TIP3   OH2 8636   7.011   1.878   2.434
 2898TIP3    H1 8637   7.027   1.964   2.474
 2898TIP3    H2 8638   7.044   1.887   2.345
 2899TIP3   OH2 8639   6.382   2.050   2.449
 2899TIP3    H1 8640   6.416   1.965   2.477
 2899TIP3    H2 8641   6.346   2.033   2.362
 2900TIP3   OH2 8642   5.740   1.711   2.411
 2900TIP3    H1 8643   5.720   1.784   2.353
 2900TIP3    H2 8644   5.684   1.640   2.381
 2901TIP3   OH2 8645   6.430   1.807   2.051
 2901TIP3    H1 8646   6.494   1.801   2.122
 2901TIP3    H2 8647   6.480   1.842   1.976
 2902TIP3   OH2 8648   5.365   1.926   2.536
 2902TIP3    H1 8649   5.448   1.909   2.581
 2902TIP3    H2 8650   5.370   1.874   2.456
 2903TIP3   OH2 8651   5.784   2.127   2.353
 2903TIP3    H1 8652   5.878   2.112   2.361
 2903TIP3    H2 8653   5.749   2.044   2.321
 2904TIP3   OH2 8654   7.062   2.100   2.597
 2904TIP3    H1 8655   6.974   2.138   2.591
 2904TIP3    H2 8656   7.100   2.139   2.675
 2905TIP3   OH2 8657   5.721   1.713   2.859
 2905TIP3    H1 8658   5.671   1.750   2.787
 2905TIP3    H2 8659   5.667   1.729   2.937
 2906TIP3   OH2 8660   6.071   2.569   1.842
 2906TIP3    H1 8661   6.032   2.539   1.760
 2906TIP3    H2 8662   6.018   2.644   1.869
 2907TIP3   OH2 8663   5.812   2.490   2.621
 2907TIP3    H1 8664   5.761   2.563   2.656
 2907TIP3    H2 8665   5.863   2.529   2.550
 2908TIP3   OH2 8666   6.592   1.835   2.268
 2908TIP3    H1 8667   6.552   1.814   2.352
 2908TIP3    H2 8668   6.650   1.909   2.287
 2909TIP3   OH2 8669   5.610   1.822   2.631
 2909TIP3    H1 8670   5.664   1.898   2.654
 2909TIP3    H2 8671   5.658   1.779   2.560
 2910TIP3   OH2 8672   5.659   2.694   2.729
 2910TIP3    H1 8673   5.646   2.784   2.700
 2910TIP3    H2 8674   5.581   2.674   2.781
 2911TIP3   OH2 8675   5.039   2.392   1.984
 2911TIP3    H1 8676   5.004   2.414   1.898
 2911TIP3    H2 8677   5.062   2.476   2.023
 2912TIP3   OH2 8678   6.471   2.898   2.223
 2912TIP3    H1 8679   6.383   2.891   2.260
 2912TIP3    H2 8680   6.471   2.981   2.177
 2913TIP3   OH2 8681   6.814   1.770   2.601
 2913TIP3    H1 8682   6.729   1.793   2.563
 2913TIP3    H2 8683   6.878   1.797   2.535
 2914TIP3   OH2 8684   6.062   1.404   2.590
 2914TIP3    H1 8685   6.057   1.312   2.617
 2914TIP3    H2 8686   5.985   1.445   2.630
 2915TIP3   OH2 8687   6.183   2.927   1.877
 2915TIP3    H1 8688   6.237   2.848   1.866
 2915TIP3    H2 8689   6.240   2.998   1.849
 2916TIP3   OH2 8690   6.323   2.697   1.834
 2916TIP3    H1 8691   6.249   2.635   1.834
 2916TIP3    H2 8692   6.372   2.675   1.913
 2917TIP3   OH2 8693   6.708   2.787   2.566
 2917TIP3    H1 8694   6.691   2.712   2.509
 2917TIP3    H2 8695   6.694   2.863   2.509
 2918TIP3   OH2 8696   5.998   2.187   1.836
 2918TIP3    H1 8697   5.917   2.232   1.815
 2918TIP3    H2 8698   6.047   2.184   1.754
 2919TIP3   OH2 8699   5.976   1.992   1.521
 2919TIP3    H1 8700   6.041   2.041   1.571
 2919TIP3    H2 8701   6.028   1.925   1.475
 2920TIP3   OH2 8702   6.888   2.445   2.435
 2920TIP3    H1 8703   6.803   2.491   2.434
 2920TIP3    H2 8704   6.923   2.456   2.347
 2921TIP3   OH2 8705   6.360   2.276   1.798
 2921TIP3    H1 8706   6.306   2.305   1.872
 2921TIP3    H2 8707   6.443   2.250   1.838
 2922TIP3   OH2 8708   6.587   2.305   2.746
 2922TIP3    H1 8709   6.584   2.389   2.792
 2922TIP3    H2 8710   6.505   2.302   2.696
 2923TIP3   OH2 8711   5.589   2.260   2.198
 2923TIP3    H1 8712   5.555   2.198   2.134
 2923TIP3    H2 8713   5.662   2.213   2.240
 2924TIP3   OH2 8714   5.730   2.678   2.341
 2924TIP3    H1 8715   5.708   2.665   2.249
 2924TIP3    H2 8716   5.817   2.640   2.351
 2925TIP3   OH2 8717   5.681   2.254   2.577
 2925TIP3    H1 8718   5.721   2.218   2.498
 2925TIP3    H2 8719   5.729   2.336   2.593
 2926TIP3   OH2 8720   6.230   2.893   2.350
 2926TIP3    H1 8721   6.220   2.973   2.402
 2926TIP3    H2 8722   6.218   2.822   2.413
 2927TIP3   OH2 8723   5.856   2.790   2.901
 2927TIP3    H1 8724   5.795   2.847   2.948
 2927TIP3    H2 8725   5.800   2.739   2.842
 2928TIP3   OH2 8726   6.189   2.140   1.632
 2928TIP3    H1 8727   6.249   2.195   1.682
 2928TIP3    H2 8728   6.217   2.150   1.541
 2929TIP3   OH2 8729   5.612   2.336   3.042
 2929TIP3    H1 8730   5.617   2.430   3.061
 2929TIP3    H2 8731   5.518   2.318   3.035
 2930TIP3   OH2 8732   5.935   2.808   1.879
 2930TIP3    H1 8733   6.017   2.856   1.889
 2930TIP3    H2 8734   5.876   2.870   1.836
 2931TIP3   OH2 8735   5.646   2.948   2.989
 2931TIP3    H1 8736   5.619   2.960   2.898
 2931TIP3    H2 8737   5.565   2.932   3.037
 2932TIP3   OH2 8738   6.700   1.367   1.702
 2932TIP3    H1 8739   6.619   1.385   1.750
 2932TIP3    H2 8740   6.714   1.444   1.648
 2933TIP3   OH2 8741   5.461   2.100   1.998
 2933TIP3    H1 8742   5.382   2.144   1.968
 2933TIP3    H2 8743   5.431   2.014   2.028
 2934TIP3   OH2 8744   6.486   2.750   1.245
 2934TIP3    H1 8745   6.484   2.844   1.226
 2934TIP3    H2 8746   6.577   2.725   1.236
 2935TIP3   OH2 8747   5.243   2.507   2.934
 2935TIP3    H1 8748   5.173   2.489   2.871
 2935TIP3    H2 8749   5.277   2.421   2.958
 2936TIP3   OH2 8750   5.083   2.707   2.593
 2936TIP3    H1 8751   5.172   2.735   2.617
 2936TIP3    H2 8752   5.028   2.781   2.617
 2937TIP3   OH2 8753   6.936   3.145   2.635
 2937TIP3    H1 8754   6.941   3.050   2.650
 2937TIP3    H2 8755   6.857   3.172   2.682
 2938TIP3   OH2 8756   6.046   2.932   2.762
 2938TIP3    H1 8757   6.037   3.023   2.790
 2938TIP3    H2 8758   5.978   2.885   2.811
 2939TIP3   OH2 8759   5.825   3.029   1.716
 2939TIP3    H1 8760   5.778   3.011   1.634
 2939TIP3    H2 8761   5.790   3.113   1.746
 2940TIP3   OH2 8762   5.260   2.886   2.092
 2940TIP3    H1 8763   5.305   2.879   2.176
 2940TIP3    H2 8764   5.212   2.804   2.083
 2941TIP3   OH2 8765   6.023   2.970   1.341
 2941TIP3    H1 8766   6.071   2.894   1.307
 2941TIP3    H2 8767   6.058   2.983   1.429
 2942TIP3   OH2 8768   6.079   3.007   1.611
 2942TIP3    H1 8769   5.993   3.010   1.654
 2942TIP3    H2 8770   6.138   2.972   1.677
 2943TIP3   OH2 8771   6.830   2.264   2.906
 2943TIP3    H1 8772   6.748   2.272   2.858
 2943TIP3    H2 8773   6.850   2.170   2.903
 2944TIP3   OH2 8774   5.441   2.695   2.899
 2944TIP3    H1 8775   5.490   2.685   2.981
 2944TIP3    H2 8776   5.369   2.632   2.907
 2945TIP3   OH2 8777   5.824   1.495   2.716
 2945TIP3    H1 8778   5.740   1.462   2.685
 2945TIP3    H2 8779   5.803   1.576   2.762
 2946TIP3   OH2 8780   6.366   1.620   2.917
 2946TIP3    H1 8781   6.436   1.596   2.977
 2946TIP3    H2 8782   6.285   1.604   2.966
 2947TIP3   OH2 8783   6.586   2.038   2.832
 2947TIP3    H1 8784   6.548   2.034   2.919
 2947TIP3    H2 8785   6.574   2.129   2.804
 2948TIP3   OH2 8786   6.265   2.145   1.370
 2948TIP3    H1 8787   6.213   2.137   1.290
 2948TIP3    H2 8788   6.343   2.195   1.344
 2949TIP3   OH2 8789   5.934   1.552   1.671
 2949TIP3    H1 8790   5.918   1.556   1.765
 2949TIP3    H2 8791   5.918   1.460   1.648
 2950TIP3   OH2 8792   5.762   2.033   2.725
 2950TIP3    H1 8793   5.718   2.040   2.810
 2950TIP3    H2 8794   5.741   2.115   2.680
 2951TIP3   OH2 8795   5.643   1.911   2.249
 2951TIP3    H1 8796   5.555   1.885   2.274
 2951TIP3    H2 8797   5.653   1.878   2.159
 2952TIP3   OH2 8798   6.121   1.982   1.973
 2952TIP3    H1 8799   6.075   2.056   1.932
 2952TIP3    H2 8800   6.181   1.951   1.905
 2953TIP3   OH2 8801   6.308   2.249   3.045
 2953TIP3    H1 8802   6.283   2.181   3.107
 2953TIP3    H2 8803   6.401   2.265   3.065
 2954TIP3   OH2 8804   6.287   1.997   2.198
 2954TIP3    H1 8805   6.220   2.018   2.133
 2954TIP3    H2 8806   6.334   1.923   2.160
 2955TIP3   OH2 8807   5.602   2.046   2.948
 2955TIP3    H1 8808   5.616   2.110   3.018
 2955TIP3    H2 8809   5.584   1.964   2.994
 2956TIP3   OH2 8810   5.572   1.474   1.669
 2956TIP3    H1 8811   5.602   1.501   1.755
 2956TIP3    H2 8812   5.531   1.552   1.632
 2957TIP3   OH2 8813   5.191   1.568   2.527
 2957TIP3    H1 8814   5.262   1.603   2.582
 2957TIP3    H2 8815   5.233   1.549   2.443
 2958TIP3   OH2 8816   5.102   1.537   2.022
 2958TIP3    H1 8817   5.132   1.565   1.936
 2958TIP3    H2 8818   5.045   1.607   2.053
 2959TIP3   OH2 8819   6.336   2.252   2.622
 2959TIP3    H1 8820   6.360   2.185   2.558
 2959TIP3    H2 8821   6.292   2.204   2.692
 2960TIP3   OH2 8822   6.008   1.697   2.298
 2960TIP3    H1 8823   5.932   1.698   2.356
 2960TIP3    H2 8824   6.083   1.687   2.357
 2961TIP3   OH2 8825   5.405   1.783   2.305
 2961TIP3    H1 8826   5.317   1.786   2.267
 2961TIP3    H2 8827   5.435   1.693   2.292
 2962TIP3   OH2 8828   5.660   1.788   2.003
 2962TIP3    H1 8829   5.755   1.797   1.999
 2962TIP3    H2 8830   5.631   1.803   1.913
 2963TIP3   OH2 8831   6.452   1.787   2.505
 2963TIP3    H1 8832   6.433   1.803   2.597
 2963TIP3    H2 8833   6.385   1.724   2.478
 2964TIP3   OH2 8834   5.564   1.797   1.747
 2964TIP3    H1 8835   5.493   1.762   1.693
 2964TIP3    H2 8836   5.615   1.851   1.687
 2965TIP3   OH2 8837   6.657   3.492   2.726
 2965TIP3    H1 8838   6.654   3.510   2.632
 2965TIP3    H2 8839   6.735   3.538   2.756
 2966TIP3   OH2 8840   5.597   2.602   3.135
 2966TIP3    H1 8841   5.677   2.624   3.183
 2966TIP3    H2 8842   5.527   2.614   3.199
 2967TIP3   OH2 8843   6.056   2.072   2.403
 2967TIP3    H1 8844   6.125   2.025   2.356
 2967TIP3    H2 8845   6.054   2.031   2.490
 2968TIP3   OH2 8846   5.548   1.536   2.296
 2968TIP3    H1 8847   5.518   1.461   2.348
 2968TIP3    H2 8848   5.585   1.497   2.217
 2969TIP3   OH2 8849   6.028   1.975   2.667
 2969TIP3    H1 8850   5.942   2.008   2.692
 2969TIP3    H2 8851   6.090   2.026   2.720
 2970TIP3   OH2 8852   5.764   2.325   1.776
 2970TIP3    H1 8853   5.688   2.272   1.751
 2970TIP3    H2 8854   5.737   2.369   1.857
 2971TIP3   OH2 8855   6.653   2.583   2.388
 2971TIP3    H1 8856   6.690   2.632   2.314
 2971TIP3    H2 8857   6.574   2.542   2.352
 2972TIP3   OH2 8858   6.200   1.647   1.700
 2972TIP3    H1 8859   6.106   1.640   1.687
 2972TIP3    H2 8860   6.216   1.741   1.708
 2973TIP3   OH2 8861   6.171   2.665   2.801
 2973TIP3    H1 8862   6.224   2.654   2.880
 2973TIP3    H2 8863   6.133   2.752   2.809
 2974TIP3   OH2 8864   6.285   1.906   1.758
 2974TIP3    H1 8865   6.380   1.906   1.771
 2974TIP3    H2 8866   6.268   1.984   1.705
 2975TIP3   OH2 8867   5.450   2.331   2.428
 2975TIP3    H1 8868   5.490   2.317   2.342
 2975TIP3    H2 8869   5.518   2.305   2.490
 2976TIP3   OH2 8870   5.919   2.486   1.617
 2976TIP3    H1 8871   5.870   2.569   1.616
 2976TIP3    H2 8872   5.866   2.428   1.671
 2977TIP3   OH2 8873   5.337   2.274   3.064
 2977TIP3    H1 8874   5.343   2.250   3.157
 2977TIP3    H2 8875   5.262   2.225   3.031
 2978TIP3   OH2 8876   6.078   2.406   3.086
 2978TIP3    H1 8877   6.009   2.346   3.059
 2978TIP3    H2 8878   6.159   2.364   3.057
 2979TIP3   OH2 8879   6.316   2.956   2.685
 2979TIP3    H1 8880   6.222   2.941   2.690
 2979TIP3    H2 8881   6.339   2.991   2.771
 2980TIP3   OH2 8882   6.702   1.994   1.600
 2980TIP3    H1 8883   6.642   1.947   1.543
 2980TIP3    H2 8884   6.690   2.086   1.577
 2981TIP3   OH2 8885   6.953   2.865   2.659
 2981TIP3    H1 8886   6.859   2.851   2.651
 2981TIP3    H2 8887   6.988   2.839   2.574
 2982TIP3   OH2 8888   6.435   2.816   1.519
 2982TIP3    H1 8889   6.410   2.748   1.582
 2982TIP3    H2 8890   6.442   2.770   1.435
 2983TIP3   OH2 8891   6.425   2.448   2.282
 2983TIP3    H1 8892   6.335   2.426   2.308
 2983TIP3    H2 8893   6.459   2.366   2.246
 2984TIP3   OH2 8894   5.581   2.685   2.099
 2984TIP3    H1 8895   5.574   2.760   2.040
 2984TIP3    H2 8896   5.497   2.683   2.145
 2985TIP3   OH2 8897   5.138   1.939   1.812
 2985TIP3    H1 8898   5.186   2.020   1.830
 2985TIP3    H2 8899   5.057   1.948   1.863
 2986TIP3   OH2 8900   5.657   2.441   1.996
 2986TIP3    H1 8901   5.642   2.530   2.027
 2986TIP3    H2 8902   5.636   2.385   2.071
 2987TIP3   OH2 8903   5.863   3.006   2.554
 2987TIP3    H1 8904   5.898   3.080   2.505
 2987TIP3    H2 8905   5.937   2.973   2.605
 2988TIP3   OH2 8906   5.494   2.906   1.947
 2988TIP3    H1 8907   5.408   2.912   1.987
 2988TIP3    H2 8908   5.530   2.994   1.953
 2989TIP3   OH2 8909   6.213   2.673   2.527
 2989TIP3    H1 8910   6.198   2.668   2.621
 2989TIP3    H2 8911   6.294   2.623   2.513
 2990TIP3   OH2 8912   6.190   2.556   1.422
 2990TIP3    H1 8913   6.250   2.528   1.490
 2990TIP3    H2 8914   6.105   2.520   1.447
 2991TIP3   OH2 8915   6.469   3.164   2.566
 2991TIP3    H1 8916   6.399   3.102   2.586
 2991TIP3    H2 8917   6.434   3.217   2.495
 2992TIP3   OH2 8918   6.518   3.020   1.205
 2992TIP3    H1 8919   6.550   3.083   1.141
 2992TIP3    H2 8920   6.447   3.065   1.250
 2993TIP3   OH2 8921   5.550   1.791   3.066
 2993TIP3    H1 8922   5.455   1.799   3.072
 2993TIP3    H2 8923   5.575   1.742   3.144
 2994TIP3   OH2 8924   6.378   2.463   1.594
 2994TIP3    H1 8925   6.363   2.406   1.670
 2994TIP3    H2 8926   6.472   2.482   1.596
 2995TIP3   OH2 8927   5.290   2.895   2.713
 2995TIP3    H1 8928   5.344   2.838   2.768
 2995TIP3    H2 8929   5.301   2.982   2.751
 2996TIP3   OH2 8930   5.555   2.512   1.411
 2996TIP3    H1 8931   5.568   2.421   1.385
 2996TIP3    H2 8932   5.543   2.508   1.506
 2997TIP3   OH2 8933   5.500   2.527   1.685
 2997TIP3    H1 8934   5.560   2.503   1.755
 2997TIP3    H2 8935   5.497   2.623   1.688
 2998TIP3   OH2 8936   5.227   2.204   1.887
 2998TIP3    H1 8937   5.164   2.252   1.940
 2998TIP3    H2 8938   5.248   2.264   1.815
 2999TIP3   OH2 8939   6.394   1.849   2.766
 2999TIP3    H1 8940   6.472   1.895   2.797
 2999TIP3    H2 8941   6.387   1.773   2.823
 3000TIP3   OH2 8942   6.282   1.590   1.959
 3000TIP3    H1 8943   6.258   1.611   1.869
 3000TIP3    H2 8944   6.327   1.669   1.990
 3001TIP3   OH2 8945   5.768   2.711   1.615
 3001TIP3    H1 8946   5.684   2.734   1.655
 3001TIP3    H2 8947   5.793   2.788   1.564
 3002TIP3   OH2 8948   5.936   1.793   2.047
 3002TIP3    H1 8949   5.999   1.860   2.021
 3002TIP3    H2 8950   5.961   1.771   2.137
 3003TIP3   OH2 8951   6.235   2.086   2.819
 3003TIP3    H1 8952   6.261   2.129   2.901
 3003TIP3    H2 8953   6.285   2.005   2.817
 3004TIP3   OH2 8954   6.097   1.486   2.133
 3004TIP3    H1 8955   6.075   1.563   2.186
 3004TIP3    H2 8956   6.168   1.515   2.076
 3005TIP3   OH2 8957   5.518   2.800   1.695
 3005TIP3    H1 8958   5.498   2.872   1.635
 3005TIP3    H2 8959   5.509   2.838   1.782
 3006TIP3   OH2 8960   5.616   1.516   1.943
 3006TIP3    H1 8961   5.606   1.607   1.972
 3006TIP3    H2 8962   5.711   1.500   1.946
 3007TIP3   OH2 8963   6.853   1.990   2.817
 3007TIP3    H1 8964   6.758   1.994   2.826
 3007TIP3    H2 8965   6.867   1.937   2.738
 3008TIP3   OH2 8966   6.514   2.189   2.197
 3008TIP3    H1 8967   6.438   2.132   2.210
 3008TIP3    H2 8968   6.583   2.150   2.252
 3009TIP3   OH2 8969   5.258   2.390   1.677
 3009TIP3    H1 8970   5.329   2.453   1.688
 3009TIP3    H2 8971   5.290   2.329   1.611
 3010TIP3   OH2 8972   5.101   1.654   1.766
 3010TIP3    H1 8973   5.128   1.745   1.779
 3010TIP3    H2 8974   5.006   1.657   1.769
 3011TIP3   OH2 8975   6.495   3.162   2.137
 3011TIP3    H1 8976   6.456   3.215   2.067
 3011TIP3    H2 8977   6.590   3.173   2.124
 3012TIP3   OH2 8978   5.561   1.411   2.678
 3012TIP3    H1 8979   5.531   1.378   2.594
 3012TIP3    H2 8980   5.554   1.336   2.738
 3013TIP3   OH2 8981   5.084   2.662   2.069
 3013TIP3    H1 8982   5.043   2.700   2.147
 3013TIP3    H2 8983   5.041   2.706   1.996
 3014TIP3   OH2 8984   5.279   3.207   3.137
 3014TIP3    H1 8985   5.362   3.211   3.185
 3014TIP3    H2 8986   5.255   3.115   3.138
 3015TIP3   OH2 8987   5.756   3.109   3.185
 3015TIP3    H1 8988   5.846   3.078   3.192
 3015TIP3    H2 8989   5.718   3.059   3.114
 3016TIP3   OH2 8990   5.710   2.712   1.299
 3016TIP3    H1 8991   5.664   2.642   1.346
 3016TIP3    H2 8992   5.786   2.668   1.260
 3017TIP3   OH2 8993   6.372   3.051   2.936
 3017TIP3    H1 8994   6.387   2.981   3.000
 3017TIP3    H2 8995   6.446   3.111   2.949
 3018TIP3   OH2 8996   6.146   2.753   1.232
 3018TIP3    H1 8997   6.178   2.691   1.298
 3018TIP3    H2 8998   6.209   2.747   1.161
 3019TIP3   OH2 8999   5.391   2.601   3.325
 3019TIP3    H1 9000   5.409   2.508   3.336
 3019TIP3    H2 9001   5.303   2.604   3.287
 3020TIP3   OH2 9002   5.380   2.203   1.519
 3020TIP3    H1 9003   5.432   2.181   1.597
 3020TIP3    H2 9004   5.446   2.218   1.451
 3021TIP3   OH2 9005   6.012   2.684   3.103
 3021TIP3    H1 9006   5.967   2.705   3.021
 3021TIP3    H2 9007   6.047   2.596   3.088
 3022TIP3   OH2 9008   5.918   2.427   1.348
 3022TIP3    H1 9009   5.909   2.437   1.443
 3022TIP3    H2 9010   5.911   2.332   1.333
 3023TIP3   OH2 9011   6.484   2.730   2.718
 3023TIP3    H1 9012   6.563   2.757   2.670
 3023TIP3    H2 9013   6.421   2.801   2.703
 3024TIP3   OH2 9014   5.504   2.344   3.333
 3024TIP3    H1 9015   5.581   2.332   3.277
 3024TIP3    H2 9016   5.540   2.365   3.419
 3025TIP3   OH2 9017   5.553   2.148   1.731
 3025TIP3    H1 9018   5.535   2.121   1.821
 3025TIP3    H2 9019   5.606   2.077   1.695
 3026TIP3   OH2 9020   5.870   2.230   2.992
 3026TIP3    H1 9021   5.785   2.272   3.002
 3026TIP3    H2 9022   5.901   2.259   2.906
 3027TIP3   OH2 9023   5.704   1.966   1.582
 3027TIP3    H1 9024   5.673   1.972   1.491
 3027TIP3    H2 9025   5.799   1.972   1.575
 3028TIP3   OH2 9026   6.367   2.604   3.069
 3028TIP3    H1 9027   6.437   2.567   3.015
 3028TIP3    H2 9028   6.365   2.548   3.147
 3029TIP3   OH2 9029   6.488   2.269   1.254
 3029TIP3    H1 9030   6.464   2.223   1.174
 3029TIP3    H2 9031   6.445   2.354   1.248
 3030TIP3   OH2 9032   5.970   1.998   3.099
 3030TIP3    H1 9033   5.974   1.928   3.034
 3030TIP3    H2 9034   5.937   2.074   3.051
 3031TIP3   OH2 9035   5.980   1.800   2.895
 3031TIP3    H1 9036   6.008   1.838   2.811
 3031TIP3    H2 9037   5.890   1.773   2.880
 3032TIP3   OH2 9038   5.982   2.327   2.764
 3032TIP3    H1 9039   6.071   2.362   2.754
 3032TIP3    H2 9040   5.927   2.388   2.715
 3033TIP3   OH2 9041   6.577   2.286   3.143
 3033TIP3    H1 9042   6.620   2.200   3.150
 3033TIP3    H2 9043   6.649   2.348   3.133
 3034TIP3   OH2 9044   6.607   2.552   2.883
 3034TIP3    H1 9045   6.554   2.614   2.832
 3034TIP3    H2 9046   6.696   2.566   2.852
 3035TIP3   OH2 9047   5.857   2.080   3.343
 3035TIP3    H1 9048   5.786   2.019   3.363
 3035TIP3    H2 9049   5.885   2.056   3.255
 3036TIP3   OH2 9050   6.102   1.570   2.999
 3036TIP3    H1 9051   6.061   1.650   2.966
 3036TIP3    H2 9052   6.035   1.502   2.986
 3037TIP3   OH2 9053   6.227   2.038   3.201
 3037TIP3    H1 9054   6.218   2.025   3.295
 3037TIP3    H2 9055   6.141   2.016   3.166
 3038TIP3   OH2 9056   6.474   1.995   3.073
 3038TIP3    H1 9057   6.395   1.994   3.127
 3038TIP3    H2 9058   6.545   1.970   3.133
 3039TIP3   OH2 9059   6.707   1.958   3.224
 3039TIP3    H1 9060   6.722   1.863   3.230
 3039TIP3    H2 9061   6.703   1.987   3.315
 3040TIP3   OH2 9062   5.686   1.862   3.406
 3040TIP3    H1 9063   5.694   1.774   3.370
 3040TIP3    H2 9064   5.726   1.856   3.493
 3041TIP3   OH2 9065   6.168   1.544   3.264
 3041TIP3    H1 9066   6.236   1.477   3.258
 3041TIP3    H2 9067   6.138   1.557   3.174
 3042TIP3   OH2 9068   6.264   1.758   3.409
 3042TIP3    H1 9069   6.233   1.686   3.354
 3042TIP3    H2 9070   6.191   1.821   3.409
 3043TIP3   OH2 9071   5.514   3.010   1.512
 3043TIP3    H1 9072   5.604   2.989   1.486
 3043TIP3    H2 9073   5.479   3.057   1.437
 3044TIP3   OH2 9074   4.985   2.404   1.694
 3044TIP3    H1 9075   5.080   2.412   1.692
 3044TIP3    H2 9076   4.967   2.319   1.653
 3045TIP3   OH2 9077   4.888   2.976   2.155
 3045TIP3    H1 9078   4.823   2.923   2.109
 3045TIP3    H2 9079   4.932   2.915   2.214
 3046TIP3   OH2 9080   5.033   2.807   2.320
 3046TIP3    H1 9081   5.025   2.739   2.388
 3046TIP3    H2 9082   5.085   2.875   2.362
 3047TIP3   OH2 9083   6.767   3.209   2.132
 3047TIP3    H1 9084   6.786   3.238   2.222
 3047TIP3    H2 9085   6.822   3.265   2.077
 3048TIP3   OH2 9086   6.783   3.246   2.412
 3048TIP3    H1 9087   6.737   3.162   2.407
 3048TIP3    H2 9088   6.853   3.230   2.476
 3049TIP3   OH2 9089   6.840   2.946   2.982
 3049TIP3    H1 9090   6.768   2.955   3.044
 3049TIP3    H2 9091   6.887   3.029   2.988
 3050TIP3   OH2 9092   6.653   2.476   1.606
 3050TIP3    H1 9093   6.708   2.549   1.575
 3050TIP3    H2 9094   6.701   2.439   1.680
 3051TIP3   OH2 9095   6.784   2.331   1.800
 3051TIP3    H1 9096   6.721   2.287   1.857
 3051TIP3    H2 9097   6.852   2.363   1.859
 3052TIP3   OH2 9098   6.831   2.722   2.226
 3052TIP3    H1 9099   6.885   2.653   2.187
 3052TIP3    H2 9100   6.836   2.794   2.163
 3053TIP3   OH2 9101   6.642   3.007   2.415
 3053TIP3    H1 9102   6.575   3.051   2.467
 3053TIP3    H2 9103   6.593   2.966   2.344
 3054TIP3   OH2 9104   6.638   2.233   1.484
 3054TIP3    H1 9105   6.575   2.242   1.412
 3054TIP3    H2 9106   6.631   2.314   1.533
 3055TIP3   OH2 9107   6.524   1.919   1.405
 3055TIP3    H1 9108   6.443   1.952   1.365
 3055TIP3    H2 9109   6.516   1.824   1.400
 3056TIP3   OH2 9110   6.586   2.176   1.930
 3056TIP3    H1 9111   6.591   2.082   1.919
 3056TIP3    H2 9112   6.567   2.189   2.023
 3057TIP3   OH2 9113   5.205   2.242   2.703
 3057TIP3    H1 9114   5.196   2.211   2.612
 3057TIP3    H2 9115   5.299   2.237   2.720
 3058TIP3   OH2 9116   6.865   2.597   2.789
 3058TIP3    H1 9117   6.931   2.530   2.774
 3058TIP3    H2 9118   6.884   2.664   2.724
 3059TIP3   OH2 9119   7.041   2.387   2.782
 3059TIP3    H1 9120   6.968   2.345   2.827
 3059TIP3    H2 9121   7.116   2.330   2.801
 3060TIP3   OH2 9122   6.473   1.653   1.380
 3060TIP3    H1 9123   6.542   1.597   1.343
 3060TIP3    H2 9124   6.402   1.592   1.403
 3061TIP3   OH2 9125   6.572   1.896   1.826
 3061TIP3    H1 9126   6.615   1.812   1.840
 3061TIP3    H2 9127   6.620   1.936   1.754
 3062TIP3   OH2 9128   6.728   2.069   2.338
 3062TIP3    H1 9129   6.809   2.088   2.290
 3062TIP3    H2 9130   6.743   2.108   2.425
 3063TIP3   OH2 9131   6.804   2.216   2.567
 3063TIP3    H1 9132   6.733   2.246   2.623
 3063TIP3    H2 9133   6.836   2.296   2.524
 3064TIP3   OH2 9134   5.424   1.920   3.338
 3064TIP3    H1 9135   5.518   1.918   3.359
 3064TIP3    H2 9136   5.389   1.840   3.378
 3065TIP3   OH2 9137   7.268   1.812   3.105
 3065TIP3    H1 9138   7.328   1.754   3.058
 3065TIP3    H2 9139   7.228   1.865   3.037
 3066TIP3   OH2 9140   6.686   1.650   1.874
 3066TIP3    H1 9141   6.734   1.635   1.956
 3066TIP3    H2 9142   6.626   1.575   1.868
 3067TIP3   OH2 9143   5.400   1.637   2.697
 3067TIP3    H1 9144   5.454   1.558   2.703
 3067TIP3    H2 9145   5.462   1.708   2.680
 3068TIP3   OH2 9146   5.181   1.905   2.749
 3068TIP3    H1 9147   5.235   1.897   2.670
 3068TIP3    H2 9148   5.211   1.986   2.790
 3069TIP3   OH2 9149   7.114   1.929   2.913
 3069TIP3    H1 9150   7.031   1.969   2.938
 3069TIP3    H2 9151   7.089   1.855   2.857
 3070TIP3   OH2 9152   6.751   1.564   1.518
 3070TIP3    H1 9153   6.778   1.488   1.467
 3070TIP3    H2 9154   6.745   1.635   1.455
 3071TIP3   OH2 9155   5.162   1.413   2.261
 3071TIP3    H1 9156   5.075   1.403   2.301
 3071TIP3    H2 9157   5.146   1.465   2.183
 3072TIP3   OH2 9158   6.320   3.132   1.771
 3072TIP3    H1 9159   6.378   3.122   1.696
 3072TIP3    H2 9160   6.362   3.199   1.825
 3073TIP3   OH2 9161   5.393   1.464   3.081
 3073TIP3    H1 9162   5.345   1.462   3.164
 3073TIP3    H2 9163   5.336   1.513   3.022
 3074TIP3   OH2 9164   5.424   2.913   3.155
 3074TIP3    H1 9165   5.330   2.901   3.144
 3074TIP3    H2 9166   5.438   2.910   3.250
 3075TIP3   OH2 9167   5.634   2.970   2.704
 3075TIP3    H1 9168   5.583   3.045   2.673
 3075TIP3    H2 9169   5.719   2.979   2.661
 3076TIP3   OH2 9170   6.032   3.198   2.838
 3076TIP3    H1 9171   6.069   3.190   2.926
 3076TIP3    H2 9172   6.095   3.252   2.790
 3077TIP3   OH2 9173   6.223   3.353   2.714
 3077TIP3    H1 9174   6.285   3.300   2.662
 3077TIP3    H2 9175   6.279   3.409   2.768
 3078TIP3   OH2 9176   7.027   1.686   2.800
 3078TIP3    H1 9177   6.943   1.685   2.755
 3078TIP3    H2 9178   7.059   1.596   2.792
 3079TIP3   OH2 9179   5.291   3.203   2.748
 3079TIP3    H1 9180   5.199   3.219   2.725
 3079TIP3    H2 9181   5.312   3.269   2.814
 3080TIP3   OH2 9182   5.524   3.201   2.601
 3080TIP3    H1 9183   5.441   3.204   2.648
 3080TIP3    H2 9184   5.502   3.225   2.511
 3081TIP3   OH2 9185   5.937   3.218   2.392
 3081TIP3    H1 9186   5.865   3.229   2.330
 3081TIP3    H2 9187   5.948   3.304   2.433
 3082TIP3   OH2 9188   6.200   3.152   2.441
 3082TIP3    H1 9189   6.109   3.174   2.421
 3082TIP3    H2 9190   6.251   3.219   2.395
 3083TIP3   OH2 9191   6.401   3.321   2.341
 3083TIP3    H1 9192   6.403   3.409   2.303
 3083TIP3    H2 9193   6.432   3.264   2.271
 3084TIP3   OH2 9194   5.207   2.985   2.460
 3084TIP3    H1 9195   5.228   2.961   2.551
 3084TIP3    H2 9196   5.280   2.951   2.409
 3085TIP3   OH2 9197   5.411   2.868   2.323
 3085TIP3    H1 9198   5.422   2.783   2.366
 3085TIP3    H2 9199   5.497   2.910   2.330
 3086TIP3   OH2 9200   5.677   2.955   2.352
 3086TIP3    H1 9201   5.699   2.863   2.337
 3086TIP3    H2 9202   5.731   2.980   2.427
 3087TIP3   OH2 9203   6.235   1.603   2.434
 3087TIP3    H1 9204   6.196   1.532   2.485
 3087TIP3    H2 9205   6.304   1.561   2.383
 3088TIP3   OH2 9206   6.736   1.529   2.328
 3088TIP3    H1 9207   6.774   1.577   2.255
 3088TIP3    H2 9208   6.644   1.554   2.328
 3089TIP3   OH2 9209   6.849   1.609   2.093
 3089TIP3    H1 9210   6.920   1.550   2.067
 3089TIP3    H2 9211   6.884   1.697   2.077
 3090TIP3   OH2 9212   5.472   1.309   2.436
 3090TIP3    H1 9213   5.384   1.273   2.448
 3090TIP3    H2 9214   5.529   1.232   2.429
 3091TIP3   OH2 9215   5.294   1.224   2.108
 3091TIP3    H1 9216   5.305   1.280   2.031
 3091TIP3    H2 9217   5.254   1.280   2.174
 3092TIP3   OH2 9218   5.948   1.352   2.332
 3092TIP3    H1 9219   5.999   1.395   2.263
 3092TIP3    H2 9220   5.992   1.377   2.413
 3093TIP3   OH2 9221   6.448   1.484   2.306
 3093TIP3    H1 9222   6.474   1.448   2.221
 3093TIP3    H2 9223   6.456   1.409   2.366
 3094TIP3   OH2 9224   6.502   1.439   1.880
 3094TIP3    H1 9225   6.422   1.485   1.904
 3094TIP3    H2 9226   6.492   1.352   1.918
 3095TIP3   OH2 9227   4.970   2.785   1.851
 3095TIP3    H1 9228   4.885   2.752   1.821
 3095TIP3    H2 9229   4.973   2.875   1.818
 3096TIP3   OH2 9230   5.424   1.329   1.871
 3096TIP3    H1 9231   5.460   1.244   1.898
 3096TIP3    H2 9232   5.485   1.393   1.906
 3097TIP3   OH2 9233   5.892   1.544   1.943
 3097TIP3    H1 9234   5.949   1.488   1.995
 3097TIP3    H2 9235   5.908   1.632   1.975
 3098TIP3   OH2 9236   5.770   2.936   1.444
 3098TIP3    H1 9237   5.853   2.964   1.407
 3098TIP3    H2 9238   5.741   2.864   1.388
 3099TIP3   OH2 9239   6.474   3.085   1.545
 3099TIP3    H1 9240   6.466   2.989   1.540
 3099TIP3    H2 9241   6.431   3.117   1.466
 3100TIP3   OH2 9242   5.704   1.593   3.315
 3100TIP3    H1 9243   5.670   1.527   3.375
 3100TIP3    H2 9244   5.796   1.601   3.338
 3101TIP3   OH2 9245   5.951   1.598   3.438
 3101TIP3    H1 9246   6.029   1.576   3.387
 3101TIP3    H2 9247   5.946   1.529   3.505
 3102TIP3   OH2 9248   5.075   2.771   1.499
 3102TIP3    H1 9249   5.076   2.785   1.594
 3102TIP3    H2 9250   5.157   2.727   1.480
 3103TIP3   OH2 9251   6.772   1.687   3.226
 3103TIP3    H1 9252   6.790   1.658   3.316
 3103TIP3    H2 9253   6.857   1.682   3.183
 3104TIP3   OH2 9254   6.688   3.218   2.732
 3104TIP3    H1 9255   6.614   3.190   2.679
 3104TIP3    H2 9256   6.678   3.313   2.739
 3105TIP3   OH2 9257   7.255   2.457   2.254
 3105TIP3    H1 9258   7.291   2.401   2.323
 3105TIP3    H2 9259   7.332   2.489   2.207
 3106TIP3   OH2 9260   7.235   2.888   1.938
 3106TIP3    H1 9261   7.218   2.794   1.946
 3106TIP3    H2 9262   7.329   2.895   1.926
 3107TIP3   OH2 9263   6.945   2.120   1.710
 3107TIP3    H1 9264   6.902   2.201   1.736
 3107TIP3    H2 9265   6.874   2.060   1.688
 3108TIP3   OH2 9266   7.019   2.403   1.935
 3108TIP3    H1 9267   7.068   2.325   1.960
 3108TIP3    H2 9268   7.087   2.469   1.917
 3109TIP3   OH2 9269   7.904   3.323   1.547
 3109TIP3    H1 9270   7.963   3.251   1.527
 3109TIP3    H2 9271   7.918   3.340   1.641
 3110TIP3   OH2 9272   7.740   2.834   1.896
 3110TIP3    H1 9273   7.771   2.777   1.826
 3110TIP3    H2 9274   7.813   2.892   1.915
 3111TIP3   OH2 9275   7.484   1.945   1.925
 3111TIP3    H1 9276   7.495   2.023   1.871
 3111TIP3    H2 9277   7.449   1.879   1.865
 3112TIP3   OH2 9278   7.150   2.178   2.028
 3112TIP3    H1 9279   7.230   2.156   2.076
 3112TIP3    H2 9280   7.151   2.120   1.952
 3113TIP3   OH2 9281   7.580   2.399   1.844
 3113TIP3    H1 9282   7.664   2.377   1.803
 3113TIP3    H2 9283   7.529   2.318   1.840
 3114TIP3   OH2 9284   7.515   1.969   2.367
 3114TIP3    H1 9285   7.465   2.000   2.291
 3114TIP3    H2 9286   7.458   1.985   2.442
 3115TIP3   OH2 9287   7.611   2.744   2.128
 3115TIP3    H1 9288   7.555   2.814   2.161
 3115TIP3    H2 9289   7.654   2.781   2.051
 3116TIP3   OH2 9290   7.382   2.068   2.142
 3116TIP3    H1 9291   7.442   2.142   2.152
 3116TIP3    H2 9292   7.420   2.016   2.071
 3117TIP3   OH2 9293   7.451   2.946   2.223
 3117TIP3    H1 9294   7.439   3.035   2.190
 3117TIP3    H2 9295   7.372   2.928   2.273
 3118TIP3   OH2 9296   6.816   2.669   1.490
 3118TIP3    H1 9297   6.779   2.692   1.405
 3118TIP3    H2 9298   6.846   2.753   1.526
 3119TIP3   OH2 9299   7.378   2.535   1.702
 3119TIP3    H1 9300   7.327   2.475   1.647
 3119TIP3    H2 9301   7.448   2.481   1.738
 3120TIP3   OH2 9302   7.489   2.943   1.835
 3120TIP3    H1 9303   7.468   2.926   1.743
 3120TIP3    H2 9304   7.574   2.902   1.848
 3121TIP3   OH2 9305   7.470   2.517   2.070
 3121TIP3    H1 9306   7.512   2.484   1.990
 3121TIP3    H2 9307   7.520   2.596   2.091
 3122TIP3   OH2 9308   7.639   3.042   2.404
 3122TIP3    H1 9309   7.576   3.102   2.445
 3122TIP3    H2 9310   7.587   2.990   2.344
 3123TIP3   OH2 9311   7.397   2.617   2.518
 3123TIP3    H1 9312   7.394   2.709   2.544
 3123TIP3    H2 9313   7.305   2.589   2.518
 3124TIP3   OH2 9314   7.761   3.146   1.384
 3124TIP3    H1 9315   7.783   3.211   1.451
 3124TIP3    H2 9316   7.685   3.182   1.339
 3125TIP3   OH2 9317   7.430   3.207   2.471
 3125TIP3    H1 9318   7.405   3.213   2.379
 3125TIP3    H2 9319   7.348   3.193   2.518
 3126TIP3   OH2 9320   7.216   2.375   1.540
 3126TIP3    H1 9321   7.135   2.408   1.502
 3126TIP3    H2 9322   7.195   2.286   1.568
 3127TIP3   OH2 9323   7.035   2.767   2.418
 3127TIP3    H1 9324   6.965   2.747   2.356
 3127TIP3    H2 9325   7.068   2.682   2.446
 3128TIP3   OH2 9326   6.882   2.954   2.072
 3128TIP3    H1 9327   6.975   2.974   2.085
 3128TIP3    H2 9328   6.836   3.032   2.105
 3129TIP3   OH2 9329   7.822   3.172   2.241
 3129TIP3    H1 9330   7.834   3.263   2.268
 3129TIP3    H2 9331   7.759   3.136   2.304
 3130TIP3   OH2 9332   7.602   3.304   1.220
 3130TIP3    H1 9333   7.576   3.297   1.128
 3130TIP3    H2 9334   7.572   3.390   1.247
 3131TIP3   OH2 9335   7.054   3.148   1.581
 3131TIP3    H1 9336   7.098   3.140   1.665
 3131TIP3    H2 9337   7.004   3.066   1.572
 3132TIP3   OH2 9338   7.847   3.232   1.108
 3132TIP3    H1 9339   7.776   3.267   1.162
 3132TIP3    H2 9340   7.887   3.164   1.163
 3133TIP3   OH2 9341   7.230   2.958   2.388
 3133TIP3    H1 9342   7.280   2.947   2.469
 3133TIP3    H2 9343   7.160   2.894   2.394
 3134TIP3   OH2 9344   7.596   1.733   2.247
 3134TIP3    H1 9345   7.513   1.719   2.203
 3134TIP3    H2 9346   7.587   1.818   2.289
 3135TIP3   OH2 9347   7.541   2.283   2.198
 3135TIP3    H1 9348   7.498   2.286   2.283
 3135TIP3    H2 9349   7.516   2.365   2.155
 3136TIP3   OH2 9350   7.415   2.188   1.802
 3136TIP3    H1 9351   7.332   2.144   1.818
 3136TIP3    H2 9352   7.431   2.176   1.708
 3137TIP3   OH2 9353   7.389   2.282   2.430
 3137TIP3    H1 9354   7.458   2.325   2.479
 3137TIP3    H2 9355   7.370   2.203   2.480
 3138TIP3   OH2 9356   7.479   1.673   1.260
 3138TIP3    H1 9357   7.452   1.734   1.328
 3138TIP3    H2 9358   7.489   1.726   1.181
 3139TIP3   OH2 9359   6.977   1.833   2.013
 3139TIP3    H1 9360   7.047   1.864   2.071
 3139TIP3    H2 9361   7.023   1.801   1.936
 3140TIP3   OH2 9362   6.943   1.851   1.567
 3140TIP3    H1 9363   6.990   1.918   1.518
 3140TIP3    H2 9364   6.854   1.886   1.577
 3141TIP3   OH2 9365   7.190   2.027   1.802
 3141TIP3    H1 9366   7.106   2.045   1.758
 3141TIP3    H2 9367   7.217   1.942   1.768
 3142TIP3   OH2 9368   7.449   2.135   1.544
 3142TIP3    H1 9369   7.529   2.088   1.523
 3142TIP3    H2 9370   7.405   2.146   1.460
 3143TIP3   OH2 9371   7.332   2.154   1.303
 3143TIP3    H1 9372   7.238   2.168   1.292
 3143TIP3    H2 9373   7.372   2.200   1.229
 3144TIP3   OH2 9374   7.383   2.878   2.619
 3144TIP3    H1 9375   7.466   2.894   2.666
 3144TIP3    H2 9376   7.317   2.880   2.688
 3145TIP3   OH2 9377   7.341   1.778   1.746
 3145TIP3    H1 9378   7.302   1.720   1.812
 3145TIP3    H2 9379   7.391   1.719   1.690
 3146TIP3   OH2 9380   7.808   2.215   2.216
 3146TIP3    H1 9381   7.715   2.227   2.198
 3146TIP3    H2 9382   7.845   2.303   2.213
 3147TIP3   OH2 9383   7.547   2.669   1.277
 3147TIP3    H1 9384   7.498   2.587   1.288
 3147TIP3    H2 9385   7.569   2.697   1.366
 3148TIP3   OH2 9386   7.946   2.914   2.303
 3148TIP3    H1 9387   8.013   2.946   2.364
 3148TIP3    H2 9388   7.909   2.993   2.265
 3149TIP3   OH2 9389   7.236   2.598   1.930
 3149TIP3    H1 9390   7.278   2.587   1.844
 3149TIP3    H2 9391   7.302   2.568   1.993
 3150TIP3   OH2 9392   7.687   2.773   1.058
 3150TIP3    H1 9393   7.655   2.862   1.072
 3150TIP3    H2 9394   7.656   2.724   1.134
 3151TIP3   OH2 9395   7.124   2.541   2.556
 3151TIP3    H1 9396   7.135   2.511   2.646
 3151TIP3    H2 9397   7.053   2.488   2.521
 3152TIP3   OH2 9398   7.883   2.678   2.563
 3152TIP3    H1 9399   7.822   2.648   2.495
 3152TIP3    H2 9400   7.969   2.649   2.531
 3153TIP3   OH2 9401   7.363   2.938   1.585
 3153TIP3    H1 9402   7.360   3.016   1.528
 3153TIP3    H2 9403   7.271   2.922   1.607
 3154TIP3   OH2 9404   6.847   2.278   1.315
 3154TIP3    H1 9405   6.902   2.350   1.344
 3154TIP3    H2 9406   6.779   2.271   1.382
 3155TIP3   OH2 9407   7.522   2.718   1.548
 3155TIP3    H1 9408   7.469   2.797   1.553
 3155TIP3    H2 9409   7.473   2.653   1.599
 3156TIP3   OH2 9410   7.648   3.261   2.038
 3156TIP3    H1 9411   7.683   3.339   1.996
 3156TIP3    H2 9412   7.720   3.227   2.092
 3157TIP3   OH2 9413   7.287   3.164   1.438
 3157TIP3    H1 9414   7.200   3.170   1.478
 3157TIP3    H2 9415   7.320   3.254   1.440
 3158TIP3   OH2 9416   7.341   2.036   2.570
 3158TIP3    H1 9417   7.245   2.043   2.576
 3158TIP3    H2 9418   7.365   1.976   2.640
 3159TIP3   OH2 9419   7.084   3.159   2.203
 3159TIP3    H1 9420   7.136   3.099   2.257
 3159TIP3    H2 9421   7.097   3.245   2.244
 3160TIP3   OH2 9422   7.368   2.836   0.904
 3160TIP3    H1 9423   7.436   2.778   0.871
 3160TIP3    H2 9424   7.369   2.822   0.999
 3161TIP3   OH2 9425   7.318   2.780   1.171
 3161TIP3    H1 9426   7.400   2.757   1.215
 3161TIP3    H2 9427   7.308   2.874   1.188
 3162TIP3   OH2 9428   7.002   2.488   1.403
 3162TIP3    H1 9429   6.943   2.547   1.449
 3162TIP3    H2 9430   7.038   2.541   1.331
 3163TIP3   OH2 9431   7.562   3.006   1.107
 3163TIP3    H1 9432   7.475   3.022   1.146
 3163TIP3    H2 9433   7.600   3.094   1.099
 3164TIP3   OH2 9434   7.305   3.054   1.190
 3164TIP3    H1 9435   7.284   3.123   1.127
 3164TIP3    H2 9436   7.296   3.095   1.275
 3165TIP3   OH2 9437   7.414   1.836   1.469
 3165TIP3    H1 9438   7.362   1.858   1.546
 3165TIP3    H2 9439   7.492   1.891   1.476
 3166TIP3   OH2 9440   7.014   2.712   1.209
 3166TIP3    H1 9441   7.065   2.794   1.209
 3166TIP3    H2 9442   7.068   2.650   1.160
 3167TIP3   OH2 9443   7.051   2.020   1.389
 3167TIP3    H1 9444   7.056   2.111   1.361
 3167TIP3    H2 9445   7.039   1.971   1.307
 3168TIP3   OH2 9446   7.332   1.670   2.173
 3168TIP3    H1 9447   7.313   1.642   2.084
 3168TIP3    H2 9448   7.334   1.589   2.224
 3169TIP3   OH2 9449   6.881   2.929   1.565
 3169TIP3    H1 9450   6.841   2.967   1.643
 3169TIP3    H2 9451   6.835   2.971   1.492
 3170TIP3   OH2 9452   7.093   3.462   2.629
 3170TIP3    H1 9453   7.173   3.470   2.681
 3170TIP3    H2 9454   7.084   3.368   2.613
 3171TIP3   OH2 9455   7.546   3.377   2.652
 3171TIP3    H1 9456   7.632   3.338   2.667
 3171TIP3    H2 9457   7.507   3.324   2.583
 3172TIP3   OH2 9458   7.542   3.033   0.802
 3172TIP3    H1 9459   7.487   2.976   0.855
 3172TIP3    H2 9460   7.604   2.973   0.760
 3173TIP3   OH2 9461   7.184   2.859   2.813
 3173TIP3    H1 9462   7.207   2.766   2.821
 3173TIP3    H2 9463   7.097   2.858   2.774
 3174TIP3   OH2 9464   7.192   2.537   1.107
 3174TIP3    H1 9465   7.256   2.596   1.147
 3174TIP3    H2 9466   7.195   2.558   1.014
 3175TIP3   OH2 9467   7.816   2.950   2.590
 3175TIP3    H1 9468   7.762   2.972   2.514
 3175TIP3    H2 9469   7.841   2.858   2.576
 3176TIP3   OH2 9470   7.859   2.699   0.854
 3176TIP3    H1 9471   7.803   2.746   0.917
 3176TIP3    H2 9472   7.903   2.633   0.906
 3177TIP3   OH2 9473   7.303   2.606   2.817
 3177TIP3    H1 9474   7.380   2.577   2.768
 3177TIP3    H2 9475   7.336   2.621   2.906
 3178TIP3   OH2 9476   7.383   2.456   1.334
 3178TIP3    H1 9477   7.329   2.432   1.409
 3178TIP3    H2 9478   7.346   2.407   1.261
 3179TIP3   OH2 9479   7.611   2.452   2.474
 3179TIP3    H1 9480   7.541   2.514   2.493
 3179TIP3    H2 9481   7.667   2.497   2.412
 3180TIP3   OH2 9482   7.650   2.206   1.086
 3180TIP3    H1 9483   7.578   2.152   1.054
 3180TIP3    H2 9484   7.712   2.144   1.124
 3181TIP3   OH2 9485   7.750   2.266   2.629
 3181TIP3    H1 9486   7.765   2.189   2.575
 3181TIP3    H2 9487   7.711   2.330   2.569
 3182TIP3   OH2 9488   7.764   2.066   2.444
 3182TIP3    H1 9489   7.798   2.100   2.362
 3182TIP3    H2 9490   7.686   2.017   2.420
 3183TIP3   OH2 9491   7.774   2.616   2.311
 3183TIP3    H1 9492   7.855   2.658   2.282
 3183TIP3    H2 9493   7.706   2.654   2.255
 3184TIP3   OH2 9494   7.617   2.353   2.849
 3184TIP3    H1 9495   7.557   2.280   2.865
 3184TIP3    H2 9496   7.661   2.330   2.768
 3185TIP3   OH2 9497   7.470   2.121   2.896
 3185TIP3    H1 9498   7.477   2.035   2.855
 3185TIP3    H2 9499   7.510   2.110   2.983
 3186TIP3   OH2 9500   7.311   3.261   1.004
 3186TIP3    H1 9501   7.405   3.265   0.986
 3186TIP3    H2 9502   7.271   3.311   0.932
 3187TIP3   OH2 9503   6.747   2.678   1.212
 3187TIP3    H1 9504   6.842   2.691   1.210
 3187TIP3    H2 9505   6.734   2.590   1.178
 3188TIP3   OH2 9506   6.683   3.233   1.642
 3188TIP3    H1 9507   6.617   3.180   1.597
 3188TIP3    H2 9508   6.725   3.172   1.702
 3189TIP3   OH2 9509   6.825   3.065   1.810
 3189TIP3    H1 9510   6.818   2.996   1.876
 3189TIP3    H2 9511   6.876   3.134   1.853
 3190TIP3   OH2 9512   6.995   2.503   2.189
 3190TIP3    H1 9513   6.987   2.467   2.101
 3190TIP3    H2 9514   7.088   2.495   2.210
 3191TIP3   OH2 9515   7.210   2.175   2.829
 3191TIP3    H1 9516   7.304   2.173   2.844
 3191TIP3    H2 9517   7.177   2.094   2.869
 3192TIP3   OH2 9518   7.175   1.891   2.202
 3192TIP3    H1 9519   7.227   1.811   2.201
 3192TIP3    H2 9520   7.238   1.962   2.189
 3193TIP3   OH2 9521   6.969   2.163   2.242
 3193TIP3    H1 9522   7.019   2.153   2.161
 3193TIP3    H2 9523   7.014   2.233   2.289
 3194TIP3   OH2 9524   6.959   1.661   1.762
 3194TIP3    H1 9525   6.868   1.646   1.788
 3194TIP3    H2 9526   6.954   1.728   1.694
 3195TIP3   OH2 9527   7.193   1.717   2.570
 3195TIP3    H1 9528   7.143   1.714   2.651
 3195TIP3    H2 9529   7.138   1.765   2.509
 3196TIP3   OH2 9530   7.208   3.184   2.640
 3196TIP3    H1 9531   7.116   3.160   2.632
 3196TIP3    H2 9532   7.228   3.171   2.733
 3197TIP3   OH2 9533   7.422   3.220   2.188
 3197TIP3    H1 9534   7.369   3.293   2.156
 3197TIP3    H2 9535   7.506   3.230   2.144
 3198TIP3   OH2 9536   7.846   3.450   2.303
 3198TIP3    H1 9537   7.877   3.438   2.393
 3198TIP3    H2 9538   7.911   3.509   2.263
 3199TIP3   OH2 9539   8.027   3.648   2.204
 3199TIP3    H1 9540   8.042   3.715   2.137
 3199TIP3    H2 9541   8.077   3.678   2.280
 3200TIP3   OH2 9542   7.086   3.461   2.243
 3200TIP3    H1 9543   6.995   3.479   2.219
 3200TIP3    H2 9544   7.108   3.529   2.306
 3201TIP3   OH2 9545   7.309   3.448   2.085
 3201TIP3    H1 9546   7.227   3.454   2.134
 3201TIP3    H2 9547   7.285   3.475   1.996
 3202TIP3   OH2 9548   7.712   3.485   1.886
 3202TIP3    H1 9549   7.637   3.501   1.830
 3202TIP3    H2 9550   7.726   3.568   1.931
 3203TIP3   OH2 9551   7.950   3.375   1.810
 3203TIP3    H1 9552   7.866   3.410   1.838
 3203TIP3    H2 9553   8.013   3.413   1.871
 3204TIP3   OH2 9554   6.996   3.245   1.954
 3204TIP3    H1 9555   7.022   3.222   2.043
 3204TIP3    H2 9556   7.067   3.212   1.899
 3205TIP3   OH2 9557   7.196   3.129   1.814
 3205TIP3    H1 9558   7.205   3.045   1.860
 3205TIP3    H2 9559   7.283   3.168   1.819
 3206TIP3   OH2 9560   7.462   3.218   1.837
 3206TIP3    H1 9561   7.476   3.124   1.826
 3206TIP3    H2 9562   7.518   3.242   1.911
 3207TIP3   OH2 9563   7.260   1.581   1.921
 3207TIP3    H1 9564   7.173   1.544   1.934
 3207TIP3    H2 9565   7.319   1.506   1.920
 3208TIP3   OH2 9566   7.130   1.481   1.639
 3208TIP3    H1 9567   7.115   1.508   1.548
 3208TIP3    H2 9568   7.074   1.539   1.690
 3209TIP3   OH2 9569   6.759   3.044   1.349
 3209TIP3    H1 9570   6.678   3.008   1.314
 3209TIP3    H2 9571   6.762   3.134   1.317
 3210TIP3   OH2 9572   7.270   1.541   1.373
 3210TIP3    H1 9573   7.241   1.464   1.324
 3210TIP3    H2 9574   7.343   1.576   1.321
 3211TIP3   OH2 9575   7.586   3.255   0.951
 3211TIP3    H1 9576   7.679   3.273   0.943
 3211TIP3    H2 9577   7.570   3.181   0.893
 3212TIP3   OH2 9578   7.475   1.851   2.798
 3212TIP3    H1 9579   7.438   1.779   2.848
 3212TIP3    H2 9580   7.566   1.856   2.827
 3213TIP3   OH2 9581   7.712   1.848   2.943
 3213TIP3    H1 9582   7.795   1.819   2.904
 3213TIP3    H2 9583   7.694   1.785   3.012
 3214TIP3   OH2 9584   6.847   3.055   1.021
 3214TIP3    H1 9585   6.838   3.094   1.109
 3214TIP3    H2 9586   6.935   3.017   1.021
 3215TIP3   OH2 9587   0.423   3.395   3.146
 3215TIP3    H1 9588   0.394   3.481   3.116
 3215TIP3    H2 9589   0.356   3.335   3.114
 3216TIP3   OH2 9590   0.446   3.361   3.588
 3216TIP3    H1 9591   0.490   3.344   3.671
 3216TIP3    H2 9592   0.401   3.279   3.567
 3217TIP3   OH2 9593   8.238   3.328   3.831
 3217TIP3    H1 9594   8.190   3.282   3.900
 3217TIP3    H2 9595   8.326   3.338   3.865
 3218TIP3   OH2 9596   0.669   3.634   3.273
 3218TIP3    H1 9597   0.641   3.557   3.224
 3218TIP3    H2 9598   0.678   3.603   3.363
 3219TIP3   OH2 9599   8.209   3.694   3.499
 3219TIP3    H1 9600   8.189   3.603   3.517
 3219TIP3    H2 9601   8.258   3.723   3.576
 3220TIP3   OH2 9602   7.989   3.157   3.616
 3220TIP3    H1 9603   8.039   3.081   3.647
 3220TIP3    H2 9604   7.987   3.146   3.520
 3221TIP3   OH2 9605   0.355   4.122   3.285
 3221TIP3    H1 9606   0.419   4.057   3.256
 3221TIP3    H2 9607   0.316   4.083   3.364
 3222TIP3   OH2 9608   0.317   3.601   3.591
 3222TIP3    H1 9609   0.354   3.515   3.575
 3222TIP3    H2 9610   0.391   3.655   3.620
 3223TIP3   OH2 9611   1.265   2.924   3.606
 3223TIP3    H1 9612   1.279   3.009   3.648
 3223TIP3    H2 9613   1.297   2.936   3.516
 3224TIP3   OH2 9614   0.641   3.094   3.624
 3224TIP3    H1 9615   0.670   3.007   3.651
 3224TIP3    H2 9616   0.602   3.080   3.538
 3225TIP3   OH2 9617   8.510   2.752   3.562
 3225TIP3    H1 9618   8.496   2.826   3.503
 3225TIP3    H2 9619   8.448   2.685   3.531
 3226TIP3   OH2 9620   0.695   2.853   3.227
 3226TIP3    H1 9621   0.755   2.846   3.300
 3226TIP3    H2 9622   0.747   2.888   3.155
 3227TIP3   OH2 9623   8.130   2.951   3.732
 3227TIP3    H1 9624   8.177   2.913   3.806
 3227TIP3    H2 9625   8.197   2.999   3.684
 3228TIP3   OH2 9626   0.095   3.180   3.453
 3228TIP3    H1 9627   0.184   3.158   3.482
 3228TIP3    H2 9628   0.054   3.096   3.433
 3229TIP3   OH2 9629   1.314   3.142   3.775
 3229TIP3    H1 9630   1.232   3.190   3.762
 3229TIP3    H2 9631   1.355   3.183   3.852
 3230TIP3   OH2 9632   0.034   2.748   4.003
 3230TIP3    H1 9633  -0.022   2.786   3.935
 3230TIP3    H2 9634  -0.010   2.771   4.085
 3231TIP3   OH2 9635   0.366   3.627   3.010
 3231TIP3    H1 9636   0.328   3.591   2.929
 3231TIP3    H2 9637   0.317   3.708   3.025
 3232TIP3   OH2 9638   0.121   3.514   3.763
 3232TIP3    H1 9639   0.078   3.577   3.821
 3232TIP3    H2 9640   0.188   3.565   3.718
 3233TIP3   OH2 9641   0.849   2.878   3.450
 3233TIP3    H1 9642   0.806   2.858   3.533
 3233TIP3    H2 9643   0.906   2.952   3.471
 3234TIP3   OH2 9644   8.400   2.852   3.790
 3234TIP3    H1 9645   8.443   2.936   3.805
 3234TIP3    H2 9646   8.443   2.815   3.713
 3235TIP3   OH2 9647   8.472   3.686   3.917
 3235TIP3    H1 9648   8.436   3.739   3.846
 3235TIP3    H2 9649   8.397   3.639   3.954
 3236TIP3   OH2 9650   0.655   3.962   3.292
 3236TIP3    H1 9651   0.616   3.950   3.379
 3236TIP3    H2 9652   0.691   4.051   3.293
 3237TIP3   OH2 9653   1.067   2.804   3.771
 3237TIP3    H1 9654   0.982   2.832   3.738
 3237TIP3    H2 9655   1.130   2.835   3.705
 3238TIP3   OH2 9656   0.331   2.435   3.757
 3238TIP3    H1 9657   0.326   2.342   3.779
 3238TIP3    H2 9658   0.251   2.473   3.795
 3239TIP3   OH2 9659   0.602   3.769   3.015
 3239TIP3    H1 9660   0.637   3.763   2.926
 3239TIP3    H2 9661   0.521   3.719   3.012
 3240TIP3   OH2 9662   0.933   3.843   3.721
 3240TIP3    H1 9663   0.931   3.760   3.672
 3240TIP3    H2 9664   1.010   3.889   3.687
 3241TIP3   OH2 9665   0.249   3.233   2.981
 3241TIP3    H1 9666   0.174   3.293   2.983
 3241TIP3    H2 9667   0.247   3.195   2.893
 3242TIP3   OH2 9668   1.150   3.496   3.620
 3242TIP3    H1 9669   1.065   3.540   3.622
 3242TIP3    H2 9670   1.185   3.516   3.533
 3243TIP3   OH2 9671   0.615   3.352   2.959
 3243TIP3    H1 9672   0.553   3.361   3.031
 3243TIP3    H2 9673   0.693   3.312   2.999
 3244TIP3   OH2 9674   0.843   3.349   3.925
 3244TIP3    H1 9675   0.836   3.433   3.970
 3244TIP3    H2 9676   0.761   3.342   3.876
 3245TIP3   OH2 9677   8.356   3.295   3.383
 3245TIP3    H1 9678   8.321   3.242   3.310
 3245TIP3    H2 9679   8.445   3.261   3.396
 3246TIP3   OH2 9680   0.066   3.620   3.487
 3246TIP3    H1 9681   0.027   3.566   3.556
 3246TIP3    H2 9682   0.160   3.617   3.505
 3247TIP3   OH2 9683   0.003   3.279   3.692
 3247TIP3    H1 9684   0.048   3.265   3.608
 3247TIP3    H2 9685   0.039   3.362   3.724
 3248TIP3   OH2 9686   0.517   3.911   3.519
 3248TIP3    H1 9687   0.507   3.994   3.565
 3248TIP3    H2 9688   0.521   3.845   3.589
 3249TIP3   OH2 9689   0.134   3.830   4.083
 3249TIP3    H1 9690   0.086   3.913   4.087
 3249TIP3    H2 9691   0.077   3.771   4.035
 3250TIP3   OH2 9692   0.520   3.151   2.786
 3250TIP3    H1 9693   0.540   3.234   2.830
 3250TIP3    H2 9694   0.429   3.162   2.757
 3251TIP3   OH2 9695   8.317   3.398   4.200
 3251TIP3    H1 9696   8.356   3.480   4.231
 3251TIP3    H2 9697   8.224   3.417   4.192
 3252TIP3   OH2 9698   0.248   3.871   3.024
 3252TIP3    H1 9699   0.193   3.906   3.094
 3252TIP3    H2 9700   0.187   3.859   2.951
 3253TIP3   OH2 9701   8.314   4.131   4.157
 3253TIP3    H1 9702   8.397   4.140   4.110
 3253TIP3    H2 9703   8.335   4.079   4.234
 3254TIP3   OH2 9704   0.950   2.406   2.869
 3254TIP3    H1 9705   0.872   2.428   2.920
 3254TIP3    H2 9706   0.965   2.481   2.813
 3255TIP3   OH2 9707   8.233   3.130   3.194
 3255TIP3    H1 9708   8.141   3.158   3.200
 3255TIP3    H2 9709   8.231   3.036   3.214
 3256TIP3   OH2 9710   0.756   3.787   2.429
 3256TIP3    H1 9711   0.765   3.878   2.399
 3256TIP3    H2 9712   0.840   3.746   2.409
 3257TIP3   OH2 9713   1.211   4.239   3.804
 3257TIP3    H1 9714   1.200   4.169   3.740
 3257TIP3    H2 9715   1.127   4.243   3.850
 3258TIP3   OH2 9716   0.320   3.944   3.915
 3258TIP3    H1 9717   0.324   4.035   3.941
 3258TIP3    H2 9718   0.253   3.905   3.971
 3259TIP3   OH2 9719   0.059   4.071   2.859
 3259TIP3    H1 9720   0.027   4.067   2.769
 3259TIP3    H2 9721   0.045   4.161   2.887
 3260TIP3   OH2 9722   0.311   3.980   2.523
 3260TIP3    H1 9723   0.369   3.911   2.489
 3260TIP3    H2 9724   0.337   3.991   2.614
 3261TIP3   OH2 9725   0.328   4.032   2.803
 3261TIP3    H1 9726   0.235   4.042   2.824
 3261TIP3    H2 9727   0.361   3.969   2.867
 3262TIP3   OH2 9728   1.071   3.311   4.097
 3262TIP3    H1 9729   0.996   3.320   4.038
 3262TIP3    H2 9730   1.095   3.219   4.092
 3263TIP3   OH2 9731   0.097   2.517   3.873
 3263TIP3    H1 9732   0.009   2.489   3.846
 3263TIP3    H2 9733   0.083   2.601   3.916
 3264TIP3   OH2 9734   0.626   2.662   4.092
 3264TIP3    H1 9735   0.696   2.637   4.153
 3264TIP3    H2 9736   0.545   2.643   4.140
 3265TIP3   OH2 9737   0.843   3.079   4.003
 3265TIP3    H1 9738   0.804   3.073   4.090
 3265TIP3    H2 9739   0.828   3.170   3.977
 3266TIP3   OH2 9740   0.220   2.634   2.860
 3266TIP3    H1 9741   0.191   2.607   2.947
 3266TIP3    H2 9742   0.150   2.607   2.802
 3267TIP3   OH2 9743   0.041   3.074   3.867
 3267TIP3    H1 9744  -0.003   3.092   3.950
 3267TIP3    H2 9745   0.027   3.153   3.814
 3268TIP3   OH2 9746   8.451   2.957   3.390
 3268TIP3    H1 9747   8.359   2.944   3.413
 3268TIP3    H2 9748   8.459   2.919   3.302
 3269TIP3   OH2 9749   0.384   3.042   3.137
 3269TIP3    H1 9750   0.335   3.108   3.089
 3269TIP3    H2 9751   0.445   3.005   3.074
 3270TIP3   OH2 9752   0.588   3.285   4.219
 3270TIP3    H1 9753   0.557   3.221   4.283
 3270TIP3    H2 9754   0.680   3.299   4.242
 3271TIP3   OH2 9755   0.544   3.039   3.370
 3271TIP3    H1 9756   0.480   3.065   3.304
 3271TIP3    H2 9757   0.589   2.965   3.331
 3272TIP3   OH2 9758   8.409   3.094   4.107
 3272TIP3    H1 9759   8.381   3.154   4.176
 3272TIP3    H2 9760   8.428   3.012   4.152
 3273TIP3   OH2 9761   7.935   2.570   3.738
 3273TIP3    H1 9762   8.021   2.609   3.753
 3273TIP3    H2 9763   7.920   2.580   3.644
 3274TIP3   OH2 9764   0.597   3.287   3.809
 3274TIP3    H1 9765   0.620   3.219   3.745
 3274TIP3    H2 9766   0.548   3.240   3.877
 3275TIP3   OH2 9767   0.275   2.750   3.468
 3275TIP3    H1 9768   0.192   2.746   3.516
 3275TIP3    H2 9769   0.342   2.736   3.534
 3276TIP3   OH2 9770   8.201   2.853   3.401
 3276TIP3    H1 9771   8.109   2.860   3.426
 3276TIP3    H2 9772   8.225   2.762   3.417
 3277TIP3   OH2 9773   8.439   2.834   3.148
 3277TIP3    H1 9774   8.533   2.842   3.130
 3277TIP3    H2 9775   8.397   2.852   3.064
 3278TIP3   OH2 9776   0.701   2.831   3.683
 3278TIP3    H1 9777   0.681   2.848   3.775
 3278TIP3    H2 9778   0.634   2.767   3.656
 3279TIP3   OH2 9779   8.308   2.888   2.916
 3279TIP3    H1 9780   8.221   2.926   2.905
 3279TIP3    H2 9781   8.356   2.913   2.837
 3280TIP3   OH2 9782   0.913   4.535   3.900
 3280TIP3    H1 9783   0.901   4.546   3.806
 3280TIP3    H2 9784   0.992   4.585   3.921
 3281TIP3   OH2 9785   8.370   3.662   4.285
 3281TIP3    H1 9786   8.452   3.628   4.320
 3281TIP3    H2 9787   8.306   3.649   4.355
 3282TIP3   OH2 9788   0.333   3.103   3.565
 3282TIP3    H1 9789   0.394   3.050   3.515
 3282TIP3    H2 9790   0.329   3.061   3.651
 3283TIP3   OH2 9791   8.302   2.595   3.462
 3283TIP3    H1 9792   8.279   2.514   3.507
 3283TIP3    H2 9793   8.325   2.569   3.373
 3284TIP3   OH2 9794   0.308   3.013   3.828
 3284TIP3    H1 9795   0.217   3.039   3.845
 3284TIP3    H2 9796   0.360   3.068   3.887
 3285TIP3   OH2 9797   0.029   3.410   2.949
 3285TIP3    H1 9798  -0.021   3.329   2.941
 3285TIP3    H2 9799   0.001   3.448   3.032
 3286TIP3   OH2 9800   0.905   3.613   3.576
 3286TIP3    H1 9801   0.938   3.659   3.498
 3286TIP3    H2 9802   0.831   3.562   3.544
 3287TIP3   OH2 9803   0.486   2.693   2.858
 3287TIP3    H1 9804   0.391   2.681   2.856
 3287TIP3    H2 9805   0.497   2.786   2.879
 3288TIP3   OH2 9806   0.436   3.685   3.968
 3288TIP3    H1 9807   0.484   3.683   4.051
 3288TIP3    H2 9808   0.401   3.774   3.962
 3289TIP3   OH2 9809   0.563   2.942   2.947
 3289TIP3    H1 9810   0.657   2.941   2.964
 3289TIP3    H2 9811   0.550   3.012   2.883
 3290TIP3   OH2 9812   8.212   3.438   3.581
 3290TIP3    H1 9813   8.262   3.382   3.522
 3290TIP3    H2 9814   8.220   3.396   3.666
 3291TIP3   OH2 9815   0.214   3.537   2.788
 3291TIP3    H1 9816   0.180   3.626   2.782
 3291TIP3    H2 9817   0.149   3.490   2.841
 3292TIP3   OH2 9818   0.374   3.454   4.257
 3292TIP3    H1 9819   0.308   3.393   4.225
 3292TIP3    H2 9820   0.458   3.415   4.232
 3293TIP3   OH2 9821   0.591   3.998   3.860
 3293TIP3    H1 9822   0.498   3.978   3.853
 3293TIP3    H2 9823   0.600   4.044   3.944
 3294TIP3   OH2 9824   0.953   3.039   2.756
 3294TIP3    H1 9825   0.900   2.993   2.691
 3294TIP3    H2 9826   0.956   3.129   2.725
 3295TIP3   OH2 9827   1.203   3.875   3.879
 3295TIP3    H1 9828   1.138   3.929   3.924
 3295TIP3    H2 9829   1.203   3.909   3.789
 3296TIP3   OH2 9830   0.663   3.824   2.688
 3296TIP3    H1 9831   0.651   3.735   2.722
 3296TIP3    H2 9832   0.699   3.811   2.601
 3297TIP3   OH2 9833   0.688   3.464   3.487
 3297TIP3    H1 9834   0.603   3.440   3.522
 3297TIP3    H2 9835   0.721   3.383   3.448
 3298TIP3   OH2 9836   8.231   3.696   3.210
 3298TIP3    H1 9837   8.238   3.787   3.179
 3298TIP3    H2 9838   8.204   3.703   3.301
 3299TIP3   OH2 9839   7.525   1.345   1.395
 3299TIP3    H1 9840   7.619   1.363   1.394
 3299TIP3    H2 9841   7.491   1.402   1.464
 3300TIP3   OH2 9842   8.422   3.501   3.185
 3300TIP3    H1 9843   8.353   3.563   3.207
 3300TIP3    H2 9844   8.425   3.441   3.260
 3301TIP3   OH2 9845   0.154   4.016   3.689
 3301TIP3    H1 9846   0.194   4.099   3.662
 3301TIP3    H2 9847   0.218   3.978   3.749
 3302TIP3   OH2 9848   8.238   3.967   3.129
 3302TIP3    H1 9849   8.159   4.001   3.170
 3302TIP3    H2 9850   8.294   4.044   3.118
 3303TIP3   OH2 9851   0.537   3.708   3.712
 3303TIP3    H1 9852   0.501   3.693   3.799
 3303TIP3    H2 9853   0.631   3.694   3.722
 3304TIP3   OH2 9854   0.721   4.237   3.771
 3304TIP3    H1 9855   0.678   4.152   3.771
 3304TIP3    H2 9856   0.718   4.265   3.680
 3305TIP3   OH2 9857   0.783   4.052   2.365
 3305TIP3    H1 9858   0.805   4.116   2.298
 3305TIP3    H2 9859   0.714   4.093   2.417
 3306TIP3   OH2 9860   8.403   2.831   4.232
 3306TIP3    H1 9861   8.331   2.786   4.189
 3306TIP3    H2 9862   8.426   2.774   4.306
 3307TIP3   OH2 9863   0.662   3.575   2.801
 3307TIP3    H1 9864   0.627   3.500   2.850
 3307TIP3    H2 9865   0.753   3.552   2.783
 3308TIP3   OH2 9866   8.414   3.500   2.552
 3308TIP3    H1 9867   8.375   3.425   2.507
 3308TIP3    H2 9868   8.354   3.518   2.624
 3309TIP3   OH2 9869   8.271   3.582   2.797
 3309TIP3    H1 9870   8.355   3.570   2.842
 3309TIP3    H2 9871   8.247   3.673   2.815
 3310TIP3   OH2 9872   7.957   3.276   3.112
 3310TIP3    H1 9873   7.966   3.363   3.152
 3310TIP3    H2 9874   8.019   3.276   3.040
 3311TIP3   OH2 9875   0.646   2.892   3.945
 3311TIP3    H1 9876   0.727   2.936   3.973
 3311TIP3    H2 9877   0.640   2.815   4.001
 3312TIP3   OH2 9878   0.540   2.641   3.129
 3312TIP3    H1 9879   0.519   2.660   3.038
 3312TIP3    H2 9880   0.585   2.720   3.160
 3313TIP3   OH2 9881   0.112   3.786   2.784
 3313TIP3    H1 9882   0.043   3.768   2.848
 3313TIP3    H2 9883   0.078   3.860   2.733
 3314TIP3   OH2 9884   0.215   2.834   3.208
 3314TIP3    H1 9885   0.272   2.907   3.183
 3314TIP3    H2 9886   0.234   2.818   3.300
 3315TIP3   OH2 9887   0.492   3.124   4.003
 3315TIP3    H1 9888   0.523   3.169   4.082
 3315TIP3    H2 9889   0.542   3.043   4.001
 3316TIP3   OH2 9890   0.359   2.538   3.309
 3316TIP3    H1 9891   0.335   2.616   3.360
 3316TIP3    H2 9892   0.426   2.569   3.248
 3317TIP3   OH2 9893   8.235   3.849   2.860
 3317TIP3    H1 9894   8.237   3.895   2.777
 3317TIP3    H2 9895   8.215   3.916   2.925
 3318TIP3   OH2 9896   8.378   2.569   3.201
 3318TIP3    H1 9897   8.379   2.663   3.184
 3318TIP3    H2 9898   8.463   2.538   3.168
 3319TIP3   OH2 9899   1.112   3.047   3.998
 3319TIP3    H1 9900   1.017   3.041   4.001
 3319TIP3    H2 9901   1.135   3.020   3.909
 3320TIP3   OH2 9902   0.770   3.223   3.370
 3320TIP3    H1 9903   0.696   3.163   3.380
 3320TIP3    H2 9904   0.840   3.184   3.424
 3321TIP3   OH2 9905   7.922   3.485   2.875
 3321TIP3    H1 9906   7.942   3.563   2.926
 3321TIP3    H2 9907   7.828   3.491   2.856
 3322TIP3   OH2 9908   0.735   4.224   3.278
 3322TIP3    H1 9909   0.690   4.288   3.224
 3322TIP3    H2 9910   0.828   4.245   3.269
 3323TIP3   OH2 9911   8.330   2.451   3.841
 3323TIP3    H1 9912   8.305   2.410   3.758
 3323TIP3    H2 9913   8.334   2.378   3.903
 3324TIP3   OH2 9914   0.114   4.243   4.234
 3324TIP3    H1 9915   0.204   4.242   4.269
 3324TIP3    H2 9916   0.059   4.238   4.312
 3325TIP3   OH2 9917  -0.008   3.755   2.470
 3325TIP3    H1 9918  -0.043   3.673   2.505
 3325TIP3    H2 9919   0.075   3.730   2.430
 3326TIP3   OH2 9920   0.620   4.110   4.110
 3326TIP3    H1 9921   0.629   4.032   4.165
 3326TIP3    H2 9922   0.701   4.159   4.124
 3327TIP3   OH2 9923   0.467   3.783   2.392
 3327TIP3    H1 9924   0.556   3.772   2.427
 3327TIP3    H2 9925   0.480   3.797   2.298
 3328TIP3   OH2 9926   8.185   3.325   2.621
 3328TIP3    H1 9927   8.186   3.311   2.715
 3328TIP3    H2 9928   8.250   3.263   2.586
 3329TIP3   OH2 9929   0.324   3.728   4.258
 3329TIP3    H1 9930   0.265   3.742   4.184
 3329TIP3    H2 9931   0.353   3.637   4.249
 3330TIP3   OH2 9932   0.193   3.448   2.532
 3330TIP3    H1 9933   0.214   3.479   2.620
 3330TIP3    H2 9934   0.098   3.457   2.525
 3331TIP3   OH2 9935   0.747   3.776   3.903
 3331TIP3    H1 9936   0.822   3.799   3.847
 3331TIP3    H2 9937   0.686   3.849   3.893
 3332TIP3   OH2 9938   8.362   3.339   4.499
 3332TIP3    H1 9939   8.279   3.339   4.450
 3332TIP3    H2 9940   8.347   3.399   4.572
 3333TIP3   OH2 9941   8.389   3.180   2.960
 3333TIP3    H1 9942   8.336   3.161   3.038
 3333TIP3    H2 9943   8.381   3.102   2.906
 3334TIP3   OH2 9944   0.167   3.270   4.182
 3334TIP3    H1 9945   0.122   3.341   4.227
 3334TIP3    H2 9946   0.195   3.308   4.099
 3335TIP3   OH2 9947   8.448   3.008   2.715
 3335TIP3    H1 9948   8.481   2.940   2.655
 3335TIP3    H2 9949   8.525   3.062   2.733
 3336TIP3   OH2 9950   0.635   3.635   4.243
 3336TIP3    H1 9951   0.706   3.602   4.189
 3336TIP3    H2 9952   0.636   3.580   4.321
 3337TIP3   OH2 9953   0.765   3.339   2.431
 3337TIP3    H1 9954   0.726   3.290   2.358
 3337TIP3    H2 9955   0.752   3.431   2.407
 3338TIP3   OH2 9956   0.252   3.026   4.269
 3338TIP3    H1 9957   0.264   2.959   4.201
 3338TIP3    H2 9958   0.225   3.104   4.221
 3339TIP3   OH2 9959   0.281   2.844   4.056
 3339TIP3    H1 9960   0.315   2.883   3.976
 3339TIP3    H2 9961   0.195   2.811   4.032
 3340TIP3   OH2 9962   0.271   3.385   3.961
 3340TIP3    H1 9963   0.347   3.439   3.941
 3340TIP3    H2 9964   0.204   3.412   3.898
 3341TIP3   OH2 9965   0.849   3.314   4.324
 3341TIP3    H1 9966   0.886   3.228   4.342
 3341TIP3    H2 9967   0.922   3.365   4.290
 3342TIP3   OH2 9968   0.859   3.593   4.066
 3342TIP3    H1 9969   0.810   3.657   4.016
 3342TIP3    H2 9970   0.949   3.601   4.035
 3343TIP3   OH2 9971   0.137   3.127   4.504
 3343TIP3    H1 9972   0.084   3.049   4.521
 3343TIP3    H2 9973   0.168   3.115   4.414
 3344TIP3   OH2 9974   0.366   2.607   4.172
 3344TIP3    H1 9975   0.332   2.687   4.133
 3344TIP3    H2 9976   0.299   2.541   4.154
 3345TIP3   OH2 9977   0.499   3.083   4.382
 3345TIP3    H1 9978   0.491   3.071   4.477
 3345TIP3    H2 9979   0.414   3.055   4.347
 3346TIP3   OH2 9980   0.732   3.024   4.242
 3346TIP3    H1 9981   0.655   3.029   4.298
 3346TIP3    H2 9982   0.804   3.005   4.302
 3347TIP3   OH2 9983   0.959   3.002   4.400
 3347TIP3    H1 9984   0.975   2.908   4.407
 3347TIP3    H2 9985   0.955   3.032   4.491
 3348TIP3   OH2 9986   0.007   2.895   4.574
 3348TIP3    H1 9987   0.003   2.816   4.521
 3348TIP3    H2 9988   0.038   2.865   4.659
 3349TIP3   OH2 9989   0.428   2.589   4.434
 3349TIP3    H1 9990   0.495   2.522   4.430
 3349TIP3    H2 9991   0.397   2.599   4.344
 3350TIP3   OH2 9992   0.525   2.799   4.583
 3350TIP3    H1 9993   0.495   2.730   4.524
 3350TIP3    H2 9994   0.453   2.863   4.583
 3351TIP3   OH2 9995   8.263   3.978   2.617
 3351TIP3    H1 9996   8.352   4.008   2.597
 3351TIP3    H2 9997   8.206   4.048   2.584
 3352TIP3   OH2 9998   0.995   4.302   3.271
 3352TIP3    H1 9999   1.015   4.313   3.364
 3352TIP3    H210000   1.079   4.315   3.227
 3353TIP3   OH210001   1.005   4.296   3.552
 3353TIP3    H110002   0.933   4.234   3.555
 3353TIP3    H210003   1.083   4.243   3.567
 3354TIP3   OH210004   1.086   3.987   4.143
 3354TIP3    H110005   1.017   3.991   4.210
 3354TIP3    H210006   1.132   4.071   4.152
 3355TIP3   OH210007   0.927   3.511   2.773
 3355TIP3    H110008   0.987   3.578   2.740
 3355TIP3    H210009   0.975   3.468   2.844
 3356TIP3   OH210010   1.047   3.361   2.972
 3356TIP3    H110011   0.978   3.325   3.028
 3356TIP3    H210012   1.112   3.397   3.033
 3357TIP3   OH210013   1.057   3.767   3.406
 3357TIP3    H110014   1.130   3.709   3.384
 3357TIP3    H210015   1.099   3.844   3.444
 3358TIP3   OH210016   0.854   4.065   3.557
 3358TIP3    H110017   0.828   4.001   3.624
 3358TIP3    H210018   0.944   4.042   3.536
 3359TIP3   OH210019   0.948   3.280   2.625
 3359TIP3    H110020   0.881   3.287   2.557
 3359TIP3    H210021   0.936   3.358   2.679
 3360TIP3   OH210022   0.819   2.923   2.548
 3360TIP3    H110023   0.756   2.955   2.483
 3360TIP3    H210024   0.812   2.828   2.544
 3361TIP3   OH210025   0.828   3.229   3.098
 3361TIP3    H110026   0.836   3.135   3.079
 3361TIP3    H210027   0.812   3.232   3.193
 3362TIP3   OH210028   1.114   3.630   3.971
 3362TIP3    H110029   1.180   3.564   3.951
 3362TIP3    H210030   1.142   3.707   3.920
 3363TIP3   OH210031   1.290   3.419   3.967
 3363TIP3    H110032   1.217   3.381   4.015
 3363TIP3    H210033   1.365   3.363   3.989
 3364TIP3   OH210034   0.795   2.652   2.526
 3364TIP3    H110035   0.853   2.626   2.599
 3364TIP3    H210036   0.708   2.627   2.555
 3365TIP3   OH210037   0.841   2.949   3.000
 3365TIP3    H110038   0.887   2.865   3.012
 3365TIP3    H210039   0.879   2.985   2.920
 3366TIP3   OH210040   0.987   3.114   3.514
 3366TIP3    H110041   1.066   3.133   3.464
 3366TIP3    H210042   1.002   3.156   3.599
 3367TIP3   OH210043   1.061   3.265   3.743
 3367TIP3    H110044   0.988   3.295   3.798
 3367TIP3    H210045   1.095   3.345   3.702
 3368TIP3   OH210046   8.162   2.878   4.675
 3368TIP3    H110047   8.215   2.943   4.630
 3368TIP3    H210048   8.092   2.857   4.613
 3369TIP3   OH210049   1.517   2.854   4.282
 3369TIP3    H110050   1.584   2.801   4.239
 3369TIP3    H210051   1.478   2.905   4.211
 3370TIP3   OH210052   0.949   2.695   3.044
 3370TIP3    H110053   0.995   2.679   3.127
 3370TIP3    H210054   0.885   2.625   3.038
 3371TIP3   OH210055   8.186   2.670   3.777
 3371TIP3    H110056   8.234   2.587   3.787
 3371TIP3    H210057   8.254   2.735   3.761
 3372TIP3   OH210058   1.366   2.969   4.086
 3372TIP3    H110059   1.282   3.012   4.101
 3372TIP3    H210060   1.344   2.892   4.033
 3373TIP3   OH210061   1.010   2.600   2.687
 3373TIP3    H110062   1.061   2.542   2.630
 3373TIP3    H210063   1.063   2.680   2.693
 3374TIP3   OH210064   8.018   2.550   4.388
 3374TIP3    H110065   7.932   2.509   4.386
 3374TIP3    H210066   8.072   2.497   4.329
 3375TIP3   OH210067   8.339   3.955   3.924
 3375TIP3    H110068   8.286   4.020   3.879
 3375TIP3    H210069   8.419   4.002   3.949
 3376TIP3   OH210070   0.340   4.207   3.984
 3376TIP3    H110071   0.362   4.209   4.077
 3376TIP3    H210072   0.407   4.259   3.941
 3377TIP3   OH210073   0.520   4.387   3.881
 3377TIP3    H110074   0.593   4.339   3.842
 3377TIP3    H210075   0.561   4.447   3.943
 3378TIP3   OH210076   1.277   2.729   3.973
 3378TIP3    H110077   1.194   2.731   3.925
 3378TIP3    H210078   1.307   2.639   3.967
 3379TIP3   OH210079   8.371   4.168   3.732
 3379TIP3    H110080   8.278   4.182   3.753
 3379TIP3    H210081   8.370   4.126   3.646
 3380TIP3   OH210082   0.229   4.265   3.562
 3380TIP3    H110083   0.241   4.303   3.475
 3380TIP3    H210084   0.235   4.339   3.622
 3381TIP3   OH210085   0.479   4.165   3.608
 3381TIP3    H110086   0.393   4.205   3.596
 3381TIP3    H210087   0.541   4.231   3.575
 3382TIP3   OH210088   0.667   4.347   3.515
 3382TIP3    H110089   0.669   4.437   3.483
 3382TIP3    H210090   0.695   4.294   3.441
 3383TIP3   OH210091   8.160   3.956   3.444
 3383TIP3    H110092   8.141   3.864   3.462
 3383TIP3    H210093   8.254   3.959   3.427
 3384TIP3   OH210094   8.466   4.063   3.497
 3384TIP3    H110095   8.462   3.981   3.448
 3384TIP3    H210096   8.535   4.049   3.562
 3385TIP3   OH210097   0.487   2.646   3.620
 3385TIP3    H110098   0.446   2.572   3.665
 3385TIP3    H210099   0.555   2.605   3.566
 3386TIP3   OH210100   0.988   2.562   3.499
 3386TIP3    H110101   1.026   2.612   3.427
 3386TIP3    H210102   0.896   2.589   3.501
 3387TIP3   OH210103   1.106   2.643   3.265
 3387TIP3    H110104   1.174   2.582   3.239
 3387TIP3    H210105   1.145   2.730   3.253
 3388TIP3   OH210106   8.240   2.360   3.597
 3388TIP3    H110107   8.149   2.336   3.613
 3388TIP3    H210108   8.287   2.277   3.592
 3389TIP3   OH210109   0.206   2.395   3.502
 3389TIP3    H110110   0.256   2.442   3.435
 3389TIP3    H210111   0.251   2.415   3.584
 3390TIP3   OH210112   0.699   2.534   3.482
 3390TIP3    H110113   0.710   2.501   3.393
 3390TIP3    H210114   0.706   2.456   3.538
 3391TIP3   OH210115   0.760   2.488   3.051
 3391TIP3    H110116   0.679   2.536   3.072
 3391TIP3    H210117   0.747   2.401   3.088
 3392TIP3   OH210118   0.151   2.579   3.122
 3392TIP3    H110119   0.211   2.529   3.178
 3392TIP3    H210120   0.166   2.670   3.146
 3393TIP3   OH210121   0.041   3.993   2.593
 3393TIP3    H110122   0.129   4.013   2.562
 3393TIP3    H210123   0.015   3.915   2.543
 3394TIP3   OH210124   0.752   4.089   2.708
 3394TIP3    H110125   0.720   3.998   2.714
 3394TIP3    H210126   0.700   4.127   2.636
 3395TIP3   OH210127   8.496   2.640   4.457
 3395TIP3    H110128   8.426   2.626   4.520
 3395TIP3    H210129   8.576   2.620   4.506
 3396TIP3   OH210130   0.227   2.612   4.620
 3396TIP3    H110131   0.295   2.615   4.553
 3396TIP3    H210132   0.245   2.531   4.669
 3397TIP3   OH210133   1.024   2.732   4.405
 3397TIP3    H110134   1.041   2.702   4.494
 3397TIP3    H210135   1.109   2.725   4.361
 3398TIP3   OH210136   0.955   4.264   3.918
 3398TIP3    H110137   0.880   4.235   3.865
 3398TIP3    H210138   0.946   4.359   3.921
 3399TIP3   OH210139   2.214   3.653   2.641
 3399TIP3    H110140   2.182   3.739   2.614
 3399TIP3    H210141   2.142   3.593   2.619
 3400TIP3   OH210142   2.228   3.652   3.075
 3400TIP3    H110143   2.278   3.627   3.152
 3400TIP3    H210144   2.180   3.572   3.051
 3401TIP3   OH210145   1.506   3.499   3.413
 3401TIP3    H110146   1.544   3.451   3.486
 3401TIP3    H210147   1.582   3.528   3.362
 3402TIP3   OH210148   2.487   3.953   2.743
 3402TIP3    H110149   2.472   3.886   2.810
 3402TIP3    H210150   2.507   4.032   2.793
 3403TIP3   OH210151   1.505   3.925   3.073
 3403TIP3    H110152   1.488   3.833   3.094
 3403TIP3    H210153   1.601   3.932   3.071
 3404TIP3   OH210154   1.192   3.131   2.889
 3404TIP3    H110155   1.158   3.217   2.914
 3404TIP3    H210156   1.118   3.086   2.849
 3405TIP3   OH210157   1.268   3.451   3.119
 3405TIP3    H110158   1.318   3.372   3.139
 3405TIP3    H210159   1.335   3.516   3.096
 3406TIP3   OH210160   2.139   4.382   2.754
 3406TIP3    H110161   2.167   4.316   2.690
 3406TIP3    H210162   2.130   4.334   2.836
 3407TIP3   OH210163   2.021   3.868   3.070
 3407TIP3    H110164   2.065   3.790   3.038
 3407TIP3    H210165   2.091   3.924   3.102
 3408TIP3   OH210166   3.057   3.178   3.081
 3408TIP3    H110167   3.071   3.262   3.126
 3408TIP3    H210168   3.084   3.194   2.991
 3409TIP3   OH210169   2.440   3.356   3.118
 3409TIP3    H110170   2.470   3.269   3.146
 3409TIP3    H210171   2.402   3.343   3.032
 3410TIP3   OH210172   1.774   3.023   3.065
 3410TIP3    H110173   1.770   3.092   2.999
 3410TIP3    H210174   1.716   2.955   3.031
 3411TIP3   OH210175   2.491   3.108   2.714
 3411TIP3    H110176   2.553   3.101   2.786
 3411TIP3    H210177   2.540   3.148   2.642
 3412TIP3   OH210178   1.408   3.221   3.188
 3412TIP3    H110179   1.491   3.205   3.234
 3412TIP3    H210180   1.421   3.182   3.101
 3413TIP3   OH210181   1.836   3.426   3.021
 3413TIP3    H110182   1.932   3.421   3.026
 3413TIP3    H210183   1.812   3.347   2.972
 3414TIP3   OH210184   3.098   3.387   3.262
 3414TIP3    H110185   3.017   3.437   3.248
 3414TIP3    H210186   3.088   3.350   3.349
 3415TIP3   OH210187   1.763   3.016   3.521
 3415TIP3    H110188   1.715   3.053   3.447
 3415TIP3    H210189   1.708   3.034   3.597
 3416TIP3   OH210190   2.116   3.875   2.506
 3416TIP3    H110191   2.071   3.833   2.432
 3416TIP3    H210192   2.058   3.946   2.532
 3417TIP3   OH210193   1.859   3.790   3.282
 3417TIP3    H110194   1.804   3.860   3.317
 3417TIP3    H210195   1.905   3.830   3.209
 3418TIP3   OH210196   2.646   3.130   2.937
 3418TIP3    H110197   2.601   3.112   3.019
 3418TIP3    H210198   2.698   3.208   2.955
 3419TIP3   OH210199   1.653   3.125   3.292
 3419TIP3    H110200   1.707   3.200   3.315
 3419TIP3    H210201   1.696   3.087   3.215
 3420TIP3   OH210202   1.702   3.989   3.393
 3420TIP3    H110203   1.680   4.078   3.365
 3420TIP3    H210204   1.627   3.963   3.447
 3421TIP3   OH210205   1.086   3.701   2.650
 3421TIP3    H110206   1.051   3.714   2.562
 3421TIP3    H210207   1.107   3.789   2.680
 3422TIP3   OH210208   2.529   4.198   2.888
 3422TIP3    H110209   2.443   4.190   2.928
 3422TIP3    H210210   2.525   4.281   2.840
 3423TIP3   OH210211   2.840   3.094   3.246
 3423TIP3    H110212   2.755   3.108   3.204
 3423TIP3    H210213   2.904   3.114   3.178
 3424TIP3   OH210214   2.108   2.710   3.256
 3424TIP3    H110215   2.098   2.616   3.276
 3424TIP3    H210216   2.030   2.750   3.294
 3425TIP3   OH210217   2.226   4.230   2.537
 3425TIP3    H110218   2.278   4.150   2.527
 3425TIP3    H210219   2.285   4.300   2.509
 3426TIP3   OH210220   2.366   3.999   2.497
 3426TIP3    H110221   2.291   3.941   2.496
 3426TIP3    H210222   2.416   3.974   2.575
 3427TIP3   OH210223   2.756   4.077   3.229
 3427TIP3    H110224   2.734   4.004   3.171
 3427TIP3    H210225   2.740   4.155   3.176
 3428TIP3   OH210226   2.025   3.498   2.507
 3428TIP3    H110227   1.971   3.425   2.535
 3428TIP3    H210228   2.088   3.460   2.445
 3429TIP3   OH210229   1.989   3.305   2.191
 3429TIP3    H110230   2.035   3.348   2.263
 3429TIP3    H210231   2.052   3.239   2.160
 3430TIP3   OH210232   2.930   3.752   3.092
 3430TIP3    H110233   2.844   3.794   3.088
 3430TIP3    H210234   2.967   3.764   3.004
 3431TIP3   OH210235   2.402   3.583   2.456
 3431TIP3    H110236   2.344   3.610   2.527
 3431TIP3    H210237   2.483   3.558   2.499
 3432TIP3   OH210238   2.632   3.615   3.401
 3432TIP3    H110239   2.623   3.694   3.454
 3432TIP3    H210240   2.550   3.608   3.353
 3433TIP3   OH210241   1.633   3.559   2.874
 3433TIP3    H110242   1.595   3.501   2.809
 3433TIP3    H210243   1.708   3.511   2.908
 3434TIP3   OH210244   1.772   3.985   3.002
 3434TIP3    H110245   1.749   3.972   2.910
 3434TIP3    H210246   1.859   3.946   3.011
 3435TIP3   OH210247   1.724   3.553   3.241
 3435TIP3    H110248   1.763   3.515   3.162
 3435TIP3    H210249   1.772   3.634   3.254
 3436TIP3   OH210250   2.294   4.192   3.022
 3436TIP3    H110251   2.275   4.271   3.073
 3436TIP3    H210252   2.275   4.119   3.082
 3437TIP3   OH210253   1.901   4.086   3.560
 3437TIP3    H110254   1.840   4.145   3.605
 3437TIP3    H210255   1.845   4.035   3.501
 3438TIP3   OH210256   2.231   3.421   2.310
 3438TIP3    H110257   2.285   3.486   2.354
 3438TIP3    H210258   2.253   3.429   2.218
 3439TIP3   OH210259   1.660   3.628   3.718
 3439TIP3    H110260   1.662   3.723   3.732
 3439TIP3    H210261   1.567   3.606   3.714
 3440TIP3   OH210262   1.976   4.112   2.552
 3440TIP3    H110263   2.059   4.161   2.553
 3440TIP3    H210264   1.918   4.167   2.499
 3441TIP3   OH210265   1.694   4.246   3.645
 3441TIP3    H110266   1.665   4.254   3.554
 3441TIP3    H210267   1.615   4.220   3.693
 3442TIP3   OH210268   2.740   2.664   2.356
 3442TIP3    H110269   2.664   2.686   2.409
 3442TIP3    H210270   2.753   2.741   2.300
 3443TIP3   OH210271   1.500   3.401   2.684
 3443TIP3    H110272   1.427   3.448   2.645
 3443TIP3    H210273   1.476   3.308   2.678
 3444TIP3   OH210274   2.565   4.038   1.908
 3444TIP3    H110275   2.558   4.131   1.890
 3444TIP3    H210276   2.655   4.015   1.884
 3445TIP3   OH210277   2.990   4.460   3.306
 3445TIP3    H110278   2.986   4.365   3.298
 3445TIP3    H210279   2.908   4.485   3.348
 3446TIP3   OH210280   2.090   4.233   3.424
 3446TIP3    H110281   2.080   4.323   3.453
 3446TIP3    H210282   2.021   4.185   3.471
 3447TIP3   OH210283   1.870   4.336   2.374
 3447TIP3    H110284   1.818   4.317   2.295
 3447TIP3    H210285   1.834   4.418   2.407
 3448TIP3   OH210286   1.311   4.186   2.764
 3448TIP3    H110287   1.346   4.182   2.853
 3448TIP3    H210288   1.261   4.104   2.755
 3449TIP3   OH210289   2.072   4.266   2.003
 3449TIP3    H110290   2.122   4.192   1.969
 3449TIP3    H210291   2.105   4.279   2.092
 3450TIP3   OH210292   2.124   4.308   2.273
 3450TIP3    H110293   2.036   4.313   2.311
 3450TIP3    H210294   2.178   4.269   2.341
 3451TIP3   OH210295   2.879   3.568   3.548
 3451TIP3    H110296   2.795   3.574   3.504
 3451TIP3    H210297   2.893   3.474   3.560
 3452TIP3   OH210298   1.492   3.958   3.565
 3452TIP3    H110299   1.519   3.947   3.656
 3452TIP3    H210300   1.397   3.971   3.570
 3453TIP3   OH210301   1.866   2.798   3.380
 3453TIP3    H110302   1.782   2.766   3.346
 3453TIP3    H210303   1.845   2.880   3.424
 3454TIP3   OH210304   2.397   2.928   3.576
 3454TIP3    H110305   2.465   2.901   3.638
 3454TIP3    H210306   2.315   2.908   3.621
 3455TIP3   OH210307   2.646   3.356   3.509
 3455TIP3    H110308   2.598   3.347   3.591
 3455TIP3    H210309   2.617   3.440   3.473
 3456TIP3   OH210310   2.308   3.405   2.038
 3456TIP3    H110311   2.268   3.416   1.952
 3456TIP3    H210312   2.391   3.452   2.032
 3457TIP3   OH210313   1.999   2.857   2.344
 3457TIP3    H110314   1.964   2.882   2.429
 3457TIP3    H210315   1.972   2.766   2.332
 3458TIP3   OH210316   1.808   3.334   3.391
 3458TIP3    H110317   1.761   3.341   3.474
 3458TIP3    H210318   1.786   3.414   3.344
 3459TIP3   OH210319   1.744   3.214   2.869
 3459TIP3    H110320   1.651   3.201   2.849
 3459TIP3    H210321   1.786   3.217   2.783
 3460TIP3   OH210322   2.186   3.274   2.656
 3460TIP3    H110323   2.091   3.263   2.645
 3460TIP3    H210324   2.223   3.235   2.577
 3461TIP3   OH210325   2.357   3.550   3.709
 3461TIP3    H110326   2.327   3.483   3.771
 3461TIP3    H210327   2.449   3.562   3.731
 3462TIP3   OH210328   2.352   3.303   2.866
 3462TIP3    H110329   2.282   3.322   2.802
 3462TIP3    H210330   2.395   3.225   2.832
 3463TIP3   OH210331   1.642   3.348   3.610
 3463TIP3    H110332   1.637   3.416   3.677
 3463TIP3    H210333   1.625   3.267   3.657
 3464TIP3   OH210334   1.669   2.812   2.315
 3464TIP3    H110335   1.668   2.829   2.409
 3464TIP3    H210336   1.601   2.870   2.280
 3465TIP3   OH210337   1.240   2.867   3.196
 3465TIP3    H110338   1.306   2.906   3.253
 3465TIP3    H210339   1.279   2.865   3.109
 3466TIP3   OH210340   1.143   2.843   2.696
 3466TIP3    H110341   1.186   2.880   2.619
 3466TIP3    H210342   1.080   2.910   2.723
 3467TIP3   OH210343   2.382   3.556   3.289
 3467TIP3    H110344   2.408   3.490   3.225
 3467TIP3    H210345   2.336   3.507   3.358
 3468TIP3   OH210346   2.046   2.956   2.991
 3468TIP3    H110347   1.962   2.984   3.027
 3468TIP3    H210348   2.111   2.986   3.054
 3469TIP3   OH210349   1.463   3.100   2.945
 3469TIP3    H110350   1.373   3.099   2.913
 3469TIP3    H210351   1.492   3.009   2.938
 3470TIP3   OH210352   2.512   3.095   3.181
 3470TIP3    H110353   2.494   3.116   3.272
 3470TIP3    H210354   2.444   3.032   3.157
 3471TIP3   OH210355   1.564   3.074   2.448
 3471TIP3    H110356   1.508   3.055   2.373
 3471TIP3    H210357   1.633   3.131   2.413
 3472TIP3   OH210358   2.707   4.781   3.387
 3472TIP3    H110359   2.699   4.801   3.294
 3472TIP3    H210360   2.783   4.831   3.416
 3473TIP3   OH210361   1.646   3.888   3.817
 3473TIP3    H110362   1.726   3.915   3.863
 3473TIP3    H210363   1.576   3.903   3.881
 3474TIP3   OH210364   2.112   3.386   3.069
 3474TIP3    H110365   2.167   3.332   3.013
 3474TIP3    H210366   2.107   3.338   3.152
 3475TIP3   OH210367   1.586   2.844   2.950
 3475TIP3    H110368   1.561   2.766   3.000
 3475TIP3    H210369   1.609   2.811   2.863
 3476TIP3   OH210370   2.073   3.275   3.330
 3476TIP3    H110371   1.986   3.306   3.352
 3476TIP3    H210372   2.133   3.327   3.383
 3477TIP3   OH210373   1.740   3.681   2.418
 3477TIP3    H110374   1.704   3.592   2.414
 3477TIP3    H210375   1.753   3.697   2.511
 3478TIP3   OH210376   2.693   3.883   3.047
 3478TIP3    H110377   2.727   3.933   2.973
 3478TIP3    H210378   2.614   3.840   3.014
 3479TIP3   OH210379   2.256   2.953   2.310
 3479TIP3    H110380   2.164   2.932   2.328
 3479TIP3    H210381   2.268   3.040   2.348
 3480TIP3   OH210382   2.227   3.971   3.459
 3480TIP3    H110383   2.264   3.957   3.546
 3480TIP3    H210384   2.178   4.054   3.467
 3481TIP3   OH210385   2.332   3.190   2.425
 3481TIP3    H110386   2.425   3.205   2.443
 3481TIP3    H210387   2.301   3.272   2.386
 3482TIP3   OH210388   1.490   3.633   3.096
 3482TIP3    H110389   1.531   3.617   3.011
 3482TIP3    H210390   1.555   3.607   3.160
 3483TIP3   OH210391   1.956   3.788   2.285
 3483TIP3    H110392   1.916   3.875   2.283
 3483TIP3    H210393   1.894   3.734   2.334
 3484TIP3   OH210394   1.403   3.537   3.741
 3484TIP3    H110395   1.379   3.508   3.829
 3484TIP3    H210396   1.322   3.531   3.691
 3485TIP3   OH210397   2.126   3.711   3.738
 3485TIP3    H110398   2.055   3.651   3.713
 3485TIP3    H210399   2.206   3.666   3.709
 3486TIP3   OH210400   2.363   4.254   3.353
 3486TIP3    H110401   2.268   4.239   3.350
 3486TIP3    H210402   2.378   4.293   3.440
 3487TIP3   OH210403   2.747   3.294   2.237
 3487TIP3    H110404   2.692   3.248   2.173
 3487TIP3    H210405   2.751   3.384   2.205
 3488TIP3   OH210406   2.992   4.185   3.308
 3488TIP3    H110407   2.904   4.151   3.298
 3488TIP3    H210408   3.040   4.153   3.232
 3489TIP3   OH210409   2.489   4.112   2.179
 3489TIP3    H110410   2.459   4.047   2.243
 3489TIP3    H210411   2.504   4.062   2.099
 3490TIP3   OH210412   2.471   3.747   2.944
 3490TIP3    H110413   2.381   3.725   2.971
 3490TIP3    H210414   2.505   3.667   2.906
 3491TIP3   OH210415   1.629   3.982   2.763
 3491TIP3    H110416   1.622   4.056   2.702
 3491TIP3    H210417   1.539   3.969   2.793
 3492TIP3   OH210418   1.186   3.267   2.483
 3492TIP3    H110419   1.229   3.349   2.505
 3492TIP3    H210420   1.106   3.268   2.536
 3493TIP3   OH210421   1.732   3.738   2.683
 3493TIP3    H110422   1.706   3.827   2.709
 3493TIP3    H210423   1.702   3.683   2.755
 3494TIP3   OH210424   1.906   4.301   3.215
 3494TIP3    H110425   1.943   4.370   3.160
 3494TIP3    H210426   1.980   4.269   3.266
 3495TIP3   OH210427   1.541   4.204   2.613
 3495TIP3    H110428   1.455   4.210   2.656
 3495TIP3    H210429   1.576   4.293   2.618
 3496TIP3   OH210430   2.256   3.967   3.184
 3496TIP3    H110431   2.249   3.965   3.280
 3496TIP3    H210432   2.310   3.891   3.163
 3497TIP3   OH210433   2.244   3.848   2.066
 3497TIP3    H110434   2.303   3.820   2.136
 3497TIP3    H210435   2.159   3.813   2.092
 3498TIP3   OH210436   2.524   4.457   3.234
 3498TIP3    H110437   2.450   4.399   3.255
 3498TIP3    H210438   2.490   4.515   3.166
 3499TIP3   OH210439   2.561   4.312   1.865
 3499TIP3    H110440   2.576   4.372   1.791
 3499TIP3    H210441   2.492   4.354   1.916
 3500TIP3   OH210442   1.593   3.091   3.729
 3500TIP3    H110443   1.498   3.098   3.735
 3500TIP3    H210444   1.618   3.039   3.805
 3501TIP3   OH210445   2.434   3.759   2.242
 3501TIP3    H110446   2.414   3.707   2.320
 3501TIP3    H210447   2.529   3.766   2.241
 3502TIP3   OH210448   1.596   3.816   2.068
 3502TIP3    H110449   1.610   3.724   2.046
 3502TIP3    H210450   1.576   3.816   2.161
 3503TIP3   OH210451   1.527   3.835   2.333
 3503TIP3    H110452   1.603   3.791   2.372
 3503TIP3    H210453   1.542   3.928   2.351
 3504TIP3   OH210454   1.279   3.519   2.558
 3504TIP3    H110455   1.218   3.571   2.610
 3504TIP3    H210456   1.300   3.575   2.483
 3505TIP3   OH210457   2.448   3.160   3.441
 3505TIP3    H110458   2.526   3.196   3.483
 3505TIP3    H210459   2.428   3.081   3.490
 3506TIP3   OH210460   2.330   2.907   2.611
 3506TIP3    H110461   2.306   2.939   2.524
 3506TIP3    H210462   2.377   2.980   2.652
 3507TIP3   OH210463   1.825   4.025   2.280
 3507TIP3    H110464   1.741   4.042   2.322
 3507TIP3    H210465   1.839   4.100   2.223
 3508TIP3   OH210466   2.281   3.387   3.482
 3508TIP3    H110467   2.306   3.426   3.565
 3508TIP3    H210468   2.332   3.306   3.477
 3509TIP3   OH210469   2.124   2.807   2.775
 3509TIP3    H110470   2.108   2.871   2.844
 3509TIP3    H210471   2.197   2.843   2.725
 3510TIP3   OH210472   1.573   4.104   2.360
 3510TIP3    H110473   1.551   4.176   2.301
 3510TIP3    H210474   1.560   4.140   2.448
 3511TIP3   OH210475   1.639   2.851   2.591
 3511TIP3    H110476   1.607   2.937   2.565
 3511TIP3    H210477   1.733   2.864   2.606
 3512TIP3   OH210478   2.898   3.275   3.457
 3512TIP3    H110479   2.808   3.298   3.481
 3512TIP3    H210480   2.888   3.208   3.389
 3513TIP3   OH210481   2.564   3.491   2.858
 3513TIP3    H110482   2.486   3.435   2.865
 3513TIP3    H210483   2.629   3.449   2.914
 3514TIP3   OH210484   1.289   3.696   2.336
 3514TIP3    H110485   1.357   3.762   2.344
 3514TIP3    H210486   1.327   3.629   2.279
 3515TIP3   OH210487   1.198   2.988   2.472
 3515TIP3    H110488   1.223   3.080   2.484
 3515TIP3    H210489   1.133   2.990   2.402
 3516TIP3   OH210490   2.540   4.464   2.800
 3516TIP3    H110491   2.496   4.516   2.733
 3516TIP3    H210492   2.634   4.478   2.784
 3517TIP3   OH210493   1.603   2.713   3.339
 3517TIP3    H110494   1.576   2.683   3.252
 3517TIP3    H210495   1.595   2.636   3.395
 3518TIP3   OH210496   1.122   3.975   2.719
 3518TIP3    H110497   1.073   4.018   2.790
 3518TIP3    H210498   1.092   4.019   2.640
 3519TIP3   OH210499   1.327   4.498   3.779
 3519TIP3    H110500   1.409   4.491   3.827
 3519TIP3    H210501   1.291   4.409   3.780
 3520TIP3   OH210502   1.795   4.405   3.845
 3520TIP3    H110503   1.887   4.380   3.852
 3520TIP3    H210504   1.761   4.354   3.771
 3521TIP3   OH210505   1.758   4.011   1.961
 3521TIP3    H110506   1.709   3.943   2.007
 3521TIP3    H210507   1.834   3.965   1.924
 3522TIP3   OH210508   2.408   4.355   3.605
 3522TIP3    H110509   2.429   4.281   3.663
 3522TIP3    H210510   2.477   4.419   3.622
 3523TIP3   OH210511   2.201   4.053   1.889
 3523TIP3    H110512   2.230   3.988   1.953
 3523TIP3    H210513   2.263   4.044   1.816
 3524TIP3   OH210514   1.443   3.885   4.010
 3524TIP3    H110515   1.468   3.793   4.020
 3524TIP3    H210516   1.359   3.882   3.964
 3525TIP3   OH210517   1.429   3.502   2.202
 3525TIP3    H110518   1.480   3.474   2.278
 3525TIP3    H210519   1.495   3.520   2.135
 3526TIP3   OH210520   2.051   3.983   3.766
 3526TIP3    H110521   2.004   4.005   3.685
 3526TIP3    H210522   2.086   3.895   3.749
 3527TIP3   OH210523   1.967   3.733   2.016
 3527TIP3    H110524   1.953   3.743   2.110
 3527TIP3    H210525   1.953   3.639   2.000
 3528TIP3   OH210526   2.545   4.042   3.407
 3528TIP3    H110527   2.611   4.060   3.339
 3528TIP3    H210528   2.471   4.098   3.384
 3529TIP3   OH210529   1.566   3.633   4.017
 3529TIP3    H110530   1.628   3.628   3.944
 3529TIP3    H210531   1.619   3.664   4.091
 3530TIP3   OH210532   1.603   3.436   2.414
 3530TIP3    H110533   1.601   3.417   2.508
 3530TIP3    H210534   1.651   3.362   2.376
 3531TIP3   OH210535   1.919   3.534   3.660
 3531TIP3    H110536   1.831   3.568   3.671
 3531TIP3    H210537   1.944   3.560   3.571
 3532TIP3   OH210538   1.718   3.233   2.265
 3532TIP3    H110539   1.705   3.257   2.173
 3532TIP3    H210540   1.812   3.243   2.279
 3533TIP3   OH210541   2.416   3.899   3.732
 3533TIP3    H110542   2.478   3.854   3.675
 3533TIP3    H210543   2.413   3.846   3.811
 3534TIP3   OH210544   2.524   3.548   1.934
 3534TIP3    H110545   2.514   3.510   1.846
 3534TIP3    H210546   2.499   3.640   1.923
 3535TIP3   OH210547   2.014   3.300   3.765
 3535TIP3    H110548   2.016   3.230   3.700
 3535TIP3    H210549   1.982   3.376   3.718
 3536TIP3   OH210550   2.021   3.104   3.559
 3536TIP3    H110551   2.050   3.140   3.476
 3536TIP3    H210552   1.931   3.077   3.544
 3537TIP3   OH210553   2.024   3.624   3.426
 3537TIP3    H110554   2.113   3.652   3.404
 3537TIP3    H210555   1.968   3.685   3.376
 3538TIP3   OH210556   2.628   3.568   3.812
 3538TIP3    H110557   2.652   3.477   3.827
 3538TIP3    H210558   2.712   3.614   3.802
 3539TIP3   OH210559   2.655   3.849   3.561
 3539TIP3    H110560   2.606   3.916   3.514
 3539TIP3    H210561   2.745   3.859   3.528
 3540TIP3   OH210562   1.902   3.384   4.010
 3540TIP3    H110563   1.831   3.322   4.028
 3540TIP3    H210564   1.929   3.363   3.920
 3541TIP3   OH210565   2.139   2.872   3.663
 3541TIP3    H110566   2.099   2.952   3.629
 3541TIP3    H210567   2.074   2.803   3.647
 3542TIP3   OH210568   2.270   3.341   3.865
 3542TIP3    H110569   2.260   3.327   3.960
 3542TIP3    H210570   2.184   3.319   3.829
 3543TIP3   OH210571   2.514   3.292   3.735
 3543TIP3    H110572   2.436   3.290   3.790
 3543TIP3    H210573   2.584   3.259   3.791
 3544TIP3   OH210574   2.754   3.253   3.876
 3544TIP3    H110575   2.768   3.159   3.883
 3544TIP3    H210576   2.751   3.284   3.966
 3545TIP3   OH210577   1.732   3.164   4.070
 3545TIP3    H110578   1.740   3.077   4.030
 3545TIP3    H210579   1.771   3.153   4.157
 3546TIP3   OH210580   2.204   2.846   3.928
 3546TIP3    H110581   2.273   2.781   3.923
 3546TIP3    H210582   2.176   2.859   3.837
 3547TIP3   OH210583   2.307   3.058   4.070
 3547TIP3    H110584   2.276   2.986   4.015
 3547TIP3    H210585   2.236   3.121   4.070
 3548TIP3   OH210586   1.562   4.313   2.176
 3548TIP3    H110587   1.649   4.292   2.144
 3548TIP3    H210588   1.521   4.362   2.105
 3549TIP3   OH210589   1.016   3.688   2.368
 3549TIP3    H110590   1.110   3.705   2.360
 3549TIP3    H210591   1.004   3.603   2.325
 3550TIP3   OH210592   0.927   4.275   2.811
 3550TIP3    H110593   0.866   4.213   2.770
 3550TIP3    H210594   0.974   4.222   2.876
 3551TIP3   OH210595   1.085   4.125   2.983
 3551TIP3    H110596   1.096   4.048   3.038
 3551TIP3    H210597   1.124   4.196   3.034
 3552TIP3   OH210598   2.811   4.516   2.791
 3552TIP3    H110599   2.826   4.546   2.881
 3552TIP3    H210600   2.861   4.577   2.737
 3553TIP3   OH210601   2.826   4.549   3.072
 3553TIP3    H110602   2.784   4.462   3.071
 3553TIP3    H210603   2.901   4.538   3.130
 3554TIP3   OH210604   2.895   4.258   3.642
 3554TIP3    H110605   2.836   4.266   3.717
 3554TIP3    H210606   2.837   4.257   3.566
 3555TIP3   OH210607   2.713   3.760   2.251
 3555TIP3    H110608   2.770   3.833   2.225
 3555TIP3    H210609   2.757   3.723   2.328
 3556TIP3   OH210610   2.837   3.617   2.456
 3556TIP3    H110611   2.768   3.581   2.510
 3556TIP3    H210612   2.900   3.654   2.518
 3557TIP3   OH210613   2.885   4.027   2.895
 3557TIP3    H110614   2.934   3.959   2.850
 3557TIP3    H210615   2.883   4.100   2.833
 3558TIP3   OH210616   2.696   4.302   3.085
 3558TIP3    H110617   2.627   4.349   3.133
 3558TIP3    H210618   2.650   4.264   3.010
 3559TIP3   OH210619   2.741   3.533   2.101
 3559TIP3    H110620   2.666   3.532   2.041
 3559TIP3    H210621   2.728   3.612   2.153
 3560TIP3   OH210622   2.605   3.180   2.033
 3560TIP3    H110623   2.551   3.212   1.961
 3560TIP3    H210624   2.599   3.084   2.027
 3561TIP3   OH210625   2.630   3.483   2.589
 3561TIP3    H110626   2.630   3.388   2.574
 3561TIP3    H210627   2.610   3.493   2.682
 3562TIP3   OH210628   1.244   3.559   3.371
 3562TIP3    H110629   1.234   3.527   3.282
 3562TIP3    H210630   1.338   3.554   3.388
 3563TIP3   OH210631   2.911   3.897   3.453
 3563TIP3    H110632   2.980   3.832   3.441
 3563TIP3    H210633   2.894   3.931   3.365
 3564TIP3   OH210634   3.102   3.694   3.449
 3564TIP3    H110635   3.024   3.646   3.478
 3564TIP3    H210636   3.176   3.641   3.478
 3565TIP3   OH210637   2.564   2.908   2.011
 3565TIP3    H110638   2.621   2.883   2.085
 3565TIP3    H210639   2.478   2.873   2.034
 3566TIP3   OH210640   2.624   3.206   2.481
 3566TIP3    H110641   2.669   3.122   2.492
 3566TIP3    H210642   2.663   3.244   2.403
 3567TIP3   OH210643   2.777   3.366   3.000
 3567TIP3    H110644   2.858   3.383   2.952
 3567TIP3    H210645   2.791   3.408   3.086
 3568TIP3   OH210646   2.850   3.522   3.223
 3568TIP3    H110647   2.776   3.548   3.278
 3568TIP3    H210648   2.879   3.603   3.180
 3569TIP3   OH210649   1.468   3.214   4.006
 3569TIP3    H110650   1.561   3.215   4.025
 3569TIP3    H210651   1.437   3.132   4.045
 3570TIP3   OH210652   3.286   3.132   3.749
 3570TIP3    H110653   3.362   3.076   3.735
 3570TIP3    H210654   3.275   3.178   3.666
 3571TIP3   OH210655   2.739   2.954   2.525
 3571TIP3    H110656   2.784   2.939   2.608
 3571TIP3    H210657   2.673   2.884   2.521
 3572TIP3   OH210658   1.445   2.941   3.371
 3572TIP3    H110659   1.499   2.862   3.369
 3572TIP3    H210660   1.505   3.011   3.347
 3573TIP3   OH210661   1.225   3.209   3.407
 3573TIP3    H110662   1.276   3.194   3.327
 3573TIP3    H210663   1.255   3.294   3.439
 3574TIP3   OH210664   3.166   3.246   3.523
 3574TIP3    H110665   3.079   3.273   3.553
 3574TIP3    H210666   3.154   3.157   3.491
 3575TIP3   OH210667   2.787   2.864   2.173
 3575TIP3    H110668   2.837   2.804   2.118
 3575TIP3    H210669   2.839   2.944   2.176
 3576TIP3   OH210670   1.215   2.699   2.917
 3576TIP3    H110671   1.131   2.692   2.961
 3576TIP3    H210672   1.200   2.760   2.846
 3577TIP3   OH210673   2.374   4.430   2.435
 3577TIP3    H110674   2.431   4.420   2.359
 3577TIP3    H210675   2.413   4.501   2.486
 3578TIP3   OH210676   1.441   2.759   3.742
 3578TIP3    H110677   1.390   2.757   3.824
 3578TIP3    H210678   1.387   2.810   3.682
 3579TIP3   OH210679   1.484   4.197   3.822
 3579TIP3    H110680   1.389   4.204   3.810
 3579TIP3    H210681   1.496   4.200   3.917
 3580TIP3   OH210682   1.676   4.269   3.363
 3580TIP3    H110683   1.627   4.344   3.330
 3580TIP3    H210684   1.762   4.275   3.320
 3581TIP3   OH210685   2.071   4.498   3.507
 3581TIP3    H110686   2.107   4.495   3.596
 3581TIP3    H210687   2.132   4.554   3.459
 3582TIP3   OH210688   2.257   4.659   3.382
 3582TIP3    H110689   2.313   4.616   3.319
 3582TIP3    H210690   2.315   4.719   3.429
 3583TIP3   OH210691   3.081   2.969   3.463
 3583TIP3    H110692   2.991   2.945   3.441
 3583TIP3    H210693   3.129   2.886   3.463
 3584TIP3   OH210694   1.319   4.479   3.361
 3584TIP3    H110695   1.241   4.533   3.362
 3584TIP3    H210696   1.342   4.467   3.454
 3585TIP3   OH210697   1.570   4.500   3.250
 3585TIP3    H110698   1.482   4.502   3.288
 3585TIP3    H210699   1.557   4.526   3.159
 3586TIP3   OH210700   1.987   4.502   3.043
 3586TIP3    H110701   1.914   4.515   2.982
 3586TIP3    H210702   1.995   4.586   3.090
 3587TIP3   OH210703   2.249   4.452   3.115
 3587TIP3    H110704   2.159   4.468   3.087
 3587TIP3    H210705   2.301   4.516   3.065
 3588TIP3   OH210706   2.451   4.617   3.012
 3588TIP3    H110707   2.448   4.706   2.976
 3588TIP3    H210708   2.479   4.562   2.939
 3589TIP3   OH210709   1.243   4.320   3.142
 3589TIP3    H110710   1.280   4.364   3.218
 3589TIP3    H210711   1.316   4.270   3.104
 3590TIP3   OH210712   1.441   4.183   3.012
 3590TIP3    H110713   1.455   4.092   3.040
 3590TIP3    H210714   1.529   4.221   3.009
 3591TIP3   OH210715   1.714   4.259   3.015
 3591TIP3    H110716   1.733   4.168   2.996
 3591TIP3    H210717   1.769   4.281   3.090
 3592TIP3   OH210718   2.306   2.911   3.124
 3592TIP3    H110719   2.251   2.841   3.157
 3592TIP3    H210720   2.366   2.868   3.063
 3593TIP3   OH210721   2.782   2.827   2.982
 3593TIP3    H110722   2.816   2.879   2.909
 3593TIP3    H210723   2.688   2.845   2.983
 3594TIP3   OH210724   2.898   2.903   2.745
 3594TIP3    H110725   2.968   2.842   2.722
 3594TIP3    H210726   2.937   2.990   2.733
 3595TIP3   OH210727   1.521   2.612   3.094
 3595TIP3    H110728   1.432   2.578   3.105
 3595TIP3    H210729   1.575   2.533   3.087
 3596TIP3   OH210730   1.340   2.512   2.748
 3596TIP3    H110731   1.372   2.565   2.674
 3596TIP3    H210732   1.304   2.575   2.809
 3597TIP3   OH210733   1.997   2.649   2.988
 3597TIP3    H110734   2.022   2.707   2.916
 3597TIP3    H210735   2.034   2.690   3.066
 3598TIP3   OH210736   2.499   2.784   2.970
 3598TIP3    H110737   2.501   2.746   2.883
 3598TIP3    H210738   2.507   2.709   3.029
 3599TIP3   OH210739   2.548   2.747   2.537
 3599TIP3    H110740   2.469   2.796   2.559
 3599TIP3    H210741   2.536   2.662   2.578
 3600TIP3   OH210742   1.030   4.099   2.490
 3600TIP3    H110743   0.946   4.061   2.462
 3600TIP3    H210744   1.023   4.191   2.464
 3601TIP3   OH210745   1.452   2.653   2.523
 3601TIP3    H110746   1.503   2.598   2.464
 3601TIP3    H210747   1.514   2.719   2.555
 3602TIP3   OH210748   1.909   2.909   2.600
 3602TIP3    H110749   1.973   2.885   2.666
 3602TIP3    H210750   1.906   3.005   2.602
 3603TIP3   OH210751   1.814   4.239   2.099
 3603TIP3    H110752   1.899   4.266   2.063
 3603TIP3    H210753   1.787   4.165   2.045
 3604TIP3   OH210754   2.525   4.382   2.206
 3604TIP3    H110755   2.517   4.287   2.201
 3604TIP3    H210756   2.479   4.414   2.129
 3605TIP3   OH210757   1.747   2.894   3.976
 3605TIP3    H110758   1.713   2.828   4.037
 3605TIP3    H210759   1.840   2.903   3.999
 3606TIP3   OH210760   1.993   2.898   4.102
 3606TIP3    H110761   2.069   2.878   4.048
 3606TIP3    H210762   1.991   2.828   4.168
 3607TIP3   OH210763   1.120   4.075   2.172
 3607TIP3    H110764   1.124   4.089   2.267
 3607TIP3    H210765   1.204   4.035   2.150
 3608TIP3   OH210766   2.812   2.980   3.884
 3608TIP3    H110767   2.829   2.952   3.974
 3608TIP3    H210768   2.898   2.977   3.842
 3609TIP3   OH210769   2.735   4.507   3.412
 3609TIP3    H110770   2.664   4.478   3.354
 3609TIP3    H210771   2.729   4.602   3.411
 3610TIP3   OH210772   4.016   3.909   2.132
 3610TIP3    H110773   3.984   3.996   2.106
 3610TIP3    H210774   3.945   3.850   2.108
 3611TIP3   OH210775   4.013   3.900   2.562
 3611TIP3    H110776   4.066   3.881   2.639
 3611TIP3    H210777   3.968   3.818   2.543
 3612TIP3   OH210778   3.310   3.759   2.907
 3612TIP3    H110779   3.349   3.706   2.976
 3612TIP3    H210780   3.383   3.783   2.850
 3613TIP3   OH210781   4.280   4.207   2.234
 3613TIP3    H110782   4.269   4.141   2.302
 3613TIP3    H210783   4.301   4.287   2.283
 3614TIP3   OH210784   3.307   4.190   2.590
 3614TIP3    H110785   3.288   4.097   2.597
 3614TIP3    H210786   3.402   4.194   2.580
 3615TIP3   OH210787   2.985   3.393   2.371
 3615TIP3    H110788   2.947   3.476   2.397
 3615TIP3    H210789   2.912   3.343   2.333
 3616TIP3   OH210790   3.066   3.704   2.599
 3616TIP3    H110791   3.116   3.626   2.624
 3616TIP3    H210792   3.132   3.767   2.570
 3617TIP3   OH210793   3.938   4.639   2.243
 3617TIP3    H110794   3.965   4.575   2.176
 3617TIP3    H210795   3.936   4.588   2.324
 3618TIP3   OH210796   3.821   4.121   2.562
 3618TIP3    H110797   3.866   4.041   2.536
 3618TIP3    H210798   3.890   4.179   2.594
 3619TIP3   OH210799   4.852   3.441   2.583
 3619TIP3    H110800   4.869   3.524   2.627
 3619TIP3    H210801   4.871   3.459   2.490
 3620TIP3   OH210802   4.224   3.609   2.598
 3620TIP3    H110803   4.256   3.524   2.627
 3620TIP3    H210804   4.188   3.593   2.511
 3621TIP3   OH210805   3.581   3.266   2.555
 3621TIP3    H110806   3.559   3.340   2.498
 3621TIP3    H210807   3.525   3.195   2.525
 3622TIP3   OH210808   4.279   3.368   2.194
 3622TIP3    H110809   4.342   3.362   2.266
 3622TIP3    H210810   4.329   3.404   2.121
 3623TIP3   OH210811   3.207   3.482   2.688
 3623TIP3    H110812   3.290   3.463   2.731
 3623TIP3    H210813   3.209   3.431   2.607
 3624TIP3   OH210814   3.623   3.682   2.505
 3624TIP3    H110815   3.717   3.667   2.512
 3624TIP3    H210816   3.588   3.600   2.471
 3625TIP3   OH210817   4.907   3.664   2.741
 3625TIP3    H110818   4.816   3.695   2.739
 3625TIP3    H210819   4.942   3.697   2.824
 3626TIP3   OH210820   3.558   3.273   3.014
 3626TIP3    H110821   3.508   3.309   2.941
 3626TIP3    H210822   3.502   3.288   3.090
 3627TIP3   OH210823   3.912   4.127   1.995
 3627TIP3    H110824   3.872   4.096   1.914
 3627TIP3    H210825   3.858   4.202   2.022
 3628TIP3   OH210826   3.653   4.047   2.771
 3628TIP3    H110827   3.601   4.119   2.805
 3628TIP3    H210828   3.703   4.085   2.699
 3629TIP3   OH210829   4.437   3.390   2.416
 3629TIP3    H110830   4.392   3.369   2.498
 3629TIP3    H210831   4.491   3.466   2.437
 3630TIP3   OH210832   3.455   3.377   2.778
 3630TIP3    H110833   3.510   3.452   2.801
 3630TIP3    H210834   3.502   3.334   2.706
 3631TIP3   OH210835   3.501   4.251   2.879
 3631TIP3    H110836   3.485   4.339   2.846
 3631TIP3    H210837   3.425   4.232   2.934
 3632TIP3   OH210838   2.880   3.956   2.135
 3632TIP3    H110839   2.841   3.975   2.050
 3632TIP3    H210840   2.902   4.042   2.171
 3633TIP3   OH210841   4.314   4.456   2.371
 3633TIP3    H110842   4.227   4.449   2.411
 3633TIP3    H210843   4.313   4.539   2.325
 3634TIP3   OH210844   4.651   3.330   2.749
 3634TIP3    H110845   4.566   3.355   2.711
 3634TIP3    H210846   4.715   3.358   2.684
 3635TIP3   OH210847   3.903   2.963   2.745
 3635TIP3    H110848   3.895   2.872   2.770
 3635TIP3    H210849   3.826   3.006   2.783
 3636TIP3   OH210850   4.024   4.489   2.025
 3636TIP3    H110851   4.076   4.409   2.016
 3636TIP3    H210852   4.083   4.559   1.997
 3637TIP3   OH210853   4.161   4.256   1.990
 3637TIP3    H110854   4.087   4.195   1.988
 3637TIP3    H210855   4.211   4.232   2.068
 3638TIP3   OH210856   4.546   4.348   2.711
 3638TIP3    H110857   4.530   4.271   2.657
 3638TIP3    H210858   4.534   4.422   2.653
 3639TIP3   OH210859   3.841   3.746   1.988
 3639TIP3    H110860   3.757   3.789   1.969
 3639TIP3    H210861   3.886   3.746   1.904
 3640TIP3   OH210862   3.805   3.558   1.677
 3640TIP3    H110863   3.872   3.605   1.727
 3640TIP3    H210864   3.854   3.490   1.630
 3641TIP3   OH210865   4.730   4.004   2.583
 3641TIP3    H110866   4.646   4.049   2.583
 3641TIP3    H210867   4.765   4.016   2.495
 3642TIP3   OH210868   4.201   3.836   1.944
 3642TIP3    H110869   4.147   3.865   2.017
 3642TIP3    H210870   4.284   3.811   1.985
 3643TIP3   OH210871   4.429   3.867   2.894
 3643TIP3    H110872   4.426   3.950   2.941
 3643TIP3    H210873   4.347   3.863   2.845
 3644TIP3   OH210874   3.426   3.815   2.351
 3644TIP3    H110875   3.389   3.754   2.287
 3644TIP3    H210876   3.498   3.767   2.392
 3645TIP3   OH210877   3.569   4.239   2.491
 3645TIP3    H110878   3.544   4.224   2.400
 3645TIP3    H210879   3.655   4.199   2.499
 3646TIP3   OH210880   3.522   3.810   2.729
 3646TIP3    H110881   3.560   3.773   2.650
 3646TIP3    H210882   3.570   3.891   2.744
 3647TIP3   OH210883   4.078   4.451   2.507
 3647TIP3    H110884   4.065   4.530   2.560
 3647TIP3    H210885   4.063   4.379   2.568
 3648TIP3   OH210886   3.700   4.347   3.045
 3648TIP3    H110887   3.641   4.406   3.091
 3648TIP3    H210888   3.644   4.296   2.987
 3649TIP3   OH210889   4.030   3.696   1.779
 3649TIP3    H110890   4.090   3.754   1.826
 3649TIP3    H210891   4.060   3.699   1.688
 3650TIP3   OH210892   3.447   3.888   3.188
 3650TIP3    H110893   3.451   3.983   3.199
 3650TIP3    H210894   3.354   3.868   3.179
 3651TIP3   OH210895   3.777   4.367   2.035
 3651TIP3    H110896   3.858   4.417   2.039
 3651TIP3    H210897   3.716   4.423   1.987
 3652TIP3   OH210898   3.494   4.513   3.124
 3652TIP3    H110899   3.474   4.523   3.031
 3652TIP3    H210900   3.409   4.501   3.167
 3653TIP3   OH210901   4.539   2.923   1.838
 3653TIP3    H110902   4.463   2.943   1.893
 3653TIP3    H210903   4.549   2.999   1.781
 3654TIP3   OH210904   3.299   3.656   2.152
 3654TIP3    H110905   3.221   3.704   2.122
 3654TIP3    H210906   3.267   3.568   2.171
 3655TIP3   OH210907   4.367   4.297   1.394
 3655TIP3    H110908   4.358   4.391   1.374
 3655TIP3    H210909   4.455   4.274   1.366
 3656TIP3   OH210910   3.089   4.062   3.087
 3656TIP3    H110911   3.019   4.047   3.023
 3656TIP3    H210912   3.119   3.974   3.110
 3657TIP3   OH210913   2.922   4.263   2.742
 3657TIP3    H110914   3.013   4.289   2.761
 3657TIP3    H210915   2.870   4.340   2.765
 3658TIP3   OH210916   4.779   4.694   2.788
 3658TIP3    H110917   4.787   4.600   2.801
 3658TIP3    H210918   4.700   4.718   2.836
 3659TIP3   OH210919   3.888   4.494   2.909
 3659TIP3    H110920   3.877   4.584   2.940
 3659TIP3    H210921   3.822   4.444   2.957
 3660TIP3   OH210922   3.667   4.590   1.863
 3660TIP3    H110923   3.620   4.569   1.783
 3660TIP3    H210924   3.628   4.672   1.893
 3661TIP3   OH210925   3.102   4.446   2.242
 3661TIP3    H110926   3.145   4.437   2.327
 3661TIP3    H210927   3.051   4.365   2.233
 3662TIP3   OH210928   3.869   4.524   1.491
 3662TIP3    H110929   3.919   4.450   1.456
 3662TIP3    H210930   3.904   4.537   1.579
 3663TIP3   OH210931   3.921   4.567   1.761
 3663TIP3    H110932   3.834   4.570   1.801
 3663TIP3    H210933   3.977   4.529   1.829
 3664TIP3   OH210934   4.673   3.816   3.048
 3664TIP3    H110935   4.588   3.826   3.004
 3664TIP3    H210936   4.690   3.722   3.047
 3665TIP3   OH210937   3.290   4.247   3.056
 3665TIP3    H110938   3.337   4.234   3.138
 3665TIP3    H210939   3.218   4.185   3.060
 3666TIP3   OH210940   3.665   3.057   2.869
 3666TIP3    H110941   3.582   3.023   2.837
 3666TIP3    H210942   3.642   3.137   2.917
 3667TIP3   OH210943   4.209   3.174   3.069
 3667TIP3    H110944   4.279   3.153   3.130
 3667TIP3    H210945   4.129   3.161   3.119
 3668TIP3   OH210946   4.427   3.601   2.980
 3668TIP3    H110947   4.386   3.594   3.066
 3668TIP3    H210948   4.412   3.692   2.954
 3669TIP3   OH210949   4.111   3.668   1.517
 3669TIP3    H110950   4.063   3.674   1.435
 3669TIP3    H210951   4.192   3.718   1.501
 3670TIP3   OH210952   3.820   3.094   1.836
 3670TIP3    H110953   3.782   3.102   1.924
 3670TIP3    H210954   3.782   3.014   1.801
 3671TIP3   OH210955   3.607   3.588   2.875
 3671TIP3    H110956   3.561   3.593   2.959
 3671TIP3    H210957   3.584   3.670   2.831
 3672TIP3   OH210958   3.484   3.468   2.396
 3672TIP3    H110959   3.395   3.444   2.421
 3672TIP3    H210960   3.493   3.435   2.306
 3673TIP3   OH210961   3.963   3.541   2.124
 3673TIP3    H110962   3.916   3.615   2.084
 3673TIP3    H210963   4.021   3.509   2.055
 3674TIP3   OH210964   4.150   3.806   3.198
 3674TIP3    H110965   4.123   3.738   3.260
 3674TIP3    H210966   4.243   3.821   3.217
 3675TIP3   OH210967   4.133   3.555   2.345
 3675TIP3    H110968   4.064   3.575   2.282
 3675TIP3    H210969   4.180   3.482   2.307
 3676TIP3   OH210970   3.444   3.600   3.096
 3676TIP3    H110971   3.462   3.663   3.167
 3676TIP3    H210972   3.422   3.519   3.142
 3677TIP3   OH210973   3.484   3.077   1.812
 3677TIP3    H110974   3.475   3.082   1.908
 3677TIP3    H210975   3.406   3.121   1.779
 3678TIP3   OH210976   3.034   3.124   2.672
 3678TIP3    H110977   3.106   3.158   2.724
 3678TIP3    H210978   3.073   3.104   2.587
 3679TIP3   OH210979   2.936   3.099   2.179
 3679TIP3    H110980   2.980   3.134   2.102
 3679TIP3    H210981   2.873   3.166   2.204
 3680TIP3   OH210982   4.177   3.810   2.774
 3680TIP3    H110983   4.201   3.743   2.710
 3680TIP3    H210984   4.135   3.761   2.845
 3681TIP3   OH210985   3.848   3.255   2.446
 3681TIP3    H110986   3.770   3.255   2.501
 3681TIP3    H210987   3.921   3.246   2.508
 3682TIP3   OH210988   3.244   3.344   2.454
 3682TIP3    H110989   3.156   3.348   2.417
 3682TIP3    H210990   3.272   3.253   2.439
 3683TIP3   OH210991   3.497   3.344   2.151
 3683TIP3    H110992   3.592   3.355   2.140
 3683TIP3    H210993   3.462   3.362   2.064
 3684TIP3   OH210994   4.292   3.345   2.651
 3684TIP3    H110995   4.278   3.361   2.745
 3684TIP3    H210996   4.222   3.285   2.626
 3685TIP3   OH210997   3.386   3.367   1.902
 3685TIP3    H110998   3.323   3.318   1.849
 3685TIP3    H210999   3.439   3.414   1.837
 3686TIP3   OH211000   4.482   5.027   2.859
 3686TIP3    H111001   4.474   5.024   2.764
 3686TIP3    H211002   4.560   5.081   2.875
 3687TIP3   OH211003   3.434   4.159   3.288
 3687TIP3    H111004   3.515   4.192   3.326
 3687TIP3    H211005   3.396   4.105   3.358
 3688TIP3   OH211006   3.896   3.631   2.555
 3688TIP3    H111007   3.963   3.581   2.508
 3688TIP3    H211008   3.894   3.592   2.642
 3689TIP3   OH211009   3.386   3.094   2.441
 3689TIP3    H111010   3.359   3.019   2.493
 3689TIP3    H211011   3.406   3.057   2.354
 3690TIP3   OH211012   3.874   3.535   2.818
 3690TIP3    H111013   3.787   3.566   2.844
 3690TIP3    H211014   3.934   3.584   2.874
 3691TIP3   OH211015   3.602   3.879   1.932
 3691TIP3    H111016   3.527   3.825   1.907
 3691TIP3    H211017   3.575   3.922   2.013
 3692TIP3   OH211018   4.494   4.140   2.538
 3692TIP3    H111019   4.530   4.188   2.463
 3692TIP3    H211020   4.415   4.098   2.504
 3693TIP3   OH211021   4.072   3.200   1.840
 3693TIP3    H111022   3.979   3.177   1.836
 3693TIP3    H211023   4.072   3.294   1.852
 3694TIP3   OH211024   4.019   4.223   2.952
 3694TIP3    H111025   4.070   4.206   3.032
 3694TIP3    H211026   3.979   4.308   2.968
 3695TIP3   OH211027   4.127   3.465   1.908
 3695TIP3    H111028   4.222   3.470   1.920
 3695TIP3    H211029   4.105   3.543   1.857
 3696TIP3   OH211030   3.295   3.902   2.580
 3696TIP3    H111031   3.333   3.882   2.494
 3696TIP3    H211032   3.361   3.871   2.642
 3697TIP3   OH211033   3.755   4.043   1.777
 3697TIP3    H111034   3.707   4.126   1.774
 3697TIP3    H211035   3.699   3.985   1.829
 3698TIP3   OH211036   3.172   3.821   3.213
 3698TIP3    H111037   3.167   3.783   3.301
 3698TIP3    H211038   3.099   3.781   3.166
 3699TIP3   OH211039   3.920   3.964   3.230
 3699TIP3    H111040   3.851   3.902   3.207
 3699TIP3    H211041   4.002   3.921   3.205
 3700TIP3   OH211042   4.157   4.516   2.834
 3700TIP3    H111043   4.063   4.499   2.839
 3700TIP3    H211044   4.180   4.548   2.921
 3701TIP3   OH211045   4.542   3.549   1.722
 3701TIP3    H111046   4.488   3.502   1.658
 3701TIP3    H211047   4.545   3.639   1.689
 3702TIP3   OH211048   4.792   4.413   2.808
 3702TIP3    H111049   4.698   4.403   2.796
 3702TIP3    H211050   4.830   4.388   2.723
 3703TIP3   OH211051   4.285   4.368   1.660
 3703TIP3    H111052   4.255   4.299   1.719
 3703TIP3    H211053   4.303   4.322   1.578
 3704TIP3   OH211054   4.265   4.004   2.434
 3704TIP3    H111055   4.176   3.982   2.461
 3704TIP3    H211056   4.300   3.923   2.396
 3705TIP3   OH211057   3.419   4.241   2.251
 3705TIP3    H111058   3.415   4.316   2.192
 3705TIP3    H211059   3.330   4.232   2.285
 3706TIP3   OH211060   2.980   3.525   1.965
 3706TIP3    H111061   3.022   3.608   1.987
 3706TIP3    H211062   2.898   3.525   2.015
 3707TIP3   OH211063   3.503   3.997   2.153
 3707TIP3    H111064   3.485   4.086   2.184
 3707TIP3    H211065   3.477   3.940   2.227
 3708TIP3   OH211066   3.705   4.560   2.702
 3708TIP3    H111067   3.742   4.630   2.648
 3708TIP3    H211068   3.778   4.528   2.754
 3709TIP3   OH211069   3.337   4.462   2.099
 3709TIP3    H111070   3.249   4.468   2.138
 3709TIP3    H211071   3.372   4.551   2.104
 3710TIP3   OH211072   4.052   4.229   2.678
 3710TIP3    H111073   4.040   4.225   2.773
 3710TIP3    H211074   4.127   4.171   2.660
 3711TIP3   OH211075   4.050   4.105   1.541
 3711TIP3    H111076   4.100   4.076   1.618
 3711TIP3    H211077   3.966   4.060   1.550
 3712TIP3   OH211078   4.312   4.716   2.716
 3712TIP3    H111079   4.246   4.652   2.740
 3712TIP3    H211080   4.272   4.768   2.646
 3713TIP3   OH211081   4.355   4.570   1.349
 3713TIP3    H111082   4.360   4.624   1.270
 3713TIP3    H211083   4.288   4.611   1.403
 3714TIP3   OH211084   3.378   3.356   3.220
 3714TIP3    H111085   3.284   3.367   3.229
 3714TIP3    H211086   3.404   3.306   3.298
 3715TIP3   OH211087   4.226   4.016   1.733
 3715TIP3    H111088   4.209   3.964   1.812
 3715TIP3    H211089   4.321   4.025   1.729
 3716TIP3   OH211090   3.132   4.462   2.864
 3716TIP3    H111091   3.189   4.405   2.916
 3716TIP3    H211092   3.146   4.550   2.900
 3717TIP3   OH211093   3.400   4.068   1.560
 3717TIP3    H111094   3.410   3.977   1.534
 3717TIP3    H211095   3.385   4.065   1.655
 3718TIP3   OH211096   3.340   4.087   1.832
 3718TIP3    H111097   3.400   4.061   1.901
 3718TIP3    H211098   3.338   4.182   1.836
 3719TIP3   OH211099   3.073   3.777   2.043
 3719TIP3    H111100   3.009   3.826   2.094
 3719TIP3    H211101   3.092   3.834   1.968
 3720TIP3   OH211102   4.243   3.401   2.914
 3720TIP3    H111103   4.316   3.451   2.951
 3720TIP3    H211104   4.233   3.327   2.974
 3721TIP3   OH211105   4.131   3.150   2.108
 3721TIP3    H111106   4.109   3.168   2.017
 3721TIP3    H211107   4.174   3.229   2.140
 3722TIP3   OH211108   3.611   4.272   1.770
 3722TIP3    H111109   3.526   4.296   1.807
 3722TIP3    H211110   3.634   4.346   1.713
 3723TIP3   OH211111   3.777   3.350   2.195
 3723TIP3    H111112   3.839   3.419   2.169
 3723TIP3    H211113   3.800   3.329   2.285
 3724TIP3   OH211114   4.080   3.645   2.974
 3724TIP3    H111115   4.102   3.690   3.055
 3724TIP3    H211116   4.129   3.563   2.978
 3725TIP3   OH211117   3.942   3.045   2.283
 3725TIP3    H111118   3.918   3.122   2.334
 3725TIP3    H211119   4.012   3.076   2.225
 3726TIP3   OH211120   3.361   4.360   1.846
 3726TIP3    H111121   3.342   4.432   1.786
 3726TIP3    H211122   3.350   4.397   1.933
 3727TIP3   OH211123   3.455   3.071   2.092
 3727TIP3    H111124   3.443   3.162   2.120
 3727TIP3    H211125   3.549   3.056   2.098
 3728TIP3   OH211126   4.688   3.537   2.950
 3728TIP3    H111127   4.595   3.552   2.966
 3728TIP3    H211128   4.690   3.469   2.882
 3729TIP3   OH211129   4.356   3.746   2.345
 3729TIP3    H111130   4.279   3.691   2.357
 3729TIP3    H211131   4.423   3.707   2.401
 3730TIP3   OH211132   3.096   3.952   1.825
 3730TIP3    H111133   3.167   4.016   1.833
 3730TIP3    H211134   3.128   3.889   1.760
 3731TIP3   OH211135   2.998   3.246   1.956
 3731TIP3    H111136   3.014   3.340   1.966
 3731TIP3    H211137   2.926   3.241   1.892
 3732TIP3   OH211138   4.339   4.723   2.289
 3732TIP3    H111139   4.298   4.775   2.220
 3732TIP3    H211140   4.433   4.733   2.274
 3733TIP3   OH211141   3.406   2.968   2.825
 3733TIP3    H111142   3.376   2.935   2.740
 3733TIP3    H211143   3.398   2.893   2.884
 3734TIP3   OH211144   2.925   4.226   2.216
 3734TIP3    H111145   2.880   4.261   2.293
 3734TIP3    H211146   2.881   4.268   2.141
 3735TIP3   OH211147   3.135   4.764   3.284
 3735TIP3    H111148   3.216   4.773   3.336
 3735TIP3    H211149   3.130   4.670   3.265
 3736TIP3   OH211150   3.596   4.669   3.329
 3736TIP3    H111151   3.687   4.640   3.340
 3736TIP3    H211152   3.564   4.619   3.254
 3737TIP3   OH211153   3.553   4.270   1.449
 3737TIP3    H111154   3.506   4.200   1.494
 3737TIP3    H211155   3.627   4.226   1.408
 3738TIP3   OH211156   4.216   4.609   3.085
 3738TIP3    H111157   4.228   4.538   3.147
 3738TIP3    H211158   4.289   4.668   3.100
 3739TIP3   OH211159   3.996   4.313   1.372
 3739TIP3    H111160   4.030   4.248   1.433
 3739TIP3    H211161   4.053   4.306   1.295
 3740TIP3   OH211162   3.163   4.189   3.523
 3740TIP3    H111163   3.230   4.121   3.521
 3740TIP3    H211164   3.112   4.175   3.443
 3741TIP3   OH211165   3.221   3.763   1.671
 3741TIP3    H111166   3.271   3.739   1.749
 3741TIP3    H211167   3.287   3.777   1.603
 3742TIP3   OH211168   3.856   4.241   3.247
 3742TIP3    H111169   3.811   4.260   3.165
 3742TIP3    H211170   3.890   4.152   3.235
 3743TIP3   OH211171   3.798   3.985   1.512
 3743TIP3    H111172   3.773   3.996   1.604
 3743TIP3    H211173   3.777   3.893   1.492
 3744TIP3   OH211174   4.328   4.291   2.871
 3744TIP3    H111175   4.405   4.318   2.820
 3744TIP3    H211176   4.263   4.358   2.853
 3745TIP3   OH211177   3.350   3.982   3.482
 3745TIP3    H111178   3.385   3.904   3.438
 3745TIP3    H211179   3.378   3.973   3.573
 3746TIP3   OH211180   3.391   3.705   1.885
 3746TIP3    H111181   3.370   3.675   1.973
 3746TIP3    H211182   3.439   3.632   1.846
 3747TIP3   OH211183   3.709   3.787   3.142
 3747TIP3    H111184   3.623   3.827   3.152
 3747TIP3    H211185   3.739   3.816   3.055
 3748TIP3   OH211186   3.534   3.522   1.731
 3748TIP3    H111187   3.504   3.526   1.640
 3748TIP3    H211188   3.629   3.532   1.725
 3749TIP3   OH211189   4.208   4.162   3.214
 3749TIP3    H111190   4.281   4.125   3.164
 3749TIP3    H211191   4.206   4.111   3.294
 3750TIP3   OH211192   4.327   3.808   1.410
 3750TIP3    H111193   4.313   3.769   1.324
 3750TIP3    H211194   4.304   3.901   1.398
 3751TIP3   OH211195   3.814   3.556   3.248
 3751TIP3    H111196   3.816   3.485   3.184
 3751TIP3    H211197   3.779   3.631   3.200
 3752TIP3   OH211198   3.820   3.357   3.045
 3752TIP3    H111199   3.846   3.393   2.961
 3752TIP3    H211200   3.728   3.331   3.033
 3753TIP3   OH211201   3.821   3.882   2.914
 3753TIP3    H111202   3.910   3.915   2.904
 3753TIP3    H211203   3.767   3.943   2.864
 3754TIP3   OH211204   4.411   3.838   3.298
 3754TIP3    H111205   4.434   3.775   3.366
 3754TIP3    H211206   4.494   3.876   3.270
 3755TIP3   OH211207   4.451   4.111   3.034
 3755TIP3    H111208   4.398   4.174   2.984
 3755TIP3    H211209   4.541   4.126   3.003
 3756TIP3   OH211210   3.697   3.640   3.490
 3756TIP3    H111211   3.634   3.573   3.513
 3756TIP3    H211212   3.729   3.615   3.404
 3757TIP3   OH211213   3.942   3.125   3.147
 3757TIP3    H111214   3.902   3.206   3.116
 3757TIP3    H211215   3.874   3.058   3.136
 3758TIP3   OH211216   4.068   3.597   3.354
 3758TIP3    H111217   4.058   3.583   3.448
 3758TIP3    H211218   3.982   3.576   3.317
 3759TIP3   OH211219   4.302   3.537   3.209
 3759TIP3    H111220   4.231   3.542   3.272
 3759TIP3    H211221   4.380   3.519   3.263
 3760TIP3   OH211222   4.554   3.505   3.336
 3760TIP3    H111223   4.566   3.414   3.364
 3760TIP3    H211224   4.535   3.553   3.416
 3761TIP3   OH211225   3.543   3.415   3.556
 3761TIP3    H111226   3.544   3.327   3.517
 3761TIP3    H211227   3.585   3.404   3.641
 3762TIP3   OH211228   4.013   3.102   3.412
 3762TIP3    H111229   4.082   3.036   3.405
 3762TIP3    H211230   3.981   3.113   3.323
 3763TIP3   OH211231   4.109   3.322   3.550
 3763TIP3    H111232   4.076   3.248   3.498
 3763TIP3    H211233   4.035   3.383   3.554
 3764TIP3   OH211234   3.362   4.572   1.666
 3764TIP3    H111235   3.450   4.549   1.637
 3764TIP3    H211236   3.322   4.615   1.591
 3765TIP3   OH211237   2.822   3.954   1.840
 3765TIP3    H111238   2.917   3.965   1.839
 3765TIP3    H211239   2.807   3.868   1.803
 3766TIP3   OH211240   2.728   4.536   2.304
 3766TIP3    H111241   2.664   4.483   2.258
 3766TIP3    H211242   2.772   4.475   2.363
 3767TIP3   OH211243   2.871   4.366   2.470
 3767TIP3    H111244   2.861   4.297   2.535
 3767TIP3    H211245   2.924   4.433   2.514
 3768TIP3   OH211246   4.613   4.768   2.279
 3768TIP3    H111247   4.638   4.795   2.368
 3768TIP3    H211248   4.675   4.813   2.222
 3769TIP3   OH211249   4.638   4.798   2.562
 3769TIP3    H111250   4.588   4.717   2.552
 3769TIP3    H211251   4.704   4.778   2.628
 3770TIP3   OH211252   4.686   4.514   3.133
 3770TIP3    H111253   4.615   4.518   3.197
 3770TIP3    H211254   4.728   4.599   3.138
 3771TIP3   OH211255   4.506   4.018   1.740
 3771TIP3    H111256   4.562   4.090   1.711
 3771TIP3    H211257   4.551   3.981   1.816
 3772TIP3   OH211258   4.635   3.875   1.942
 3772TIP3    H111259   4.568   3.839   1.999
 3772TIP3    H211260   4.700   3.913   2.002
 3773TIP3   OH211261   4.676   4.277   2.375
 3773TIP3    H111262   4.728   4.207   2.337
 3773TIP3    H211263   4.679   4.347   2.311
 3774TIP3   OH211264   4.486   4.568   2.558
 3774TIP3    H111265   4.420   4.611   2.612
 3774TIP3    H211266   4.437   4.526   2.488
 3775TIP3   OH211267   4.534   3.790   1.589
 3775TIP3    H111268   4.462   3.791   1.526
 3775TIP3    H211269   4.521   3.869   1.642
 3776TIP3   OH211270   4.399   3.434   1.517
 3776TIP3    H111271   4.349   3.474   1.446
 3776TIP3    H211272   4.389   3.339   1.504
 3777TIP3   OH211273   4.429   3.738   2.077
 3777TIP3    H111274   4.432   3.644   2.063
 3777TIP3    H211275   4.408   3.749   2.170
 3778TIP3   OH211276   3.047   3.803   2.852
 3778TIP3    H111277   3.037   3.770   2.763
 3778TIP3    H211278   3.141   3.797   2.869
 3779TIP3   OH211279   4.710   4.160   2.944
 3779TIP3    H111280   4.774   4.090   2.928
 3779TIP3    H211281   4.735   4.229   2.883
 3780TIP3   OH211282   4.883   3.946   2.929
 3780TIP3    H111283   4.809   3.902   2.971
 3780TIP3    H211284   4.959   3.891   2.949
 3781TIP3   OH211285   4.357   3.160   1.488
 3781TIP3    H111286   4.418   3.141   1.560
 3781TIP3    H211287   4.272   3.129   1.520
 3782TIP3   OH211288   4.419   3.460   1.964
 3782TIP3    H111289   4.464   3.377   1.976
 3782TIP3    H211290   4.460   3.498   1.886
 3783TIP3   OH211291   4.571   3.624   2.487
 3783TIP3    H111292   4.652   3.641   2.439
 3783TIP3    H211293   4.584   3.665   2.572
 3784TIP3   OH211294   4.645   3.774   2.713
 3784TIP3    H111295   4.574   3.802   2.771
 3784TIP3    H211296   4.676   3.855   2.673
 3785TIP3   OH211297   3.288   3.513   3.541
 3785TIP3    H111298   3.381   3.490   3.545
 3785TIP3    H211299   3.242   3.429   3.548
 3786TIP3   OH211300   5.098   3.383   3.252
 3786TIP3    H111301   5.166   3.323   3.222
 3786TIP3    H211302   5.068   3.428   3.173
 3787TIP3   OH211303   4.536   3.211   2.014
 3787TIP3    H111304   4.582   3.197   2.097
 3787TIP3    H211305   4.473   3.139   2.008
 3788TIP3   OH211306   3.244   3.194   2.839
 3788TIP3    H111307   3.297   3.114   2.847
 3788TIP3    H211308   3.308   3.263   2.822
 3789TIP3   OH211309   3.023   3.453   2.903
 3789TIP3    H111310   3.073   3.443   2.822
 3789TIP3    H211311   3.053   3.537   2.939
 3790TIP3   OH211312   4.960   3.502   3.051
 3790TIP3    H111313   4.891   3.538   3.107
 3790TIP3    H211314   4.915   3.434   2.999
 3791TIP3   OH211315   4.578   3.123   1.653
 3791TIP3    H111316   4.626   3.063   1.595
 3791TIP3    H211317   4.634   3.201   1.658
 3792TIP3   OH211318   3.010   2.966   2.406
 3792TIP3    H111319   2.925   2.954   2.448
 3792TIP3    H211320   2.992   3.021   2.330
 3793TIP3   OH211321   4.172   4.687   1.922
 3793TIP3    H111322   4.227   4.675   1.845
 3793TIP3    H211323   4.214   4.758   1.971
 3794TIP3   OH211324   3.227   3.009   3.222
 3794TIP3    H111325   3.175   3.002   3.303
 3794TIP3    H211326   3.173   3.062   3.164
 3795TIP3   OH211327   3.266   4.490   3.280
 3795TIP3    H111328   3.173   4.469   3.290
 3795TIP3    H211329   3.306   4.465   3.363
 3796TIP3   OH211330   3.474   4.527   2.846
 3796TIP3    H111331   3.424   4.602   2.815
 3796TIP3    H211332   3.559   4.535   2.803
 3797TIP3   OH211333   3.869   4.758   2.991
 3797TIP3    H111334   3.907   4.749   3.079
 3797TIP3    H211335   3.931   4.813   2.944
 3798TIP3   OH211336   4.057   4.912   2.860
 3798TIP3    H111337   4.114   4.853   2.811
 3798TIP3    H211338   4.117   4.962   2.916
 3799TIP3   OH211339   4.869   3.243   2.951
 3799TIP3    H111340   4.782   3.236   2.913
 3799TIP3    H211341   4.904   3.154   2.948
 3800TIP3   OH211342   3.134   4.762   2.902
 3800TIP3    H111343   3.043   4.778   2.878
 3800TIP3    H211344   3.155   4.831   2.965
 3801TIP3   OH211345   3.363   4.759   2.749
 3801TIP3    H111346   3.281   4.762   2.797
 3801TIP3    H211347   3.340   4.783   2.660
 3802TIP3   OH211348   3.780   4.765   2.532
 3802TIP3    H111349   3.706   4.775   2.472
 3802TIP3    H211350   3.786   4.850   2.576
 3803TIP3   OH211351   4.044   4.716   2.594
 3803TIP3    H111352   3.953   4.729   2.568
 3803TIP3    H211353   4.093   4.780   2.542
 3804TIP3   OH211354   4.248   4.883   2.491
 3804TIP3    H111355   4.234   4.967   2.447
 3804TIP3    H211356   4.276   4.824   2.422
 3805TIP3   OH211357   3.045   4.544   2.612
 3805TIP3    H111358   3.068   4.521   2.702
 3805TIP3    H211359   3.118   4.511   2.559
 3806TIP3   OH211360   3.250   4.430   2.475
 3806TIP3    H111361   3.262   4.346   2.520
 3806TIP3    H211362   3.337   4.471   2.479
 3807TIP3   OH211363   3.518   4.515   2.499
 3807TIP3    H111364   3.537   4.423   2.482
 3807TIP3    H211365   3.572   4.537   2.574
 3808TIP3   OH211366   4.074   3.165   2.587
 3808TIP3    H111367   4.037   3.094   2.640
 3808TIP3    H211368   4.143   3.123   2.536
 3809TIP3   OH211369   4.578   3.078   2.470
 3809TIP3    H111370   4.615   3.129   2.398
 3809TIP3    H211371   4.487   3.105   2.474
 3810TIP3   OH211372   4.695   3.159   2.235
 3810TIP3    H111373   4.764   3.098   2.210
 3810TIP3    H211374   4.734   3.246   2.222
 3811TIP3   OH211375   3.318   2.866   2.584
 3811TIP3    H111376   3.229   2.832   2.596
 3811TIP3    H211377   3.372   2.787   2.575
 3812TIP3   OH211378   3.140   2.774   2.240
 3812TIP3    H111379   3.165   2.824   2.162
 3812TIP3    H211380   3.102   2.839   2.299
 3813TIP3   OH211381   3.801   2.900   2.483
 3813TIP3    H111382   3.847   2.949   2.415
 3813TIP3    H211383   3.839   2.932   2.565
 3814TIP3   OH211384   4.288   3.050   2.455
 3814TIP3    H111385   4.300   3.014   2.367
 3814TIP3    H211386   4.295   2.974   2.512
 3815TIP3   OH211387   4.351   3.000   2.023
 3815TIP3    H111388   4.271   3.047   2.048
 3815TIP3    H211389   4.340   2.913   2.062
 3816TIP3   OH211390   2.808   4.343   1.995
 3816TIP3    H111391   2.724   4.311   1.964
 3816TIP3    H211392   2.812   4.434   1.965
 3817TIP3   OH211393   3.246   2.903   2.002
 3817TIP3    H111394   3.291   2.842   1.945
 3817TIP3    H211395   3.315   2.959   2.038
 3818TIP3   OH211396   3.730   3.098   2.099
 3818TIP3    H111397   3.789   3.046   2.153
 3818TIP3    H211398   3.745   3.188   2.127
 3819TIP3   OH211399   3.614   4.493   1.593
 3819TIP3    H111400   3.698   4.521   1.555
 3819TIP3    H211401   3.584   4.422   1.536
 3820TIP3   OH211402   4.321   4.636   1.694
 3820TIP3    H111403   4.314   4.541   1.687
 3820TIP3    H211404   4.275   4.670   1.617
 3821TIP3   OH211405   3.546   3.143   3.467
 3821TIP3    H111406   3.510   3.082   3.531
 3821TIP3    H211407   3.638   3.150   3.491
 3822TIP3   OH211408   3.794   3.145   3.588
 3822TIP3    H111409   3.874   3.124   3.541
 3822TIP3    H211410   3.789   3.079   3.658
 3823TIP3   OH211411   2.922   4.336   1.651
 3823TIP3    H111412   2.921   4.344   1.747
 3823TIP3    H211413   3.004   4.290   1.632
 3824TIP3   OH211414   4.614   3.238   3.381
 3824TIP3    H111415   4.628   3.210   3.472
 3824TIP3    H211416   4.701   3.235   3.341
 3825TIP3   OH211417   4.530   4.759   2.887
 3825TIP3    H111418   4.458   4.727   2.833
 3825TIP3    H211419   4.517   4.853   2.892
 3826TIP3   OH211420   5.813   4.164   1.620
 3826TIP3    H111421   5.782   4.251   1.595
 3826TIP3    H211422   5.740   4.106   1.598
 3827TIP3   OH211423   5.804   4.155   2.045
 3827TIP3    H111424   5.858   4.141   2.122
 3827TIP3    H211425   5.760   4.071   2.031
 3828TIP3   OH211426   5.104   4.017   2.389
 3828TIP3    H111427   5.143   3.966   2.461
 3828TIP3    H211428   5.179   4.042   2.335
 3829TIP3   OH211429   6.075   4.470   1.719
 3829TIP3    H111430   6.065   4.402   1.785
 3829TIP3    H211431   6.097   4.549   1.769
 3830TIP3   OH211432   5.098   4.442   2.074
 3830TIP3    H111433   5.080   4.348   2.080
 3830TIP3    H211434   5.193   4.448   2.068
 3831TIP3   OH211435   4.781   3.648   1.857
 3831TIP3    H111436   4.743   3.732   1.884
 3831TIP3    H211437   4.707   3.600   1.819
 3832TIP3   OH211438   4.864   3.963   2.083
 3832TIP3    H111439   4.914   3.886   2.110
 3832TIP3    H211440   4.931   4.028   2.061
 3833TIP3   OH211441   5.735   4.900   1.736
 3833TIP3    H111442   5.763   4.831   1.677
 3833TIP3    H211443   5.744   4.863   1.824
 3834TIP3   OH211444   5.618   4.378   2.051
 3834TIP3    H111445   5.663   4.298   2.025
 3834TIP3    H211446   5.688   4.435   2.085
 3835TIP3   OH211447   6.650   3.698   2.068
 3835TIP3    H111448   6.665   3.783   2.111
 3835TIP3    H211449   6.677   3.712   1.977
 3836TIP3   OH211450   6.019   3.864   2.085
 3836TIP3    H111451   6.052   3.779   2.115
 3836TIP3    H211452   5.982   3.846   1.998
 3837TIP3   OH211453   5.378   3.524   2.043
 3837TIP3    H111454   5.356   3.597   1.986
 3837TIP3    H211455   5.321   3.452   2.014
 3838TIP3   OH211456   6.073   3.623   1.683
 3838TIP3    H111457   6.136   3.617   1.755
 3838TIP3    H211458   6.123   3.658   1.609
 3839TIP3   OH211459   5.001   3.740   2.175
 3839TIP3    H111460   5.085   3.722   2.219
 3839TIP3    H211461   5.004   3.689   2.095
 3840TIP3   OH211462   5.420   3.940   1.989
 3840TIP3    H111463   5.514   3.924   1.997
 3840TIP3    H211464   5.384   3.857   1.956
 3841TIP3   OH211465   6.702   3.920   2.231
 3841TIP3    H111466   6.614   3.956   2.226
 3841TIP3    H211467   6.739   3.957   2.311
 3842TIP3   OH211468   5.357   3.528   2.496
 3842TIP3    H111469   5.307   3.565   2.423
 3842TIP3    H211470   5.302   3.544   2.573
 3843TIP3   OH211471   5.710   4.384   1.483
 3843TIP3    H111472   5.669   4.355   1.402
 3843TIP3    H211473   5.657   4.457   1.513
 3844TIP3   OH211474   5.449   4.304   2.258
 3844TIP3    H111475   5.398   4.377   2.294
 3844TIP3    H211476   5.501   4.343   2.188
 3845TIP3   OH211477   6.231   3.647   1.904
 3845TIP3    H111478   6.187   3.626   1.986
 3845TIP3    H211479   6.287   3.722   1.925
 3846TIP3   OH211480   5.250   3.636   2.264
 3846TIP3    H111481   5.304   3.711   2.288
 3846TIP3    H211482   5.298   3.594   2.193
 3847TIP3   OH211483   5.298   4.509   2.368
 3847TIP3    H111484   5.284   4.599   2.338
 3847TIP3    H211485   5.220   4.488   2.420
 3848TIP3   OH211486   4.673   4.212   1.621
 3848TIP3    H111487   4.634   4.232   1.535
 3848TIP3    H211488   4.696   4.297   1.658
 3849TIP3   OH211489   6.110   4.715   1.863
 3849TIP3    H111490   6.022   4.706   1.898
 3849TIP3    H211491   6.109   4.800   1.819
 3850TIP3   OH211492   6.451   3.583   2.234
 3850TIP3    H111493   6.366   3.609   2.199
 3850TIP3    H211494   6.515   3.612   2.168
 3851TIP3   OH211495   5.699   3.218   2.230
 3851TIP3    H111496   5.692   3.126   2.256
 3851TIP3    H211497   5.622   3.259   2.269
 3852TIP3   OH211498   5.824   4.734   1.532
 3852TIP3    H111499   5.877   4.656   1.518
 3852TIP3    H211500   5.882   4.807   1.509
 3853TIP3   OH211501   5.964   4.506   1.470
 3853TIP3    H111502   5.889   4.446   1.472
 3853TIP3    H211503   6.013   4.487   1.550
 3854TIP3   OH211504   6.331   4.604   2.194
 3854TIP3    H111505   6.316   4.532   2.133
 3854TIP3    H211506   6.315   4.683   2.143
 3855TIP3   OH211507   5.635   4.000   1.478
 3855TIP3    H111508   5.554   4.046   1.455
 3855TIP3    H211509   5.685   3.997   1.396
 3856TIP3   OH211510   5.600   3.818   1.159
 3856TIP3    H111511   5.664   3.866   1.212
 3856TIP3    H211512   5.651   3.748   1.117
 3857TIP3   OH211513   6.526   4.258   2.071
 3857TIP3    H111514   6.442   4.305   2.072
 3857TIP3    H211515   6.561   4.272   1.983
 3858TIP3   OH211516   5.999   4.080   1.439
 3858TIP3    H111517   5.945   4.112   1.511
 3858TIP3    H211518   6.082   4.057   1.479
 3859TIP3   OH211519   6.224   4.118   2.379
 3859TIP3    H111520   6.225   4.203   2.423
 3859TIP3    H211521   6.142   4.117   2.330
 3860TIP3   OH211522   5.226   4.075   1.834
 3860TIP3    H111523   5.189   4.012   1.772
 3860TIP3    H211524   5.298   4.028   1.876
 3861TIP3   OH211525   5.363   4.494   1.981
 3861TIP3    H111526   5.340   4.478   1.889
 3861TIP3    H211527   5.450   4.457   1.991
 3862TIP3   OH211528   5.318   4.068   2.213
 3862TIP3    H111529   5.358   4.032   2.134
 3862TIP3    H211530   5.366   4.149   2.230
 3863TIP3   OH211531   5.868   4.697   1.985
 3863TIP3    H111532   5.855   4.780   2.030
 3863TIP3    H211533   5.854   4.631   2.053
 3864TIP3   OH211534   5.497   4.606   2.538
 3864TIP3    H111535   5.435   4.661   2.586
 3864TIP3    H211536   5.443   4.554   2.479
 3865TIP3   OH211537   5.821   3.953   1.273
 3865TIP3    H111538   5.884   4.008   1.319
 3865TIP3    H211539   5.851   3.954   1.182
 3866TIP3   OH211540   5.247   4.149   2.680
 3866TIP3    H111541   5.252   4.243   2.700
 3866TIP3    H211542   5.154   4.131   2.673
 3867TIP3   OH211543   5.572   4.618   1.533
 3867TIP3    H111544   5.653   4.668   1.546
 3867TIP3    H211545   5.511   4.682   1.495
 3868TIP3   OH211546   5.280   4.760   2.619
 3868TIP3    H111547   5.258   4.770   2.527
 3868TIP3    H211548   5.196   4.750   2.663
 3869TIP3   OH211549   6.333   3.182   1.326
 3869TIP3    H111550   6.257   3.201   1.381
 3869TIP3    H211551   6.342   3.259   1.270
 3870TIP3   OH211552   5.097   3.915   1.637
 3870TIP3    H111553   5.018   3.961   1.609
 3870TIP3    H211554   5.066   3.826   1.658
 3871TIP3   OH211555   6.177   4.526   1.003
 3871TIP3    H111556   6.154   4.600   0.948
 3871TIP3    H211557   6.242   4.477   0.952
 3872TIP3   OH211558   4.880   4.319   2.568
 3872TIP3    H111559   4.809   4.300   2.506
 3872TIP3    H211560   4.913   4.233   2.593
 3873TIP3   OH211561   4.730   4.504   2.215
 3873TIP3    H111562   4.825   4.518   2.223
 3873TIP3    H211563   4.691   4.581   2.256
 3874TIP3   OH211564   6.587   4.950   2.275
 3874TIP3    H111565   6.579   4.856   2.259
 3874TIP3    H211566   6.574   4.959   2.370
 3875TIP3   OH211567   5.683   4.756   2.401
 3875TIP3    H111568   5.673   4.846   2.433
 3875TIP3    H211569   5.619   4.706   2.452
 3876TIP3   OH211570   5.446   4.843   1.377
 3876TIP3    H111571   5.396   4.821   1.298
 3876TIP3    H211572   5.411   4.928   1.404
 3877TIP3   OH211573   4.894   4.702   1.732
 3877TIP3    H111574   4.939   4.693   1.816
 3877TIP3    H211575   4.845   4.621   1.722
 3878TIP3   OH211576   5.688   4.756   1.031
 3878TIP3    H111577   5.738   4.677   1.008
 3878TIP3    H211578   5.709   4.772   1.122
 3879TIP3   OH211579   5.704   4.818   1.294
 3879TIP3    H111580   5.615   4.822   1.330
 3879TIP3    H211581   5.756   4.781   1.365
 3880TIP3   OH211582   6.466   4.073   2.543
 3880TIP3    H111583   6.383   4.084   2.497
 3880TIP3    H211584   6.486   3.979   2.536
 3881TIP3   OH211585   5.079   4.507   2.537
 3881TIP3    H111586   5.130   4.494   2.617
 3881TIP3    H211587   5.007   4.443   2.544
 3882TIP3   OH211588   5.462   3.311   2.355
 3882TIP3    H111589   5.379   3.277   2.323
 3882TIP3    H211590   5.440   3.392   2.401
 3883TIP3   OH211591   6.004   3.433   2.555
 3883TIP3    H111592   6.073   3.409   2.617
 3883TIP3    H211593   5.922   3.418   2.604
 3884TIP3   OH211594   6.224   3.852   2.462
 3884TIP3    H111595   6.183   3.849   2.549
 3884TIP3    H211596   6.211   3.943   2.434
 3885TIP3   OH211597   5.895   3.923   1.010
 3885TIP3    H111598   5.845   3.925   0.929
 3885TIP3    H211599   5.961   3.991   1.000
 3886TIP3   OH211600   5.609   3.357   1.321
 3886TIP3    H111601   5.576   3.363   1.410
 3886TIP3    H211602   5.575   3.274   1.288
 3887TIP3   OH211603   5.400   3.847   2.362
 3887TIP3    H111604   5.355   3.854   2.446
 3887TIP3    H211605   5.379   3.929   2.317
 3888TIP3   OH211606   5.279   3.724   1.884
 3888TIP3    H111607   5.190   3.700   1.910
 3888TIP3    H211608   5.288   3.690   1.795
 3889TIP3   OH211609   5.759   3.795   1.612
 3889TIP3    H111610   5.712   3.869   1.572
 3889TIP3    H211611   5.818   3.764   1.543
 3890TIP3   OH211612   5.945   4.063   2.682
 3890TIP3    H111613   5.924   3.994   2.746
 3890TIP3    H211614   6.036   4.084   2.700
 3891TIP3   OH211615   5.926   3.809   1.835
 3891TIP3    H111616   5.858   3.829   1.771
 3891TIP3    H211617   5.975   3.736   1.795
 3892TIP3   OH211618   5.238   3.861   2.583
 3892TIP3    H111619   5.251   3.925   2.653
 3892TIP3    H211620   5.219   3.779   2.629
 3893TIP3   OH211621   5.275   3.332   1.299
 3893TIP3    H111622   5.269   3.336   1.394
 3893TIP3    H211623   5.197   3.378   1.267
 3894TIP3   OH211624   4.830   3.379   2.160
 3894TIP3    H111625   4.901   3.415   2.214
 3894TIP3    H211626   4.872   3.362   2.075
 3895TIP3   OH211627   4.733   3.355   1.664
 3895TIP3    H111628   4.776   3.390   1.587
 3895TIP3    H211629   4.670   3.422   1.690
 3896TIP3   OH211630   5.971   4.067   2.258
 3896TIP3    H111631   5.995   4.000   2.194
 3896TIP3    H211632   5.927   4.020   2.328
 3897TIP3   OH211633   5.644   3.510   1.933
 3897TIP3    H111634   5.567   3.511   1.989
 3897TIP3    H211635   5.718   3.502   1.993
 3898TIP3   OH211636   5.040   3.600   1.942
 3898TIP3    H111637   4.952   3.604   1.904
 3898TIP3    H211638   5.068   3.510   1.928
 3899TIP3   OH211639   5.293   3.599   1.639
 3899TIP3    H111640   5.387   3.610   1.630
 3899TIP3    H211641   5.258   3.617   1.552
 3900TIP3   OH211642   6.087   3.600   2.139
 3900TIP3    H111643   6.071   3.616   2.232
 3900TIP3    H211644   6.018   3.539   2.112
 3901TIP3   OH211645   5.182   3.623   1.390
 3901TIP3    H111646   5.118   3.576   1.338
 3901TIP3    H211647   5.235   3.670   1.326
 3902TIP3   OH211648   6.271   5.334   2.377
 3902TIP3    H111649   6.280   5.309   2.285
 3902TIP3    H211650   6.361   5.353   2.406
 3903TIP3   OH211651   5.233   4.419   2.772
 3903TIP3    H111652   5.314   4.437   2.820
 3903TIP3    H211653   5.164   4.427   2.837
 3904TIP3   OH211654   5.691   3.885   2.041
 3904TIP3    H111655   5.760   3.837   1.995
 3904TIP3    H211656   5.690   3.846   2.128
 3905TIP3   OH211657   5.182   3.351   1.931
 3905TIP3    H111658   5.155   3.275   1.983
 3905TIP3    H211659   5.205   3.314   1.845
 3906TIP3   OH211660   5.667   3.790   2.305
 3906TIP3    H111661   5.580   3.823   2.330
 3906TIP3    H211662   5.728   3.841   2.358
 3907TIP3   OH211663   5.408   4.142   1.407
 3907TIP3    H111664   5.332   4.087   1.383
 3907TIP3    H211665   5.381   4.185   1.488
 3908TIP3   OH211666   6.289   4.394   2.021
 3908TIP3    H111667   6.327   4.442   1.946
 3908TIP3    H211668   6.210   4.354   1.986
 3909TIP3   OH211669   5.863   3.460   1.319
 3909TIP3    H111670   5.770   3.439   1.319
 3909TIP3    H211671   5.867   3.554   1.336
 3910TIP3   OH211672   5.806   4.477   2.446
 3910TIP3    H111673   5.865   4.460   2.520
 3910TIP3    H211674   5.773   4.566   2.462
 3911TIP3   OH211675   5.924   3.720   1.396
 3911TIP3    H111676   6.019   3.723   1.409
 3911TIP3    H211677   5.904   3.800   1.347
 3912TIP3   OH211678   5.088   4.151   2.063
 3912TIP3    H111679   5.128   4.136   1.978
 3912TIP3    H211680   5.155   4.123   2.126
 3913TIP3   OH211681   5.566   4.305   1.250
 3913TIP3    H111682   5.515   4.386   1.255
 3913TIP3    H211683   5.515   4.241   1.300
 3914TIP3   OH211684   4.972   4.087   2.701
 3914TIP3    H111685   4.974   4.061   2.793
 3914TIP3    H211686   4.897   4.040   2.664
 3915TIP3   OH211687   5.713   4.214   2.741
 3915TIP3    H111688   5.644   4.155   2.709
 3915TIP3    H211689   5.794   4.177   2.707
 3916TIP3   OH211690   5.953   4.768   2.326
 3916TIP3    H111691   5.859   4.760   2.343
 3916TIP3    H211692   5.990   4.803   2.407
 3917TIP3   OH211693   6.340   3.802   1.220
 3917TIP3    H111694   6.283   3.756   1.158
 3917TIP3    H211695   6.348   3.890   1.185
 3918TIP3   OH211696   6.583   4.646   2.284
 3918TIP3    H111697   6.489   4.641   2.266
 3918TIP3    H211698   6.624   4.624   2.201
 3919TIP3   OH211699   6.031   4.626   1.221
 3919TIP3    H111700   6.015   4.570   1.297
 3919TIP3    H211701   6.075   4.569   1.158
 3920TIP3   OH211702   6.061   4.263   1.915
 3920TIP3    H111703   5.972   4.244   1.944
 3920TIP3    H211704   6.094   4.180   1.881
 3921TIP3   OH211705   5.217   4.494   1.737
 3921TIP3    H111706   5.210   4.571   1.682
 3921TIP3    H211707   5.130   4.483   1.774
 3922TIP3   OH211708   4.773   3.780   1.453
 3922TIP3    H111709   4.816   3.863   1.475
 3922TIP3    H211710   4.692   3.781   1.505
 3923TIP3   OH211711   5.299   4.254   1.629
 3923TIP3    H111712   5.284   4.342   1.662
 3923TIP3    H211713   5.277   4.196   1.702
 3924TIP3   OH211714   5.500   4.821   2.192
 3924TIP3    H111715   5.536   4.895   2.143
 3924TIP3    H211716   5.573   4.789   2.244
 3925TIP3   OH211717   5.131   4.717   1.592
 3925TIP3    H111718   5.043   4.723   1.629
 3925TIP3    H211719   5.166   4.805   1.598
 3926TIP3   OH211720   5.848   4.485   2.172
 3926TIP3    H111721   5.829   4.482   2.266
 3926TIP3    H211722   5.936   4.448   2.164
 3927TIP3   OH211723   5.808   4.364   1.098
 3927TIP3    H111724   5.881   4.347   1.158
 3927TIP3    H211725   5.730   4.349   1.150
 3928TIP3   OH211726   6.081   4.996   2.202
 3928TIP3    H111727   6.015   4.927   2.211
 3928TIP3    H211728   6.053   5.045   2.125
 3929TIP3   OH211729   6.125   4.799   0.915
 3929TIP3    H111730   6.156   4.839   0.834
 3929TIP3    H211731   6.083   4.871   0.963
 3930TIP3   OH211732   5.183   3.606   2.700
 3930TIP3    H111733   5.088   3.617   2.705
 3930TIP3    H211734   5.205   3.556   2.779
 3931TIP3   OH211735   6.018   4.276   1.244
 3931TIP3    H111736   6.011   4.215   1.318
 3931TIP3    H211737   6.112   4.286   1.230
 3932TIP3   OH211738   4.928   4.709   2.357
 3932TIP3    H111739   4.978   4.645   2.407
 3932TIP3    H211740   4.944   4.792   2.401
 3933TIP3   OH211741   5.185   4.322   1.056
 3933TIP3    H111742   5.203   4.233   1.026
 3933TIP3    H211743   5.173   4.315   1.150
 3934TIP3   OH211744   5.136   4.337   1.328
 3934TIP3    H111745   5.195   4.310   1.399
 3934TIP3    H211746   5.135   4.432   1.332
 3935TIP3   OH211747   4.868   4.032   1.531
 3935TIP3    H111748   4.803   4.081   1.583
 3935TIP3    H211749   4.887   4.089   1.456
 3936TIP3   OH211750   6.034   3.659   2.400
 3936TIP3    H111751   6.110   3.708   2.433
 3936TIP3    H211752   6.026   3.585   2.460
 3937TIP3   OH211753   5.923   3.408   1.590
 3937TIP3    H111754   5.904   3.428   1.498
 3937TIP3    H211755   5.967   3.486   1.623
 3938TIP3   OH211756   5.409   4.523   1.271
 3938TIP3    H111757   5.324   4.543   1.312
 3938TIP3    H211758   5.428   4.600   1.217
 3939TIP3   OH211759   5.572   3.606   1.682
 3939TIP3    H111760   5.634   3.674   1.657
 3939TIP3    H211761   5.595   3.585   1.773
 3940TIP3   OH211762   5.873   3.902   2.457
 3940TIP3    H111763   5.896   3.949   2.537
 3940TIP3    H211764   5.924   3.821   2.460
 3941TIP3   OH211765   5.739   3.301   1.768
 3941TIP3    H111766   5.716   3.378   1.821
 3941TIP3    H211767   5.809   3.332   1.710
 3942TIP3   OH211768   5.157   4.609   1.343
 3942TIP3    H111769   5.139   4.682   1.284
 3942TIP3    H211770   5.145   4.646   1.431
 3943TIP3   OH211771   5.252   3.326   1.577
 3943TIP3    H111772   5.240   3.416   1.607
 3943TIP3    H211773   5.347   3.311   1.584
 3944TIP3   OH211774   6.490   3.802   2.448
 3944TIP3    H111775   6.395   3.808   2.458
 3944TIP3    H211776   6.502   3.748   2.370
 3945TIP3   OH211777   6.151   4.002   1.836
 3945TIP3    H111778   6.075   3.947   1.850
 3945TIP3    H211779   6.219   3.964   1.892
 3946TIP3   OH211780   4.892   4.207   1.314
 3946TIP3    H111781   4.964   4.269   1.324
 3946TIP3    H211782   4.923   4.144   1.249
 3947TIP3   OH211783   4.791   3.501   1.439
 3947TIP3    H111784   4.806   3.595   1.451
 3947TIP3    H211785   4.717   3.496   1.377
 3948TIP3   OH211786   6.133   4.981   1.780
 3948TIP3    H111787   6.093   5.036   1.713
 3948TIP3    H211788   6.227   4.998   1.772
 3949TIP3   OH211789   5.202   3.224   2.312
 3949TIP3    H111790   5.172   3.191   2.227
 3949TIP3    H211791   5.194   3.148   2.371
 3950TIP3   OH211792   4.718   4.482   1.701
 3950TIP3    H111793   4.672   4.517   1.777
 3950TIP3    H211794   4.675   4.524   1.626
 3951TIP3   OH211795   4.921   5.040   2.791
 3951TIP3    H111796   5.001   5.047   2.842
 3951TIP3    H211797   4.910   4.947   2.774
 3952TIP3   OH211798   5.387   4.929   2.809
 3952TIP3    H111799   5.476   4.898   2.825
 3952TIP3    H211800   5.354   4.873   2.738
 3953TIP3   OH211801   5.373   4.502   0.969
 3953TIP3    H111802   5.307   4.448   1.012
 3953TIP3    H211803   5.445   4.443   0.950
 3954TIP3   OH211804   6.047   4.842   2.577
 3954TIP3    H111805   6.014   4.771   2.632
 3954TIP3    H211806   6.136   4.858   2.609
 3955TIP3   OH211807   5.810   4.559   0.893
 3955TIP3    H111808   5.845   4.490   0.950
 3955TIP3    H211809   5.866   4.556   0.815
 3956TIP3   OH211810   5.025   4.422   2.960
 3956TIP3    H111811   5.049   4.330   2.974
 3956TIP3    H211812   4.938   4.418   2.922
 3957TIP3   OH211813   5.016   4.016   1.163
 3957TIP3    H111814   5.067   3.995   1.241
 3957TIP3    H211815   5.082   4.032   1.095
 3958TIP3   OH211816   5.643   4.495   2.749
 3958TIP3    H111817   5.607   4.519   2.663
 3958TIP3    H211818   5.681   4.408   2.735
 3959TIP3   OH211819   5.524   4.248   0.978
 3959TIP3    H111820   5.540   4.254   1.072
 3959TIP3    H211821   5.521   4.154   0.960
 3960TIP3   OH211822   6.114   4.536   2.347
 3960TIP3    H111823   6.192   4.565   2.301
 3960TIP3    H211824   6.053   4.610   2.339
 3961TIP3   OH211825   5.143   4.171   2.973
 3961TIP3    H111826   5.218   4.143   2.920
 3961TIP3    H211827   5.180   4.184   3.061
 3962TIP3   OH211828   5.193   3.966   1.373
 3962TIP3    H111829   5.171   3.939   1.462
 3962TIP3    H211830   5.240   3.891   1.336
 3963TIP3   OH211831   5.507   4.045   2.628
 3963TIP3    H111832   5.421   4.087   2.638
 3963TIP3    H211833   5.539   4.076   2.544
 3964TIP3   OH211834   5.331   3.778   1.220
 3964TIP3    H111835   5.299   3.782   1.130
 3964TIP3    H211836   5.426   3.789   1.212
 3965TIP3   OH211837   5.997   4.403   2.707
 3965TIP3    H111838   6.078   4.378   2.662
 3965TIP3    H211839   6.000   4.354   2.789
 3966TIP3   OH211840   6.155   4.025   0.891
 3966TIP3    H111841   6.124   3.988   0.809
 3966TIP3    H211842   6.099   4.102   0.906
 3967TIP3   OH211843   5.612   3.813   2.731
 3967TIP3    H111844   5.614   3.743   2.665
 3967TIP3    H211845   5.577   3.888   2.683
 3968TIP3   OH211846   5.618   3.613   2.529
 3968TIP3    H111847   5.644   3.651   2.446
 3968TIP3    H211848   5.527   3.586   2.516
 3969TIP3   OH211849   5.622   4.145   2.404
 3969TIP3    H111850   5.709   4.184   2.396
 3969TIP3    H211851   5.566   4.204   2.353
 3970TIP3   OH211852   6.215   4.112   2.774
 3970TIP3    H111853   6.266   4.032   2.783
 3970TIP3    H211854   6.281   4.181   2.766
 3971TIP3   OH211855   6.250   4.365   2.510
 3971TIP3    H111856   6.193   4.424   2.460
 3971TIP3    H211857   6.339   4.387   2.482
 3972TIP3   OH211858   5.496   3.889   2.975
 3972TIP3    H111859   5.425   3.827   2.991
 3972TIP3    H211860   5.525   3.870   2.886
 3973TIP3   OH211861   5.738   3.383   2.636
 3973TIP3    H111862   5.698   3.463   2.602
 3973TIP3    H211863   5.671   3.316   2.623
 3974TIP3   OH211864   5.866   3.849   2.839
 3974TIP3    H111865   5.849   3.837   2.932
 3974TIP3    H211866   5.782   3.831   2.796
 3975TIP3   OH211867   6.106   3.804   2.699
 3975TIP3    H111868   6.031   3.805   2.759
 3975TIP3    H211869   6.180   3.780   2.755
 3976TIP3   OH211870   6.348   3.761   2.834
 3976TIP3    H111871   6.363   3.668   2.849
 3976TIP3    H211872   6.343   3.799   2.922
 3977TIP3   OH211873   5.322   3.674   3.028
 3977TIP3    H111874   5.326   3.585   2.992
 3977TIP3    H211875   5.357   3.665   3.117
 3978TIP3   OH211876   5.808   3.354   2.899
 3978TIP3    H111877   5.876   3.288   2.890
 3978TIP3    H211878   5.776   3.369   2.810
 3979TIP3   OH211879   5.900   3.566   3.050
 3979TIP3    H111880   5.872   3.495   2.994
 3979TIP3    H211881   5.828   3.629   3.047
 3980TIP3   OH211882   5.163   4.827   1.174
 3980TIP3    H111883   5.249   4.803   1.139
 3980TIP3    H211884   5.120   4.875   1.103
 3981TIP3   OH211885   4.618   4.210   1.317
 3981TIP3    H111886   4.713   4.219   1.321
 3981TIP3    H211887   4.604   4.122   1.283
 3982TIP3   OH211888   4.523   4.792   1.792
 3982TIP3    H111889   4.460   4.738   1.745
 3982TIP3    H211890   4.568   4.731   1.850
 3983TIP3   OH211891   4.666   4.623   1.957
 3983TIP3    H111892   4.658   4.552   2.021
 3983TIP3    H211893   4.719   4.689   2.002
 3984TIP3   OH211894   6.396   5.056   1.776
 3984TIP3    H111895   6.428   5.065   1.866
 3984TIP3    H211896   6.470   5.084   1.721
 3985TIP3   OH211897   6.437   5.053   2.061
 3985TIP3    H111898   6.381   4.976   2.054
 3985TIP3    H211899   6.497   5.033   2.132
 3986TIP3   OH211900   6.297   4.263   1.238
 3986TIP3    H111901   6.355   4.335   1.216
 3986TIP3    H211902   6.339   4.219   1.312
 3987TIP3   OH211903   6.430   4.125   1.435
 3987TIP3    H111904   6.365   4.088   1.494
 3987TIP3    H211905   6.495   4.165   1.492
 3988TIP3   OH211906   6.465   4.527   1.855
 3988TIP3    H111907   6.520   4.457   1.818
 3988TIP3    H211908   6.477   4.600   1.795
 3989TIP3   OH211909   6.268   4.836   2.062
 3989TIP3    H111910   6.204   4.881   2.117
 3989TIP3    H211911   6.216   4.797   1.992
 3990TIP3   OH211912   6.346   4.038   1.085
 3990TIP3    H111913   6.279   4.033   1.017
 3990TIP3    H211914   6.324   4.118   1.133
 3991TIP3   OH211915   6.186   3.693   1.023
 3991TIP3    H111916   6.144   3.745   0.955
 3991TIP3    H211917   6.173   3.602   0.995
 3992TIP3   OH211918   6.226   3.989   1.570
 3992TIP3    H111919   6.231   3.895   1.558
 3992TIP3    H211920   6.206   4.000   1.663
 3993TIP3   OH211921   4.841   4.058   2.339
 3993TIP3    H111922   4.832   4.025   2.250
 3993TIP3    H211923   4.935   4.053   2.357
 3994TIP3   OH211924   6.512   4.428   2.444
 3994TIP3    H111925   6.575   4.358   2.432
 3994TIP3    H211926   6.543   4.499   2.388
 3995TIP3   OH211927   6.675   4.203   2.422
 3995TIP3    H111928   6.602   4.160   2.466
 3995TIP3    H211929   6.751   4.149   2.442
 3996TIP3   OH211930   6.149   3.417   0.977
 3996TIP3    H111931   6.210   3.402   1.049
 3996TIP3    H211932   6.065   3.387   1.010
 3997TIP3   OH211933   6.214   3.713   1.455
 3997TIP3    H111934   6.259   3.630   1.467
 3997TIP3    H211935   6.256   3.753   1.379
 3998TIP3   OH211936   6.367   3.881   1.976
 3998TIP3    H111937   6.448   3.898   1.927
 3998TIP3    H211938   6.381   3.921   2.061
 3999TIP3   OH211939   6.441   4.030   2.202
 3999TIP3    H111940   6.370   4.058   2.260
 3999TIP3    H211941   6.473   4.111   2.162
 4000TIP3   OH211942   5.062   3.742   2.972
 4000TIP3    H111943   5.156   3.737   2.990
 4000TIP3    H211944   5.026   3.662   3.010
 4001TIP3   OH211945   6.908   3.629   2.742
 4001TIP3    H111946   6.974   3.573   2.701
 4001TIP3    H211947   6.870   3.679   2.669
 4002TIP3   OH211948   6.331   3.465   1.504
 4002TIP3    H111949   6.378   3.451   1.586
 4002TIP3    H211950   6.269   3.393   1.499
 4003TIP3   OH211951   5.041   3.450   2.325
 4003TIP3    H111952   5.094   3.371   2.333
 4003TIP3    H211953   5.105   3.520   2.309
 4004TIP3   OH211954   4.818   3.706   2.390
 4004TIP3    H111955   4.869   3.703   2.310
 4004TIP3    H211956   4.850   3.784   2.436
 4005TIP3   OH211957   6.758   3.746   2.547
 4005TIP3    H111958   6.681   3.787   2.587
 4005TIP3    H211959   6.722   3.677   2.492
 4006TIP3   OH211960   6.369   3.383   1.143
 4006TIP3    H111961   6.416   3.323   1.086
 4006TIP3    H211962   6.425   3.460   1.149
 4007TIP3   OH211963   4.805   3.217   1.889
 4007TIP3    H111964   4.720   3.209   1.933
 4007TIP3    H211965   4.787   3.274   1.814
 4008TIP3   OH211966   5.963   4.946   1.443
 4008TIP3    H111967   6.028   4.927   1.376
 4008TIP3    H211968   6.003   5.014   1.497
 4009TIP3   OH211969   5.026   3.267   2.713
 4009TIP3    H111970   4.981   3.269   2.797
 4009TIP3    H211971   4.972   3.322   2.656
 4010TIP3   OH211972   5.050   4.748   2.781
 4010TIP3    H111973   4.958   4.722   2.777
 4010TIP3    H211974   5.076   4.730   2.871
 4011TIP3   OH211975   5.269   4.784   2.338
 4011TIP3    H111976   5.220   4.860   2.307
 4011TIP3    H211977   5.355   4.793   2.296
 4012TIP3   OH211978   5.676   5.024   2.479
 4012TIP3    H111979   5.716   5.006   2.564
 4012TIP3    H211980   5.744   5.071   2.430
 4013TIP3   OH211981   5.880   5.161   2.350
 4013TIP3    H111982   5.950   5.108   2.312
 4013TIP3    H211983   5.925   5.219   2.411
 4014TIP3   OH211984   6.665   3.500   2.437
 4014TIP3    H111985   6.580   3.496   2.394
 4014TIP3    H211986   6.698   3.410   2.432
 4015TIP3   OH211987   4.928   5.032   2.387
 4015TIP3    H111988   4.836   5.052   2.370
 4015TIP3    H211989   4.953   5.095   2.455
 4016TIP3   OH211990   5.160   5.017   2.238
 4016TIP3    H111991   5.077   5.023   2.285
 4016TIP3    H211992   5.138   5.039   2.147
 4017TIP3   OH211993   5.570   5.036   2.031
 4017TIP3    H111994   5.496   5.048   1.972
 4017TIP3    H211995   5.581   5.121   2.072
 4018TIP3   OH211996   5.834   4.963   2.048
 4018TIP3    H111997   5.742   4.988   2.042
 4018TIP3    H211998   5.882   5.038   2.014
 4019TIP3   OH211999   6.039   5.151   1.976
 4019TIP3    H112000   6.042   5.238   1.937
 4019TIP3    H212001   6.072   5.093   1.908
 4020TIP3   OH212002   4.843   4.798   2.107
 4020TIP3    H112003   4.871   4.774   2.196
 4020TIP3    H212004   4.913   4.767   2.050
 4021TIP3   OH212005   5.045   4.686   1.964
 4021TIP3    H112006   5.057   4.601   2.006
 4021TIP3    H212007   5.132   4.727   1.968
 4022TIP3   OH212008   5.314   4.771   1.989
 4022TIP3    H112009   5.333   4.678   1.974
 4022TIP3    H212010   5.369   4.795   2.064
 4023TIP3   OH212011   5.871   3.419   2.071
 4023TIP3    H112012   5.834   3.348   2.124
 4023TIP3    H212013   5.940   3.376   2.020
 4024TIP3   OH212014   6.377   3.335   1.959
 4024TIP3    H112015   6.415   3.385   1.886
 4024TIP3    H212016   6.286   3.365   1.963
 4025TIP3   OH212017   6.491   3.416   1.723
 4025TIP3    H112018   6.560   3.354   1.698
 4025TIP3    H212019   6.530   3.502   1.709
 4026TIP3   OH212020   5.113   3.121   2.071
 4026TIP3    H112021   5.024   3.087   2.083
 4026TIP3    H212022   5.167   3.042   2.064
 4027TIP3   OH212023   4.925   3.024   1.719
 4027TIP3    H112024   4.955   3.076   1.645
 4027TIP3    H212025   4.890   3.089   1.781
 4028TIP3   OH212026   5.595   3.159   1.968
 4028TIP3    H112027   5.643   3.207   1.901
 4028TIP3    H212028   5.634   3.188   2.051
 4029TIP3   OH212029   6.085   3.299   1.942
 4029TIP3    H112030   6.109   3.263   1.857
 4029TIP3    H212031   6.092   3.224   2.002
 4030TIP3   OH212032   6.144   3.257   1.512
 4030TIP3    H112033   6.065   3.304   1.536
 4030TIP3    H212034   6.134   3.170   1.551
 4031TIP3   OH212035   4.602   4.600   1.479
 4031TIP3    H112036   4.518   4.571   1.445
 4031TIP3    H212037   4.608   4.692   1.453
 4032TIP3   OH212038   5.042   3.157   1.489
 4032TIP3    H112039   5.089   3.096   1.432
 4032TIP3    H212040   5.111   3.213   1.525
 4033TIP3   OH212041   5.528   3.354   1.585
 4033TIP3    H112042   5.587   3.303   1.640
 4033TIP3    H212043   5.541   3.445   1.614
 4034TIP3   OH212044   5.413   4.745   1.099
 4034TIP3    H112045   5.501   4.773   1.076
 4034TIP3    H212046   5.394   4.673   1.038
 4035TIP3   OH212047   6.126   4.880   1.233
 4035TIP3    H112048   6.101   4.787   1.230
 4035TIP3    H212049   6.081   4.919   1.159
 4036TIP3   OH212050   5.337   3.403   2.948
 4036TIP3    H112051   5.300   3.341   3.010
 4036TIP3    H212052   5.430   3.409   2.973
 4037TIP3   OH212053   5.587   3.403   3.068
 4037TIP3    H112054   5.666   3.379   3.019
 4037TIP3    H212055   5.578   3.333   3.133
 4038TIP3   OH212056   4.716   4.591   1.144
 4038TIP3    H112057   4.714   4.595   1.240
 4038TIP3    H212058   4.798   4.545   1.124
 4039TIP3   OH212059   6.414   3.493   2.863
 4039TIP3    H112060   6.431   3.467   2.954
 4039TIP3    H212061   6.499   3.490   2.821
 4040TIP3   OH212062   7.620   4.391   1.128
 4040TIP3    H112063   7.587   4.478   1.106
 4040TIP3    H212064   7.552   4.331   1.098
 4041TIP3   OH212065   7.572   4.404   1.521
 4041TIP3    H112066   7.605   4.387   1.609
 4041TIP3    H212067   7.536   4.320   1.493
 4042TIP3   OH212068   6.898   4.273   1.877
 4042TIP3    H112069   6.934   4.224   1.951
 4042TIP3    H212070   6.974   4.300   1.827
 4043TIP3   OH212071   7.897   4.698   1.264
 4043TIP3    H112072   7.870   4.643   1.337
 4043TIP3    H212073   7.919   4.782   1.304
 4044TIP3   OH212074   6.886   4.691   1.553
 4044TIP3    H112075   6.870   4.598   1.565
 4044TIP3    H212076   6.981   4.700   1.560
 4045TIP3   OH212077   6.578   3.901   1.348
 4045TIP3    H112078   6.541   3.986   1.372
 4045TIP3    H212079   6.503   3.852   1.313
 4046TIP3   OH212080   6.656   4.218   1.570
 4046TIP3    H112081   6.707   4.141   1.596
 4046TIP3    H212082   6.723   4.284   1.550
 4047TIP3   OH212083   7.405   5.065   1.301
 4047TIP3    H112084   7.484   5.072   1.247
 4047TIP3    H212085   7.435   5.077   1.391
 4048TIP3   OH212086   7.413   4.636   1.539
 4048TIP3    H112087   7.453   4.554   1.510
 4048TIP3    H212088   7.487   4.690   1.569
 4049TIP3   OH212089   7.783   4.144   1.570
 4049TIP3    H112090   7.814   4.055   1.588
 4049TIP3    H212091   7.729   4.136   1.491
 4050TIP3   OH212092   7.159   3.781   1.538
 4050TIP3    H112093   7.137   3.853   1.479
 4050TIP3    H212094   7.107   3.707   1.506
 4051TIP3   OH212095   7.872   3.892   1.180
 4051TIP3    H112096   7.932   3.854   1.244
 4051TIP3    H212097   7.918   3.968   1.145
 4052TIP3   OH212098   6.792   3.995   1.661
 4052TIP3    H112099   6.875   3.977   1.707
 4052TIP3    H212100   6.797   3.943   1.581
 4053TIP3   OH212101   7.210   4.189   1.489
 4053TIP3    H112102   7.305   4.176   1.494
 4053TIP3    H212103   7.177   4.107   1.453
 4054TIP3   OH212104   7.149   3.786   1.986
 4054TIP3    H112105   7.099   3.823   1.914
 4054TIP3    H212106   7.096   3.803   2.064
 4055TIP3   OH212107   7.501   4.607   1.010
 4055TIP3    H112108   7.448   4.586   0.933
 4055TIP3    H212109   7.446   4.667   1.061
 4056TIP3   OH212110   7.246   4.562   1.748
 4056TIP3    H112111   7.191   4.633   1.782
 4056TIP3    H212112   7.295   4.603   1.676
 4057TIP3   OH212113   7.035   3.893   1.758
 4057TIP3    H112114   7.090   3.969   1.781
 4057TIP3    H212115   7.082   3.850   1.687
 4058TIP3   OH212116   7.085   4.759   1.855
 4058TIP3    H112117   7.074   4.850   1.828
 4058TIP3    H212118   7.008   4.740   1.908
 4059TIP3   OH212119   6.488   4.451   1.160
 4059TIP3    H112120   6.440   4.471   1.079
 4059TIP3    H212121   6.511   4.536   1.196
 4060TIP3   OH212122   7.914   4.960   1.369
 4060TIP3    H112123   7.824   4.952   1.398
 4060TIP3    H212124   7.920   5.048   1.332
 4061TIP3   OH212125   7.478   3.477   1.719
 4061TIP3    H112126   7.473   3.384   1.744
 4061TIP3    H212127   7.400   3.516   1.759
 4062TIP3   OH212128   7.637   5.029   1.147
 4062TIP3    H112129   7.666   4.938   1.159
 4062TIP3    H212130   7.629   5.040   1.053
 4063TIP3   OH212131   7.715   4.767   1.077
 4063TIP3    H112132   7.645   4.705   1.058
 4063TIP3    H212133   7.768   4.724   1.145
 4064TIP3   OH212134   8.120   4.819   1.695
 4064TIP3    H112135   8.095   4.757   1.627
 4064TIP3    H212136   8.129   4.903   1.650
 4065TIP3   OH212137   7.451   4.247   0.965
 4065TIP3    H112138   7.360   4.277   0.960
 4065TIP3    H212139   7.486   4.263   0.877
 4066TIP3   OH212140   7.401   4.082   0.658
 4066TIP3    H112141   7.468   4.138   0.696
 4066TIP3    H212142   7.450   4.010   0.616
 4067TIP3   OH212143   7.802   4.302   0.947
 4067TIP3    H112144   7.746   4.338   1.015
 4067TIP3    H212145   7.871   4.255   0.994
 4068TIP3   OH212146   7.887   4.333   1.955
 4068TIP3    H112147   7.918   4.418   1.984
 4068TIP3    H212148   7.822   4.353   1.888
 4069TIP3   OH212149   7.005   4.304   1.343
 4069TIP3    H112150   6.974   4.239   1.280
 4069TIP3    H212151   7.079   4.261   1.387
 4070TIP3   OH212152   7.160   4.734   1.483
 4070TIP3    H112153   7.137   4.716   1.392
 4070TIP3    H212154   7.251   4.704   1.491
 4071TIP3   OH212155   7.111   4.328   1.706
 4071TIP3    H112156   7.150   4.289   1.628
 4071TIP3    H212157   7.161   4.408   1.720
 4072TIP3   OH212158   7.665   4.950   1.476
 4072TIP3    H112159   7.655   5.032   1.524
 4072TIP3    H212160   7.654   4.882   1.543
 4073TIP3   OH212161   7.284   4.857   2.025
 4073TIP3    H112162   7.223   4.915   2.070
 4073TIP3    H212163   7.228   4.803   1.969
 4074TIP3   OH212164   7.625   4.238   0.743
 4074TIP3    H112165   7.686   4.262   0.812
 4074TIP3    H212166   7.634   4.307   0.678
 4075TIP3   OH212167   7.043   4.407   2.158
 4075TIP3    H112168   7.050   4.500   2.176
 4075TIP3    H212169   6.949   4.390   2.157
 4076TIP3   OH212170   7.402   4.816   1.164
 4076TIP3    H112171   7.414   4.883   1.230
 4076TIP3    H212172   7.359   4.861   1.091
 4077TIP3   OH212173   7.080   5.020   2.109
 4077TIP3    H112174   7.053   5.028   2.017
 4077TIP3    H212175   6.998   5.004   2.156
 4078TIP3   OH212176   6.905   4.137   1.143
 4078TIP3    H112177   6.820   4.179   1.127
 4078TIP3    H212178   6.885   4.043   1.150
 4079TIP3   OH212179   6.678   4.566   2.041
 4079TIP3    H112180   6.605   4.544   1.984
 4079TIP3    H212181   6.712   4.482   2.070
 4080TIP3   OH212182   6.557   4.749   1.708
 4080TIP3    H112183   6.649   4.736   1.684
 4080TIP3    H212184   6.559   4.821   1.771
 4081TIP3   OH212185   7.469   5.001   1.885
 4081TIP3    H112186   7.467   5.091   1.918
 4081TIP3    H212187   7.403   4.955   1.936
 4082TIP3   OH212188   7.263   5.180   0.769
 4082TIP3    H112189   7.202   5.119   0.728
 4082TIP3    H212190   7.208   5.237   0.822
 4083TIP3   OH212191   6.679   4.964   1.239
 4083TIP3    H112192   6.730   4.961   1.319
 4083TIP3    H212193   6.636   4.878   1.235
 4084TIP3   OH212194   7.421   4.931   0.661
 4084TIP3    H112195   7.378   5.012   0.633
 4084TIP3    H212196   7.495   4.960   0.714
 4085TIP3   OH212197   6.864   4.766   2.020
 4085TIP3    H112198   6.914   4.759   2.101
 4085TIP3    H212199   6.797   4.698   2.027
 4086TIP3   OH212200   7.246   3.568   1.844
 4086TIP3    H112201   7.161   3.537   1.812
 4086TIP3    H212202   7.226   3.649   1.890
 4087TIP3   OH212203   7.772   3.696   2.058
 4087TIP3    H112204   7.839   3.677   2.123
 4087TIP3    H212205   7.689   3.679   2.103
 4088TIP3   OH212206   8.126   4.158   2.001
 4088TIP3    H112207   8.039   4.166   2.038
 4088TIP3    H212208   8.130   4.225   1.933
 4089TIP3   OH212209   7.421   3.612   0.817
 4089TIP3    H112210   7.386   3.623   0.905
 4089TIP3    H212211   7.379   3.532   0.785
 4090TIP3   OH212212   7.186   4.103   1.852
 4090TIP3    H112213   7.142   4.111   1.937
 4090TIP3    H212214   7.167   4.186   1.808
 4091TIP3   OH212215   7.072   3.980   1.374
 4091TIP3    H112216   6.982   3.956   1.397
 4091TIP3    H212217   7.083   3.949   1.285
 4092TIP3   OH212218   7.562   4.031   1.081
 4092TIP3    H112219   7.517   4.107   1.044
 4092TIP3    H212220   7.617   4.000   1.009
 4093TIP3   OH212221   7.691   4.336   2.176
 4093TIP3    H112222   7.680   4.269   2.243
 4093TIP3    H212223   7.786   4.342   2.164
 4094TIP3   OH212224   7.707   4.082   1.311
 4094TIP3    H112225   7.641   4.089   1.242
 4094TIP3    H212226   7.751   3.999   1.293
 4095TIP3   OH212227   7.028   4.119   2.075
 4095TIP3    H112228   7.036   4.186   2.144
 4095TIP3    H212229   7.011   4.038   2.122
 4096TIP3   OH212230   7.072   3.595   0.787
 4096TIP3    H112231   7.064   3.599   0.882
 4096TIP3    H212232   6.995   3.642   0.754
 4097TIP3   OH212233   6.626   3.636   1.649
 4097TIP3    H112234   6.692   3.674   1.706
 4097TIP3    H212235   6.670   3.624   1.565
 4098TIP3   OH212236   6.529   3.608   1.158
 4098TIP3    H112237   6.573   3.643   1.080
 4098TIP3    H212238   6.467   3.677   1.184
 4099TIP3   OH212239   7.683   4.318   1.759
 4099TIP3    H112240   7.728   4.262   1.695
 4099TIP3    H212241   7.652   4.257   1.826
 4100TIP3   OH212242   7.419   3.845   1.440
 4100TIP3    H112243   7.340   3.820   1.489
 4100TIP3    H212244   7.486   3.785   1.471
 4101TIP3   OH212245   6.835   3.853   1.430
 4101TIP3    H112246   6.747   3.858   1.392
 4101TIP3    H212247   6.864   3.764   1.413
 4102TIP3   OH212248   7.082   3.857   1.129
 4102TIP3    H112249   7.177   3.870   1.121
 4102TIP3    H212250   7.048   3.873   1.041
 4103TIP3   OH212251   7.846   3.872   1.574
 4103TIP3    H112252   7.806   3.861   1.660
 4103TIP3    H212253   7.870   3.784   1.547
 4104TIP3   OH212254   6.970   3.878   0.882
 4104TIP3    H112255   6.907   3.833   0.826
 4104TIP3    H212256   7.027   3.925   0.822
 4105TIP3   OH212257   8.086   5.581   1.875
 4105TIP3    H112258   8.111   5.591   1.783
 4105TIP3    H212259   8.169   5.572   1.922
 4106TIP3   OH212260   7.042   4.672   2.245
 4106TIP3    H112261   7.119   4.692   2.296
 4106TIP3    H212262   6.969   4.680   2.306
 4107TIP3   OH212263   7.477   4.128   1.525
 4107TIP3    H112264   7.496   4.050   1.475
 4107TIP3    H212265   7.477   4.099   1.616
 4108TIP3   OH212266   6.974   3.605   1.413
 4108TIP3    H112267   6.947   3.529   1.464
 4108TIP3    H212268   7.001   3.569   1.329
 4109TIP3   OH212269   7.448   4.048   1.791
 4109TIP3    H112270   7.360   4.074   1.816
 4109TIP3    H212271   7.505   4.090   1.855
 4110TIP3   OH212272   7.204   4.349   0.938
 4110TIP3    H112273   7.127   4.319   0.890
 4110TIP3    H212274   7.168   4.388   1.018
 4111TIP3   OH212275   8.077   4.612   1.523
 4111TIP3    H112276   8.132   4.591   1.447
 4111TIP3    H212277   7.991   4.575   1.501
 4112TIP3   OH212278   7.674   3.711   0.797
 4112TIP3    H112279   7.581   3.687   0.800
 4112TIP3    H212280   7.674   3.807   0.799
 4113TIP3   OH212281   7.607   4.741   1.922
 4113TIP3    H112282   7.645   4.725   2.008
 4113TIP3    H212283   7.559   4.824   1.931
 4114TIP3   OH212284   7.713   3.986   0.850
 4114TIP3    H112285   7.805   4.010   0.861
 4114TIP3    H212286   7.677   4.054   0.793
 4115TIP3   OH212287   6.876   4.408   1.562
 4115TIP3    H112288   6.914   4.382   1.478
 4115TIP3    H212289   6.941   4.382   1.627
 4116TIP3   OH212290   7.358   4.509   0.771
 4116TIP3    H112291   7.298   4.581   0.753
 4116TIP3    H212292   7.307   4.448   0.824
 4117TIP3   OH212293   6.772   4.342   2.188
 4117TIP3    H112294   6.779   4.328   2.283
 4117TIP3    H212295   6.693   4.294   2.163
 4118TIP3   OH212296   7.475   4.494   2.216
 4118TIP3    H112297   7.406   4.434   2.189
 4118TIP3    H212298   7.556   4.451   2.188
 4119TIP3   OH212299   7.734   5.017   1.797
 4119TIP3    H112300   7.640   4.998   1.798
 4119TIP3    H212301   7.752   5.052   1.885
 4120TIP3   OH212302   7.829   4.504   1.449
 4120TIP3    H112303   7.737   4.485   1.465
 4120TIP3    H212304   7.861   4.428   1.400
 4121TIP3   OH212305   6.996   4.708   1.258
 4121TIP3    H112306   6.982   4.787   1.205
 4121TIP3    H212307   6.926   4.709   1.323
 4122TIP3   OH212308   6.579   4.023   0.943
 4122TIP3    H112309   6.628   4.098   0.978
 4122TIP3    H212310   6.497   4.023   0.993
 4123TIP3   OH212311   7.107   4.481   1.160
 4123TIP3    H112312   7.073   4.564   1.194
 4123TIP3    H212313   7.078   4.415   1.223
 4124TIP3   OH212314   7.292   5.067   1.680
 4124TIP3    H112315   7.324   5.150   1.643
 4124TIP3    H212316   7.364   5.036   1.735
 4125TIP3   OH212317   6.919   4.925   1.112
 4125TIP3    H112318   6.834   4.955   1.145
 4125TIP3    H212319   6.961   5.004   1.078
 4126TIP3   OH212320   7.650   4.731   1.650
 4126TIP3    H112321   7.637   4.731   1.745
 4126TIP3    H212322   7.726   4.674   1.637
 4127TIP3   OH212323   7.908   5.209   1.703
 4127TIP3    H112324   7.840   5.144   1.718
 4127TIP3    H212325   7.871   5.269   1.638
 4128TIP3   OH212326   6.979   3.864   2.192
 4128TIP3    H112327   6.884   3.873   2.196
 4128TIP3    H212328   7.002   3.816   2.272
 4129TIP3   OH212329   7.812   4.490   0.744
 4129TIP3    H112330   7.813   4.435   0.822
 4129TIP3    H212331   7.899   4.477   0.705
 4130TIP3   OH212332   6.711   4.963   1.855
 4130TIP3    H112333   6.765   4.901   1.905
 4130TIP3    H212334   6.722   5.046   1.900
 4131TIP3   OH212335   7.087   4.410   0.666
 4131TIP3    H112336   7.109   4.360   0.587
 4131TIP3    H212337   7.114   4.500   0.646
 4132TIP3   OH212338   6.904   4.553   0.813
 4132TIP3    H112339   6.963   4.482   0.786
 4132TIP3    H212340   6.926   4.626   0.754
 4133TIP3   OH212341   6.669   4.255   1.071
 4133TIP3    H112342   6.608   4.307   1.123
 4133TIP3    H212343   6.687   4.308   0.994
 4134TIP3   OH212344   7.757   3.854   1.832
 4134TIP3    H112345   7.804   3.936   1.845
 4134TIP3    H212346   7.766   3.808   1.915
 4135TIP3   OH212347   7.691   3.695   1.083
 4135TIP3    H112348   7.697   3.692   0.987
 4135TIP3    H212349   7.747   3.768   1.108
 4136TIP3   OH212350   7.162   4.675   0.660
 4136TIP3    H112351   7.132   4.753   0.706
 4136TIP3    H212352   7.201   4.708   0.579
 4137TIP3   OH212353   7.358   3.872   1.170
 4137TIP3    H112354   7.429   3.926   1.135
 4137TIP3    H212355   7.378   3.866   1.264
 4138TIP3   OH212356   7.625   4.155   1.974
 4138TIP3    H112357   7.630   4.225   2.040
 4138TIP3    H212358   7.695   4.095   1.997
 4139TIP3   OH212359   7.529   3.565   1.259
 4139TIP3    H112360   7.553   3.607   1.342
 4139TIP3    H212361   7.584   3.609   1.194
 4140TIP3   OH212362   6.991   4.820   0.868
 4140TIP3    H112363   6.910   4.821   0.818
 4140TIP3    H212364   6.967   4.854   0.954
 4141TIP3   OH212365   7.050   3.584   1.068
 4141TIP3    H112366   7.036   3.675   1.097
 4141TIP3    H212367   7.144   3.571   1.073
 4142TIP3   OH212368   7.920   4.258   1.348
 4142TIP3    H112369   7.838   4.212   1.330
 4142TIP3    H212370   7.941   4.237   1.439
 4143TIP3   OH212371   6.685   4.398   0.839
 4143TIP3    H112372   6.756   4.463   0.843
 4143TIP3    H212373   6.710   4.339   0.768
 4144TIP3   OH212374   6.600   3.747   0.936
 4144TIP3    H112375   6.614   3.841   0.949
 4144TIP3    H212376   6.554   3.741   0.852
 4145TIP3   OH212377   7.947   5.235   1.326
 4145TIP3    H112378   7.897   5.272   1.253
 4145TIP3    H212379   8.038   5.255   1.305
 4146TIP3   OH212380   6.987   3.482   1.801
 4146TIP3    H112381   6.959   3.449   1.715
 4146TIP3    H212382   6.979   3.406   1.859
 4147TIP3   OH212383   6.546   4.719   1.238
 4147TIP3    H112384   6.504   4.751   1.318
 4147TIP3    H212385   6.483   4.739   1.168
 4148TIP3   OH212386   6.718   5.271   2.256
 4148TIP3    H112387   6.799   5.273   2.306
 4148TIP3    H212388   6.693   5.178   2.254
 4149TIP3   OH212389   7.185   5.185   2.301
 4149TIP3    H112390   7.275   5.155   2.310
 4149TIP3    H212391   7.148   5.132   2.231
 4150TIP3   OH212392   7.773   5.114   2.047
 4150TIP3    H112393   7.788   5.050   2.117
 4150TIP3    H212394   7.846   5.175   2.054
 4151TIP3   OH212395   6.839   4.678   2.425
 4151TIP3    H112396   6.836   4.587   2.454
 4151TIP3    H212397   6.750   4.710   2.437
 4152TIP3   OH212398   6.822   4.253   0.649
 4152TIP3    H112399   6.878   4.236   0.724
 4152TIP3    H212400   6.882   4.268   0.576
 4153TIP3   OH212401   7.450   4.769   2.223
 4153TIP3    H112402   7.398   4.788   2.146
 4153TIP3    H212403   7.472   4.676   2.214
 4154TIP3   OH212404   7.369   4.473   0.493
 4154TIP3    H112405   7.440   4.534   0.472
 4154TIP3    H212406   7.360   4.479   0.588
 4155TIP3   OH212407   7.920   4.819   1.884
 4155TIP3    H112408   7.995   4.827   1.825
 4155TIP3    H212409   7.853   4.877   1.846
 4156TIP3   OH212410   6.942   4.398   2.457
 4156TIP3    H112411   7.021   4.401   2.402
 4156TIP3    H212412   6.970   4.432   2.542
 4157TIP3   OH212413   6.972   4.203   0.875
 4157TIP3    H112414   6.962   4.172   0.964
 4157TIP3    H212415   7.029   4.138   0.833
 4158TIP3   OH212416   7.298   4.302   2.110
 4158TIP3    H112417   7.211   4.341   2.116
 4158TIP3    H212418   7.332   4.330   2.026
 4159TIP3   OH212419   7.129   4.032   0.722
 4159TIP3    H112420   7.094   4.027   0.633
 4159TIP3    H212421   7.223   4.046   0.710
 4160TIP3   OH212422   7.789   4.673   2.207
 4160TIP3    H112423   7.850   4.631   2.147
 4160TIP3    H212424   7.785   4.613   2.282
 4161TIP3   OH212425   7.391   4.069   2.223
 4161TIP3    H112426   7.399   4.000   2.158
 4161TIP3    H212427   7.362   4.146   2.174
 4162TIP3   OH212428   7.409   3.870   2.020
 4162TIP3    H112429   7.440   3.903   1.936
 4162TIP3    H212430   7.318   3.846   2.004
 4163TIP3   OH212431   7.416   4.396   1.884
 4163TIP3    H112432   7.504   4.409   1.849
 4163TIP3    H212433   7.362   4.461   1.839
 4164TIP3   OH212434   7.959   4.304   2.285
 4164TIP3    H112435   7.955   4.211   2.263
 4164TIP3    H212436   8.044   4.333   2.252
 4165TIP3   OH212437   7.966   4.585   2.010
 4165TIP3    H112438   7.943   4.663   1.960
 4165TIP3    H212439   8.055   4.563   1.982
 4166TIP3   OH212440   7.277   4.154   2.464
 4166TIP3    H112441   7.207   4.092   2.484
 4166TIP3    H212442   7.304   4.131   2.375
 4167TIP3   OH212443   7.512   3.635   2.133
 4167TIP3    H112444   7.474   3.716   2.097
 4167TIP3    H212445   7.447   3.568   2.115
 4168TIP3   OH212446   7.644   4.113   2.326
 4168TIP3    H112447   7.646   4.095   2.420
 4168TIP3    H212448   7.556   4.090   2.299
 4169TIP3   OH212449   7.855   4.054   2.159
 4169TIP3    H112450   7.773   4.073   2.206
 4169TIP3    H212451   7.911   4.013   2.225
 4170TIP3   OH212452   7.995   3.966   2.367
 4170TIP3    H112453   8.056   3.895   2.384
 4170TIP3    H212454   7.981   4.008   2.452
 4171TIP3   OH212455   7.115   3.932   2.529
 4171TIP3    H112456   7.123   3.844   2.492
 4171TIP3    H212457   7.153   3.925   2.616
 4172TIP3   OH212458   7.607   3.603   2.386
 4172TIP3    H112459   7.676   3.538   2.373
 4172TIP3    H212460   7.568   3.614   2.300
 4173TIP3   OH212461   7.675   3.819   2.542
 4173TIP3    H112462   7.655   3.747   2.483
 4173TIP3    H212463   7.599   3.877   2.536
 4174TIP3   OH212464   6.895   5.052   0.524
 4174TIP3    H112465   6.927   5.128   0.571
 4174TIP3    H212466   6.929   5.062   0.435
 4175TIP3   OH212467   6.415   4.399   0.888
 4175TIP3    H112468   6.511   4.393   0.890
 4175TIP3    H212469   6.387   4.324   0.837
 4176TIP3   OH212470   6.320   5.049   1.313
 4176TIP3    H112471   6.254   4.994   1.272
 4176TIP3    H212472   6.368   4.991   1.371
 4177TIP3   OH212473   6.469   4.876   1.469
 4177TIP3    H112474   6.457   4.811   1.539
 4177TIP3    H212475   6.520   4.946   1.510
 4178TIP3   OH212476   8.228   5.308   1.538
 4178TIP3    H112477   8.204   5.218   1.516
 4178TIP3    H212478   8.214   5.314   1.632
 4179TIP3   OH212479   8.148   5.079   2.050
 4179TIP3    H112480   8.105   5.098   2.133
 4179TIP3    H212481   8.237   5.053   2.074
 4180TIP3   OH212482   8.096   5.059   1.557
 4180TIP3    H112483   8.032   5.108   1.609
 4180TIP3    H212484   8.046   5.022   1.485
 4181TIP3   OH212485   7.998   4.172   1.099
 4181TIP3    H112486   8.088   4.197   1.081
 4181TIP3    H212487   7.978   4.210   1.184
 4182TIP3   OH212488   6.635   4.312   1.826
 4182TIP3    H112489   6.627   4.278   1.737
 4182TIP3    H212490   6.729   4.307   1.844
 4183TIP3   OH212491   6.853   3.992   2.462
 4183TIP3    H112492   6.947   3.991   2.483
 4183TIP3    H212493   6.819   3.912   2.501
 4184TIP3   OH212494   6.828   3.708   1.825
 4184TIP3    H112495   6.882   3.629   1.828
 4184TIP3    H212496   6.891   3.779   1.808
 4185TIP3   OH212497   6.610   3.970   1.877
 4185TIP3    H112498   6.662   3.964   1.797
 4185TIP3    H212499   6.639   4.050   1.919
 4186TIP3   OH212500   6.600   3.466   1.379
 4186TIP3    H112501   6.516   3.461   1.424
 4186TIP3    H212502   6.584   3.524   1.304
 4187TIP3   OH212503   7.670   5.235   0.928
 4187TIP3    H112504   7.654   5.158   0.872
 4187TIP3    H212505   7.763   5.231   0.948
 4188TIP3   OH212506   6.824   3.530   2.203
 4188TIP3    H112507   6.776   3.528   2.285
 4188TIP3    H212508   6.770   3.582   2.144
 4189TIP3   OH212509   6.862   4.981   2.272
 4189TIP3    H112510   6.768   4.963   2.269
 4189TIP3    H212511   6.889   4.951   2.359
 4190TIP3   OH212512   7.064   5.033   1.828
 4190TIP3    H112513   7.015   5.110   1.801
 4190TIP3    H212514   7.147   5.040   1.781
 4191TIP3   OH212515   7.465   5.269   1.966
 4191TIP3    H112516   7.497   5.265   2.056
 4191TIP3    H212517   7.535   5.314   1.918
 4192TIP3   OH212518   7.671   5.408   1.846
 4192TIP3    H112519   7.741   5.353   1.813
 4192TIP3    H212520   7.716   5.479   1.892
 4193TIP3   OH212521   6.721   5.278   1.882
 4193TIP3    H112522   6.629   5.299   1.863
 4193TIP3    H212523   6.747   5.342   1.948
 4194TIP3   OH212524   6.956   5.268   1.742
 4194TIP3    H112525   6.872   5.272   1.788
 4194TIP3    H212526   6.933   5.288   1.651
 4195TIP3   OH212527   7.373   5.298   1.558
 4195TIP3    H112528   7.295   5.311   1.504
 4195TIP3    H212529   7.385   5.381   1.603
 4196TIP3   OH212530   7.631   5.216   1.546
 4196TIP3    H112531   7.541   5.247   1.556
 4196TIP3    H212532   7.684   5.296   1.548
 4197TIP3   OH212533   7.833   5.400   1.517
 4197TIP3    H112534   7.862   5.489   1.499
 4197TIP3    H212535   7.870   5.348   1.446
 4198TIP3   OH212536   6.635   5.062   1.606
 4198TIP3    H112537   6.662   5.037   1.695
 4198TIP3    H212538   6.707   5.032   1.550
 4199TIP3   OH212539   6.832   4.943   1.463
 4199TIP3    H112540   6.842   4.856   1.500
 4199TIP3    H212541   6.919   4.982   1.467
 4200TIP3   OH212542   7.094   5.002   1.496
 4200TIP3    H112543   7.123   4.911   1.487
 4200TIP3    H212544   7.158   5.041   1.555
 4201TIP3   OH212545   7.591   3.640   1.516
 4201TIP3    H112546   7.570   3.594   1.597
 4201TIP3    H212547   7.684   3.625   1.503
 4202TIP3   OH212548   6.905   3.379   1.557
 4202TIP3    H112549   6.816   3.345   1.568
 4202TIP3    H212550   6.960   3.301   1.550
 4203TIP3   OH212551   6.726   3.279   1.209
 4203TIP3    H112552   6.754   3.331   1.134
 4203TIP3    H212553   6.689   3.342   1.270
 4204TIP3   OH212554   7.369   3.423   1.453
 4204TIP3    H112555   7.410   3.476   1.384
 4204TIP3    H212556   7.408   3.455   1.534
 4205TIP3   OH212557   7.846   3.570   1.438
 4205TIP3    H112558   7.863   3.555   1.345
 4205TIP3    H212559   7.869   3.487   1.480
 4206TIP3   OH212560   6.381   4.777   1.035
 4206TIP3    H112561   6.291   4.752   1.013
 4206TIP3    H212562   6.385   4.870   1.013
 4207TIP3   OH212563   6.838   3.418   0.986
 4207TIP3    H112564   6.882   3.356   0.929
 4207TIP3    H212565   6.908   3.474   1.019
 4208TIP3   OH212566   7.324   3.617   1.077
 4208TIP3    H112567   7.384   3.570   1.134
 4208TIP3    H212568   7.333   3.709   1.102
 4209TIP3   OH212569   7.138   3.662   2.442
 4209TIP3    H112570   7.105   3.597   2.503
 4209TIP3    H212571   7.231   3.670   2.464
 4210TIP3   OH212572   7.387   3.661   2.565
 4210TIP3    H112573   7.464   3.635   2.515
 4210TIP3    H212574   7.378   3.595   2.633
 4211TIP3   OH212575   6.469   4.841   0.502
 4211TIP3    H112576   6.471   4.900   0.578
 4211TIP3    H212577   6.539   4.778   0.519
 4212TIP3   OH212578   8.147   5.308   1.799
 4212TIP3    H112579   8.062   5.267   1.780
 4212TIP3    H212580   8.124   5.393   1.836
 4213TIP3   OH212581   0.071   5.222   2.839
 4213TIP3    H112582   0.044   5.311   2.815
 4213TIP3    H212583   0.007   5.165   2.798
 4214TIP3   OH212584   0.117   5.205   3.108
 4214TIP3    H112585   0.091   5.118   3.139
 4214TIP3    H212586   0.103   5.202   3.014
 4215TIP3   OH212587   0.328   5.508   2.878
 4215TIP3    H112588   0.343   5.441   2.945
 4215TIP3    H212589   0.354   5.590   2.920
 4216TIP3   OH212590   8.490   5.987   2.894
 4216TIP3    H112591   8.537   5.906   2.874
 4216TIP3    H212592   8.403   5.958   2.920
 4217TIP3   OH212593   8.385   5.339   3.168
 4217TIP3    H112594   8.474   5.309   3.150
 4217TIP3    H212595   8.396   5.432   3.188
 4218TIP3   OH212596   0.896   4.734   3.240
 4218TIP3    H112597   0.912   4.820   3.279
 4218TIP3    H212598   0.932   4.742   3.151
 4219TIP3   OH212599   0.326   4.904   3.267
 4219TIP3    H112600   0.363   4.817   3.282
 4219TIP3    H212601   0.288   4.899   3.180
 4220TIP3   OH212602   0.334   4.634   2.849
 4220TIP3    H112603   0.397   4.634   2.922
 4220TIP3    H212604   0.381   4.677   2.778
 4221TIP3   OH212605   0.956   4.948   3.414
 4221TIP3    H112606   0.880   5.003   3.396
 4221TIP3    H212607   1.002   4.993   3.484
 4222TIP3   OH212608   8.440   5.410   2.659
 4222TIP3    H112609   8.372   5.473   2.677
 4222TIP3    H212610   8.521   5.461   2.655
 4223TIP3   OH212611   0.483   4.700   3.067
 4223TIP3    H112612   0.481   4.647   3.147
 4223TIP3    H212613   0.548   4.768   3.085
 4224TIP3   OH212614   0.368   5.756   3.001
 4224TIP3    H112615   0.278   5.748   3.031
 4224TIP3    H212616   0.378   5.848   2.976
 4225TIP3   OH212617   0.709   4.609   3.417
 4225TIP3    H112618   0.621   4.639   3.395
 4225TIP3    H212619   0.764   4.640   3.346
 4226TIP3   OH212620   8.478   4.312   3.393
 4226TIP3    H112621   8.489   4.223   3.426
 4226TIP3    H212622   8.490   4.369   3.469
 4227TIP3   OH212623   0.058   5.769   2.718
 4227TIP3    H112624   0.093   5.681   2.705
 4227TIP3    H212625   0.124   5.827   2.679
 4228TIP3   OH212626   0.184   5.530   2.650
 4228TIP3    H112627   0.229   5.481   2.581
 4228TIP3    H212628   0.240   5.521   2.727
 4229TIP3   OH212629   0.605   5.645   3.389
 4229TIP3    H112630   0.588   5.572   3.330
 4229TIP3    H212631   0.592   5.723   3.336
 4230TIP3   OH212632   8.427   5.056   2.681
 4230TIP3    H112633   8.354   4.995   2.690
 4230TIP3    H212634   8.456   5.047   2.590
 4231TIP3   OH212635   8.419   4.808   2.359
 4231TIP3    H112636   8.468   4.873   2.409
 4231TIP3    H212637   8.487   4.755   2.316
 4232TIP3   OH212638   0.792   5.303   3.237
 4232TIP3    H112639   0.708   5.349   3.238
 4232TIP3    H212640   0.825   5.316   3.148
 4233TIP3   OH212641   0.241   5.142   2.627
 4233TIP3    H112642   0.198   5.172   2.707
 4233TIP3    H212643   0.324   5.105   2.657
 4234TIP3   OH212644   0.534   5.194   3.552
 4234TIP3    H112645   0.504   5.275   3.593
 4234TIP3    H212646   0.453   5.149   3.526
 4235TIP3   OH212647   0.106   5.773   3.088
 4235TIP3    H112648   0.109   5.863   3.120
 4235TIP3    H212649   0.096   5.720   3.167
 4236TIP3   OH212650   0.066   5.032   2.447
 4236TIP3    H112651   0.134   5.067   2.504
 4236TIP3    H212652   0.107   5.028   2.360
 4237TIP3   OH212653   0.594   4.195   2.499
 4237TIP3    H112654   0.527   4.215   2.564
 4237TIP3    H212655   0.596   4.272   2.442
 4238TIP3   OH212656   0.409   5.601   2.053
 4238TIP3    H112657   0.405   5.694   2.029
 4238TIP3    H212658   0.498   5.574   2.032
 4239TIP3   OH212659   0.828   6.019   3.450
 4239TIP3    H112660   0.836   5.924   3.458
 4239TIP3    H212661   0.746   6.040   3.496
 4240TIP3   OH212662   8.414   5.850   2.144
 4240TIP3    H112663   8.468   5.790   2.093
 4240TIP3    H212664   8.455   5.853   2.230
 4241TIP3   OH212665   0.021   5.847   2.401
 4241TIP3    H112666  -0.026   5.767   2.424
 4241TIP3    H212667   0.103   5.842   2.450
 4242TIP3   OH212668   0.721   5.134   3.743
 4242TIP3    H112669   0.654   5.151   3.677
 4242TIP3    H212670   0.743   5.041   3.732
 4243TIP3   OH212671   0.315   4.479   3.719
 4243TIP3    H112672   0.397   4.453   3.760
 4243TIP3    H212673   0.253   4.488   3.792
 4244TIP3   OH212674   0.492   4.865   3.579
 4244TIP3    H112675   0.488   4.876   3.674
 4244TIP3    H212676   0.438   4.937   3.545
 4245TIP3   OH212677   0.186   5.013   2.209
 4245TIP3    H112678   0.142   4.997   2.126
 4245TIP3    H212679   0.270   5.052   2.185
 4246TIP3   OH212680   8.378   4.439   2.443
 4246TIP3    H112681   8.379   4.426   2.538
 4246TIP3    H212682   8.344   4.356   2.409
 4247TIP3   OH212683   0.099   4.868   2.773
 4247TIP3    H112684   0.044   4.943   2.753
 4247TIP3    H212685   0.137   4.842   2.689
 4248TIP3   OH212686   0.249   5.132   3.854
 4248TIP3    H112687   0.237   5.038   3.864
 4248TIP3    H212688   0.342   5.147   3.869
 4249TIP3   OH212689   0.248   4.865   3.001
 4249TIP3    H112690   0.202   4.875   2.918
 4249TIP3    H212691   0.307   4.791   2.987
 4250TIP3   OH212692   0.309   5.056   3.490
 4250TIP3    H112693   0.304   5.007   3.408
 4250TIP3    H212694   0.258   5.135   3.474
 4251TIP3   OH212695   8.418   4.491   3.143
 4251TIP3    H112696   8.353   4.519   3.207
 4251TIP3    H212697   8.501   4.525   3.177
 4252TIP3   OH212698   0.375   4.638   3.331
 4252TIP3    H112699   0.342   4.663   3.417
 4252TIP3    H212700   0.309   4.578   3.295
 4253TIP3   OH212701   0.555   6.351   3.545
 4253TIP3    H112702   0.552   6.357   3.449
 4253TIP3    H212703   0.634   6.399   3.570
 4254TIP3   OH212704   0.029   4.909   3.158
 4254TIP3    H112705   0.095   4.874   3.099
 4254TIP3    H212706  -0.048   4.854   3.144
 4255TIP3   OH212707   8.455   4.761   3.418
 4255TIP3    H112708   8.416   4.839   3.379
 4255TIP3    H212709   8.543   4.789   3.445
 4256TIP3   OH212710   0.566   5.453   3.203
 4256TIP3    H112711   0.604   5.501   3.129
 4256TIP3    H212712   0.489   5.410   3.166
 4257TIP3   OH212713   0.135   4.514   2.499
 4257TIP3    H112714   0.043   4.509   2.470
 4257TIP3    H212715   0.153   4.608   2.502
 4258TIP3   OH212716   0.026   5.483   3.581
 4258TIP3    H112717   0.063   5.525   3.659
 4258TIP3    H212718  -0.066   5.508   3.581
 4259TIP3   OH212719   0.218   4.779   2.540
 4259TIP3    H112720   0.308   4.764   2.570
 4259TIP3    H212721   0.228   4.835   2.463
 4260TIP3   OH212722   8.154   5.351   2.532
 4260TIP3    H112723   8.239   5.343   2.490
 4260TIP3    H212724   8.164   5.305   2.616
 4261TIP3   OH212725   0.034   5.304   3.897
 4261TIP3    H112726  -0.035   5.279   3.836
 4261TIP3    H212727   0.109   5.250   3.872
 4262TIP3   OH212728   0.232   5.780   3.588
 4262TIP3    H112729   0.141   5.760   3.607
 4262TIP3    H212730   0.249   5.862   3.635
 4263TIP3   OH212731   0.555   4.833   2.396
 4263TIP3    H112732   0.503   4.803   2.322
 4263TIP3    H212733   0.604   4.909   2.363
 4264TIP3   OH212734   0.851   5.746   3.463
 4264TIP3    H112735   0.761   5.716   3.471
 4264TIP3    H212736   0.882   5.709   3.380
 4265TIP3   OH212737   0.332   5.664   2.312
 4265TIP3    H112738   0.294   5.585   2.351
 4265TIP3    H212739   0.360   5.637   2.225
 4266TIP3   OH212740   0.369   5.314   3.074
 4266TIP3    H112741   0.281   5.292   3.104
 4266TIP3    H212742   0.406   5.230   3.046
 4267TIP3   OH212743   0.214   5.542   3.297
 4267TIP3    H112744   0.119   5.546   3.296
 4267TIP3    H212745   0.234   5.457   3.335
 4268TIP3   OH212746   0.111   5.445   2.241
 4268TIP3    H112747   0.161   5.401   2.310
 4268TIP3    H212748   0.063   5.374   2.198
 4269TIP3   OH212749   0.346   6.071   3.381
 4269TIP3    H112750   0.319   5.982   3.357
 4269TIP3    H212751   0.347   6.119   3.298
 4270TIP3   OH212752   0.412   5.870   2.016
 4270TIP3    H112753   0.437   5.923   1.940
 4270TIP3    H212754   0.349   5.924   2.064
 4271TIP3   OH212755   0.276   5.353   2.447
 4271TIP3    H112756   0.263   5.278   2.505
 4271TIP3    H212757   0.367   5.347   2.420
 4272TIP3   OH212758   0.268   4.709   3.579
 4272TIP3    H112759   0.352   4.754   3.587
 4272TIP3    H212760   0.279   4.628   3.629
 4273TIP3   OH212761   0.207   4.419   2.744
 4273TIP3    H112762   0.179   4.442   2.656
 4273TIP3    H212763   0.259   4.493   2.773
 4274TIP3   OH212764   8.254   4.632   2.911
 4274TIP3    H112765   8.216   4.719   2.895
 4274TIP3    H212766   8.349   4.646   2.906
 4275TIP3   OH212767   0.102   4.919   3.655
 4275TIP3    H112768   0.144   4.990   3.606
 4275TIP3    H212769   0.158   4.843   3.641
 4276TIP3   OH212770   0.052   4.329   2.952
 4276TIP3    H112771   0.020   4.409   2.995
 4276TIP3    H212772   0.108   4.362   2.881
 4277TIP3   OH212773   0.763   4.882   3.626
 4277TIP3    H112774   0.672   4.860   3.603
 4277TIP3    H212775   0.811   4.875   3.543
 4278TIP3   OH212776   0.450   5.057   3.007
 4278TIP3    H112777   0.372   5.001   3.018
 4278TIP3    H212778   0.517   5.016   3.061
 4279TIP3   OH212779   0.399   6.027   2.955
 4279TIP3    H112780   0.356   6.064   2.878
 4279TIP3    H212781   0.492   6.045   2.943
 4280TIP3   OH212782   0.253   6.011   3.743
 4280TIP3    H112783   0.227   5.955   3.817
 4280TIP3    H212784   0.341   6.041   3.765
 4281TIP3   OH212785   0.069   5.643   2.050
 4281TIP3    H112786   0.099   5.587   2.122
 4281TIP3    H212787   0.134   5.630   1.981
 4282TIP3   OH212788   8.256   5.336   2.194
 4282TIP3    H112789   8.296   5.322   2.280
 4282TIP3    H212790   8.281   5.260   2.142
 4283TIP3   OH212791   0.416   5.577   3.582
 4283TIP3    H112792   0.475   5.600   3.510
 4283TIP3    H212793   0.338   5.629   3.567
 4284TIP3   OH212794   8.013   4.860   2.420
 4284TIP3    H112795   8.002   4.862   2.325
 4284TIP3    H212796   8.069   4.935   2.440
 4285TIP3   OH212797   0.337   5.459   3.969
 4285TIP3    H112798   0.399   5.427   3.904
 4285TIP3    H212799   0.320   5.383   4.025
 4286TIP3   OH212800   0.393   5.128   2.069
 4286TIP3    H112801   0.376   5.078   1.989
 4286TIP3    H212802   0.363   5.216   2.049
 4287TIP3   OH212803   8.396   4.553   3.598
 4287TIP3    H112804   8.419   4.600   3.518
 4287TIP3    H212805   8.368   4.621   3.659
 4288TIP3   OH212806   8.343   5.270   3.435
 4288TIP3    H112807   8.353   5.297   3.344
 4288TIP3    H212808   8.301   5.345   3.478
 4289TIP3   OH212809   0.517   5.131   3.949
 4289TIP3    H112810   0.518   5.037   3.932
 4289TIP3    H212811   0.591   5.165   3.899
 4290TIP3   OH212812   0.524   5.405   3.757
 4290TIP3    H112813   0.469   5.461   3.703
 4290TIP3    H212814   0.610   5.409   3.716
 4291TIP3   OH212815   0.033   4.379   3.774
 4291TIP3    H112816  -0.009   4.444   3.718
 4291TIP3    H212817  -0.022   4.301   3.765
 4292TIP3   OH212818   0.218   4.864   3.940
 4292TIP3    H112819   0.209   4.885   4.033
 4292TIP3    H212820   0.166   4.785   3.928
 4293TIP3   OH212821   0.470   4.874   3.846
 4293TIP3    H112822   0.382   4.860   3.881
 4293TIP3    H212823   0.528   4.833   3.911
 4294TIP3   OH212824   0.636   4.801   4.047
 4294TIP3    H112825   0.640   4.706   4.059
 4294TIP3    H212826   0.622   4.836   4.135
 4295TIP3   OH212827   0.204   4.444   3.975
 4295TIP3    H112828   0.246   4.359   3.983
 4295TIP3    H212829   0.125   4.427   3.923
 4296TIP3   OH212830   0.198   4.650   4.150
 4296TIP3    H112831   0.203   4.580   4.085
 4296TIP3    H212832   0.114   4.636   4.193
 4297TIP3   OH212833   0.657   6.102   2.941
 4297TIP3    H112834   0.687   6.116   3.031
 4297TIP3    H212835   0.732   6.128   2.887
 4298TIP3   OH212836   0.678   6.099   3.225
 4298TIP3    H112837   0.626   6.019   3.215
 4298TIP3    H212838   0.743   6.077   3.292
 4299TIP3   OH212839   0.738   5.801   3.785
 4299TIP3    H112840   0.644   5.794   3.799
 4299TIP3    H212841   0.759   5.892   3.805
 4300TIP3   OH212842   0.544   5.324   2.395
 4300TIP3    H112843   0.606   5.389   2.362
 4300TIP3    H212844   0.585   5.289   2.474
 4301TIP3   OH212845   0.646   5.205   2.616
 4301TIP3    H112846   0.585   5.152   2.668
 4301TIP3    H212847   0.720   5.220   2.675
 4302TIP3   OH212848   0.735   5.580   3.027
 4302TIP3    H112849   0.786   5.507   2.991
 4302TIP3    H212850   0.743   5.649   2.962
 4303TIP3   OH212851   0.542   5.854   3.210
 4303TIP3    H112852   0.457   5.847   3.253
 4303TIP3    H212853   0.528   5.816   3.123
 4304TIP3   OH212854   0.579   5.079   2.261
 4304TIP3    H112855   0.514   5.092   2.192
 4304TIP3    H212856   0.574   5.159   2.314
 4305TIP3   OH212857   0.384   4.742   2.194
 4305TIP3    H112858   0.381   4.776   2.105
 4305TIP3    H212859   0.403   4.648   2.184
 4306TIP3   OH212860   0.467   5.027   2.734
 4306TIP3    H112861   0.494   4.937   2.718
 4306TIP3    H212862   0.472   5.037   2.829
 4307TIP3   OH212863   0.751   5.448   3.604
 4307TIP3    H112864   0.817   5.383   3.582
 4307TIP3    H212865   0.730   5.490   3.521
 4308TIP3   OH212866   0.931   5.240   3.594
 4308TIP3    H112867   0.861   5.204   3.649
 4308TIP3    H212868   1.007   5.184   3.612
 4309TIP3   OH212869   0.410   4.468   2.159
 4309TIP3    H112870   0.477   4.447   2.225
 4309TIP3    H212871   0.330   4.426   2.191
 4310TIP3   OH212872   0.478   4.745   2.639
 4310TIP3    H112873   0.525   4.663   2.650
 4310TIP3    H212874   0.515   4.784   2.559
 4311TIP3   OH212875   0.638   4.918   3.152
 4311TIP3    H112876   0.721   4.939   3.108
 4311TIP3    H212877   0.647   4.955   3.240
 4312TIP3   OH212878   0.715   5.078   3.374
 4312TIP3    H112879   0.651   5.113   3.436
 4312TIP3    H212880   0.743   5.153   3.322
 4313TIP3   OH212881   1.164   4.670   3.913
 4313TIP3    H112882   1.227   4.617   3.864
 4313TIP3    H212883   1.121   4.724   3.846
 4314TIP3   OH212884   0.586   4.497   2.681
 4314TIP3    H112885   0.640   4.491   2.759
 4314TIP3    H212886   0.537   4.414   2.679
 4315TIP3   OH212887   1.005   4.785   3.726
 4315TIP3    H112888   0.921   4.829   3.742
 4315TIP3    H212889   0.982   4.709   3.673
 4316TIP3   OH212890   0.618   4.406   2.325
 4316TIP3    H112891   0.673   4.356   2.265
 4316TIP3    H212892   0.678   4.465   2.370
 4317TIP3   OH212893   0.223   5.939   2.585
 4317TIP3    H112894   0.287   5.940   2.515
 4317TIP3    H212895   0.252   6.008   2.645
 4318TIP3   OH212896   0.142   6.249   3.474
 4318TIP3    H112897   0.198   6.177   3.447
 4318TIP3    H212898   0.192   6.295   3.541
 4319TIP3   OH212899   0.912   4.550   3.612
 4319TIP3    H112900   0.833   4.561   3.559
 4319TIP3    H212901   0.939   4.460   3.596
 4320TIP3   OH212902   0.111   6.043   3.165
 4320TIP3    H112903   0.046   6.078   3.103
 4320TIP3    H212904   0.181   6.109   3.165
 4321TIP3   OH212905   0.333   6.219   3.142
 4321TIP3    H112906   0.313   6.299   3.094
 4321TIP3    H212907   0.358   6.156   3.075
 4322TIP3   OH212908   0.172   4.466   3.254
 4322TIP3    H112909   0.110   4.402   3.287
 4322TIP3    H212910   0.228   4.417   3.193
 4323TIP3   OH212911   0.604   4.410   3.128
 4323TIP3    H112912   0.650   4.438   3.049
 4323TIP3    H212913   0.515   4.392   3.099
 4324TIP3   OH212914   0.749   4.473   2.898
 4324TIP3    H112915   0.816   4.408   2.874
 4324TIP3    H212916   0.790   4.557   2.880
 4325TIP3   OH212917   8.399   4.192   3.138
 4325TIP3    H112918   8.464   4.226   3.076
 4325TIP3    H212919   8.414   4.242   3.218
 4326TIP3   OH212920   0.336   4.317   3.094
 4326TIP3    H112921   0.307   4.269   3.017
 4326TIP3    H212922   0.350   4.249   3.161
 4327TIP3   OH212923   0.426   4.264   2.698
 4327TIP3    H112924   0.344   4.313   2.710
 4327TIP3    H212925   0.408   4.179   2.739
 4328TIP3   OH212926   8.390   4.431   2.717
 4328TIP3    H112927   8.366   4.376   2.792
 4328TIP3    H212928   8.451   4.496   2.752
 4329TIP3   OH212929   0.376   5.930   2.358
 4329TIP3    H112930   0.370   5.836   2.344
 4329TIP3    H212931   0.336   5.969   2.280
 4330TIP3   OH212932   0.680   4.533   4.051
 4330TIP3    H112933   0.703   4.503   4.140
 4330TIP3    H212934   0.763   4.530   4.003
 4331TIP3   OH212935   0.575   6.076   3.548
 4331TIP3    H112936   0.497   6.053   3.497
 4331TIP3    H212937   0.567   6.171   3.562
 4332TIP3   OH212938   1.859   5.470   2.280
 4332TIP3    H112939   1.826   5.557   2.254
 4332TIP3    H212940   1.788   5.410   2.259
 4333TIP3   OH212941   1.847   5.465   2.705
 4333TIP3    H112942   1.906   5.450   2.779
 4333TIP3    H212943   1.801   5.382   2.693
 4334TIP3   OH212944   1.153   5.308   3.065
 4334TIP3    H112945   1.196   5.260   3.136
 4334TIP3    H212946   1.225   5.335   3.007
 4335TIP3   OH212947   2.120   5.767   2.385
 4335TIP3    H112948   2.110   5.698   2.450
 4335TIP3    H212949   2.141   5.846   2.436
 4336TIP3   OH212950   1.140   5.761   2.753
 4336TIP3    H112951   1.128   5.666   2.750
 4336TIP3    H212952   1.235   5.773   2.743
 4337TIP3   OH212953   0.792   4.937   2.620
 4337TIP3    H112954   0.739   5.014   2.602
 4337TIP3    H212955   0.846   4.926   2.541
 4338TIP3   OH212956   0.890   5.236   2.746
 4338TIP3    H112957   0.933   5.154   2.772
 4338TIP3    H212958   0.942   5.268   2.673
 4339TIP3   OH212959   1.787   6.189   2.404
 4339TIP3    H112960   1.808   6.127   2.334
 4339TIP3    H212961   1.799   6.138   2.485
 4340TIP3   OH212962   1.654   5.682   2.711
 4340TIP3    H112963   1.697   5.601   2.686
 4340TIP3    H212964   1.725   5.740   2.738
 4341TIP3   OH212965   2.693   4.997   2.734
 4341TIP3    H112966   2.708   5.080   2.779
 4341TIP3    H212967   2.707   5.017   2.642
 4342TIP3   OH212968   2.050   5.162   2.764
 4342TIP3    H112969   2.088   5.079   2.792
 4342TIP3    H212970   2.025   5.148   2.672
 4343TIP3   OH212971   1.428   4.827   2.706
 4343TIP3    H112972   1.400   4.899   2.650
 4343TIP3    H212973   1.378   4.751   2.673
 4344TIP3   OH212974   2.120   4.925   2.345
 4344TIP3    H112975   2.183   4.919   2.417
 4344TIP3    H212976   2.170   4.961   2.272
 4345TIP3   OH212977   1.036   5.019   2.835
 4345TIP3    H112978   1.123   5.009   2.874
 4345TIP3    H212979   1.039   4.966   2.755
 4346TIP3   OH212980   1.461   5.245   2.662
 4346TIP3    H112981   1.555   5.227   2.670
 4346TIP3    H212982   1.425   5.163   2.628
 4347TIP3   OH212983   2.746   5.222   2.892
 4347TIP3    H112984   2.656   5.254   2.885
 4347TIP3    H212985   2.775   5.251   2.979
 4348TIP3   OH212986   1.407   4.829   3.155
 4348TIP3    H112987   1.353   4.862   3.083
 4348TIP3    H212988   1.355   4.844   3.234
 4349TIP3   OH212989   1.753   5.687   2.144
 4349TIP3    H112990   1.712   5.654   2.064
 4349TIP3    H212991   1.697   5.761   2.170
 4350TIP3   OH212992   1.507   5.602   2.933
 4350TIP3    H112993   1.452   5.674   2.965
 4350TIP3    H212994   1.554   5.639   2.858
 4351TIP3   OH212995   2.278   4.950   2.566
 4351TIP3    H112996   2.236   4.927   2.648
 4351TIP3    H212997   2.333   5.026   2.588
 4352TIP3   OH212998   1.286   4.930   2.926
 4352TIP3    H112999   1.342   5.005   2.947
 4352TIP3    H213000   1.332   4.887   2.854
 4353TIP3   OH213001   1.346   5.810   3.031
 4353TIP3    H113002   1.330   5.899   3.001
 4353TIP3    H213003   1.265   5.786   3.078
 4354TIP3   OH213004   0.720   5.511   2.284
 4354TIP3    H113005   0.690   5.532   2.196
 4354TIP3    H213006   0.748   5.595   2.321
 4355TIP3   OH213007   2.152   6.016   2.525
 4355TIP3    H113008   2.064   6.010   2.561
 4355TIP3    H213009   2.154   6.100   2.478
 4356TIP3   OH213010   2.494   4.880   2.903
 4356TIP3    H113011   2.407   4.900   2.868
 4356TIP3    H213012   2.555   4.910   2.836
 4357TIP3   OH213013   1.746   4.517   2.891
 4357TIP3    H113014   1.734   4.426   2.917
 4357TIP3    H213015   1.669   4.562   2.926
 4358TIP3   OH213016   1.862   6.049   2.175
 4358TIP3    H113017   1.915   5.969   2.167
 4358TIP3    H213018   1.921   6.119   2.147
 4359TIP3   OH213019   2.001   5.818   2.141
 4359TIP3    H113020   1.928   5.756   2.138
 4359TIP3    H213021   2.051   5.793   2.218
 4360TIP3   OH213022   2.388   5.899   2.866
 4360TIP3    H113023   2.369   5.823   2.810
 4360TIP3    H213024   2.375   5.975   2.809
 4361TIP3   OH213025   1.682   5.306   2.140
 4361TIP3    H113026   1.598   5.347   2.121
 4361TIP3    H213027   1.727   5.302   2.055
 4362TIP3   OH213028   1.642   5.115   1.823
 4362TIP3    H113029   1.708   5.161   1.876
 4362TIP3    H213030   1.692   5.045   1.780
 4363TIP3   OH213031   2.575   5.567   2.733
 4363TIP3    H113032   2.488   5.608   2.733
 4363TIP3    H213033   2.607   5.579   2.644
 4364TIP3   OH213034   2.042   5.394   2.093
 4364TIP3    H113035   1.987   5.424   2.165
 4364TIP3    H213036   2.125   5.368   2.134
 4365TIP3   OH213037   2.275   5.450   3.007
 4365TIP3    H113038   2.266   5.520   3.072
 4365TIP3    H213039   2.190   5.447   2.963
 4366TIP3   OH213040   1.257   5.365   2.499
 4366TIP3    H113041   1.218   5.303   2.437
 4366TIP3    H213042   1.329   5.317   2.540
 4367TIP3   OH213043   1.402   5.804   2.646
 4367TIP3    H113044   1.375   5.783   2.557
 4367TIP3    H213045   1.486   5.761   2.657
 4368TIP3   OH213046   1.362   5.371   2.886
 4368TIP3    H113047   1.400   5.334   2.807
 4368TIP3    H213048   1.418   5.447   2.906
 4369TIP3   OH213049   1.909   6.017   2.649
 4369TIP3    H113050   1.904   6.091   2.710
 4369TIP3    H213051   1.900   5.940   2.705
 4370TIP3   OH213052   1.542   5.906   3.201
 4370TIP3    H113053   1.478   5.961   3.247
 4370TIP3    H213054   1.490   5.853   3.141
 4371TIP3   OH213055   1.868   5.254   1.930
 4371TIP3    H113056   1.928   5.311   1.977
 4371TIP3    H213057   1.898   5.256   1.839
 4372TIP3   OH213058   1.287   5.474   3.339
 4372TIP3    H113059   1.281   5.568   3.355
 4372TIP3    H213060   1.196   5.444   3.333
 4373TIP3   OH213061   1.615   5.926   2.185
 4373TIP3    H113062   1.697   5.975   2.191
 4373TIP3    H213063   1.557   5.982   2.135
 4374TIP3   OH213064   1.334   6.067   3.287
 4374TIP3    H113065   1.311   6.077   3.195
 4374TIP3    H213066   1.250   6.051   3.331
 4375TIP3   OH213067   2.380   4.479   1.990
 4375TIP3    H113068   2.304   4.499   2.044
 4375TIP3    H213069   2.390   4.555   1.933
 4376TIP3   OH213070   1.128   5.204   2.303
 4376TIP3    H113071   1.053   5.252   2.267
 4376TIP3    H213072   1.094   5.118   2.325
 4377TIP3   OH213073   2.207   5.854   1.546
 4377TIP3    H113074   2.201   5.948   1.526
 4377TIP3    H213075   2.296   5.830   1.522
 4378TIP3   OH213076   0.926   5.624   3.231
 4378TIP3    H113077   0.860   5.603   3.164
 4378TIP3    H213078   0.959   5.540   3.261
 4379TIP3   OH213079   0.812   5.799   2.868
 4379TIP3    H113080   0.902   5.783   2.841
 4379TIP3    H213081   0.818   5.872   2.929
 4380TIP3   OH213082   2.623   6.260   2.939
 4380TIP3    H113083   2.628   6.165   2.951
 4380TIP3    H213084   2.545   6.286   2.987
 4381TIP3   OH213085   1.726   6.059   3.065
 4381TIP3    H113086   1.716   6.147   3.099
 4381TIP3    H213087   1.662   6.007   3.112
 4382TIP3   OH213088   1.506   6.147   2.016
 4382TIP3    H113089   1.451   6.127   1.940
 4382TIP3    H213090   1.472   6.230   2.048
 4383TIP3   OH213091   0.941   6.007   2.395
 4383TIP3    H113092   0.988   5.999   2.479
 4383TIP3    H213093   0.894   5.924   2.386
 4384TIP3   OH213094   1.709   6.081   1.641
 4384TIP3    H113095   1.759   6.007   1.608
 4384TIP3    H213096   1.742   6.094   1.730
 4385TIP3   OH213097   1.759   6.122   1.911
 4385TIP3    H113098   1.672   6.125   1.951
 4385TIP3    H213099   1.814   6.082   1.979
 4386TIP3   OH213100   2.528   5.370   3.226
 4386TIP3    H113101   2.447   5.343   3.183
 4386TIP3    H213102   2.564   5.290   3.264
 4387TIP3   OH213103   1.119   5.817   3.196
 4387TIP3    H113104   1.170   5.806   3.275
 4387TIP3    H213105   1.050   5.750   3.202
 4388TIP3   OH213106   1.508   4.614   3.008
 4388TIP3    H113107   1.423   4.585   2.973
 4388TIP3    H213108   1.488   4.695   3.055
 4389TIP3   OH213109   2.036   4.710   3.214
 4389TIP3    H113110   2.103   4.699   3.282
 4389TIP3    H213111   1.953   4.705   3.261
 4390TIP3   OH213112   2.311   5.214   3.150
 4390TIP3    H113113   2.240   5.173   3.200
 4390TIP3    H213114   2.267   5.280   3.096
 4391TIP3   OH213115   1.951   5.231   1.669
 4391TIP3    H113116   1.905   5.234   1.585
 4391TIP3    H213117   2.032   5.280   1.653
 4392TIP3   OH213118   1.654   4.655   1.984
 4392TIP3    H113119   1.620   4.663   2.073
 4392TIP3    H213120   1.614   4.574   1.950
 4393TIP3   OH213121   1.440   5.138   3.019
 4393TIP3    H113122   1.398   5.144   3.105
 4393TIP3    H213123   1.427   5.224   2.980
 4394TIP3   OH213124   1.321   5.033   2.555
 4394TIP3    H113125   1.234   5.004   2.580
 4394TIP3    H213126   1.334   4.998   2.467
 4395TIP3   OH213127   1.813   5.107   2.279
 4395TIP3    H113128   1.763   5.178   2.238
 4395TIP3    H213129   1.868   5.073   2.208
 4396TIP3   OH213130   1.981   5.115   2.501
 4396TIP3    H113131   1.911   5.136   2.439
 4396TIP3    H213132   2.025   5.039   2.463
 4397TIP3   OH213133   1.298   5.150   3.255
 4397TIP3    H113134   1.358   5.193   3.316
 4397TIP3    H213135   1.277   5.067   3.297
 4398TIP3   OH213136   1.306   4.642   1.957
 4398TIP3    H113137   1.304   4.651   2.052
 4398TIP3    H213138   1.232   4.695   1.926
 4399TIP3   OH213139   0.858   4.713   2.818
 4399TIP3    H113140   0.930   4.740   2.875
 4399TIP3    H213141   0.846   4.787   2.758
 4400TIP3   OH213142   2.024   5.397   2.904
 4400TIP3    H113143   2.035   5.310   2.865
 4400TIP3    H213144   1.990   5.379   2.992
 4401TIP3   OH213145   1.694   4.813   2.598
 4401TIP3    H113146   1.614   4.816   2.651
 4401TIP3    H213147   1.765   4.806   2.662
 4402TIP3   OH213148   1.109   4.868   2.622
 4402TIP3    H113149   1.063   4.884   2.540
 4402TIP3    H213150   1.150   4.782   2.610
 4403TIP3   OH213151   1.363   4.897   2.324
 4403TIP3    H113152   1.457   4.907   2.308
 4403TIP3    H213153   1.322   4.915   2.239
 4404TIP3   OH213154   2.145   4.902   2.805
 4404TIP3    H113155   2.142   4.912   2.900
 4404TIP3    H213156   2.071   4.845   2.785
 4405TIP3   OH213157   1.249   4.920   2.079
 4405TIP3    H113158   1.154   4.917   2.071
 4405TIP3    H213159   1.279   4.959   1.997
 4406TIP3   OH213160   2.333   6.608   3.025
 4406TIP3    H113161   2.331   6.620   2.930
 4406TIP3    H213162   2.412   6.653   3.054
 4407TIP3   OH213163   1.270   5.738   3.431
 4407TIP3    H113164   1.352   5.747   3.479
 4407TIP3    H213165   1.203   5.735   3.498
 4408TIP3   OH213166   1.734   5.192   2.717
 4408TIP3    H113167   1.804   5.144   2.672
 4408TIP3    H213168   1.735   5.158   2.807
 4409TIP3   OH213169   1.257   4.634   2.593
 4409TIP3    H113170   1.221   4.560   2.641
 4409TIP3    H213171   1.270   4.602   2.504
 4410TIP3   OH213172   1.716   5.103   2.990
 4410TIP3    H113173   1.624   5.125   2.999
 4410TIP3    H213174   1.762   5.171   3.040
 4411TIP3   OH213175   1.443   5.438   2.083
 4411TIP3    H113176   1.371   5.378   2.063
 4411TIP3    H213177   1.417   5.479   2.166
 4412TIP3   OH213178   2.334   5.697   2.687
 4412TIP3    H113179   2.369   5.745   2.612
 4412TIP3    H213180   2.255   5.654   2.654
 4413TIP3   OH213181   1.907   4.759   1.989
 4413TIP3    H113182   1.814   4.737   1.987
 4413TIP3    H213183   1.909   4.854   2.004
 4414TIP3   OH213184   1.857   5.786   3.082
 4414TIP3    H113185   1.904   5.749   3.157
 4414TIP3    H213186   1.822   5.869   3.114
 4415TIP3   OH213187   1.968   5.024   2.059
 4415TIP3    H113188   2.063   5.028   2.069
 4415TIP3    H213189   1.946   5.101   2.007
 4416TIP3   OH213190   1.156   5.488   2.728
 4416TIP3    H113191   1.181   5.451   2.643
 4416TIP3    H213192   1.214   5.444   2.791
 4417TIP3   OH213193   1.595   5.600   1.926
 4417TIP3    H113194   1.548   5.683   1.924
 4417TIP3    H213195   1.540   5.542   1.979
 4418TIP3   OH213196   1.016   5.399   3.370
 4418TIP3    H113197   1.023   5.367   3.460
 4418TIP3    H213198   0.949   5.344   3.330
 4419TIP3   OH213199   1.743   5.509   3.384
 4419TIP3    H113200   1.667   5.453   3.369
 4419TIP3    H213201   1.812   5.470   3.330
 4420TIP3   OH213202   1.996   6.078   2.984
 4420TIP3    H113203   1.902   6.061   2.989
 4420TIP3    H213204   2.021   6.103   3.073
 4421TIP3   OH213205   2.383   5.109   1.872
 4421TIP3    H113206   2.328   5.063   1.809
 4421TIP3    H213207   2.388   5.198   1.839
 4422TIP3   OH213208   2.634   5.982   2.953
 4422TIP3    H113209   2.540   5.964   2.947
 4422TIP3    H213210   2.669   5.952   2.870
 4423TIP3   OH213211   2.123   5.925   1.812
 4423TIP3    H113212   2.096   5.856   1.872
 4423TIP3    H213213   2.143   5.879   1.730
 4424TIP3   OH213214   2.106   5.561   2.581
 4424TIP3    H113215   2.016   5.539   2.607
 4424TIP3    H213216   2.142   5.480   2.547
 4425TIP3   OH213217   1.257   5.795   2.403
 4425TIP3    H113218   1.254   5.873   2.347
 4425TIP3    H213219   1.165   5.774   2.419
 4426TIP3   OH213220   0.767   5.115   2.057
 4426TIP3    H113221   0.838   5.166   2.095
 4426TIP3    H213222   0.720   5.078   2.132
 4427TIP3   OH213223   1.344   5.551   2.307
 4427TIP3    H113224   1.329   5.638   2.342
 4427TIP3    H213225   1.316   5.491   2.377
 4428TIP3   OH213226   1.545   6.123   2.856
 4428TIP3    H113227   1.582   6.194   2.803
 4428TIP3    H213228   1.619   6.089   2.906
 4429TIP3   OH213229   1.178   6.022   2.255
 4429TIP3    H113230   1.090   6.028   2.292
 4429TIP3    H213231   1.212   6.111   2.259
 4430TIP3   OH213232   1.894   5.787   2.811
 4430TIP3    H113233   1.881   5.785   2.905
 4430TIP3    H213234   1.952   5.713   2.793
 4431TIP3   OH213235   1.889   5.661   1.694
 4431TIP3    H113236   1.941   5.633   1.770
 4431TIP3    H213237   1.805   5.615   1.705
 4432TIP3   OH213238   2.156   6.277   2.867
 4432TIP3    H113239   2.088   6.214   2.892
 4432TIP3    H213240   2.116   6.330   2.798
 4433TIP3   OH213241   2.201   6.128   1.504
 4433TIP3    H113242   2.221   6.191   1.435
 4433TIP3    H213243   2.129   6.168   1.553
 4434TIP3   OH213244   1.243   4.895   3.372
 4434TIP3    H113245   1.147   4.890   3.376
 4434TIP3    H213246   1.273   4.840   3.443
 4435TIP3   OH213247   2.068   5.578   1.885
 4435TIP3    H113248   2.051   5.524   1.962
 4435TIP3    H213249   2.163   5.585   1.881
 4436TIP3   OH213250   0.966   6.008   3.024
 4436TIP3    H113251   1.019   5.944   3.072
 4436TIP3    H213252   0.985   6.091   3.067
 4437TIP3   OH213253   1.241   5.626   1.717
 4437TIP3    H113254   1.252   5.534   1.691
 4437TIP3    H213255   1.227   5.623   1.811
 4438TIP3   OH213256   1.186   5.647   1.988
 4438TIP3    H113257   1.247   5.616   2.055
 4438TIP3    H213258   1.188   5.742   1.995
 4439TIP3   OH213259   0.916   5.336   2.180
 4439TIP3    H113260   0.851   5.379   2.235
 4439TIP3    H213261   0.934   5.400   2.111
 4440TIP3   OH213262   2.120   4.930   3.073
 4440TIP3    H113263   2.112   4.999   3.139
 4440TIP3    H213264   2.087   4.851   3.116
 4441TIP3   OH213265   1.971   4.707   2.257
 4441TIP3    H113266   1.948   4.727   2.166
 4441TIP3    H213267   2.013   4.787   2.289
 4442TIP3   OH213268   1.456   5.832   1.919
 4442TIP3    H113269   1.372   5.855   1.959
 4442TIP3    H213270   1.475   5.905   1.860
 4443TIP3   OH213271   1.641   4.902   2.342
 4443TIP3    H113272   1.699   4.975   2.321
 4443TIP3    H213273   1.658   4.884   2.434
 4444TIP3   OH213274   1.783   4.604   2.434
 4444TIP3    H113275   1.759   4.681   2.485
 4444TIP3    H213276   1.852   4.635   2.375
 4445TIP3   OH213277   1.209   5.920   2.003
 4445TIP3    H113278   1.188   5.993   1.944
 4445TIP3    H213279   1.196   5.956   2.091
 4446TIP3   OH213280   1.293   4.629   2.238
 4446TIP3    H113281   1.273   4.717   2.271
 4446TIP3    H213282   1.388   4.622   2.244
 4447TIP3   OH213283   2.542   5.076   3.103
 4447TIP3    H113284   2.460   5.122   3.120
 4447TIP3    H213285   2.520   5.013   3.034
 4448TIP3   OH213286   2.197   5.303   2.498
 4448TIP3    H113287   2.121   5.246   2.509
 4448TIP3    H213288   2.265   5.263   2.554
 4449TIP3   OH213289   0.939   5.523   1.969
 4449TIP3    H113290   1.013   5.582   1.980
 4449TIP3    H213291   0.973   5.454   1.911
 4450TIP3   OH213292   2.180   6.282   2.441
 4450TIP3    H113293   2.139   6.335   2.372
 4450TIP3    H213294   2.274   6.292   2.427
 4451TIP3   OH213295   1.241   4.538   2.965
 4451TIP3    H113296   1.213   4.503   2.880
 4451TIP3    H213297   1.231   4.464   3.025
 4452TIP3   OH213298   0.776   5.781   2.373
 4452TIP3    H113299   0.722   5.814   2.445
 4452TIP3    H213300   0.733   5.813   2.294
 4453TIP3   OH213301   0.972   6.311   3.428
 4453TIP3    H113302   1.054   6.313   3.478
 4453TIP3    H213303   0.953   6.218   3.417
 4454TIP3   OH213304   1.428   6.231   3.488
 4454TIP3    H113305   1.522   6.244   3.478
 4454TIP3    H213306   1.404   6.173   3.416
 4455TIP3   OH213307   1.394   5.822   1.599
 4455TIP3    H113308   1.347   5.753   1.646
 4455TIP3    H213309   1.469   5.777   1.560
 4456TIP3   OH213310   2.060   6.149   3.242
 4456TIP3    H113311   2.082   6.076   3.300
 4456TIP3    H213312   2.134   6.210   3.250
 4457TIP3   OH213313   1.838   5.870   1.527
 4457TIP3    H113314   1.869   5.804   1.590
 4457TIP3    H213315   1.899   5.863   1.453
 4458TIP3   OH213316   1.073   5.716   3.624
 4458TIP3    H113317   1.092   5.623   3.633
 4458TIP3    H213318   0.987   5.719   3.581
 4459TIP3   OH213319   1.072   5.323   1.839
 4459TIP3    H113320   1.122   5.297   1.916
 4459TIP3    H213321   1.138   5.333   1.770
 4460TIP3   OH213322   1.690   5.785   3.401
 4460TIP3    H113323   1.648   5.809   3.319
 4460TIP3    H213324   1.721   5.696   3.387
 4461TIP3   OH213325   1.633   5.543   1.661
 4461TIP3    H113326   1.610   5.554   1.753
 4461TIP3    H213327   1.614   5.452   1.641
 4462TIP3   OH213328   2.176   5.859   3.040
 4462TIP3    H113329   2.250   5.878   2.982
 4462TIP3    H213330   2.106   5.917   3.009
 4463TIP3   OH213331   1.191   5.466   3.627
 4463TIP3    H113332   1.262   5.443   3.567
 4463TIP3    H213333   1.233   5.478   3.712
 4464TIP3   OH213334   1.241   5.254   2.049
 4464TIP3    H113335   1.212   5.224   2.135
 4464TIP3    H213336   1.284   5.179   2.009
 4465TIP3   OH213337   1.527   5.347   3.298
 4465TIP3    H113338   1.445   5.398   3.302
 4465TIP3    H213339   1.559   5.360   3.209
 4466TIP3   OH213340   1.368   5.072   1.879
 4466TIP3    H113341   1.338   5.077   1.788
 4466TIP3    H213342   1.463   5.083   1.874
 4467TIP3   OH213343   2.061   5.707   3.378
 4467TIP3    H113344   2.118   5.669   3.311
 4467TIP3    H213345   2.057   5.640   3.447
 4468TIP3   OH213346   2.168   5.369   1.560
 4468TIP3    H113347   2.155   5.328   1.475
 4468TIP3    H213348   2.144   5.461   1.546
 4469TIP3   OH213349   1.588   5.103   3.409
 4469TIP3    H113350   1.629   5.038   3.352
 4469TIP3    H213351   1.590   5.184   3.358
 4470TIP3   OH213352   1.665   4.916   3.203
 4470TIP3    H113353   1.697   4.963   3.126
 4470TIP3    H213354   1.576   4.891   3.180
 4471TIP3   OH213355   1.643   5.389   3.057
 4471TIP3    H113356   1.734   5.392   3.087
 4471TIP3    H213357   1.628   5.472   3.014
 4472TIP3   OH213358   2.307   5.368   3.499
 4472TIP3    H113359   2.333   5.276   3.500
 4472TIP3    H213360   2.347   5.404   3.420
 4473TIP3   OH213361   2.291   5.670   3.198
 4473TIP3    H113362   2.243   5.736   3.148
 4473TIP3    H213363   2.381   5.676   3.165
 4474TIP3   OH213364   1.528   5.203   3.657
 4474TIP3    H113365   1.466   5.135   3.682
 4474TIP3    H213366   1.551   5.182   3.566
 4475TIP3   OH213367   1.776   4.683   3.306
 4475TIP3    H113368   1.739   4.765   3.273
 4475TIP3    H213369   1.710   4.617   3.288
 4476TIP3   OH213370   2.098   5.109   3.288
 4476TIP3    H113371   2.036   5.178   3.262
 4476TIP3    H213372   2.087   5.101   3.382
 4477TIP3   OH213373   2.417   5.096   3.527
 4477TIP3    H113374   2.409   5.001   3.518
 4477TIP3    H213375   2.403   5.113   3.620
 4478TIP3   OH213376   1.363   4.993   3.731
 4478TIP3    H113377   1.365   4.911   3.683
 4478TIP3    H213378   1.406   4.974   3.814
 4479TIP3   OH213379   1.844   4.656   3.570
 4479TIP3    H113380   1.911   4.589   3.561
 4479TIP3    H213381   1.813   4.671   3.480
 4480TIP3   OH213382   1.942   4.873   3.711
 4480TIP3    H113383   1.912   4.801   3.656
 4480TIP3    H213384   1.869   4.934   3.714
 4481TIP3   OH213385   1.209   6.137   1.827
 4481TIP3    H113386   1.292   6.109   1.788
 4481TIP3    H213387   1.160   6.175   1.754
 4482TIP3   OH213388   0.669   5.522   2.001
 4482TIP3    H113389   0.764   5.534   1.994
 4482TIP3    H213390   0.653   5.437   1.961
 4483TIP3   OH213391   0.561   6.104   2.465
 4483TIP3    H113392   0.503   6.047   2.415
 4483TIP3    H213393   0.609   6.045   2.523
 4484TIP3   OH213394   0.708   5.935   2.628
 4484TIP3    H113395   0.703   5.862   2.691
 4484TIP3    H213396   0.762   6.000   2.672
 4485TIP3   OH213397   2.453   6.328   2.431
 4485TIP3    H113398   2.476   6.353   2.521
 4485TIP3    H213399   2.513   6.378   2.376
 4486TIP3   OH213400   2.477   6.354   2.713
 4486TIP3    H113401   2.428   6.272   2.706
 4486TIP3    H213402   2.544   6.337   2.779
 4487TIP3   OH213403   2.532   6.073   3.274
 4487TIP3    H113404   2.464   6.077   3.341
 4487TIP3    H213405   2.574   6.159   3.277
 4488TIP3   OH213406   2.347   5.576   1.889
 4488TIP3    H113407   2.405   5.647   1.862
 4488TIP3    H213408   2.391   5.538   1.966
 4489TIP3   OH213409   2.472   5.432   2.093
 4489TIP3    H113410   2.404   5.395   2.149
 4489TIP3    H213411   2.537   5.468   2.153
 4490TIP3   OH213412   2.516   5.836   2.525
 4490TIP3    H113413   2.569   5.766   2.486
 4490TIP3    H213414   2.520   5.906   2.460
 4491TIP3   OH213415   2.328   6.121   2.714
 4491TIP3    H113416   2.262   6.166   2.766
 4491TIP3    H213417   2.278   6.080   2.643
 4492TIP3   OH213418   2.377   5.349   1.738
 4492TIP3    H113419   2.305   5.350   1.675
 4492TIP3    H213420   2.364   5.428   1.791
 4493TIP3   OH213421   2.236   4.995   1.671
 4493TIP3    H113422   2.186   5.031   1.598
 4493TIP3    H213423   2.228   4.900   1.661
 4494TIP3   OH213424   2.267   5.295   2.229
 4494TIP3    H113425   2.270   5.200   2.215
 4494TIP3    H213426   2.247   5.305   2.322
 4495TIP3   OH213427   0.896   5.359   2.990
 4495TIP3    H113428   0.887   5.321   2.903
 4495TIP3    H213429   0.989   5.350   3.011
 4496TIP3   OH213430   2.548   5.710   3.096
 4496TIP3    H113431   2.610   5.640   3.079
 4496TIP3    H213432   2.554   5.767   3.019
 4497TIP3   OH213433   2.723   5.498   3.080
 4497TIP3    H113434   2.651   5.455   3.125
 4497TIP3    H213435   2.799   5.444   3.100
 4498TIP3   OH213436   2.195   4.722   1.642
 4498TIP3    H113437   2.258   4.699   1.710
 4498TIP3    H213438   2.111   4.689   1.674
 4499TIP3   OH213439   2.260   5.018   2.114
 4499TIP3    H113440   2.305   4.934   2.127
 4499TIP3    H213441   2.301   5.056   2.037
 4500TIP3   OH213442   2.413   5.184   2.638
 4500TIP3    H113443   2.495   5.199   2.592
 4500TIP3    H213444   2.425   5.225   2.724
 4501TIP3   OH213445   2.489   5.337   2.862
 4501TIP3    H113446   2.417   5.366   2.917
 4501TIP3    H213447   2.522   5.417   2.821
 4502TIP3   OH213448   1.103   5.030   3.640
 4502TIP3    H113449   1.196   5.034   3.665
 4502TIP3    H213450   1.071   4.949   3.679
 4503TIP3   OH213451   2.948   4.927   3.402
 4503TIP3    H113452   3.015   4.869   3.366
 4503TIP3    H213453   2.914   4.975   3.326
 4504TIP3   OH213454   2.377   4.768   2.165
 4504TIP3    H113455   2.421   4.754   2.249
 4504TIP3    H213456   2.313   4.696   2.159
 4505TIP3   OH213457   1.071   4.754   3.008
 4505TIP3    H113458   1.124   4.674   3.001
 4505TIP3    H213459   1.130   4.825   2.984
 4506TIP3   OH213460   0.872   5.023   3.058
 4506TIP3    H113461   0.919   5.007   2.976
 4506TIP3    H213462   0.906   5.108   3.088
 4507TIP3   OH213463   2.805   5.056   3.211
 4507TIP3    H113464   2.736   5.098   3.262
 4507TIP3    H213465   2.759   4.998   3.151
 4508TIP3   OH213466   2.419   4.680   1.803
 4508TIP3    H113467   2.468   4.619   1.748
 4508TIP3    H213468   2.474   4.757   1.809
 4509TIP3   OH213469   0.798   4.547   2.477
 4509TIP3    H113470   0.747   4.546   2.558
 4509TIP3    H213471   0.825   4.638   2.467
 4510TIP3   OH213472   2.006   6.252   2.072
 4510TIP3    H113473   2.061   6.236   1.996
 4510TIP3    H213474   2.054   6.318   2.123
 4511TIP3   OH213475   1.087   4.613   3.397
 4511TIP3    H113476   1.033   4.594   3.474
 4511TIP3    H213477   1.025   4.646   3.332
 4512TIP3   OH213478   1.104   6.039   3.446
 4512TIP3    H113479   1.011   6.018   3.437
 4512TIP3    H213480   1.125   6.017   3.537
 4513TIP3   OH213481   1.318   6.088   3.007
 4513TIP3    H113482   1.267   6.162   2.974
 4513TIP3    H213483   1.402   6.095   2.961
 4514TIP3   OH213484   1.714   6.320   3.163
 4514TIP3    H113485   1.759   6.311   3.246
 4514TIP3    H213486   1.773   6.372   3.109
 4515TIP3   OH213487   1.896   6.467   3.017
 4515TIP3    H113488   1.951   6.413   2.960
 4515TIP3    H213489   1.957   6.523   3.065
 4516TIP3   OH213490   2.710   4.802   3.099
 4516TIP3    H113491   2.625   4.809   3.055
 4516TIP3    H213492   2.736   4.711   3.089
 4517TIP3   OH213493   0.975   6.330   3.047
 4517TIP3    H113494   0.883   6.348   3.031
 4517TIP3    H213495   1.001   6.395   3.113
 4518TIP3   OH213496   1.207   6.318   2.901
 4518TIP3    H113497   1.123   6.322   2.946
 4518TIP3    H213498   1.186   6.338   2.809
 4519TIP3   OH213499   1.621   6.332   2.691
 4519TIP3    H113500   1.550   6.342   2.628
 4519TIP3    H213501   1.630   6.418   2.732
 4520TIP3   OH213502   1.887   6.281   2.748
 4520TIP3    H113503   1.796   6.293   2.723
 4520TIP3    H213504   1.936   6.344   2.695
 4521TIP3   OH213505   2.092   6.447   2.643
 4521TIP3    H113506   2.088   6.532   2.601
 4521TIP3    H213507   2.121   6.387   2.575
 4522TIP3   OH213508   0.891   6.105   2.775
 4522TIP3    H113509   0.919   6.076   2.862
 4522TIP3    H213510   0.960   6.074   2.716
 4523TIP3   OH213511   1.091   5.997   2.627
 4523TIP3    H113512   1.103   5.912   2.670
 4523TIP3    H213513   1.179   6.036   2.627
 4524TIP3   OH213514   1.360   6.079   2.650
 4524TIP3    H113515   1.378   5.986   2.633
 4524TIP3    H213516   1.414   6.100   2.726
 4525TIP3   OH213517   1.922   4.725   2.741
 4525TIP3    H113518   1.882   4.652   2.789
 4525TIP3    H213519   1.990   4.684   2.687
 4526TIP3   OH213520   2.420   4.638   2.625
 4526TIP3    H113521   2.454   4.689   2.552
 4526TIP3    H213522   2.326   4.658   2.626
 4527TIP3   OH213523   2.534   4.717   2.387
 4527TIP3    H113524   2.604   4.656   2.362
 4527TIP3    H213525   2.572   4.803   2.374
 4528TIP3   OH213526   1.158   4.414   2.732
 4528TIP3    H113527   1.069   4.381   2.742
 4528TIP3    H213528   1.213   4.336   2.729
 4529TIP3   OH213529   0.956   4.338   2.370
 4529TIP3    H113530   0.998   4.379   2.293
 4529TIP3    H213531   0.910   4.411   2.413
 4530TIP3   OH213532   1.642   4.457   2.631
 4530TIP3    H113533   1.687   4.507   2.563
 4530TIP3    H213534   1.681   4.487   2.713
 4531TIP3   OH213535   2.133   4.608   2.604
 4531TIP3    H113536   2.141   4.572   2.515
 4531TIP3    H213537   2.138   4.531   2.661
 4532TIP3   OH213538   2.191   4.557   2.174
 4532TIP3    H113539   2.112   4.604   2.199
 4532TIP3    H213540   2.180   4.470   2.212
 4533TIP3   OH213541   0.657   5.878   2.148
 4533TIP3    H113542   0.573   5.852   2.110
 4533TIP3    H213543   0.660   5.973   2.137
 4534TIP3   OH213544   1.090   4.455   2.148
 4534TIP3    H113545   1.139   4.397   2.090
 4534TIP3    H213546   1.156   4.514   2.184
 4535TIP3   OH213547   1.570   4.655   2.247
 4535TIP3    H113548   1.625   4.599   2.303
 4535TIP3    H213549   1.590   4.744   2.276
 4536TIP3   OH213550   1.452   6.049   1.738
 4536TIP3    H113551   1.537   6.075   1.702
 4536TIP3    H213552   1.424   5.976   1.682
 4537TIP3   OH213553   2.157   6.194   1.846
 4537TIP3    H113554   2.151   6.099   1.840
 4537TIP3    H213555   2.113   6.226   1.767
 4538TIP3   OH213556   1.374   4.735   3.628
 4538TIP3    H113557   1.340   4.654   3.665
 4538TIP3    H213558   1.467   4.735   3.648
 4539TIP3   OH213559   1.625   4.713   3.744
 4539TIP3    H113560   1.702   4.693   3.691
 4539TIP3    H213561   1.618   4.638   3.804
 4540TIP3   OH213562   0.754   5.871   1.817
 4540TIP3    H113563   0.757   5.868   1.912
 4540TIP3    H213564   0.838   5.835   1.789
 4541TIP3   OH213565   2.455   4.810   3.517
 4541TIP3    H113566   2.469   4.787   3.609
 4541TIP3    H213567   2.542   4.801   3.477
 4542TIP3   OH213568   2.373   6.334   3.035
 4542TIP3    H113569   2.301   6.304   2.979
 4542TIP3    H213570   2.361   6.428   3.040
 4543TIP3   OH213571   3.651   5.718   1.773
 4543TIP3    H113572   3.615   5.805   1.754
 4543TIP3    H213573   3.580   5.657   1.750
 4544TIP3   OH213574   3.650   5.716   2.194
 4544TIP3    H113575   3.703   5.698   2.271
 4544TIP3    H213576   3.603   5.634   2.176
 4545TIP3   OH213577   2.945   5.577   2.538
 4545TIP3    H113578   2.982   5.526   2.611
 4545TIP3    H213579   3.020   5.601   2.485
 4546TIP3   OH213580   3.923   6.016   1.867
 4546TIP3    H113581   3.906   5.951   1.936
 4546TIP3    H213582   3.939   6.098   1.915
 4547TIP3   OH213583   2.937   6.002   2.227
 4547TIP3    H113584   2.919   5.909   2.233
 4547TIP3    H213585   3.032   6.008   2.219
 4548TIP3   OH213586   2.622   5.208   2.008
 4548TIP3    H113587   2.583   5.291   2.034
 4548TIP3    H213588   2.550   5.158   1.970
 4549TIP3   OH213589   2.702   5.517   2.233
 4549TIP3    H113590   2.752   5.440   2.260
 4549TIP3    H213591   2.769   5.582   2.208
 4550TIP3   OH213592   3.573   6.448   1.884
 4550TIP3    H113593   3.603   6.386   1.818
 4550TIP3    H213594   3.570   6.398   1.965
 4551TIP3   OH213595   3.456   5.939   2.199
 4551TIP3    H113596   3.501   5.860   2.169
 4551TIP3    H213597   3.526   5.996   2.231
 4552TIP3   OH213598   4.476   5.249   2.217
 4552TIP3    H113599   4.501   5.330   2.261
 4552TIP3    H213600   4.503   5.262   2.126
 4553TIP3   OH213601   3.865   5.417   2.237
 4553TIP3    H113602   3.901   5.333   2.266
 4553TIP3    H213603   3.829   5.400   2.150
 4554TIP3   OH213604   3.222   5.081   2.191
 4554TIP3    H113605   3.198   5.154   2.134
 4554TIP3    H213606   3.165   5.009   2.163
 4555TIP3   OH213607   3.916   5.184   1.833
 4555TIP3    H113608   3.980   5.179   1.904
 4555TIP3    H213609   3.966   5.218   1.758
 4556TIP3   OH213610   2.843   5.297   2.326
 4556TIP3    H113611   2.926   5.278   2.369
 4556TIP3    H213612   2.845   5.246   2.246
 4557TIP3   OH213613   3.261   5.497   2.140
 4557TIP3    H113614   3.355   5.482   2.146
 4557TIP3    H213615   3.225   5.415   2.106
 4558TIP3   OH213616   4.555   5.456   2.390
 4558TIP3    H113617   4.473   5.505   2.384
 4558TIP3    H213618   4.594   5.484   2.472
 4559TIP3   OH213619   3.195   5.087   2.648
 4559TIP3    H113620   3.146   5.121   2.574
 4559TIP3    H213621   3.140   5.103   2.724
 4560TIP3   OH213622   3.514   5.928   1.662
 4560TIP3    H113623   3.488   5.909   1.571
 4560TIP3    H213624   3.476   6.014   1.680
 4561TIP3   OH213625   3.290   5.862   2.407
 4561TIP3    H113626   3.237   5.933   2.443
 4561TIP3    H213627   3.339   5.902   2.336
 4562TIP3   OH213628   4.071   5.211   2.057
 4562TIP3    H113629   4.036   5.186   2.142
 4562TIP3    H213630   4.128   5.286   2.076
 4563TIP3   OH213631   3.093   5.192   2.413
 4563TIP3    H113632   3.147   5.268   2.437
 4563TIP3    H213633   3.140   5.150   2.341
 4564TIP3   OH213634   3.137   6.064   2.518
 4564TIP3    H113635   3.121   6.154   2.489
 4564TIP3    H213636   3.061   6.043   2.573
 4565TIP3   OH213637   2.517   5.769   1.773
 4565TIP3    H113638   2.481   5.788   1.686
 4565TIP3    H213639   2.540   5.854   1.809
 4566TIP3   OH213640   3.953   6.261   2.006
 4566TIP3    H113641   3.867   6.261   2.048
 4566TIP3    H213642   3.958   6.345   1.960
 4567TIP3   OH213643   4.258   5.133   2.375
 4567TIP3    H113644   4.173   5.156   2.337
 4567TIP3    H213645   4.322   5.166   2.312
 4568TIP3   OH213646   3.539   4.776   2.380
 4568TIP3    H113647   3.530   4.684   2.404
 4568TIP3    H213648   3.463   4.819   2.419
 4569TIP3   OH213649   3.668   6.306   1.666
 4569TIP3    H113650   3.719   6.226   1.655
 4569TIP3    H213651   3.731   6.376   1.647
 4570TIP3   OH213652   3.816   6.084   1.622
 4570TIP3    H113653   3.824   6.011   1.561
 4570TIP3    H213654   3.854   6.052   1.703
 4571TIP3   OH213655   4.184   6.148   2.360
 4571TIP3    H113656   4.167   6.073   2.303
 4571TIP3    H213657   4.174   6.225   2.304
 4572TIP3   OH213658   3.472   5.555   1.631
 4572TIP3    H113659   3.391   5.603   1.611
 4572TIP3    H213660   3.520   5.555   1.548
 4573TIP3   OH213661   3.446   5.360   1.321
 4573TIP3    H113662   3.511   5.409   1.372
 4573TIP3    H213663   3.497   5.295   1.273
 4574TIP3   OH213664   4.373   5.826   2.238
 4574TIP3    H113665   4.287   5.869   2.231
 4574TIP3    H213666   4.410   5.832   2.150
 4575TIP3   OH213667   3.836   5.660   1.581
 4575TIP3    H113668   3.780   5.684   1.655
 4575TIP3    H213669   3.918   5.630   1.622
 4576TIP3   OH213670   4.072   5.670   2.519
 4576TIP3    H113671   4.065   5.750   2.570
 4576TIP3    H213672   3.988   5.664   2.472
 4577TIP3   OH213673   3.062   5.630   1.989
 4577TIP3    H113674   3.026   5.568   1.925
 4577TIP3    H213675   3.135   5.582   2.029
 4578TIP3   OH213676   3.201   6.053   2.130
 4578TIP3    H113677   3.176   6.038   2.039
 4578TIP3    H213678   3.288   6.015   2.138
 4579TIP3   OH213679   3.159   5.625   2.364
 4579TIP3    H113680   3.198   5.589   2.284
 4579TIP3    H213681   3.207   5.707   2.379
 4580TIP3   OH213682   3.718   6.271   2.147
 4580TIP3    H113683   3.714   6.348   2.204
 4580TIP3    H213684   3.703   6.197   2.206
 4581TIP3   OH213685   3.336   6.161   2.687
 4581TIP3    H113686   3.276   6.217   2.736
 4581TIP3    H213687   3.280   6.109   2.630
 4582TIP3   OH213688   3.663   5.509   1.429
 4582TIP3    H113689   3.723   5.569   1.472
 4582TIP3    H213690   3.687   5.511   1.336
 4583TIP3   OH213691   3.091   5.711   2.832
 4583TIP3    H113692   3.097   5.803   2.855
 4583TIP3    H213693   2.997   5.693   2.827
 4584TIP3   OH213694   3.415   6.189   1.676
 4584TIP3    H113695   3.500   6.233   1.679
 4584TIP3    H213696   3.359   6.248   1.627
 4585TIP3   OH213697   3.126   6.320   2.772
 4585TIP3    H113698   3.100   6.330   2.681
 4585TIP3    H213699   3.044   6.308   2.820
 4586TIP3   OH213700   4.177   4.735   1.479
 4586TIP3    H113701   4.100   4.757   1.532
 4586TIP3    H213702   4.189   4.811   1.422
 4587TIP3   OH213703   2.937   5.470   1.789
 4587TIP3    H113704   2.859   5.517   1.760
 4587TIP3    H213705   2.906   5.381   1.808
 4588TIP3   OH213706   3.981   6.105   1.029
 4588TIP3    H113707   3.982   6.201   1.020
 4588TIP3    H213708   4.073   6.080   1.018
 4589TIP3   OH213709   2.720   5.874   2.719
 4589TIP3    H113710   2.650   5.856   2.657
 4589TIP3    H213711   2.754   5.788   2.744
 4590TIP3   OH213712   2.572   6.063   2.365
 4590TIP3    H113713   2.667   6.076   2.373
 4590TIP3    H213714   2.534   6.141   2.407
 4591TIP3   OH213715   3.526   6.306   2.552
 4591TIP3    H113716   3.517   6.397   2.580
 4591TIP3    H213717   3.459   6.258   2.601
 4592TIP3   OH213718   3.298   6.395   1.506
 4592TIP3    H113719   3.254   6.374   1.424
 4592TIP3    H213720   3.262   6.481   1.531
 4593TIP3   OH213721   2.738   6.260   1.881
 4593TIP3    H113722   2.782   6.252   1.966
 4593TIP3    H213723   2.689   6.178   1.872
 4594TIP3   OH213724   3.500   6.332   1.151
 4594TIP3    H113725   3.551   6.262   1.109
 4594TIP3    H213726   3.541   6.343   1.237
 4595TIP3   OH213727   3.555   6.377   1.419
 4595TIP3    H113728   3.466   6.377   1.452
 4595TIP3    H213729   3.608   6.340   1.489
 4596TIP3   OH213730   2.922   6.061   2.691
 4596TIP3    H113731   2.971   6.051   2.773
 4596TIP3    H213732   2.850   5.998   2.699
 4597TIP3   OH213733   3.303   4.871   2.504
 4597TIP3    H113734   3.221   4.836   2.472
 4597TIP3    H213735   3.279   4.951   2.551
 4598TIP3   OH213736   3.834   4.979   2.699
 4598TIP3    H113737   3.903   4.954   2.761
 4598TIP3    H213738   3.752   4.965   2.747
 4599TIP3   OH213739   4.144   5.457   2.682
 4599TIP3    H113740   4.060   5.439   2.724
 4599TIP3    H213741   4.125   5.528   2.620
 4600TIP3   OH213742   3.728   5.489   1.167
 4600TIP3    H113743   3.674   5.488   1.088
 4600TIP3    H213744   3.810   5.531   1.140
 4601TIP3   OH213745   3.455   4.908   1.472
 4601TIP3    H113746   3.417   4.916   1.560
 4601TIP3    H213747   3.418   4.827   1.438
 4602TIP3   OH213748   3.241   5.404   2.513
 4602TIP3    H113749   3.195   5.411   2.596
 4602TIP3    H213750   3.218   5.485   2.466
 4603TIP3   OH213751   3.122   5.281   2.033
 4603TIP3    H113752   3.033   5.258   2.059
 4603TIP3    H213753   3.130   5.249   1.943
 4604TIP3   OH213754   3.601   5.353   1.764
 4604TIP3    H113755   3.552   5.425   1.724
 4604TIP3    H213756   3.658   5.321   1.694
 4605TIP3   OH213757   3.789   5.623   2.829
 4605TIP3    H113758   3.762   5.557   2.894
 4605TIP3    H213759   3.878   5.646   2.856
 4606TIP3   OH213760   3.770   5.368   1.985
 4606TIP3    H113761   3.701   5.390   1.922
 4606TIP3    H213762   3.817   5.295   1.945
 4607TIP3   OH213763   3.078   5.423   2.733
 4607TIP3    H113764   3.084   5.488   2.803
 4607TIP3    H213765   3.057   5.341   2.779
 4608TIP3   OH213766   3.121   4.891   1.449
 4608TIP3    H113767   3.111   4.896   1.544
 4608TIP3    H213768   3.043   4.935   1.415
 4609TIP3   OH213769   2.668   4.937   2.309
 4609TIP3    H113770   2.741   4.971   2.359
 4609TIP3    H213771   2.705   4.915   2.224
 4610TIP3   OH213772   2.572   4.912   1.816
 4610TIP3    H113773   2.617   4.948   1.739
 4610TIP3    H213774   2.509   4.980   1.840
 4611TIP3   OH213775   3.815   5.625   2.404
 4611TIP3    H113776   3.838   5.556   2.342
 4611TIP3    H213777   3.769   5.579   2.474
 4612TIP3   OH213778   3.491   5.069   2.088
 4612TIP3    H113779   3.411   5.069   2.140
 4612TIP3    H213780   3.562   5.066   2.152
 4613TIP3   OH213781   2.882   5.158   2.092
 4613TIP3    H113782   2.794   5.163   2.055
 4613TIP3    H213783   2.909   5.068   2.078
 4614TIP3   OH213784   3.135   5.159   1.787
 4614TIP3    H113785   3.230   5.169   1.776
 4614TIP3    H213786   3.099   5.176   1.700
 4615TIP3   OH213787   3.954   5.165   2.314
 4615TIP3    H113788   3.940   5.185   2.407
 4615TIP3    H213789   3.884   5.105   2.291
 4616TIP3   OH213790   3.022   5.181   1.538
 4616TIP3    H113791   2.959   5.132   1.486
 4616TIP3    H213792   3.076   5.228   1.474
 4617TIP3   OH213793   4.123   6.843   2.509
 4617TIP3    H113794   4.112   6.855   2.414
 4617TIP3    H213795   4.185   6.911   2.534
 4618TIP3   OH213796   3.078   5.978   2.930
 4618TIP3    H113797   3.156   6.005   2.977
 4618TIP3    H213798   3.007   5.984   2.994
 4619TIP3   OH213799   3.534   5.446   2.191
 4619TIP3    H113800   3.601   5.396   2.143
 4619TIP3    H213801   3.532   5.406   2.278
 4620TIP3   OH213802   3.025   4.909   2.079
 4620TIP3    H113803   2.997   4.833   2.131
 4620TIP3    H213804   3.043   4.872   1.992
 4621TIP3   OH213805   3.507   5.350   2.456
 4621TIP3    H113806   3.419   5.380   2.478
 4621TIP3    H213807   3.565   5.405   2.508
 4622TIP3   OH213808   3.238   5.695   1.567
 4622TIP3    H113809   3.163   5.640   1.543
 4622TIP3    H213810   3.212   5.737   1.649
 4623TIP3   OH213811   4.134   5.949   2.176
 4623TIP3    H113812   4.169   6.001   2.104
 4623TIP3    H213813   4.053   5.910   2.141
 4624TIP3   OH213814   3.707   5.011   1.480
 4624TIP3    H113815   3.614   4.989   1.474
 4624TIP3    H213816   3.709   5.106   1.489
 4625TIP3   OH213817   3.652   6.040   2.589
 4625TIP3    H113818   3.699   6.029   2.671
 4625TIP3    H213819   3.609   6.125   2.597
 4626TIP3   OH213820   3.764   5.277   1.548
 4626TIP3    H113821   3.860   5.281   1.555
 4626TIP3    H213822   3.740   5.354   1.497
 4627TIP3   OH213823   2.929   5.713   2.217
 4627TIP3    H113824   2.968   5.695   2.131
 4627TIP3    H213825   2.994   5.683   2.280
 4628TIP3   OH213826   3.395   5.857   1.414
 4628TIP3    H113827   3.346   5.939   1.411
 4628TIP3    H213828   3.340   5.798   1.466
 4629TIP3   OH213829   2.817   5.642   2.853
 4629TIP3    H113830   2.818   5.617   2.945
 4629TIP3    H213831   2.741   5.597   2.817
 4630TIP3   OH213832   3.554   5.781   2.873
 4630TIP3    H113833   3.484   5.722   2.847
 4630TIP3    H213834   3.634   5.738   2.842
 4631TIP3   OH213835   3.800   6.334   2.475
 4631TIP3    H113836   3.706   6.319   2.482
 4631TIP3    H213837   3.825   6.370   2.560
 4632TIP3   OH213838   4.185   5.368   1.367
 4632TIP3    H113839   4.127   5.320   1.308
 4632TIP3    H213840   4.185   5.457   1.333
 4633TIP3   OH213841   4.437   6.178   2.457
 4633TIP3    H113842   4.344   6.189   2.439
 4633TIP3    H213843   4.479   6.180   2.371
 4634TIP3   OH213844   3.922   6.157   1.297
 4634TIP3    H113845   3.894   6.079   1.345
 4634TIP3    H213846   3.936   6.126   1.208
 4635TIP3   OH213847   3.902   5.817   2.071
 4635TIP3    H113848   3.812   5.797   2.096
 4635TIP3    H213849   3.935   5.736   2.033
 4636TIP3   OH213850   3.058   6.055   1.887
 4636TIP3    H113851   3.054   6.131   1.829
 4636TIP3    H213852   2.967   6.043   1.916
 4637TIP3   OH213853   2.616   5.338   1.600
 4637TIP3    H113854   2.659   5.421   1.623
 4637TIP3    H213855   2.535   5.339   1.651
 4638TIP3   OH213856   3.135   5.810   1.788
 4638TIP3    H113857   3.123   5.899   1.820
 4638TIP3    H213858   3.112   5.754   1.862
 4639TIP3   OH213859   3.340   6.370   2.344
 4639TIP3    H113860   3.380   6.434   2.287
 4639TIP3    H213861   3.412   6.337   2.398
 4640TIP3   OH213862   2.972   6.277   1.737
 4640TIP3    H113863   2.884   6.282   1.776
 4640TIP3    H213864   3.005   6.367   1.741
 4641TIP3   OH213865   3.690   6.045   2.315
 4641TIP3    H113866   3.677   6.040   2.409
 4641TIP3    H213867   3.765   5.988   2.298
 4642TIP3   OH213868   3.693   5.913   1.188
 4642TIP3    H113869   3.733   5.903   1.275
 4642TIP3    H213870   3.607   5.873   1.197
 4643TIP3   OH213871   3.968   6.520   2.343
 4643TIP3    H113872   3.909   6.456   2.382
 4643TIP3    H213873   3.913   6.572   2.284
 4644TIP3   OH213874   3.999   6.378   1.053
 4644TIP3    H113875   4.040   6.452   1.008
 4644TIP3    H213876   3.914   6.412   1.081
 4645TIP3   OH213877   3.021   5.170   2.850
 4645TIP3    H113878   2.926   5.181   2.854
 4645TIP3    H213879   3.043   5.124   2.931
 4646TIP3   OH213880   3.865   5.883   1.416
 4646TIP3    H113881   3.843   5.808   1.471
 4646TIP3    H213882   3.958   5.872   1.397
 4647TIP3   OH213883   2.768   6.269   2.507
 4647TIP3    H113884   2.818   6.205   2.558
 4647TIP3    H213885   2.783   6.352   2.552
 4648TIP3   OH213886   3.034   5.882   1.198
 4648TIP3    H113887   3.047   5.790   1.172
 4648TIP3    H213888   3.021   5.878   1.293
 4649TIP3   OH213889   2.978   5.900   1.471
 4649TIP3    H113890   3.042   5.873   1.537
 4649TIP3    H213891   2.977   5.995   1.476
 4650TIP3   OH213892   2.711   5.590   1.680
 4650TIP3    H113893   2.647   5.638   1.732
 4650TIP3    H213894   2.731   5.648   1.606
 4651TIP3   OH213895   3.895   5.220   2.584
 4651TIP3    H113896   3.922   5.260   2.667
 4651TIP3    H213897   3.866   5.132   2.609
 4652TIP3   OH213898   3.767   4.965   1.747
 4652TIP3    H113899   3.745   4.982   1.656
 4652TIP3    H213900   3.810   5.045   1.777
 4653TIP3   OH213901   3.246   6.083   1.407
 4653TIP3    H113902   3.163   6.107   1.447
 4653TIP3    H213903   3.269   6.156   1.351
 4654TIP3   OH213904   3.416   5.162   1.835
 4654TIP3    H113905   3.477   5.231   1.809
 4654TIP3    H213906   3.440   5.142   1.926
 4655TIP3   OH213907   3.713   5.467   2.605
 4655TIP3    H113908   3.734   5.518   2.684
 4655TIP3    H213909   3.765   5.387   2.614
 4656TIP3   OH213910   3.579   4.860   1.921
 4656TIP3    H113911   3.555   4.937   1.973
 4656TIP3    H213912   3.648   4.891   1.862
 4657TIP3   OH213913   2.998   6.173   1.485
 4657TIP3    H113914   2.976   6.244   1.426
 4657TIP3    H213915   2.988   6.210   1.573
 4658TIP3   OH213916   3.091   4.886   1.728
 4658TIP3    H113917   3.079   4.976   1.756
 4658TIP3    H213918   3.185   4.871   1.734
 4659TIP3   OH213919   3.992   5.559   1.983
 4659TIP3    H113920   3.915   5.503   1.994
 4659TIP3    H213921   4.059   5.520   2.040
 4660TIP3   OH213922   2.735   5.766   1.462
 4660TIP3    H113923   2.807   5.828   1.472
 4660TIP3    H213924   2.766   5.703   1.398
 4661TIP3   OH213925   2.638   5.060   1.594
 4661TIP3    H113926   2.652   5.154   1.604
 4661TIP3    H213927   2.572   5.052   1.526
 4662TIP3   OH213928   3.984   6.522   1.918
 4662TIP3    H113929   3.933   6.575   1.856
 4662TIP3    H213930   4.075   6.550   1.903
 4663TIP3   OH213931   3.046   4.781   2.460
 4663TIP3    H113932   3.015   4.749   2.376
 4663TIP3    H213933   3.034   4.706   2.519
 4664TIP3   OH213934   2.563   6.039   1.855
 4664TIP3    H113935   2.518   6.074   1.932
 4664TIP3    H213936   2.520   6.081   1.781
 4665TIP3   OH213937   2.771   6.579   2.935
 4665TIP3    H113938   2.851   6.589   2.986
 4665TIP3    H213939   2.763   6.485   2.920
 4666TIP3   OH213940   3.238   6.490   2.961
 4666TIP3    H113941   3.325   6.455   2.979
 4666TIP3    H213942   3.204   6.433   2.892
 4667TIP3   OH213943   3.183   6.088   1.091
 4667TIP3    H113944   3.136   6.017   1.135
 4667TIP3    H213945   3.260   6.046   1.053
 4668TIP3   OH213946   3.874   6.433   2.720
 4668TIP3    H113947   3.881   6.362   2.784
 4668TIP3    H213948   3.945   6.492   2.741
 4669TIP3   OH213949   3.626   6.131   1.016
 4669TIP3    H113950   3.678   6.068   1.065
 4669TIP3    H213951   3.671   6.139   0.932
 4670TIP3   OH213952   2.863   5.968   3.107
 4670TIP3    H113953   2.883   5.875   3.119
 4670TIP3    H213954   2.776   5.969   3.066
 4671TIP3   OH213955   2.856   5.576   1.308
 4671TIP3    H113956   2.905   5.551   1.387
 4671TIP3    H213957   2.923   5.589   1.241
 4672TIP3   OH213958   3.495   6.060   2.891
 4672TIP3    H113959   3.446   6.081   2.811
 4672TIP3    H213960   3.525   5.970   2.878
 4673TIP3   OH213961   3.437   5.792   1.153
 4673TIP3    H113962   3.413   5.807   1.245
 4673TIP3    H213963   3.411   5.702   1.135
 4674TIP3   OH213964   3.959   6.100   2.512
 4674TIP3    H113965   4.037   6.125   2.461
 4674TIP3    H213966   3.896   6.170   2.495
 4675TIP3   OH213967   2.983   5.715   3.123
 4675TIP3    H113968   3.062   5.701   3.070
 4675TIP3    H213969   3.016   5.737   3.210
 4676TIP3   OH213970   3.028   5.519   1.521
 4676TIP3    H113971   3.009   5.488   1.610
 4676TIP3    H213972   3.078   5.447   1.482
 4677TIP3   OH213973   3.350   5.607   2.778
 4677TIP3    H113974   3.263   5.646   2.789
 4677TIP3    H213975   3.378   5.636   2.691
 4678TIP3   OH213976   3.172   5.336   1.368
 4678TIP3    H113977   3.144   5.340   1.277
 4678TIP3    H213978   3.268   5.341   1.364
 4679TIP3   OH213979   3.834   5.983   2.855
 4679TIP3    H113980   3.902   5.937   2.805
 4679TIP3    H213981   3.828   5.935   2.938
 4680TIP3   OH213982   3.948   5.617   1.066
 4680TIP3    H113983   3.958   5.584   0.977
 4680TIP3    H213984   3.924   5.709   1.055
 4681TIP3   OH213985   3.453   5.373   2.878
 4681TIP3    H113986   3.449   5.303   2.814
 4681TIP3    H213987   3.416   5.449   2.833
 4682TIP3   OH213988   3.455   5.171   2.679
 4682TIP3    H113989   3.480   5.210   2.595
 4682TIP3    H213990   3.364   5.145   2.668
 4683TIP3   OH213991   3.462   5.701   2.548
 4683TIP3    H113992   3.548   5.741   2.539
 4683TIP3    H213993   3.403   5.759   2.499
 4684TIP3   OH213994   4.043   5.675   2.944
 4684TIP3    H113995   4.081   5.608   3.001
 4684TIP3    H213996   4.109   5.743   2.938
 4685TIP3   OH213997   4.077   5.914   2.670
 4685TIP3    H113998   4.023   5.976   2.621
 4685TIP3    H213999   4.166   5.931   2.640
 4686TIP3   OH214000   3.341   5.449   3.127
 4686TIP3    H114001   3.270   5.388   3.148
 4686TIP3    H214002   3.365   5.426   3.037
 4687TIP3   OH214003   3.574   4.941   2.788
 4687TIP3    H114004   3.533   5.021   2.754
 4687TIP3    H214005   3.507   4.873   2.775
 4688TIP3   OH214006   3.709   5.404   2.975
 4688TIP3    H114007   3.698   5.392   3.069
 4688TIP3    H214008   3.622   5.389   2.939
 4689TIP3   OH214009   3.938   5.339   2.832
 4689TIP3    H114010   3.855   5.359   2.876
 4689TIP3    H214011   3.993   5.302   2.901
 4690TIP3   OH214012   4.230   5.316   2.938
 4690TIP3    H114013   4.233   5.229   2.977
 4690TIP3    H214014   4.205   5.374   3.009
 4691TIP3   OH214015   3.170   5.234   3.191
 4691TIP3    H114016   3.174   5.145   3.155
 4691TIP3    H214017   3.207   5.226   3.278
 4692TIP3   OH214018   3.649   4.921   3.051
 4692TIP3    H114019   3.715   4.852   3.044
 4692TIP3    H214020   3.615   4.932   2.962
 4693TIP3   OH214021   3.754   5.135   3.191
 4693TIP3    H114022   3.719   5.062   3.140
 4693TIP3    H214023   3.683   5.199   3.194
 4694TIP3   OH214024   2.988   6.386   1.307
 4694TIP3    H114025   3.078   6.365   1.281
 4694TIP3    H214026   2.950   6.429   1.231
 4695TIP3   OH214027   2.461   5.768   1.478
 4695TIP3    H114028   2.556   5.777   1.476
 4695TIP3    H214029   2.445   5.682   1.440
 4696TIP3   OH214030   2.362   6.348   1.943
 4696TIP3    H114031   2.298   6.294   1.897
 4696TIP3    H214032   2.407   6.288   2.002
 4697TIP3   OH214033   2.508   6.182   2.109
 4697TIP3    H114034   2.500   6.111   2.173
 4697TIP3    H214035   2.560   6.249   2.153
 4698TIP3   OH214036   4.230   6.638   1.884
 4698TIP3    H114037   4.247   6.716   1.936
 4698TIP3    H214038   4.302   6.634   1.821
 4699TIP3   OH214039   4.339   6.368   2.772
 4699TIP3    H114040   4.256   6.347   2.814
 4699TIP3    H214041   4.388   6.416   2.839
 4700TIP3   OH214042   4.137   5.834   1.384
 4700TIP3    H114043   4.197   5.903   1.354
 4700TIP3    H214044   4.183   5.792   1.457
 4701TIP3   OH214045   4.266   5.686   1.580
 4701TIP3    H114046   4.197   5.648   1.635
 4701TIP3    H214047   4.329   5.723   1.642
 4702TIP3   OH214048   4.328   6.086   2.020
 4702TIP3    H114049   4.372   6.014   1.977
 4702TIP3    H214050   4.327   6.157   1.955
 4703TIP3   OH214051   4.138   6.356   2.196
 4703TIP3    H114052   4.085   6.423   2.240
 4703TIP3    H214053   4.084   6.326   2.124
 4704TIP3   OH214054   4.168   5.606   1.232
 4704TIP3    H114055   4.093   5.603   1.172
 4704TIP3    H214056   4.155   5.687   1.282
 4705TIP3   OH214057   4.031   5.251   1.178
 4705TIP3    H114058   3.997   5.297   1.102
 4705TIP3    H214059   4.015   5.158   1.159
 4706TIP3   OH214060   4.059   5.551   1.713
 4706TIP3    H114061   4.062   5.456   1.698
 4706TIP3    H214062   4.040   5.560   1.806
 4707TIP3   OH214063   2.682   5.618   2.486
 4707TIP3    H114064   2.672   5.583   2.398
 4707TIP3    H214065   2.775   5.612   2.504
 4708TIP3   OH214066   4.340   5.962   2.601
 4708TIP3    H114067   4.400   5.888   2.590
 4708TIP3    H214068   4.371   6.027   2.539
 4709TIP3   OH214069   4.498   5.740   2.577
 4709TIP3    H114070   4.440   5.687   2.524
 4709TIP3    H214071   4.571   5.682   2.600
 4710TIP3   OH214072   3.995   4.979   1.135
 4710TIP3    H114073   4.057   4.954   1.204
 4710TIP3    H214074   3.911   4.945   1.166
 4711TIP3   OH214075   4.058   5.275   1.604
 4711TIP3    H114076   4.102   5.191   1.615
 4711TIP3    H214077   4.100   5.314   1.527
 4712TIP3   OH214078   4.209   5.444   2.130
 4712TIP3    H114079   4.289   5.468   2.083
 4712TIP3    H214080   4.224   5.472   2.220
 4713TIP3   OH214081   4.322   5.613   2.401
 4713TIP3    H114082   4.234   5.628   2.435
 4713TIP3    H214083   4.336   5.682   2.337
 4714TIP3   OH214084   2.907   5.299   3.131
 4714TIP3    H114085   3.001   5.296   3.150
 4714TIP3    H214086   2.873   5.217   3.167
 4715TIP3   OH214087   4.691   5.207   2.827
 4715TIP3    H114088   4.770   5.152   2.818
 4715TIP3    H214089   4.711   5.264   2.901
 4716TIP3   OH214090   4.173   5.025   1.653
 4716TIP3    H114091   4.218   5.009   1.736
 4716TIP3    H214092   4.110   4.954   1.645
 4717TIP3   OH214093   2.884   5.006   2.468
 4717TIP3    H114094   2.937   4.927   2.478
 4717TIP3    H214095   2.948   5.076   2.454
 4718TIP3   OH214096   2.661   5.262   2.543
 4718TIP3    H114097   2.712   5.258   2.462
 4718TIP3    H214098   2.690   5.343   2.586
 4719TIP3   OH214099   4.456   5.286   2.702
 4719TIP3    H114100   4.533   5.268   2.755
 4719TIP3    H214101   4.462   5.225   2.629
 4720TIP3   OH214102   4.221   4.933   1.294
 4720TIP3    H114103   4.269   4.873   1.238
 4720TIP3    H214104   4.273   5.013   1.295
 4721TIP3   OH214105   2.647   4.783   2.045
 4721TIP3    H114106   2.561   4.770   2.086
 4721TIP3    H214107   2.628   4.836   1.967
 4722TIP3   OH214108   3.822   6.513   1.577
 4722TIP3    H114109   3.861   6.468   1.502
 4722TIP3    H214110   3.860   6.601   1.574
 4723TIP3   OH214111   2.870   4.827   2.865
 4723TIP3    H114112   2.825   4.829   2.949
 4723TIP3    H214113   2.816   4.879   2.807
 4724TIP3   OH214114   2.897   6.300   2.932
 4724TIP3    H114115   2.805   6.275   2.933
 4724TIP3    H214116   2.925   6.288   3.023
 4725TIP3   OH214117   3.109   6.339   2.490
 4725TIP3    H114118   3.059   6.415   2.458
 4725TIP3    H214119   3.194   6.348   2.448
 4726TIP3   OH214120   3.508   6.571   2.630
 4726TIP3    H114121   3.547   6.560   2.716
 4726TIP3    H214122   3.570   6.628   2.583
 4727TIP3   OH214123   3.691   6.728   2.495
 4727TIP3    H114124   3.748   6.671   2.444
 4727TIP3    H214125   3.751   6.779   2.549
 4728TIP3   OH214126   4.487   5.028   2.578
 4728TIP3    H114127   4.404   5.000   2.540
 4728TIP3    H214128   4.543   4.950   2.574
 4729TIP3   OH214129   2.774   6.588   2.537
 4729TIP3    H114130   2.682   6.606   2.517
 4729TIP3    H214131   2.796   6.650   2.606
 4730TIP3   OH214132   3.002   6.571   2.386
 4730TIP3    H114133   2.920   6.577   2.435
 4730TIP3    H214134   2.978   6.593   2.296
 4731TIP3   OH214135   3.424   6.564   2.165
 4731TIP3    H114136   3.351   6.575   2.104
 4731TIP3    H214137   3.429   6.647   2.213
 4732TIP3   OH214138   3.696   6.543   2.230
 4732TIP3    H114139   3.604   6.544   2.204
 4732TIP3    H214140   3.739   6.603   2.170
 4733TIP3   OH214141   3.897   6.704   2.104
 4733TIP3    H114142   3.868   6.761   2.032
 4733TIP3    H214143   3.937   6.629   2.060
 4734TIP3   OH214144   2.684   6.359   2.257
 4734TIP3    H114145   2.710   6.335   2.346
 4734TIP3    H214146   2.754   6.326   2.202
 4735TIP3   OH214147   2.885   6.245   2.115
 4735TIP3    H114148   2.895   6.160   2.157
 4735TIP3    H214149   2.971   6.285   2.119
 4736TIP3   OH214150   3.153   6.328   2.140
 4736TIP3    H114151   3.172   6.236   2.123
 4736TIP3    H214152   3.205   6.350   2.217
 4737TIP3   OH214153   3.724   4.989   2.238
 4737TIP3    H114154   3.681   4.916   2.281
 4737TIP3    H214155   3.790   4.949   2.181
 4738TIP3   OH214156   4.216   4.896   2.114
 4738TIP3    H114157   4.251   4.945   2.040
 4738TIP3    H214158   4.122   4.913   2.113
 4739TIP3   OH214159   4.329   4.972   1.876
 4739TIP3    H114160   4.398   4.911   1.849
 4739TIP3    H214161   4.368   5.058   1.863
 4740TIP3   OH214162   2.954   4.680   2.220
 4740TIP3    H114163   2.865   4.647   2.231
 4740TIP3    H214164   3.008   4.601   2.212
 4741TIP3   OH214165   2.775   4.590   1.877
 4741TIP3    H114166   2.799   4.639   1.799
 4741TIP3    H214167   2.737   4.655   1.937
 4742TIP3   OH214168   3.436   4.716   2.119
 4742TIP3    H114169   3.482   4.764   2.051
 4742TIP3    H214170   3.476   4.746   2.201
 4743TIP3   OH214171   3.930   4.868   2.096
 4743TIP3    H114172   3.933   4.835   2.007
 4743TIP3    H214173   3.935   4.790   2.151
 4744TIP3   OH214174   3.987   4.816   1.662
 4744TIP3    H114175   3.907   4.862   1.686
 4744TIP3    H214176   3.976   4.728   1.700
 4745TIP3   OH214177   2.446   6.159   1.638
 4745TIP3    H114178   2.362   6.125   1.606
 4745TIP3    H214179   2.449   6.249   1.605
 4746TIP3   OH214180   2.881   4.718   1.638
 4746TIP3    H114181   2.927   4.656   1.581
 4746TIP3    H214182   2.950   4.774   1.673
 4747TIP3   OH214183   3.366   4.912   1.735
 4747TIP3    H114184   3.424   4.859   1.789
 4747TIP3    H214185   3.382   5.002   1.765
 4748TIP3   OH214186   3.243   6.310   1.239
 4748TIP3    H114187   3.328   6.335   1.205
 4748TIP3    H214188   3.212   6.241   1.180
 4749TIP3   OH214189   3.945   6.424   1.350
 4749TIP3    H114190   3.942   6.329   1.335
 4749TIP3    H214191   3.898   6.461   1.275
 4750TIP3   OH214192   3.184   4.965   3.100
 4750TIP3    H114193   3.148   4.901   3.161
 4750TIP3    H214194   3.276   4.973   3.125
 4751TIP3   OH214195   3.432   4.969   3.222
 4751TIP3    H114196   3.510   4.948   3.172
 4751TIP3    H214197   3.425   4.900   3.287
 4752TIP3   OH214198   2.563   6.153   1.291
 4752TIP3    H114199   2.563   6.159   1.386
 4752TIP3    H214200   2.643   6.106   1.269
 4753TIP3   OH214201   4.251   5.053   3.009
 4753TIP3    H114202   4.263   5.028   3.101
 4753TIP3    H214203   4.335   5.034   2.968
 4754TIP3   OH214204   4.234   6.591   2.557
 4754TIP3    H114205   4.175   6.542   2.500
 4754TIP3    H214206   4.202   6.681   2.553
 4755TIP3   OH214207   5.440   5.971   1.293
 4755TIP3    H114208   5.401   6.057   1.275
 4755TIP3    H214209   5.376   5.909   1.259
 4756TIP3   OH214210   5.444   5.961   1.681
 4756TIP3    H114211   5.498   5.942   1.757
 4756TIP3    H214212   5.398   5.879   1.663
 4757TIP3   OH214213   4.746   5.829   2.034
 4757TIP3    H114214   4.784   5.774   2.103
 4757TIP3    H214215   4.820   5.853   1.979
 4758TIP3   OH214216   5.742   6.262   1.370
 4758TIP3    H114217   5.723   6.199   1.438
 4758TIP3    H214218   5.758   6.344   1.416
 4759TIP3   OH214219   4.724   6.265   1.736
 4759TIP3    H114220   4.707   6.171   1.735
 4759TIP3    H214221   4.818   6.273   1.724
 4760TIP3   OH214222   4.422   5.468   1.492
 4760TIP3    H114223   4.381   5.550   1.520
 4760TIP3    H214224   4.350   5.416   1.456
 4761TIP3   OH214225   4.492   5.770   1.725
 4761TIP3    H114226   4.544   5.693   1.748
 4761TIP3    H214227   4.557   5.834   1.694
 4762TIP3   OH214228   5.415   6.721   1.469
 4762TIP3    H114229   5.441   6.664   1.397
 4762TIP3    H214230   5.420   6.664   1.547
 4763TIP3   OH214231   5.245   6.185   1.684
 4763TIP3    H114232   5.284   6.104   1.651
 4763TIP3    H214233   5.319   6.236   1.716
 4764TIP3   OH214234   6.290   5.515   1.709
 4764TIP3    H114235   6.321   5.588   1.761
 4764TIP3    H214236   6.344   5.516   1.630
 4765TIP3   OH214237   5.714   5.695   1.685
 4765TIP3    H114238   5.724   5.610   1.727
 4765TIP3    H214239   5.645   5.682   1.619
 4766TIP3   OH214240   5.013   5.331   1.683
 4766TIP3    H114241   4.992   5.407   1.629
 4766TIP3    H214242   4.959   5.260   1.649
 4767TIP3   OH214243   5.704   5.446   1.346
 4767TIP3    H114244   5.775   5.428   1.408
 4767TIP3    H214245   5.749   5.471   1.265
 4768TIP3   OH214246   4.636   5.550   1.814
 4768TIP3    H114247   4.719   5.532   1.858
 4768TIP3    H214248   4.639   5.498   1.734
 4769TIP3   OH214249   5.061   5.756   1.637
 4769TIP3    H114250   5.156   5.741   1.639
 4769TIP3    H214251   5.024   5.674   1.606
 4770TIP3   OH214252   6.344   5.722   1.877
 4770TIP3    H114253   6.256   5.761   1.875
 4770TIP3    H214254   6.385   5.760   1.955
 4771TIP3   OH214255   4.999   5.342   2.131
 4771TIP3    H114256   4.947   5.377   2.058
 4771TIP3    H214257   4.945   5.357   2.208
 4772TIP3   OH214258   5.312   6.187   1.178
 4772TIP3    H114259   5.278   6.178   1.089
 4772TIP3    H214260   5.258   6.256   1.218
 4773TIP3   OH214261   5.085   6.120   1.902
 4773TIP3    H114262   5.030   6.191   1.936
 4773TIP3    H214263   5.131   6.159   1.827
 4774TIP3   OH214264   5.878   5.427   1.557
 4774TIP3    H114265   5.816   5.413   1.629
 4774TIP3    H214266   5.937   5.495   1.590
 4775TIP3   OH214267   4.885   5.447   1.902
 4775TIP3    H114268   4.940   5.522   1.922
 4775TIP3    H214269   4.930   5.402   1.830
 4776TIP3   OH214270   4.924   6.317   2.011
 4776TIP3    H114271   4.916   6.406   1.976
 4776TIP3    H214272   4.849   6.309   2.070
 4777TIP3   OH214273   4.318   6.017   1.277
 4777TIP3    H114274   4.285   6.033   1.189
 4777TIP3    H214275   4.339   6.104   1.312
 4778TIP3   OH214276   5.734   6.497   1.517
 4778TIP3    H114277   5.647   6.505   1.554
 4778TIP3    H214278   5.747   6.579   1.469
 4779TIP3   OH214279   6.077   5.410   1.875
 4779TIP3    H114280   5.997   5.438   1.832
 4779TIP3    H214281   6.146   5.428   1.811
 4780TIP3   OH214282   5.335   5.033   1.870
 4780TIP3    H114283   5.330   4.940   1.895
 4780TIP3    H214284   5.257   5.073   1.908
 4781TIP3   OH214285   5.492   6.560   1.268
 4781TIP3    H114286   5.532   6.480   1.234
 4781TIP3    H214287   5.545   6.630   1.231
 4782TIP3   OH214288   5.557   6.309   1.172
 4782TIP3    H114289   5.484   6.248   1.184
 4782TIP3    H214290   5.619   6.285   1.240
 4783TIP3   OH214291   5.965   6.416   1.865
 4783TIP3    H114292   5.948   6.341   1.808
 4783TIP3    H214293   5.946   6.492   1.811
 4784TIP3   OH214294   5.255   5.823   1.151
 4784TIP3    H114295   5.175   5.875   1.155
 4784TIP3    H214296   5.248   5.776   1.068
 4785TIP3   OH214297   5.239   5.678   0.923
 4785TIP3    H114298   5.333   5.689   0.909
 4785TIP3    H214299   5.221   5.586   0.902
 4786TIP3   OH214300   6.155   6.071   1.724
 4786TIP3    H114301   6.073   6.119   1.727
 4786TIP3    H214302   6.192   6.090   1.638
 4787TIP3   OH214303   5.611   5.838   1.128
 4787TIP3    H114304   5.565   5.883   1.199
 4787TIP3    H214305   5.704   5.851   1.146
 4788TIP3   OH214306   5.864   5.937   2.018
 4788TIP3    H114307   5.863   6.021   2.064
 4788TIP3    H214308   5.785   5.938   1.964
 4789TIP3   OH214309   4.843   5.874   1.504
 4789TIP3    H114310   4.803   5.809   1.446
 4789TIP3    H214311   4.922   5.831   1.537
 4790TIP3   OH214312   4.988   6.304   1.635
 4790TIP3    H114313   4.956   6.296   1.545
 4790TIP3    H214314   5.076   6.266   1.633
 4791TIP3   OH214315   4.955   5.883   1.858
 4791TIP3    H114316   4.994   5.848   1.778
 4791TIP3    H214317   5.003   5.965   1.874
 4792TIP3   OH214318   5.491   6.519   1.647
 4792TIP3    H114319   5.475   6.571   1.725
 4792TIP3    H214320   5.482   6.428   1.676
 4793TIP3   OH214321   5.121   6.376   2.201
 4793TIP3    H114322   5.072   6.453   2.229
 4793TIP3    H214323   5.069   6.340   2.129
 4794TIP3   OH214324   5.499   5.736   0.904
 4794TIP3    H114325   5.539   5.773   0.984
 4794TIP3    H214326   5.496   5.810   0.843
 4795TIP3   OH214327   4.892   5.965   2.326
 4795TIP3    H114328   4.897   6.059   2.345
 4795TIP3    H214329   4.799   5.948   2.314
 4796TIP3   OH214330   5.221   6.440   1.265
 4796TIP3    H114331   5.305   6.481   1.286
 4796TIP3    H214332   5.167   6.511   1.231
 4797TIP3   OH214333   4.916   6.567   2.240
 4797TIP3    H114334   4.916   6.589   2.146
 4797TIP3    H214335   4.842   6.507   2.250
 4798TIP3   OH214336   5.991   5.004   1.034
 4798TIP3    H114337   5.907   5.008   1.080
 4798TIP3    H214338   5.995   5.086   0.985
 4799TIP3   OH214339   4.706   5.696   1.335
 4799TIP3    H114340   4.636   5.750   1.299
 4799TIP3    H214341   4.666   5.611   1.350
 4800TIP3   OH214342   4.535   6.148   2.201
 4800TIP3    H114343   4.461   6.132   2.143
 4800TIP3    H214344   4.568   6.061   2.223
 4801TIP3   OH214345   4.387   6.311   1.856
 4801TIP3    H114346   4.481   6.314   1.837
 4801TIP3    H214347   4.373   6.384   1.916
 4802TIP3   OH214348   6.204   6.777   1.906
 4802TIP3    H114349   6.211   6.682   1.915
 4802TIP3    H214350   6.122   6.800   1.950
 4803TIP3   OH214351   5.086   6.646   1.131
 4803TIP3    H114352   5.036   6.584   1.079
 4803TIP3    H214353   5.025   6.718   1.148
 4804TIP3   OH214354   4.525   6.513   1.384
 4804TIP3    H114355   4.575   6.506   1.465
 4804TIP3    H214356   4.486   6.427   1.372
 4805TIP3   OH214357   5.337   6.547   0.766
 4805TIP3    H114358   5.297   6.466   0.735
 4805TIP3    H214359   5.362   6.528   0.857
 4806TIP3   OH214360   5.369   6.718   1.035
 4806TIP3    H114361   5.282   6.738   0.998
 4806TIP3    H214362   5.367   6.624   1.050
 4807TIP3   OH214363   6.101   5.884   2.185
 4807TIP3    H114364   6.021   5.896   2.132
 4807TIP3    H214365   6.119   5.790   2.180
 4808TIP3   OH214366   4.728   6.346   2.216
 4808TIP3    H114367   4.780   6.309   2.286
 4808TIP3    H214368   4.655   6.286   2.205
 4809TIP3   OH214369   5.098   5.122   1.990
 4809TIP3    H114370   5.014   5.089   1.959
 4809TIP3    H214371   5.076   5.204   2.035
 4810TIP3   OH214372   5.653   5.247   2.196
 4810TIP3    H114373   5.726   5.218   2.251
 4810TIP3    H214374   5.575   5.227   2.248
 4811TIP3   OH214375   5.855   5.673   2.108
 4811TIP3    H114376   5.821   5.670   2.197
 4811TIP3    H214377   5.844   5.764   2.081
 4812TIP3   OH214378   5.488   5.753   0.476
 4812TIP3    H114379   5.421   5.818   0.455
 4812TIP3    H214380   5.561   5.805   0.510
 4813TIP3   OH214381   5.229   5.163   0.957
 4813TIP3    H114382   5.197   5.173   1.047
 4813TIP3    H214383   5.198   5.076   0.931
 4814TIP3   OH214384   5.040   5.657   1.996
 4814TIP3    H114385   4.996   5.662   2.081
 4814TIP3    H214386   5.018   5.739   1.953
 4815TIP3   OH214387   4.917   5.543   1.540
 4815TIP3    H114388   4.827   5.521   1.562
 4815TIP3    H214389   4.930   5.508   1.452
 4816TIP3   OH214390   5.390   5.616   1.264
 4816TIP3    H114391   5.345   5.691   1.225
 4816TIP3    H214392   5.448   5.584   1.196
 4817TIP3   OH214393   5.585   5.878   2.317
 4817TIP3    H114394   5.557   5.809   2.377
 4817TIP3    H214395   5.675   5.896   2.341
 4818TIP3   OH214396   5.546   5.623   1.486
 4818TIP3    H114397   5.482   5.644   1.419
 4818TIP3    H214398   5.599   5.553   1.447
 4819TIP3   OH214399   4.882   5.667   2.222
 4819TIP3    H114400   4.906   5.728   2.292
 4819TIP3    H214401   4.864   5.585   2.268
 4820TIP3   OH214402   4.895   5.138   0.960
 4820TIP3    H114403   4.880   5.161   1.052
 4820TIP3    H214404   4.824   5.182   0.913
 4821TIP3   OH214405   4.463   5.193   1.803
 4821TIP3    H114406   4.538   5.228   1.852
 4821TIP3    H214407   4.499   5.174   1.716
 4822TIP3   OH214408   4.369   5.169   1.298
 4822TIP3    H114409   4.410   5.201   1.218
 4822TIP3    H214410   4.307   5.238   1.323
 4823TIP3   OH214411   5.620   5.872   1.881
 4823TIP3    H114412   5.657   5.809   1.819
 4823TIP3    H214413   5.580   5.818   1.949
 4824TIP3   OH214414   5.280   5.328   1.577
 4824TIP3    H114415   5.202   5.326   1.633
 4824TIP3    H214416   5.353   5.319   1.639
 4825TIP3   OH214417   4.677   5.412   1.582
 4825TIP3    H114418   4.590   5.416   1.542
 4825TIP3    H214419   4.708   5.323   1.563
 4826TIP3   OH214420   4.935   5.408   1.306
 4826TIP3    H114421   5.027   5.418   1.283
 4826TIP3    H214422   4.888   5.426   1.225
 4827TIP3   OH214423   5.708   5.432   1.778
 4827TIP3    H114424   5.695   5.446   1.872
 4827TIP3    H214425   5.640   5.370   1.753
 4828TIP3   OH214426   4.784   5.433   1.083
 4828TIP3    H114427   4.720   5.391   1.025
 4828TIP3    H214428   4.841   5.481   1.023
 4829TIP3   OH214429   5.922   7.110   2.011
 4829TIP3    H114430   5.915   7.128   1.917
 4829TIP3    H214431   6.001   7.155   2.039
 4830TIP3   OH214432   4.873   6.227   2.423
 4830TIP3    H114433   4.953   6.253   2.467
 4830TIP3    H214434   4.806   6.227   2.491
 4831TIP3   OH214435   5.335   5.697   1.676
 4831TIP3    H114436   5.397   5.648   1.623
 4831TIP3    H214437   5.332   5.650   1.759
 4832TIP3   OH214438   4.819   5.163   1.561
 4832TIP3    H114439   4.792   5.087   1.613
 4832TIP3    H214440   4.837   5.127   1.474
 4833TIP3   OH214441   5.306   5.599   1.940
 4833TIP3    H114442   5.219   5.630   1.962
 4833TIP3    H214443   5.365   5.653   1.993
 4834TIP3   OH214444   5.013   5.950   1.124
 4834TIP3    H114445   4.946   5.881   1.120
 4834TIP3    H214446   4.997   5.993   1.208
 4835TIP3   OH214447   5.908   6.201   1.699
 4835TIP3    H114448   5.950   6.243   1.623
 4835TIP3    H214449   5.827   6.165   1.664
 4836TIP3   OH214450   5.484   5.256   1.003
 4836TIP3    H114451   5.398   5.234   0.968
 4836TIP3    H214452   5.489   5.351   0.999
 4837TIP3   OH214453   5.499   6.385   2.039
 4837TIP3    H114454   5.455   6.380   2.124
 4837TIP3    H214455   5.479   6.473   2.007
 4838TIP3   OH214456   5.550   5.518   1.066
 4838TIP3    H114457   5.645   5.509   1.077
 4838TIP3    H214458   5.540   5.571   0.987
 4839TIP3   OH214459   4.720   5.981   1.723
 4839TIP3    H114460   4.755   5.955   1.637
 4839TIP3    H214461   4.786   5.951   1.786
 4840TIP3   OH214462   5.122   6.039   0.898
 4840TIP3    H114463   5.139   6.131   0.916
 4840TIP3    H214464   5.097   6.002   0.983
 4841TIP3   OH214465   4.617   5.913   2.348
 4841TIP3    H114466   4.627   5.889   2.440
 4841TIP3    H214467   4.536   5.871   2.320
 4842TIP3   OH214468   5.354   6.033   2.358
 4842TIP3    H114469   5.285   5.975   2.325
 4842TIP3    H214470   5.436   5.991   2.329
 4843TIP3   OH214471   5.969   5.562   0.872
 4843TIP3    H114472   5.950   5.532   0.783
 4843TIP3    H214473   5.959   5.657   0.868
 4844TIP3   OH214474   6.217   6.502   1.943
 4844TIP3    H114475   6.123   6.483   1.940
 4844TIP3    H214476   6.251   6.465   1.861
 4845TIP3   OH214477   5.815   6.443   0.741
 4845TIP3    H114478   5.854   6.364   0.703
 4845TIP3    H214479   5.738   6.412   0.789
 4846TIP3   OH214480   5.683   6.078   1.576
 4846TIP3    H114481   5.591   6.062   1.597
 4846TIP3    H214482   5.716   5.993   1.548
 4847TIP3   OH214483   4.838   6.317   1.398
 4847TIP3    H114484   4.847   6.404   1.358
 4847TIP3    H214485   4.751   6.287   1.371
 4848TIP3   OH214486   4.417   5.588   1.116
 4848TIP3    H114487   4.461   5.669   1.143
 4848TIP3    H214488   4.331   5.593   1.158
 4849TIP3   OH214489   4.950   6.074   1.348
 4849TIP3    H114490   4.918   6.163   1.367
 4849TIP3    H214491   4.907   6.019   1.413
 4850TIP3   OH214492   5.135   6.673   1.828
 4850TIP3    H114493   5.142   6.768   1.833
 4850TIP3    H214494   5.223   6.641   1.851
 4851TIP3   OH214495   4.767   6.546   1.261
 4851TIP3    H114496   4.677   6.555   1.293
 4851TIP3    H214497   4.800   6.636   1.258
 4852TIP3   OH214498   5.488   6.277   1.785
 4852TIP3    H114499   5.486   6.312   1.874
 4852TIP3    H214500   5.566   6.222   1.783
 4853TIP3   OH214501   5.525   6.204   0.582
 4853TIP3    H114502   5.504   6.112   0.599
 4853TIP3    H214503   5.457   6.233   0.521
 4854TIP3   OH214504   5.713   6.782   1.866
 4854TIP3    H114505   5.644   6.720   1.891
 4854TIP3    H214506   5.668   6.866   1.859
 4855TIP3   OH214507   4.832   5.411   2.343
 4855TIP3    H114508   4.737   5.411   2.344
 4855TIP3    H214509   4.857   5.349   2.412
 4856TIP3   OH214510   5.675   6.076   0.991
 4856TIP3    H114511   5.604   6.014   1.007
 4856TIP3    H214512   5.755   6.023   0.996
 4857TIP3   OH214513   4.558   6.541   1.989
 4857TIP3    H114514   4.614   6.487   2.045
 4857TIP3    H214515   4.567   6.630   2.025
 4858TIP3   OH214516   4.938   6.232   0.749
 4858TIP3    H114517   4.907   6.146   0.721
 4858TIP3    H214518   4.878   6.259   0.818
 4859TIP3   OH214519   4.803   6.102   0.998
 4859TIP3    H114520   4.879   6.064   1.042
 4859TIP3    H214521   4.777   6.176   1.053
 4860TIP3   OH214522   4.509   5.834   1.202
 4860TIP3    H114523   4.445   5.895   1.239
 4860TIP3    H214524   4.529   5.869   1.115
 4861TIP3   OH214525   5.669   5.478   2.046
 4861TIP3    H114526   5.747   5.524   2.076
 4861TIP3    H214527   5.665   5.399   2.101
 4862TIP3   OH214528   5.561   5.221   1.263
 4862TIP3    H114529   5.530   5.239   1.175
 4862TIP3    H214530   5.600   5.304   1.293
 4863TIP3   OH214531   5.123   6.306   0.983
 4863TIP3    H114532   5.047   6.355   1.013
 4863TIP3    H214533   5.139   6.338   0.894
 4864TIP3   OH214534   5.214   5.415   1.322
 4864TIP3    H114535   5.273   5.486   1.296
 4864TIP3    H214536   5.237   5.397   1.413
 4865TIP3   OH214537   5.517   5.717   2.085
 4865TIP3    H114538   5.538   5.762   2.167
 4865TIP3    H214539   5.562   5.633   2.090
 4866TIP3   OH214540   5.364   5.115   1.420
 4866TIP3    H114541   5.338   5.192   1.469
 4866TIP3    H214542   5.438   5.144   1.366
 4867TIP3   OH214543   4.698   6.322   1.119
 4867TIP3    H114544   4.676   6.353   1.031
 4867TIP3    H214545   4.730   6.400   1.164
 4868TIP3   OH214546   4.882   5.139   1.246
 4868TIP3    H114547   4.876   5.230   1.275
 4868TIP3    H214548   4.976   5.122   1.239
 4869TIP3   OH214549   6.118   5.609   2.088
 4869TIP3    H114550   6.024   5.621   2.098
 4869TIP3    H214551   6.127   5.539   2.023
 4870TIP3   OH214552   5.879   5.734   1.446
 4870TIP3    H114553   5.812   5.744   1.378
 4870TIP3    H214554   5.829   5.729   1.528
 4871TIP3   OH214555   4.517   6.087   0.924
 4871TIP3    H114556   4.574   6.135   0.985
 4871TIP3    H214557   4.550   5.997   0.928
 4872TIP3   OH214558   4.427   5.316   1.071
 4872TIP3    H114559   4.444   5.406   1.101
 4872TIP3    H214560   4.351   5.324   1.014
 4873TIP3   OH214561   5.775   6.748   1.426
 4873TIP3    H114562   5.722   6.826   1.439
 4873TIP3    H214563   5.865   6.781   1.416
 4874TIP3   OH214564   4.835   5.037   1.953
 4874TIP3    H114565   4.807   5.005   1.868
 4874TIP3    H214566   4.827   4.961   2.011
 4875TIP3   OH214567   4.371   6.279   1.365
 4875TIP3    H114568   4.328   6.317   1.442
 4875TIP3    H214569   4.329   6.322   1.291
 4876TIP3   OH214570   5.026   6.729   2.436
 4876TIP3    H114571   5.114   6.692   2.446
 4876TIP3    H214572   4.984   6.675   2.369
 4877TIP3   OH214573   4.962   6.424   0.551
 4877TIP3    H114574   4.917   6.358   0.604
 4877TIP3    H214575   4.996   6.377   0.476
 4878TIP3   OH214576   5.634   6.732   2.239
 4878TIP3    H114577   5.647   6.645   2.277
 4878TIP3    H214578   5.720   6.773   2.243
 4879TIP3   OH214579   4.669   6.189   2.607
 4879TIP3    H114580   4.682   6.095   2.621
 4879TIP3    H214581   4.582   6.195   2.566
 4880TIP3   OH214582   4.619   5.835   0.934
 4880TIP3    H114583   4.691   5.817   0.995
 4880TIP3    H214584   4.642   5.786   0.855
 4881TIP3   OH214585   5.303   6.311   2.388
 4881TIP3    H114586   5.246   6.328   2.313
 4881TIP3    H214587   5.336   6.222   2.373
 4882TIP3   OH214588   5.138   6.039   0.623
 4882TIP3    H114589   5.133   6.055   0.717
 4882TIP3    H214590   5.157   5.945   0.616
 4883TIP3   OH214591   5.757   6.288   2.016
 4883TIP3    H114592   5.812   6.351   1.968
 4883TIP3    H214593   5.672   6.331   2.023
 4884TIP3   OH214594   4.789   5.930   2.611
 4884TIP3    H114595   4.860   5.940   2.547
 4884TIP3    H214596   4.822   5.972   2.690
 4885TIP3   OH214597   4.826   5.758   1.093
 4885TIP3    H114598   4.798   5.715   1.174
 4885TIP3    H214599   4.872   5.689   1.045
 4886TIP3   OH214600   5.140   5.852   2.264
 4886TIP3    H114601   5.058   5.899   2.279
 4886TIP3    H214602   5.171   5.883   2.179
 4887TIP3   OH214603   4.953   5.576   0.933
 4887TIP3    H114604   4.961   5.648   0.869
 4887TIP3    H214605   5.027   5.519   0.914
 4888TIP3   OH214606   5.674   6.231   2.383
 4888TIP3    H114607   5.732   6.188   2.321
 4888TIP3    H214608   5.662   6.167   2.453
 4889TIP3   OH214609   5.710   5.910   0.526
 4889TIP3    H114610   5.731   5.850   0.454
 4889TIP3    H214611   5.738   5.996   0.494
 4890TIP3   OH214612   5.242   5.623   2.374
 4890TIP3    H114613   5.248   5.552   2.309
 4890TIP3    H214614   5.209   5.698   2.325
 4891TIP3   OH214615   5.257   5.427   2.168
 4891TIP3    H114616   5.285   5.463   2.084
 4891TIP3    H214617   5.167   5.398   2.154
 4892TIP3   OH214618   5.254   5.954   2.041
 4892TIP3    H114619   5.343   5.977   2.016
 4892TIP3    H214620   5.199   6.017   1.994
 4893TIP3   OH214621   5.852   5.911   2.433
 4893TIP3    H114622   5.882   5.820   2.425
 4893TIP3    H214623   5.929   5.963   2.411
 4894TIP3   OH214624   5.898   6.163   2.206
 4894TIP3    H114625   5.842   6.213   2.147
 4894TIP3    H214626   5.987   6.177   2.173
 4895TIP3   OH214627   5.124   5.706   2.615
 4895TIP3    H114628   5.056   5.641   2.633
 4895TIP3    H214629   5.156   5.684   2.527
 4896TIP3   OH214630   5.380   5.194   2.269
 4896TIP3    H114631   5.341   5.275   2.237
 4896TIP3    H214632   5.312   5.128   2.258
 4897TIP3   OH214633   5.500   5.668   2.471
 4897TIP3    H114634   5.491   5.654   2.566
 4897TIP3    H214635   5.414   5.645   2.436
 4898TIP3   OH214636   5.757   5.634   2.356
 4898TIP3    H114637   5.676   5.626   2.406
 4898TIP3    H214638   5.825   5.599   2.414
 4899TIP3   OH214639   5.982   5.580   2.511
 4899TIP3    H114640   5.996   5.486   2.519
 4899TIP3    H214641   5.981   5.613   2.601
 4900TIP3   OH214642   4.951   5.493   2.682
 4900TIP3    H114643   4.962   5.407   2.642
 4900TIP3    H214644   4.993   5.485   2.768
 4901TIP3   OH214645   5.443   5.174   2.536
 4901TIP3    H114646   5.515   5.111   2.533
 4901TIP3    H214647   5.415   5.182   2.445
 4902TIP3   OH214648   5.541   5.396   2.665
 4902TIP3    H114649   5.510   5.321   2.615
 4902TIP3    H214650   5.466   5.455   2.671
 4903TIP3   OH214651   4.767   6.564   0.670
 4903TIP3    H114652   4.836   6.533   0.613
 4903TIP3    H214653   4.733   6.642   0.627
 4904TIP3   OH214654   4.239   6.011   1.011
 4904TIP3    H114655   4.279   6.050   0.933
 4904TIP3    H214656   4.220   5.921   0.985
 4905TIP3   OH214657   4.144   6.585   1.443
 4905TIP3    H114658   4.081   6.530   1.397
 4905TIP3    H214659   4.193   6.525   1.498
 4906TIP3   OH214660   4.301   6.422   1.601
 4906TIP3    H114661   4.293   6.359   1.673
 4906TIP3    H214662   4.354   6.493   1.638
 4907TIP3   OH214663   6.036   6.834   1.413
 4907TIP3    H114664   6.043   6.857   1.506
 4907TIP3    H214665   6.119   6.862   1.375
 4908TIP3   OH214666   6.034   6.870   1.689
 4908TIP3    H114667   5.987   6.787   1.697
 4908TIP3    H214668   6.112   6.860   1.743
 4909TIP3   OH214669   6.120   6.569   2.281
 4909TIP3    H114670   6.045   6.582   2.338
 4909TIP3    H214671   6.164   6.654   2.278
 4910TIP3   OH214672   5.954   6.088   0.915
 4910TIP3    H114673   6.031   6.124   0.871
 4910TIP3    H214674   5.938   6.147   0.988
 4911TIP3   OH214675   6.059   6.301   1.503
 4911TIP3    H114676   6.130   6.245   1.472
 4911TIP3    H214677   6.065   6.380   1.449
 4912TIP3   OH214678   5.891   6.634   1.712
 4912TIP3    H114679   5.819   6.679   1.757
 4912TIP3    H214680   5.849   6.590   1.639
 4913TIP3   OH214681   5.952   5.829   0.849
 4913TIP3    H114682   5.995   5.827   0.763
 4913TIP3    H214683   5.959   5.920   0.877
 4914TIP3   OH214684   5.934   5.534   0.596
 4914TIP3    H114685   5.877   5.607   0.570
 4914TIP3    H214686   5.875   5.458   0.599
 4915TIP3   OH214687   4.480   5.846   1.987
 4915TIP3    H114688   4.470   5.825   1.894
 4915TIP3    H214689   4.574   5.850   2.001
 4916TIP3   OH214690   6.139   6.215   2.077
 4916TIP3    H114691   6.205   6.150   2.054
 4916TIP3    H214692   6.135   6.272   2.001
 4917TIP3   OH214693   6.314   6.002   2.060
 4917TIP3    H114694   6.241   5.962   2.108
 4917TIP3    H214695   6.389   5.947   2.079
 4918TIP3   OH214696   5.808   5.302   0.664
 4918TIP3    H114697   5.868   5.242   0.620
 4918TIP3    H214698   5.752   5.246   0.717
 4919TIP3   OH214699   5.825   5.491   1.098
 4919TIP3    H114700   5.874   5.414   1.127
 4919TIP3    H214701   5.870   5.520   1.019
 4920TIP3   OH214702   6.051   5.625   1.648
 4920TIP3    H114703   6.136   5.584   1.668
 4920TIP3    H214704   6.044   5.696   1.711
 4921TIP3   OH214705   6.074   5.832   1.832
 4921TIP3    H114706   6.005   5.861   1.892
 4921TIP3    H214707   6.109   5.913   1.794
 4922TIP3   OH214708   4.678   5.530   2.631
 4922TIP3    H114709   4.773   5.542   2.636
 4922TIP3    H214710   4.660   5.458   2.691
 4923TIP3   OH214711   6.542   5.441   2.378
 4923TIP3    H114712   6.606   5.385   2.335
 4923TIP3    H214713   6.498   5.487   2.306
 4924TIP3   OH214714   5.945   5.271   1.196
 4924TIP3    H114715   6.002   5.256   1.272
 4924TIP3    H214716   5.889   5.194   1.194
 4925TIP3   OH214717   4.675   5.264   1.971
 4925TIP3    H114718   4.727   5.184   1.976
 4925TIP3    H214719   4.738   5.333   1.951
 4926TIP3   OH214720   4.448   5.544   2.031
 4926TIP3    H114721   4.503   5.519   1.956
 4926TIP3    H214722   4.459   5.639   2.038
 4927TIP3   OH214723   6.386   5.550   2.180
 4927TIP3    H114724   6.303   5.588   2.207
 4927TIP3    H214725   6.362   5.469   2.135
 4928TIP3   OH214726   5.979   5.234   0.891
 4928TIP3    H114727   5.971   5.194   0.805
 4928TIP3    H214728   5.899   5.287   0.900
 4929TIP3   OH214729   4.442   5.050   1.534
 4929TIP3    H114730   4.356   5.033   1.572
 4929TIP3    H214731   4.424   5.098   1.453
 4930TIP3   OH214732   5.631   6.783   1.164
 4930TIP3    H114733   5.635   6.850   1.096
 4930TIP3    H214734   5.722   6.759   1.181
 4931TIP3   OH214735   4.665   5.114   2.372
 4931TIP3    H114736   4.608   5.092   2.446
 4931TIP3    H214737   4.606   5.150   2.306
 4932TIP3   OH214738   4.522   6.505   2.512
 4932TIP3    H114739   4.538   6.496   2.418
 4932TIP3    H214740   4.608   6.499   2.552
 4933TIP3   OH214741   4.914   6.590   1.966
 4933TIP3    H114742   4.860   6.662   1.934
 4933TIP3    H214743   4.999   6.605   1.925
 4934TIP3   OH214744   5.499   6.962   1.962
 4934TIP3    H114745   5.481   6.869   1.976
 4934TIP3    H214746   5.545   6.990   2.041
 4935TIP3   OH214747   6.302   5.292   2.088
 4935TIP3    H114748   6.212   5.266   2.068
 4935TIP3    H214749   6.351   5.210   2.086
 4936TIP3   OH214750   4.558   6.837   2.026
 4936TIP3    H114751   4.464   6.845   2.015
 4936TIP3    H214752   4.584   6.911   2.081
 4937TIP3   OH214753   4.792   6.821   1.879
 4937TIP3    H114754   4.711   6.827   1.928
 4937TIP3    H214755   4.770   6.851   1.791
 4938TIP3   OH214756   5.236   6.906   1.593
 4938TIP3    H114757   5.144   6.878   1.595
 4938TIP3    H214758   5.246   6.958   1.673
 4939TIP3   OH214759   4.468   6.610   1.739
 4939TIP3    H114760   4.495   6.590   1.828
 4939TIP3    H214761   4.542   6.583   1.685
 4940TIP3   OH214762   4.682   6.506   1.610
 4940TIP3    H114763   4.693   6.421   1.652
 4940TIP3    H214764   4.770   6.544   1.612
 4941TIP3   OH214765   4.954   6.581   1.638
 4941TIP3    H114766   4.971   6.487   1.631
 4941TIP3    H214767   5.018   6.612   1.702
 4942TIP3   OH214768   5.509   5.237   1.715
 4942TIP3    H114769   5.471   5.164   1.764
 4942TIP3    H214770   5.578   5.198   1.663
 4943TIP3   OH214771   6.016   5.161   1.610
 4943TIP3    H114772   6.058   5.211   1.540
 4943TIP3    H214773   5.925   5.189   1.608
 4944TIP3   OH214774   6.143   5.253   1.386
 4944TIP3    H114775   6.212   5.194   1.358
 4944TIP3    H214776   6.176   5.341   1.366
 4945TIP3   OH214777   4.749   4.937   1.710
 4945TIP3    H114778   4.660   4.904   1.719
 4945TIP3    H214779   4.804   4.859   1.701
 4946TIP3   OH214780   4.577   4.853   1.376
 4946TIP3    H114781   4.600   4.899   1.295
 4946TIP3    H214782   4.538   4.920   1.432
 4947TIP3   OH214783   5.225   4.971   1.615
 4947TIP3    H114784   5.268   5.021   1.546
 4947TIP3    H214785   5.267   5.000   1.696
 4948TIP3   OH214786   5.726   5.126   1.583
 4948TIP3    H114787   5.742   5.092   1.496
 4948TIP3    H214788   5.732   5.050   1.641
 4949TIP3   OH214789   5.769   5.058   1.185
 4949TIP3    H114790   5.691   5.109   1.205
 4949TIP3    H214791   5.753   4.973   1.226
 4950TIP3   OH214792   4.252   6.402   1.154
 4950TIP3    H114793   4.165   6.365   1.139
 4950TIP3    H214794   4.241   6.496   1.140
 4951TIP3   OH214795   4.678   4.976   1.136
 4951TIP3    H114796   4.725   4.917   1.077
 4951TIP3    H214797   4.746   5.029   1.177
 4952TIP3   OH214798   5.158   5.165   1.226
 4952TIP3    H114799   5.217   5.112   1.280
 4952TIP3    H214800   5.177   5.256   1.251
 4953TIP3   OH214801   5.065   6.617   0.737
 4953TIP3    H114802   5.160   6.607   0.740
 4953TIP3    H214803   5.037   6.556   0.669
 4954TIP3   OH214804   5.799   6.708   0.806
 4954TIP3    H114805   5.804   6.627   0.754
 4954TIP3    H214806   5.783   6.777   0.741
 4955TIP3   OH214807   4.979   5.226   2.592
 4955TIP3    H114808   4.942   5.165   2.656
 4955TIP3    H214809   5.072   5.231   2.615
 4956TIP3   OH214810   5.227   5.222   2.714
 4956TIP3    H114811   5.305   5.202   2.661
 4956TIP3    H214812   5.226   5.154   2.782
 4957TIP3   OH214813   4.291   6.424   0.873
 4957TIP3    H114814   4.296   6.413   0.968
 4957TIP3    H214815   4.351   6.359   0.839
 4958TIP3   OH214816   6.043   5.311   2.524
 4958TIP3    H114817   6.068   5.268   2.606
 4958TIP3    H214818   6.124   5.315   2.473
 4959TIP3   OH214819   5.953   6.836   2.005
 4959TIP3    H114820   5.875   6.802   1.961
 4959TIP3    H214821   5.938   6.930   2.011
 4960TIP3   OH214822   7.125   6.142   1.324
 4960TIP3    H114823   7.213   6.134   1.287
 4960TIP3    H214824   7.104   6.054   1.354
 4961TIP3   OH214825   6.504   6.057   1.552
 4961TIP3    H114826   6.541   6.008   1.625
 4961TIP3    H214827   6.580   6.097   1.509
 4962TIP3   OH214828   6.470   6.488   1.365
 4962TIP3    H114829   6.455   6.397   1.340
 4962TIP3    H214830   6.557   6.488   1.405
 4963TIP3   OH214831   6.219   5.977   1.226
 4963TIP3    H114832   6.274   5.900   1.237
 4963TIP3    H214833   6.257   6.022   1.151
 4964TIP3   OH214834   7.136   6.465   1.117
 4964TIP3    H114835   7.078   6.390   1.099
 4964TIP3    H214836   7.164   6.452   1.207
 4965TIP3   OH214837   8.073   5.870   1.227
 4965TIP3    H114838   8.157   5.892   1.266
 4965TIP3    H214839   8.081   5.777   1.206
 4966TIP3   OH214840   7.507   5.895   1.284
 4966TIP3    H114841   7.554   5.839   1.345
 4966TIP3    H214842   7.541   5.870   1.198
 4967TIP3   OH214843   6.842   5.569   1.275
 4967TIP3    H114844   6.856   5.625   1.199
 4967TIP3    H214845   6.784   5.500   1.244
 4968TIP3   OH214846   7.504   5.743   0.813
 4968TIP3    H114847   7.593   5.719   0.837
 4968TIP3    H214848   7.506   5.753   0.718
 4969TIP3   OH214849   6.394   5.772   1.299
 4969TIP3    H114850   6.487   5.780   1.319
 4969TIP3    H214851   6.391   5.711   1.225
 4970TIP3   OH214852   6.809   5.983   1.210
 4970TIP3    H114853   6.891   5.986   1.160
 4970TIP3    H214854   6.749   5.933   1.155
 4971TIP3   OH214855   6.794   5.591   1.640
 4971TIP3    H114856   6.740   5.628   1.570
 4971TIP3    H214857   6.742   5.603   1.719
 4972TIP3   OH214858   6.892   6.344   1.484
 4972TIP3    H114859   6.818   6.385   1.528
 4972TIP3    H214860   6.938   6.416   1.441
 4973TIP3   OH214861   7.665   5.835   1.065
 4973TIP3    H114862   7.692   5.750   1.031
 4973TIP3    H214863   7.747   5.885   1.071
 4974TIP3   OH214864   6.654   5.703   1.431
 4974TIP3    H114865   6.703   5.782   1.450
 4974TIP3    H214866   6.705   5.660   1.361
 4975TIP3   OH214867   6.698   6.541   1.538
 4975TIP3    H114868   6.703   6.620   1.484
 4975TIP3    H214869   6.623   6.555   1.596
 4976TIP3   OH214870   6.144   6.247   0.817
 4976TIP3    H114871   6.109   6.296   0.742
 4976TIP3    H214872   6.159   6.314   0.884
 4977TIP3   OH214873   7.961   5.650   1.441
 4977TIP3    H114874   7.891   5.710   1.417
 4977TIP3    H214875   8.007   5.631   1.359
 4978TIP3   OH214876   7.144   5.329   1.414
 4978TIP3    H114877   7.136   5.259   1.349
 4978TIP3    H214878   7.055   5.345   1.444
 4979TIP3   OH214879   8.013   6.297   1.178
 4979TIP3    H114880   7.943   6.327   1.121
 4979TIP3    H214881   8.092   6.301   1.124
 4980TIP3   OH214882   7.637   6.176   1.597
 4980TIP3    H114883   7.659   6.259   1.639
 4980TIP3    H214884   7.544   6.185   1.576
 4981TIP3   OH214885   6.684   6.180   1.036
 4981TIP3    H114886   6.663   6.094   1.000
 4981TIP3    H214887   6.761   6.165   1.090
 4982TIP3   OH214888   6.712   6.471   1.211
 4982TIP3    H114889   6.637   6.425   1.174
 4982TIP3    H214890   6.706   6.560   1.175
 4983TIP3   OH214891   6.718   6.144   1.403
 4983TIP3    H114892   6.757   6.099   1.327
 4983TIP3    H214893   6.783   6.210   1.426
 4984TIP3   OH214894   7.329   6.731   1.110
 4984TIP3    H114895   7.378   6.805   1.075
 4984TIP3    H214896   7.395   6.678   1.156
 4985TIP3   OH214897   6.899   6.670   1.690
 4985TIP3    H114898   6.842   6.720   1.749
 4985TIP3    H214899   6.839   6.613   1.641
 4986TIP3   OH214900   6.677   6.254   1.788
 4986TIP3    H114901   6.672   6.345   1.818
 4986TIP3    H214902   6.587   6.224   1.788
 4987TIP3   OH214903   6.711   6.824   1.824
 4987TIP3    H114904   6.681   6.864   1.742
 4987TIP3    H214905   6.631   6.809   1.874
 4988TIP3   OH214906   6.499   6.093   0.824
 4988TIP3    H114907   6.457   6.123   0.743
 4988TIP3    H214908   6.509   5.999   0.812
 4989TIP3   OH214909   6.307   6.391   1.715
 4989TIP3    H114910   6.261   6.402   1.632
 4989TIP3    H214911   6.334   6.299   1.716
 4990TIP3   OH214912   6.229   6.535   1.489
 4990TIP3    H114913   6.315   6.537   1.446
 4990TIP3    H214914   6.194   6.623   1.476
 4991TIP3   OH214915   7.132   6.798   1.620
 4991TIP3    H114916   7.117   6.893   1.624
 4991TIP3    H214917   7.046   6.760   1.640
 4992TIP3   OH214918   6.322   6.707   0.885
 4992TIP3    H114919   6.413   6.677   0.884
 4992TIP3    H214920   6.328   6.802   0.871
 4993TIP3   OH214921   7.961   6.187   1.660
 4993TIP3    H114922   7.868   6.192   1.682
 4993TIP3    H214923   7.979   6.093   1.656
 4994TIP3   OH214924   6.491   6.594   1.705
 4994TIP3    H114925   6.543   6.578   1.783
 4994TIP3    H214926   6.422   6.527   1.708
 4995TIP3   OH214927   6.881   5.365   1.499
 4995TIP3    H114928   6.796   5.339   1.464
 4995TIP3    H214929   6.865   5.452   1.537
 4996TIP3   OH214930   7.441   5.509   1.719
 4996TIP3    H114931   7.513   5.477   1.773
 4996TIP3    H214932   7.362   5.487   1.768
 4997TIP3   OH214933   7.671   5.904   1.613
 4997TIP3    H114934   7.633   5.883   1.698
 4997TIP3    H214935   7.658   5.999   1.604
 4998TIP3   OH214936   6.819   5.907   1.518
 4998TIP3    H114937   6.770   5.910   1.600
 4998TIP3    H214938   6.790   5.984   1.470
 4999TIP3   OH214939   6.684   5.913   0.969
 4999TIP3    H114940   6.645   5.839   1.015
 4999TIP3    H214941   6.721   5.875   0.889
 5000TIP3   OH214942   7.408   6.140   1.846
 5000TIP3    H114943   7.374   6.070   1.902
 5000TIP3    H214944   7.502   6.141   1.865
 5001TIP3   OH214945   7.296   5.894   0.891
 5001TIP3    H114946   7.337   5.968   0.936
 5001TIP3    H214947   7.369   5.842   0.859
 5002TIP3   OH214948   6.653   5.905   1.737
 5002TIP3    H114949   6.720   5.954   1.785
 5002TIP3    H214950   6.644   5.823   1.786
 5003TIP3   OH214951   6.182   5.551   1.367
 5003TIP3    H114952   6.275   5.543   1.390
 5003TIP3    H214953   6.182   5.558   1.271
 5004TIP3   OH214954   6.239   5.519   0.844
 5004TIP3    H114955   6.272   5.563   0.766
 5004TIP3    H214956   6.144   5.532   0.842
 5005TIP3   OH214957   7.352   6.203   1.545
 5005TIP3    H114958   7.369   6.190   1.452
 5005TIP3    H214959   7.339   6.114   1.580
 5006TIP3   OH214960   7.101   5.524   1.180
 5006TIP3    H114961   7.015   5.520   1.224
 5006TIP3    H214962   7.160   5.557   1.248
 5007TIP3   OH214963   6.390   5.576   1.099
 5007TIP3    H114964   6.297   5.564   1.083
 5007TIP3    H214965   6.429   5.579   1.011
 5008TIP3   OH214966   6.766   5.695   0.704
 5008TIP3    H114967   6.838   5.757   0.704
 5008TIP3    H214968   6.721   5.710   0.621
 5009TIP3   OH214969   7.554   5.582   1.333
 5009TIP3    H114970   7.523   5.617   1.417
 5009TIP3    H214971   7.497   5.508   1.316
 5010TIP3   OH214972   6.658   6.503   1.913
 5010TIP3    H114973   6.741   6.518   1.958
 5010TIP3    H214974   6.591   6.505   1.981
 5011TIP3   OH214975   7.219   5.896   1.206
 5011TIP3    H114976   7.299   5.846   1.191
 5011TIP3    H214977   7.184   5.862   1.288
 5012TIP3   OH214978   6.678   5.406   1.134
 5012TIP3    H114979   6.612   5.338   1.147
 5012TIP3    H214980   6.756   5.358   1.106
 5013TIP3   OH214981   7.088   5.898   1.458
 5013TIP3    H114982   6.997   5.899   1.487
 5013TIP3    H214983   7.138   5.926   1.534
 5014TIP3   OH214984   7.784   6.425   1.096
 5014TIP3    H114985   7.743   6.511   1.105
 5014TIP3    H214986   7.750   6.374   1.169
 5015TIP3   OH214987   7.230   6.531   1.608
 5015TIP3    H114988   7.292   6.514   1.679
 5015TIP3    H214989   7.204   6.622   1.620
 5016TIP3   OH214990   6.477   6.232   1.279
 5016TIP3    H114991   6.446   6.177   1.208
 5016TIP3    H214992   6.554   6.187   1.313
 5017TIP3   OH214993   6.419   6.162   1.840
 5017TIP3    H114994   6.437   6.152   1.934
 5017TIP3    H214995   6.351   6.097   1.823
 5018TIP3   OH214996   7.178   6.300   1.849
 5018TIP3    H114997   7.126   6.262   1.778
 5018TIP3    H214998   7.265   6.263   1.837
 5019TIP3   OH214999   7.391   6.801   1.528
 5019TIP3    H115000   7.299   6.797   1.552
 5019TIP3    H215001   7.433   6.848   1.601
 5020TIP3   OH215002   7.455   6.377   1.126
 5020TIP3    H115003   7.361   6.388   1.115
 5020TIP3    H215004   7.487   6.358   1.038
 5021TIP3   OH215005   6.571   6.607   0.859
 5021TIP3    H115006   6.660   6.623   0.828
 5021TIP3    H215007   6.580   6.533   0.919
 5022TIP3   OH215008   6.234   5.869   0.449
 5022TIP3    H115009   6.323   5.896   0.473
 5022TIP3    H215010   6.192   5.950   0.420
 5023TIP3   OH215011   6.728   6.303   0.792
 5023TIP3    H115012   6.767   6.370   0.848
 5023TIP3    H215013   6.694   6.237   0.853
 5024TIP3   OH215014   6.964   6.911   1.325
 5024TIP3    H115015   6.995   6.957   1.247
 5024TIP3    H215016   7.030   6.844   1.341
 5025TIP3   OH215017   7.417   6.578   1.355
 5025TIP3    H115018   7.377   6.641   1.416
 5025TIP3    H215019   7.356   6.505   1.351
 5026TIP3   OH215020   6.629   5.650   1.857
 5026TIP3    H115021   6.534   5.655   1.865
 5026TIP3    H215022   6.656   5.591   1.928
 5027TIP3   OH215023   6.375   6.787   1.537
 5027TIP3    H115024   6.413   6.725   1.599
 5027TIP3    H215025   6.354   6.864   1.590
 5028TIP3   OH215026   6.332   6.171   0.621
 5028TIP3    H115027   6.296   6.221   0.694
 5028TIP3    H215028   6.295   6.214   0.543
 5029TIP3   OH215029   7.457   5.722   1.554
 5029TIP3    H115030   7.532   5.772   1.585
 5029TIP3    H215031   7.447   5.651   1.618
 5030TIP3   OH215032   7.068   5.592   0.749
 5030TIP3    H115033   7.128   5.640   0.692
 5030TIP3    H215034   7.081   5.631   0.836
 5031TIP3   OH215035   7.306   5.948   1.631
 5031TIP3    H115036   7.338   5.962   1.720
 5031TIP3    H215037   7.350   5.868   1.602
 5032TIP3   OH215038   7.143   5.372   0.951
 5032TIP3    H115039   7.128   5.411   1.038
 5032TIP3    H215040   7.211   5.427   0.912
 5033TIP3   OH215041   6.703   5.414   0.650
 5033TIP3    H115042   6.718   5.499   0.692
 5033TIP3    H215043   6.712   5.351   0.721
 5034TIP3   OH215044   7.960   5.926   1.583
 5034TIP3    H115045   7.881   5.884   1.617
 5034TIP3    H215046   8.013   5.853   1.551
 5035TIP3   OH215047   7.703   5.990   0.829
 5035TIP3    H115048   7.633   5.949   0.880
 5035TIP3    H215049   7.781   5.980   0.884
 5036TIP3   OH215050   6.197   5.627   0.570
 5036TIP3    H115051   6.213   5.715   0.535
 5036TIP3    H215052   6.101   5.619   0.571
 5037TIP3   OH215053   6.612   5.298   1.449
 5037TIP3    H115054   6.588   5.264   1.363
 5037TIP3    H215055   6.610   5.222   1.507
 5038TIP3   OH215056   6.121   6.546   0.808
 5038TIP3    H115057   6.067   6.586   0.740
 5038TIP3    H215058   6.182   6.615   0.835
 5039TIP3   OH215059   6.366   7.096   1.910
 5039TIP3    H115060   6.447   7.090   1.960
 5039TIP3    H215061   6.352   7.008   1.876
 5040TIP3   OH215062   6.847   7.010   1.974
 5040TIP3    H115063   6.938   6.983   1.971
 5040TIP3    H215064   6.800   6.946   1.921
 5041TIP3   OH215065   7.475   6.929   1.759
 5041TIP3    H115066   7.436   6.853   1.801
 5041TIP3    H215067   7.559   6.940   1.803
 5042TIP3   OH215068   6.450   6.484   2.096
 5042TIP3    H115069   6.468   6.390   2.099
 5042TIP3    H215070   6.363   6.490   2.055
 5043TIP3   OH215071   7.079   6.565   1.875
 5043TIP3    H115072   7.034   6.585   1.794
 5043TIP3    H215073   7.124   6.482   1.858
 5044TIP3   OH215074   7.636   6.596   1.518
 5044TIP3    H115075   7.661   6.686   1.498
 5044TIP3    H215076   7.564   6.578   1.458
 5045TIP3   OH215077   6.575   6.230   2.087
 5045TIP3    H115078   6.653   6.221   2.032
 5045TIP3    H215079   6.609   6.250   2.174
 5046TIP3   OH215080   6.877   6.070   1.775
 5046TIP3    H115081   6.812   6.139   1.782
 5046TIP3    H215082   6.947   6.107   1.722
 5047TIP3   OH215083   7.434   6.477   1.831
 5047TIP3    H115084   7.514   6.451   1.786
 5047TIP3    H215085   7.432   6.423   1.910
 5048TIP3   OH215086   7.040   5.869   1.867
 5048TIP3    H115087   7.048   5.797   1.804
 5048TIP3    H215088   6.986   5.934   1.823
 5049TIP3   OH215089   7.053   5.678   1.659
 5049TIP3    H115090   7.078   5.708   1.572
 5049TIP3    H215091   6.963   5.648   1.650
 5050TIP3   OH215092   7.072   6.186   1.623
 5050TIP3    H115093   7.160   6.194   1.585
 5050TIP3    H215094   7.016   6.237   1.564
 5051TIP3   OH215095   7.677   6.158   1.946
 5051TIP3    H115096   7.712   6.070   1.961
 5051TIP3    H215097   7.754   6.215   1.947
 5052TIP3   OH215098   7.707   6.420   1.702
 5052TIP3    H115099   7.667   6.480   1.639
 5052TIP3    H215100   7.801   6.433   1.692
 5053TIP3   OH215101   6.926   5.966   2.109
 5053TIP3    H115102   6.858   5.901   2.128
 5053TIP3    H215103   6.955   5.945   2.020
 5054TIP3   OH215104   7.170   5.448   1.771
 5054TIP3    H115105   7.133   5.526   1.731
 5054TIP3    H215106   7.104   5.380   1.757
 5055TIP3   OH215107   7.295   5.918   1.965
 5055TIP3    H115108   7.285   5.906   2.059
 5055TIP3    H215109   7.208   5.900   1.928
 5056TIP3   OH215110   7.530   5.850   1.836
 5056TIP3    H115111   7.452   5.857   1.890
 5056TIP3    H215112   7.603   5.846   1.899
 5057TIP3   OH215113   7.766   5.860   1.982
 5057TIP3    H115114   7.782   5.765   1.982
 5057TIP3    H215115   7.764   5.884   2.074
 5058TIP3   OH215116   6.756   5.751   2.172
 5058TIP3    H115117   6.762   5.664   2.133
 5058TIP3    H215118   6.798   5.742   2.258
 5059TIP3   OH215119   7.238   5.427   2.034
 5059TIP3    H115120   7.305   5.359   2.026
 5059TIP3    H215121   7.204   5.437   1.945
 5060TIP3   OH215122   7.334   5.644   2.172
 5060TIP3    H115123   7.303   5.570   2.119
 5060TIP3    H215124   7.260   5.705   2.173
 5061TIP3   OH215125   6.029   6.813   0.901
 5061TIP3    H115126   5.961   6.790   0.837
 5061TIP3    H215127   5.989   6.795   0.986
 5062TIP3   OH215128   5.898   6.750   1.132
 5062TIP3    H115129   5.914   6.660   1.106
 5062TIP3    H215130   5.964   6.768   1.199
 5063TIP3   OH215131   6.251   6.105   1.468
 5063TIP3    H115132   6.241   6.075   1.378
 5063TIP3    H215133   6.345   6.101   1.485
 5064TIP3   OH215134   7.969   6.463   1.643
 5064TIP3    H115135   7.994   6.371   1.643
 5064TIP3    H215136   7.953   6.484   1.551
 5065TIP3   OH215137   7.908   5.983   1.016
 5065TIP3    H115138   7.995   5.973   1.055
 5065TIP3    H215139   7.866   6.051   1.068
 5066TIP3   OH215140   7.836   6.104   1.400
 5066TIP3    H115141   7.774   6.144   1.461
 5066TIP3    H215142   7.894   6.052   1.456
 5067TIP3   OH215143   6.491   5.796   2.107
 5067TIP3    H115144   6.584   5.794   2.126
 5067TIP3    H215145   6.457   5.714   2.145
 5068TIP3   OH215146   6.446   5.521   1.482
 5068TIP3    H115147   6.501   5.443   1.473
 5068TIP3    H215148   6.505   5.594   1.464
 5069TIP3   OH215149   6.201   5.819   1.485
 5069TIP3    H115150   6.277   5.804   1.429
 5069TIP3    H215151   6.209   5.911   1.512
 5070TIP3   OH215152   6.194   5.355   1.088
 5070TIP3    H115153   6.107   5.319   1.102
 5070TIP3    H215154   6.193   5.386   0.998
 5071TIP3   OH215155   6.461   5.361   1.865
 5071TIP3    H115156   6.407   5.340   1.941
 5071TIP3    H215157   6.400   5.397   1.801
 5072TIP3   OH215158   6.474   6.808   1.961
 5072TIP3    H115159   6.383   6.792   1.935
 5072TIP3    H215160   6.476   6.789   2.054
 5073TIP3   OH215161   6.641   6.926   1.581
 5073TIP3    H115162   6.566   6.960   1.531
 5073TIP3    H215163   6.679   6.859   1.524
 5074TIP3   OH215164   7.187   7.079   1.605
 5074TIP3    H115165   7.203   7.080   1.700
 5074TIP3    H215166   7.275   7.074   1.567
 5075TIP3   OH215167   8.156   5.572   1.613
 5075TIP3    H115168   8.086   5.600   1.554
 5075TIP3    H215169   8.191   5.493   1.573
 5076TIP3   OH215170   6.297   7.033   1.629
 5076TIP3    H115171   6.220   7.069   1.585
 5076TIP3    H215172   6.354   7.109   1.641
 5077TIP3   OH215173   6.489   7.069   1.401
 5077TIP3    H115174   6.399   7.083   1.372
 5077TIP3    H215175   6.524   7.157   1.414
 5078TIP3   OH215176   7.055   7.104   1.132
 5078TIP3    H115177   7.127   7.093   1.070
 5078TIP3    H215178   7.088   7.166   1.197
 5079TIP3   OH215179   6.292   6.875   1.294
 5079TIP3    H115180   6.323   6.860   1.383
 5079TIP3    H215181   6.343   6.815   1.240
 5080TIP3   OH215182   6.446   6.684   1.178
 5080TIP3    H115183   6.459   6.615   1.243
 5080TIP3    H215184   6.530   6.690   1.133
 5081TIP3   OH215185   6.708   6.719   1.094
 5081TIP3    H115186   6.797   6.713   1.060
 5081TIP3    H215187   6.697   6.811   1.118
 5082TIP3   OH215188   7.372   5.398   1.253
 5082TIP3    H115189   7.289   5.383   1.297
 5082TIP3    H215190   7.379   5.329   1.188
 5083TIP3   OH215191   7.878   5.366   1.096
 5083TIP3    H115192   7.901   5.400   1.010
 5083TIP3    H215193   7.816   5.430   1.131
 5084TIP3   OH215194   7.948   5.431   0.847
 5084TIP3    H115195   7.972   5.346   0.809
 5084TIP3    H215196   8.028   5.483   0.840
 5085TIP3   OH215197   6.527   5.186   1.204
 5085TIP3    H115198   6.445   5.149   1.237
 5085TIP3    H215199   6.588   5.112   1.204
 5086TIP3   OH215200   6.392   5.039   0.962
 5086TIP3    H115201   6.334   5.090   0.906
 5086TIP3    H215202   6.434   5.104   1.019
 5087TIP3   OH215203   6.911   5.265   1.112
 5087TIP3    H115204   6.943   5.210   1.041
 5087TIP3    H215205   6.977   5.256   1.181
 5088TIP3   OH215206   7.590   5.467   1.062
 5088TIP3    H115207   7.622   5.399   1.002
 5088TIP3    H215208   7.577   5.420   1.145
 5089TIP3   OH215209   6.433   5.354   0.570
 5089TIP3    H115210   6.433   5.299   0.491
 5089TIP3    H215211   6.525   5.356   0.597
 5090TIP3   OH215212   6.883   5.431   0.866
 5090TIP3    H115213   6.927   5.388   0.939
 5090TIP3    H215214   6.952   5.486   0.826
 5091TIP3   OH215215   6.768   5.481   2.079
 5091TIP3    H115216   6.734   5.413   2.137
 5091TIP3    H215217   6.860   5.488   2.103
 5092TIP3   OH215218   7.016   5.483   2.204
 5092TIP3    H115219   7.095   5.459   2.155
 5092TIP3    H215220   7.006   5.415   2.270
 5093TIP3   OH215221   7.831   5.594   1.976
 5093TIP3    H115222   7.841   5.566   2.067
 5093TIP3    H215223   7.919   5.586   1.939
 5094TIP3   OH215224   0.547   6.556   2.869
 5094TIP3    H115225   0.567   6.641   2.909
 5094TIP3    H215226   0.581   6.564   2.780
 5095TIP3   OH215227   8.440   6.435   2.533
 5095TIP3    H115228   8.503   6.466   2.598
 5095TIP3    H215229   8.465   6.479   2.452
 5096TIP3   OH215230   0.604   6.769   3.045
 5096TIP3    H115231   0.513   6.797   3.044
 5096TIP3    H215232   0.640   6.806   3.125
 5097TIP3   OH215233   0.132   6.521   2.710
 5097TIP3    H115234   0.191   6.446   2.695
 5097TIP3    H215235   0.190   6.592   2.735
 5098TIP3   OH215236   0.328   6.485   3.028
 5098TIP3    H115237   0.255   6.521   2.978
 5098TIP3    H215238   0.405   6.501   2.973
 5099TIP3   OH215239   0.220   7.510   2.993
 5099TIP3    H115240   0.200   7.428   2.948
 5099TIP3    H215241   0.196   7.578   2.930
 5100TIP3   OH215242   0.407   7.097   2.915
 5100TIP3    H115243   0.336   7.161   2.915
 5100TIP3    H215244   0.438   7.096   2.824
 5101TIP3   OH215245   0.245   6.046   2.144
 5101TIP3    H115246   0.161   6.069   2.183
 5101TIP3    H215247   0.270   6.122   2.091
 5102TIP3   OH215248   0.358   6.903   3.329
 5102TIP3    H115249   0.285   6.924   3.387
 5102TIP3    H215250   0.359   6.807   3.325
 5103TIP3   OH215251   0.204   7.275   2.836
 5103TIP3    H115252   0.248   7.311   2.760
 5103TIP3    H215253   0.131   7.224   2.800
 5104TIP3   OH215254   0.463   7.432   3.091
 5104TIP3    H115255   0.377   7.471   3.074
 5104TIP3    H215256   0.499   7.413   3.004
 5105TIP3   OH215257   0.338   6.633   3.276
 5105TIP3    H115258   0.283   6.579   3.332
 5105TIP3    H215259   0.338   6.589   3.191
 5106TIP3   OH215260   0.052   6.813   2.653
 5106TIP3    H115261   0.005   6.730   2.651
 5106TIP3    H215262   0.133   6.794   2.702
 5107TIP3   OH215263   0.268   6.634   3.683
 5107TIP3    H115264   0.271   6.539   3.682
 5107TIP3    H215265   0.175   6.656   3.683
 5108TIP3   OH215266   0.342   6.953   2.228
 5108TIP3    H115267   0.269   6.924   2.283
 5108TIP3    H215268   0.396   7.007   2.286
 5109TIP3   OH215269   0.341   7.391   2.626
 5109TIP3    H115270   0.427   7.362   2.596
 5109TIP3    H215271   0.303   7.436   2.551
 5110TIP3   OH215272   0.158   6.833   2.394
 5110TIP3    H115273   0.140   6.742   2.372
 5110TIP3    H215274   0.116   6.847   2.478
 5111TIP3   OH215275   0.382   7.237   3.270
 5111TIP3    H115276   0.445   7.169   3.249
 5111TIP3    H215277   0.391   7.302   3.200
 5112TIP3   OH215278   0.576   7.045   3.252
 5112TIP3    H115279   0.501   6.994   3.282
 5112TIP3    H215280   0.652   6.989   3.268
 5113TIP3   OH215281   0.109   6.566   2.318
 5113TIP3    H115282   0.154   6.481   2.326
 5113TIP3    H215283   0.093   6.576   2.224
 5114TIP3   OH215284   0.279   6.734   2.797
 5114TIP3    H115285   0.359   6.754   2.748
 5114TIP3    H215286   0.293   6.773   2.883
 5115TIP3   OH215287   0.341   6.863   3.034
 5115TIP3    H115288   0.315   6.883   3.124
 5115TIP3    H215289   0.361   6.948   2.996
 5116TIP3   OH215290   0.805   6.487   3.549
 5116TIP3    H115291   0.865   6.427   3.504
 5116TIP3    H215292   0.762   6.536   3.479
 5117TIP3   OH215293   0.213   6.310   2.330
 5117TIP3    H115294   0.257   6.292   2.412
 5117TIP3    H215295   0.145   6.243   2.323
 5118TIP3   OH215296   0.639   6.610   3.368
 5118TIP3    H115297   0.576   6.648   3.429
 5118TIP3    H215298   0.588   6.548   3.316
 5119TIP3   OH215299   0.325   6.244   1.977
 5119TIP3    H115300   0.358   6.195   1.900
 5119TIP3    H215301   0.367   6.330   1.970
 5120TIP3   OH215302   0.554   6.343   3.263
 5120TIP3    H115303   0.467   6.319   3.232
 5120TIP3    H215304   0.606   6.263   3.255
 5121TIP3   OH215305   0.280   6.157   2.749
 5121TIP3    H115306   0.320   6.215   2.684
 5121TIP3    H215307   0.190   6.189   2.758
 5122TIP3   OH215308   0.385   6.304   2.547
 5122TIP3    H115309   0.453   6.242   2.518
 5122TIP3    H215310   0.418   6.390   2.520
 5123TIP3   OH215311   8.513   6.227   2.762
 5123TIP3    H115312   8.460   6.233   2.683
 5123TIP3    H215313   8.495   6.140   2.797
 5124TIP3   OH215314   8.523   6.105   2.302
 5124TIP3    H115315   8.434   6.111   2.266
 5124TIP3    H215316   8.527   6.017   2.341
 5125TIP3   OH215317   0.306   6.362   3.664
 5125TIP3    H115318   0.315   6.333   3.755
 5125TIP3    H215319   0.394   6.354   3.627
 5126TIP3   OH215320   1.514   7.232   1.965
 5126TIP3    H115321   1.461   7.306   1.997
 5126TIP3    H215322   1.454   7.181   1.911
 5127TIP3   OH215323   1.492   7.256   2.337
 5127TIP3    H115324   1.538   7.241   2.419
 5127TIP3    H215325   1.447   7.174   2.318
 5128TIP3   OH215326   0.780   7.137   2.704
 5128TIP3    H115327   0.813   7.078   2.772
 5128TIP3    H215328   0.860   7.171   2.663
 5129TIP3   OH215329   1.760   7.540   2.029
 5129TIP3    H115330   1.741   7.481   2.102
 5129TIP3    H215331   1.791   7.621   2.071
 5130TIP3   OH215332   0.898   7.478   2.431
 5130TIP3    H115333   0.860   7.391   2.417
 5130TIP3    H215334   0.899   7.518   2.344
 5131TIP3   OH215335   0.452   6.704   2.186
 5131TIP3    H115336   0.413   6.792   2.184
 5131TIP3    H215337   0.424   6.667   2.270
 5132TIP3   OH215338   0.537   7.069   2.398
 5132TIP3    H115339   0.582   6.987   2.417
 5132TIP3    H215340   0.606   7.128   2.370
 5133TIP3   OH215341   1.336   7.465   2.444
 5133TIP3    H115342   1.361   7.402   2.377
 5133TIP3    H215343   1.419   7.498   2.478
 5134TIP3   OH215344   2.332   6.813   2.365
 5134TIP3    H115345   2.350   6.898   2.406
 5134TIP3    H215346   2.359   6.825   2.274
 5135TIP3   OH215347   1.703   6.977   2.391
 5135TIP3    H115348   1.737   6.892   2.419
 5135TIP3    H215349   1.669   6.962   2.303
 5136TIP3   OH215350   1.062   6.631   2.348
 5136TIP3    H115351   1.040   6.704   2.291
 5136TIP3    H215352   1.010   6.558   2.315
 5137TIP3   OH215353   1.758   6.738   1.981
 5137TIP3    H115354   1.820   6.732   2.054
 5137TIP3    H215355   1.811   6.771   1.908
 5138TIP3   OH215356   0.684   6.846   2.465
 5138TIP3    H115357   0.766   6.825   2.510
 5138TIP3    H215358   0.687   6.795   2.384
 5139TIP3   OH215359   1.114   7.049   2.270
 5139TIP3    H115360   1.207   7.031   2.281
 5139TIP3    H215361   1.076   6.965   2.243
 5140TIP3   OH215362   2.392   7.033   2.531
 5140TIP3    H115363   2.301   7.060   2.532
 5140TIP3    H215364   2.427   7.065   2.615
 5141TIP3   OH215365   1.042   6.640   2.795
 5141TIP3    H115366   0.988   6.671   2.723
 5141TIP3    H215367   0.989   6.653   2.873
 5142TIP3   OH215368   1.452   7.436   1.680
 5142TIP3    H115369   1.379   7.443   1.619
 5142TIP3    H215370   1.475   7.527   1.701
 5143TIP3   OH215371   1.157   7.339   2.596
 5143TIP3    H115372   1.104   7.406   2.638
 5143TIP3    H215373   1.216   7.387   2.538
 5144TIP3   OH215374   1.911   6.763   2.204
 5144TIP3    H115375   1.871   6.740   2.288
 5144TIP3    H215376   1.971   6.835   2.226
 5145TIP3   OH215377   0.925   6.739   2.564
 5145TIP3    H115378   0.981   6.813   2.589
 5145TIP3    H215379   0.974   6.695   2.494
 5146TIP3   OH215380   0.996   7.534   2.687
 5146TIP3    H115381   0.968   7.542   2.596
 5146TIP3    H215382   0.915   7.522   2.736
 5147TIP3   OH215383   2.129   6.707   2.532
 5147TIP3    H115384   2.045   6.728   2.492
 5147TIP3    H215385   2.194   6.733   2.467
 5148TIP3   OH215386   1.384   6.335   2.528
 5148TIP3    H115387   1.379   6.243   2.554
 5148TIP3    H215388   1.306   6.375   2.567
 5149TIP3   OH215389   1.744   7.569   1.710
 5149TIP3    H115390   1.725   7.510   1.637
 5149TIP3    H215391   1.716   7.521   1.788
 5150TIP3   OH215392   2.103   7.710   2.430
 5150TIP3    H115393   2.053   7.636   2.397
 5150TIP3    H215394   2.122   7.763   2.353
 5151TIP3   OH215395   1.350   7.115   1.774
 5151TIP3    H115396   1.269   7.165   1.768
 5151TIP3    H215397   1.396   7.135   1.692
 5152TIP3   OH215398   1.376   6.879   1.484
 5152TIP3    H115399   1.431   6.940   1.533
 5152TIP3    H215400   1.438   6.820   1.441
 5153TIP3   OH215401   2.216   7.364   2.390
 5153TIP3    H115402   2.129   7.405   2.385
 5153TIP3    H215403   2.248   7.365   2.300
 5154TIP3   OH215404   1.699   7.215   1.761
 5154TIP3    H115405   1.642   7.231   1.837
 5154TIP3    H215406   1.780   7.182   1.800
 5155TIP3   OH215407   1.903   7.202   2.662
 5155TIP3    H115408   1.908   7.280   2.716
 5155TIP3    H215409   1.818   7.208   2.619
 5156TIP3   OH215410   0.906   7.182   2.139
 5156TIP3    H115411   0.862   7.118   2.083
 5156TIP3    H215412   0.984   7.136   2.172
 5157TIP3   OH215413   0.951   7.580   2.187
 5157TIP3    H115414   0.955   7.525   2.109
 5157TIP3    H215415   1.021   7.644   2.175
 5158TIP3   OH215416   0.998   7.149   2.496
 5158TIP3    H115417   1.039   7.117   2.416
 5158TIP3    H215418   1.056   7.218   2.527
 5159TIP3   OH215419   1.171   7.643   2.870
 5159TIP3    H115420   1.242   7.697   2.833
 5159TIP3    H215421   1.131   7.601   2.794
 5160TIP3   OH215422   1.558   7.069   1.576
 5160TIP3    H115423   1.605   7.127   1.635
 5160TIP3    H215424   1.603   7.077   1.492
 5161TIP3   OH215425   0.933   7.275   2.959
 5161TIP3    H115426   0.933   7.355   3.011
 5161TIP3    H215427   0.845   7.239   2.970
 5162TIP3   OH215428   2.016   6.291   1.627
 5162TIP3    H115429   1.939   6.312   1.680
 5162TIP3    H215430   2.028   6.368   1.571
 5163TIP3   OH215431   0.764   7.010   1.977
 5163TIP3    H115432   0.729   7.033   1.891
 5163TIP3    H215433   0.725   6.925   1.997
 5164TIP3   OH215434   0.557   7.347   2.850
 5164TIP3    H115435   0.520   7.294   2.779
 5164TIP3    H215436   0.610   7.286   2.901
 5165TIP3   OH215437   2.158   7.178   2.846
 5165TIP3    H115438   2.070   7.182   2.809
 5165TIP3    H215439   2.177   7.085   2.853
 5166TIP3   OH215440   0.739   7.530   2.776
 5166TIP3    H115441   0.752   7.592   2.848
 5166TIP3    H215442   0.668   7.473   2.806
 5167TIP3   OH215443   1.145   6.423   2.652
 5167TIP3    H115444   1.061   6.389   2.621
 5167TIP3    H215445   1.123   6.504   2.699
 5168TIP3   OH215446   1.680   6.547   2.857
 5168TIP3    H115447   1.750   6.523   2.917
 5168TIP3    H215448   1.599   6.531   2.905
 5169TIP3   OH215449   1.913   6.951   2.773
 5169TIP3    H115450   1.869   6.950   2.859
 5169TIP3    H215451   1.894   7.038   2.738
 5170TIP3   OH215452   1.674   7.066   1.328
 5170TIP3    H115453   1.590   7.088   1.290
 5170TIP3    H215454   1.737   7.121   1.282
 5171TIP3   OH215455   1.284   6.463   1.621
 5171TIP3    H115456   1.263   6.478   1.713
 5171TIP3    H215457   1.251   6.374   1.604
 5172TIP3   OH215458   1.081   6.945   2.658
 5172TIP3    H115459   1.038   6.957   2.743
 5172TIP3    H215460   1.052   7.019   2.605
 5173TIP3   OH215461   0.963   6.833   2.193
 5173TIP3    H115462   0.873   6.809   2.214
 5173TIP3    H215463   0.977   6.801   2.104
 5174TIP3   OH215464   1.459   6.902   1.906
 5174TIP3    H115465   1.414   6.975   1.861
 5174TIP3    H215466   1.520   6.868   1.842
 5175TIP3   OH215467   1.657   7.162   2.982
 5175TIP3    H115468   1.623   7.095   3.042
 5175TIP3    H215469   1.748   7.174   3.008
 5176TIP3   OH215470   1.616   6.923   2.138
 5176TIP3    H115471   1.551   6.949   2.072
 5176TIP3    H215472   1.661   6.849   2.099
 5177TIP3   OH215473   0.909   6.959   2.878
 5177TIP3    H115474   0.972   7.007   2.931
 5177TIP3    H215475   0.893   6.878   2.926
 5178TIP3   OH215476   0.921   6.441   1.588
 5178TIP3    H115477   0.925   6.447   1.683
 5178TIP3    H215478   0.842   6.489   1.564
 5179TIP3   OH215479   0.500   6.535   2.442
 5179TIP3    H115480   0.578   6.545   2.497
 5179TIP3    H215481   0.528   6.476   2.371
 5180TIP3   OH215482   0.454   6.494   2.000
 5180TIP3    H115483   0.464   6.517   1.907
 5180TIP3    H215484   0.449   6.579   2.045
 5181TIP3   OH215485   1.644   7.180   2.558
 5181TIP3    H115486   1.671   7.112   2.497
 5181TIP3    H215487   1.602   7.134   2.630
 5182TIP3   OH215488   1.333   6.632   2.242
 5182TIP3    H115489   1.254   6.626   2.296
 5182TIP3    H215490   1.405   6.618   2.303
 5183TIP3   OH215491   0.725   6.702   2.234
 5183TIP3    H115492   0.635   6.692   2.203
 5183TIP3    H215493   0.763   6.615   2.226
 5184TIP3   OH215494   0.990   6.718   1.949
 5184TIP3    H115495   1.084   6.731   1.936
 5184TIP3    H215496   0.950   6.742   1.865
 5185TIP3   OH215497   1.773   6.713   2.442
 5185TIP3    H115498   1.755   6.728   2.535
 5185TIP3    H215499   1.706   6.650   2.415
 5186TIP3   OH215500   0.833   6.750   1.726
 5186TIP3    H115501   0.751   6.701   1.732
 5186TIP3    H215502   0.856   6.749   1.634
 5187TIP3   OH215503   0.923   7.498   3.127
 5187TIP3    H115504   0.994   7.501   3.191
 5187TIP3    H215505   0.843   7.494   3.179
 5188TIP3   OH215506   1.380   6.991   2.336
 5188TIP3    H115507   1.447   6.940   2.291
 5188TIP3    H215508   1.376   6.954   2.424
 5189TIP3   OH215509   0.868   6.461   2.228
 5189TIP3    H115510   0.839   6.387   2.282
 5189TIP3    H215511   0.888   6.421   2.143
 5190TIP3   OH215512   1.351   6.904   2.602
 5190TIP3    H115513   1.263   6.930   2.630
 5190TIP3    H215514   1.410   6.952   2.660
 5191TIP3   OH215515   1.117   7.268   1.776
 5191TIP3    H115516   1.059   7.192   1.766
 5191TIP3    H215517   1.084   7.313   1.853
 5192TIP3   OH215518   1.974   7.483   2.323
 5192TIP3    H115519   2.003   7.521   2.240
 5192TIP3    H215520   1.892   7.438   2.303
 5193TIP3   OH215521   1.543   6.566   1.628
 5193TIP3    H115522   1.449   6.549   1.622
 5193TIP3    H215523   1.550   6.661   1.635
 5194TIP3   OH215524   1.506   7.491   2.771
 5194TIP3    H115525   1.567   7.481   2.844
 5194TIP3    H215526   1.460   7.573   2.790
 5195TIP3   OH215527   1.625   6.828   1.695
 5195TIP3    H115528   1.720   6.821   1.709
 5195TIP3    H215529   1.614   6.909   1.646
 5196TIP3   OH215530   0.768   7.231   2.372
 5196TIP3    H115531   0.800   7.224   2.282
 5196TIP3    H215532   0.834   7.184   2.424
 5197TIP3   OH215533   1.204   7.412   1.557
 5197TIP3    H115534   1.141   7.480   1.531
 5197TIP3    H215535   1.162   7.369   1.632
 5198TIP3   OH215536   0.675   7.171   3.020
 5198TIP3    H115537   0.690   7.150   3.113
 5198TIP3    H215538   0.599   7.118   2.996
 5199TIP3   OH215539   1.419   7.292   3.029
 5199TIP3    H115540   1.375   7.266   2.948
 5199TIP3    H215541   1.510   7.266   3.017
 5200TIP3   OH215542   2.031   6.920   1.521
 5200TIP3    H115543   1.973   6.872   1.462
 5200TIP3    H215544   2.038   7.007   1.481
 5201TIP3   OH215545   2.317   7.711   2.592
 5201TIP3    H115546   2.230   7.728   2.556
 5201TIP3    H215547   2.372   7.697   2.515
 5202TIP3   OH215548   1.744   7.352   2.236
 5202TIP3    H115549   1.653   7.333   2.259
 5202TIP3    H215550   1.776   7.270   2.199
 5203TIP3   OH215551   0.947   7.395   1.971
 5203TIP3    H115552   0.862   7.388   1.928
 5203TIP3    H215553   0.945   7.325   2.037
 5204TIP3   OH215554   1.598   7.519   2.508
 5204TIP3    H115555   1.575   7.517   2.600
 5204TIP3    H215556   1.677   7.466   2.501
 5205TIP3   OH215557   1.553   7.352   1.308
 5205TIP3    H115558   1.606   7.364   1.387
 5205TIP3    H215559   1.463   7.348   1.340
 5206TIP3   OH215560   0.875   6.708   3.005
 5206TIP3    H115561   0.780   6.717   3.012
 5206TIP3    H215562   0.899   6.652   3.079
 5207TIP3   OH215563   1.722   7.358   1.529
 5207TIP3    H115564   1.704   7.310   1.609
 5207TIP3    H215565   1.818   7.361   1.523
 5208TIP3   OH215566   1.715   6.772   2.704
 5208TIP3    H115567   1.795   6.814   2.736
 5208TIP3    H215568   1.703   6.696   2.761
 5209TIP3   OH215569   1.607   6.522   1.896
 5209TIP3    H115570   1.586   6.538   1.804
 5209TIP3    H215571   1.652   6.601   1.925
 5210TIP3   OH215572   1.267   6.726   1.991
 5210TIP3    H115573   1.334   6.790   1.963
 5210TIP3    H215574   1.290   6.706   2.081
 5211TIP3   OH215575   1.561   7.007   2.756
 5211TIP3    H115576   1.592   7.047   2.837
 5211TIP3    H215577   1.610   6.924   2.750
 5212TIP3   OH215578   1.428   6.418   2.080
 5212TIP3    H115579   1.407   6.496   2.131
 5212TIP3    H215580   1.497   6.447   2.020
 5213TIP3   OH215581   0.953   6.454   1.867
 5213TIP3    H115582   0.945   6.541   1.906
 5213TIP3    H215583   1.047   6.435   1.871
 5214TIP3   OH215584   2.176   6.898   2.749
 5214TIP3    H115585   2.082   6.911   2.763
 5214TIP3    H215586   2.180   6.838   2.675
 5215TIP3   OH215587   1.839   7.107   2.141
 5215TIP3    H115588   1.763   7.048   2.148
 5215TIP3    H215589   1.905   7.066   2.196
 5216TIP3   OH215590   0.882   6.339   2.618
 5216TIP3    H115591   0.853   6.304   2.533
 5216TIP3    H215592   0.875   6.264   2.677
 5217TIP3   OH215593   0.680   7.434   3.261
 5217TIP3    H115594   0.732   7.353   3.260
 5217TIP3    H215595   0.613   7.419   3.194
 5218TIP3   OH215596   1.304   7.533   3.089
 5218TIP3    H115597   1.267   7.569   3.009
 5218TIP3    H215598   1.343   7.450   3.063
 5219TIP3   OH215599   1.843   7.601   2.664
 5219TIP3    H115600   1.910   7.669   2.659
 5219TIP3    H215601   1.774   7.640   2.719
 5220TIP3   OH215602   0.862   7.226   3.271
 5220TIP3    H115603   0.944   7.188   3.241
 5220TIP3    H215604   0.882   7.259   3.359
 5221TIP3   OH215605   0.968   7.045   1.742
 5221TIP3    H115606   0.898   6.989   1.778
 5221TIP3    H215607   1.015   6.988   1.682
 5222TIP3   OH215608   1.147   7.113   2.912
 5222TIP3    H115609   1.081   7.181   2.927
 5222TIP3    H215610   1.214   7.156   2.858
 5223TIP3   OH215611   1.110   6.922   1.543
 5223TIP3    H115612   1.098   6.987   1.474
 5223TIP3    H215613   1.204   6.902   1.540
 5224TIP3   OH215614   1.665   7.485   3.000
 5224TIP3    H115615   1.744   7.433   3.012
 5224TIP3    H215616   1.629   7.495   3.089
 5225TIP3   OH215617   1.860   7.197   1.158
 5225TIP3    H115618   1.838   7.150   1.077
 5225TIP3    H215619   1.816   7.281   1.149
 5226TIP3   OH215620   1.291   6.919   3.041
 5226TIP3    H115621   1.300   6.846   2.980
 5226TIP3    H215622   1.245   6.986   2.991
 5227TIP3   OH215623   1.301   6.727   2.834
 5227TIP3    H115624   1.330   6.761   2.749
 5227TIP3    H215625   1.210   6.699   2.818
 5228TIP3   OH215626   1.343   7.249   2.770
 5228TIP3    H115627   1.418   7.306   2.753
 5228TIP3    H215628   1.280   7.272   2.701
 5229TIP3   OH215629   1.912   7.191   3.101
 5229TIP3    H115630   1.963   7.110   3.107
 5229TIP3    H215631   1.978   7.260   3.101
 5230TIP3   OH215632   1.952   7.414   2.823
 5230TIP3    H115633   1.896   7.476   2.776
 5230TIP3    H215634   2.041   7.442   2.802
 5231TIP3   OH215635   1.167   7.009   3.277
 5231TIP3    H115636   1.103   6.941   3.299
 5231TIP3    H215637   1.202   6.982   3.192
 5232TIP3   OH215638   1.419   6.498   2.943
 5232TIP3    H115639   1.379   6.578   2.908
 5232TIP3    H215640   1.353   6.430   2.928
 5233TIP3   OH215641   1.551   6.963   3.139
 5233TIP3    H115642   1.543   6.954   3.234
 5233TIP3    H215643   1.463   6.944   3.106
 5234TIP3   OH215644   1.793   6.903   3.010
 5234TIP3    H115645   1.715   6.906   3.066
 5234TIP3    H215646   1.866   6.888   3.071
 5235TIP3   OH215647   2.030   6.886   3.161
 5235TIP3    H115648   2.043   6.791   3.162
 5235TIP3    H215649   2.025   6.911   3.253
 5236TIP3   OH215650   1.014   6.786   3.346
 5236TIP3    H115651   1.020   6.698   3.309
 5236TIP3    H215652   1.050   6.777   3.434
 5237TIP3   OH215653   1.485   6.472   3.208
 5237TIP3    H115654   1.558   6.410   3.201
 5237TIP3    H215655   1.456   6.485   3.118
 5238TIP3   OH215656   1.582   6.683   3.359
 5238TIP3    H115657   1.552   6.612   3.302
 5238TIP3    H215658   1.510   6.746   3.358
 5239TIP3   OH215659   2.147   7.949   2.839
 5239TIP3    H115660   2.102   7.992   2.912
 5239TIP3    H215661   2.214   8.012   2.811
 5240TIP3   OH215662   1.995   7.366   1.539
 5240TIP3    H115663   2.052   7.435   1.505
 5240TIP3    H215664   2.042   7.330   1.614
 5241TIP3   OH215665   2.125   7.233   1.740
 5241TIP3    H115666   2.057   7.201   1.799
 5241TIP3    H215667   2.186   7.279   1.797
 5242TIP3   OH215668   2.158   7.613   2.151
 5242TIP3    H115669   2.212   7.536   2.134
 5242TIP3    H215670   2.136   7.647   2.064
 5243TIP3   OH215671   2.033   7.153   1.372
 5243TIP3    H115672   1.968   7.161   1.302
 5243TIP3    H215673   2.015   7.227   1.430
 5244TIP3   OH215674   1.874   6.807   1.334
 5244TIP3    H115675   1.799   6.857   1.302
 5244TIP3    H215676   1.863   6.720   1.294
 5245TIP3   OH215677   1.921   7.100   1.878
 5245TIP3    H115678   1.926   7.005   1.861
 5245TIP3    H215679   1.900   7.106   1.971
 5246TIP3   OH215680   0.513   7.132   2.667
 5246TIP3    H115681   0.495   7.114   2.574
 5246TIP3    H215682   0.609   7.138   2.671
 5247TIP3   OH215683   2.195   7.513   2.747
 5247TIP3    H115684   2.258   7.442   2.737
 5247TIP3    H215685   2.224   7.580   2.685
 5248TIP3   OH215686   2.373   7.307   2.744
 5248TIP3    H115687   2.298   7.260   2.781
 5248TIP3    H215688   2.448   7.249   2.760
 5249TIP3   OH215689   1.850   6.527   1.273
 5249TIP3    H115690   1.912   6.514   1.344
 5249TIP3    H215691   1.765   6.499   1.309
 5250TIP3   OH215692   1.906   6.826   1.756
 5250TIP3    H115693   1.951   6.742   1.768
 5250TIP3    H215694   1.949   6.866   1.680
 5251TIP3   OH215695   2.055   6.990   2.277
 5251TIP3    H115696   2.135   7.008   2.228
 5251TIP3    H215697   2.071   7.026   2.364
 5252TIP3   OH215698   2.129   7.129   2.507
 5252TIP3    H115699   2.052   7.151   2.561
 5252TIP3    H215700   2.158   7.214   2.473
 5253TIP3   OH215701   0.754   6.842   3.278
 5253TIP3    H115702   0.848   6.837   3.297
 5253TIP3    H215703   0.718   6.761   3.316
 5254TIP3   OH215704   2.576   6.747   3.037
 5254TIP3    H115705   2.646   6.688   3.010
 5254TIP3    H215706   2.548   6.791   2.956
 5255TIP3   OH215707   2.016   6.576   1.804
 5255TIP3    H115708   2.061   6.562   1.888
 5255TIP3    H215709   1.953   6.505   1.798
 5256TIP3   OH215710   0.713   6.558   2.626
 5256TIP3    H115711   0.766   6.479   2.633
 5256TIP3    H215712   0.776   6.628   2.609
 5257TIP3   OH215713   0.515   6.824   2.692
 5257TIP3    H115714   0.557   6.808   2.607
 5257TIP3    H215715   0.545   6.912   2.717
 5258TIP3   OH215716   2.438   6.852   2.825
 5258TIP3    H115717   2.351   6.890   2.839
 5258TIP3    H215718   2.422   6.770   2.779
 5259TIP3   OH215719   2.064   6.492   1.444
 5259TIP3    H115720   2.114   6.431   1.391
 5259TIP3    H215721   2.119   6.570   1.450
 5260TIP3   OH215722   0.485   6.353   2.230
 5260TIP3    H115723   0.395   6.325   2.247
 5260TIP3    H215724   0.480   6.400   2.147
 5261TIP3   OH215725   0.715   6.412   3.038
 5261TIP3    H115726   0.658   6.398   3.113
 5261TIP3    H215727   0.658   6.450   2.971
 5262TIP3   OH215728   2.351   6.599   2.737
 5262TIP3    H115729   2.262   6.583   2.706
 5262TIP3    H215730   2.394   6.513   2.734
 5263TIP3   OH215731   1.557   6.529   2.376
 5263TIP3    H115732   1.516   6.458   2.426
 5263TIP3    H215733   1.625   6.486   2.324
 5264TIP3   OH215734   2.059   6.457   2.267
 5264TIP3    H115735   2.094   6.505   2.192
 5264TIP3    H215736   1.965   6.474   2.265
 5265TIP3   OH215737   2.172   6.531   2.028
 5265TIP3    H115738   2.241   6.470   2.002
 5265TIP3    H215739   2.210   6.618   2.014
 5266TIP3   OH215740   0.793   6.239   2.377
 5266TIP3    H115741   0.703   6.206   2.382
 5266TIP3    H215742   0.847   6.161   2.365
 5267TIP3   OH215743   0.627   6.143   2.099
 5267TIP3    H115744   0.671   6.183   2.024
 5267TIP3    H215745   0.581   6.215   2.142
 5268TIP3   OH215746   1.274   6.278   2.271
 5268TIP3    H115747   1.325   6.322   2.203
 5268TIP3    H215748   1.316   6.304   2.353
 5269TIP3   OH215749   1.772   6.411   2.246
 5269TIP3    H115750   1.791   6.373   2.160
 5269TIP3    H215751   1.779   6.338   2.306
 5270TIP3   OH215752   1.827   6.370   1.811
 5270TIP3    H115753   1.747   6.417   1.837
 5270TIP3    H215754   1.817   6.283   1.850
 5271TIP3   OH215755   0.768   6.251   1.890
 5271TIP3    H115756   0.787   6.195   1.814
 5271TIP3    H215757   0.829   6.324   1.882
 5272TIP3   OH215758   1.228   6.477   1.888
 5272TIP3    H115759   1.281   6.421   1.945
 5272TIP3    H215760   1.241   6.565   1.922
 5273TIP3   OH215761   1.024   6.520   3.253
 5273TIP3    H115762   0.989   6.451   3.308
 5273TIP3    H215763   1.116   6.527   3.278
 5274TIP3   OH215764   1.269   6.528   3.378
 5274TIP3    H115765   1.346   6.507   3.326
 5274TIP3    H215766   1.263   6.457   3.442
 5275TIP3   OH215767   2.090   6.614   3.158
 5275TIP3    H115768   2.108   6.584   3.247
 5275TIP3    H215769   2.174   6.610   3.114
 5276TIP3   OH215770   3.291   7.513   1.435
 5276TIP3    H115771   3.265   7.600   1.405
 5276TIP3    H215772   3.214   7.458   1.420
 5277TIP3   OH215773   3.278   7.517   1.798
 5277TIP3    H115774   3.318   7.504   1.884
 5277TIP3    H215775   3.240   7.432   1.776
 5278TIP3   OH215776   2.588   7.395   2.185
 5278TIP3    H115777   2.626   7.337   2.252
 5278TIP3    H215778   2.663   7.424   2.134
 5279TIP3   OH215779   3.545   7.802   1.486
 5279TIP3    H115780   3.541   7.731   1.550
 5279TIP3    H215781   3.533   7.882   1.539
 5280TIP3   OH215782   2.600   7.769   1.917
 5280TIP3    H115783   2.581   7.676   1.905
 5280TIP3    H215784   2.687   7.780   1.877
 5281TIP3   OH215785   2.266   7.013   1.648
 5281TIP3    H115786   2.229   7.095   1.679
 5281TIP3    H215787   2.192   6.965   1.611
 5282TIP3   OH215788   2.346   7.330   1.877
 5282TIP3    H115789   2.394   7.250   1.897
 5282TIP3    H215790   2.415   7.394   1.857
 5283TIP3   OH215791   3.120   7.747   1.819
 5283TIP3    H115792   3.166   7.671   1.784
 5283TIP3    H215793   3.187   7.796   1.866
 5284TIP3   OH215794   4.184   7.069   1.859
 5284TIP3    H115795   4.161   7.156   1.891
 5284TIP3    H215796   4.204   7.082   1.766
 5285TIP3   OH215797   3.480   7.157   1.930
 5285TIP3    H115798   3.392   7.121   1.940
 5285TIP3    H215799   3.491   7.168   1.836
 5286TIP3   OH215800   2.849   6.894   1.835
 5286TIP3    H115801   2.827   6.964   1.774
 5286TIP3    H215802   2.798   6.818   1.805
 5287TIP3   OH215803   3.549   6.984   1.496
 5287TIP3    H115804   3.618   6.979   1.562
 5287TIP3    H215805   3.592   7.022   1.419
 5288TIP3   OH215806   2.480   7.105   1.961
 5288TIP3    H115807   2.563   7.086   2.006
 5288TIP3    H215808   2.484   7.053   1.881
 5289TIP3   OH215809   2.899   7.302   1.759
 5289TIP3    H115810   2.994   7.287   1.764
 5289TIP3    H215811   2.864   7.220   1.725
 5290TIP3   OH215812   4.158   7.291   2.033
 5290TIP3    H115813   4.081   7.343   2.010
 5290TIP3    H215814   4.207   7.346   2.094
 5291TIP3   OH215815   2.838   6.898   2.285
 5291TIP3    H115816   2.786   6.932   2.212
 5291TIP3    H215817   2.783   6.912   2.362
 5292TIP3   OH215818   3.204   7.732   1.295
 5292TIP3    H115819   3.157   7.725   1.212
 5292TIP3    H215820   3.274   7.795   1.277
 5293TIP3   OH215821   3.001   7.600   2.018
 5293TIP3    H115822   2.948   7.658   2.071
 5293TIP3    H215823   3.042   7.657   1.953
 5294TIP3   OH215824   3.740   7.011   1.693
 5294TIP3    H115825   3.794   6.944   1.733
 5294TIP3    H215826   3.786   7.093   1.710
 5295TIP3   OH215827   2.724   7.004   2.056
 5295TIP3    H115828   2.782   7.077   2.078
 5295TIP3    H215829   2.769   6.960   1.983
 5296TIP3   OH215830   2.830   7.725   2.185
 5296TIP3    H115831   2.814   7.809   2.141
 5296TIP3    H215832   2.750   7.709   2.235
 5297TIP3   OH215833   2.149   7.551   1.407
 5297TIP3    H115834   2.119   7.552   1.316
 5297TIP3    H215835   2.158   7.644   1.430
 5298TIP3   OH215836   3.175   6.584   2.015
 5298TIP3    H115837   3.167   6.493   2.042
 5298TIP3    H215838   3.100   6.627   2.055
 5299TIP3   OH215839   3.439   7.864   1.237
 5299TIP3    H115840   3.461   7.792   1.177
 5299TIP3    H215841   3.486   7.842   1.318
 5300TIP3   OH215842   3.818   7.990   1.979
 5300TIP3    H115843   3.798   7.906   1.937
 5300TIP3    H215844   3.732   8.026   2.002
 5301TIP3   OH215845   3.092   7.361   1.311
 5301TIP3    H115846   3.018   7.415   1.284
 5301TIP3    H215847   3.147   7.356   1.233
 5302TIP3   OH215848   3.058   7.191   0.988
 5302TIP3    H115849   3.113   7.246   1.043
 5302TIP3    H215850   3.116   7.120   0.960
 5303TIP3   OH215851   4.015   7.634   1.858
 5303TIP3    H115852   3.930   7.678   1.864
 5303TIP3    H215853   4.044   7.649   1.768
 5304TIP3   OH215854   3.479   7.445   1.249
 5304TIP3    H115855   3.425   7.470   1.324
 5304TIP3    H215856   3.562   7.416   1.288
 5305TIP3   OH215857   3.674   7.498   2.085
 5305TIP3    H115858   3.696   7.565   2.148
 5305TIP3    H215859   3.586   7.521   2.055
 5306TIP3   OH215860   2.697   7.436   1.621
 5306TIP3    H115861   2.660   7.374   1.559
 5306TIP3    H215862   2.774   7.392   1.657
 5307TIP3   OH215863   2.848   7.806   1.789
 5307TIP3    H115864   2.856   7.886   1.738
 5307TIP3    H215865   2.937   7.775   1.801
 5308TIP3   OH215866   2.804   7.417   1.987
 5308TIP3    H115867   2.832   7.375   1.906
 5308TIP3    H215868   2.869   7.486   2.002
 5309TIP3   OH215869   3.034   7.843   2.330
 5309TIP3    H115870   2.984   7.924   2.323
 5309TIP3    H215871   2.981   7.777   2.285
 5310TIP3   OH215872   3.272   7.329   1.112
 5310TIP3    H115873   3.348   7.368   1.154
 5310TIP3    H215874   3.288   7.341   1.018
 5311TIP3   OH215875   2.736   7.512   2.452
 5311TIP3    H115876   2.740   7.597   2.495
 5311TIP3    H215877   2.644   7.485   2.462
 5312TIP3   OH215878   3.798   6.541   1.146
 5312TIP3    H115879   3.718   6.562   1.195
 5312TIP3    H215880   3.823   6.623   1.104
 5313TIP3   OH215881   2.572   7.270   1.434
 5313TIP3    H115882   2.499   7.318   1.395
 5313TIP3    H215883   2.537   7.183   1.451
 5314TIP3   OH215884   2.398   7.623   2.342
 5314TIP3    H115885   2.309   7.601   2.312
 5314TIP3    H215886   2.432   7.542   2.379
 5315TIP3   OH215887   3.973   7.454   2.338
 5315TIP3    H115888   3.893   7.506   2.335
 5315TIP3    H215889   3.954   7.385   2.402
 5316TIP3   OH215890   2.579   7.815   2.285
 5316TIP3    H115891   2.527   7.880   2.332
 5316TIP3    H215892   2.526   7.736   2.287
 5317TIP3   OH215893   2.939   6.682   2.139
 5317TIP3    H115894   2.855   6.648   2.109
 5317TIP3    H215895   2.917   6.762   2.187
 5318TIP3   OH215896   3.470   6.776   2.330
 5318TIP3    H115897   3.539   6.760   2.394
 5318TIP3    H215898   3.389   6.768   2.380
 5319TIP3   OH215899   3.699   7.254   2.197
 5319TIP3    H115900   3.678   7.253   2.290
 5319TIP3    H215901   3.700   7.347   2.173
 5320TIP3   OH215902   3.314   7.348   0.850
 5320TIP3    H115903   3.273   7.321   0.768
 5320TIP3    H215904   3.386   7.405   0.824
 5321TIP3   OH215905   3.059   6.732   1.108
 5321TIP3    H115906   3.037   6.738   1.201
 5321TIP3    H215907   3.032   6.644   1.082
 5322TIP3   OH215908   2.887   7.209   2.147
 5322TIP3    H115909   2.841   7.217   2.231
 5322TIP3    H215910   2.859   7.286   2.097
 5323TIP3   OH215911   2.757   7.088   1.667
 5323TIP3    H115912   2.668   7.064   1.692
 5323TIP3    H215913   2.767   7.055   1.577
 5324TIP3   OH215914   3.250   7.161   1.425
 5324TIP3    H115915   3.197   7.232   1.387
 5324TIP3    H215916   3.308   7.135   1.354
 5325TIP3   OH215917   3.446   7.433   2.453
 5325TIP3    H115918   3.436   7.369   2.523
 5325TIP3    H215919   3.527   7.480   2.475
 5326TIP3   OH215920   3.436   7.180   1.652
 5326TIP3    H115921   3.357   7.208   1.605
 5326TIP3    H215922   3.469   7.105   1.603
 5327TIP3   OH215923   2.720   7.223   2.365
 5327TIP3    H115924   2.735   7.288   2.435
 5327TIP3    H215925   2.700   7.142   2.412
 5328TIP3   OH215926   2.737   6.699   1.084
 5328TIP3    H115927   2.735   6.707   1.179
 5328TIP3    H215928   2.666   6.756   1.054
 5329TIP3   OH215929   2.304   6.753   1.950
 5329TIP3    H115930   2.377   6.786   2.002
 5329TIP3    H215931   2.343   6.729   1.866
 5330TIP3   OH215932   2.216   6.723   1.458
 5330TIP3    H115933   2.259   6.756   1.379
 5330TIP3    H215934   2.154   6.791   1.482
 5331TIP3   OH215935   3.404   7.420   2.022
 5331TIP3    H115936   3.428   7.338   1.979
 5331TIP3    H215937   3.371   7.394   2.108
 5332TIP3   OH215938   3.114   6.960   1.757
 5332TIP3    H115939   3.034   6.926   1.799
 5332TIP3    H215940   3.181   6.894   1.777
 5333TIP3   OH215941   2.522   6.963   1.731
 5333TIP3    H115942   2.434   6.967   1.693
 5333TIP3    H215943   2.551   6.873   1.716
 5334TIP3   OH215944   2.772   6.969   1.422
 5334TIP3    H115945   2.866   6.981   1.410
 5334TIP3    H215946   2.735   6.986   1.335
 5335TIP3   OH215947   2.646   6.990   1.179
 5335TIP3    H115948   2.578   6.945   1.129
 5335TIP3    H215949   2.699   7.036   1.114
 5336TIP3   OH215950   2.728   7.744   2.604
 5336TIP3    H115951   2.804   7.758   2.660
 5336TIP3    H215952   2.653   7.757   2.662
 5337TIP3   OH215953   3.163   7.228   1.823
 5337TIP3    H115954   3.159   7.141   1.783
 5337TIP3    H215955   3.159   7.212   1.917
 5338TIP3   OH215956   2.662   6.717   1.716
 5338TIP3    H115957   2.633   6.642   1.768
 5338TIP3    H215958   2.687   6.680   1.632
 5339TIP3   OH215959   3.156   7.168   2.096
 5339TIP3    H115960   3.066   7.192   2.118
 5339TIP3    H215961   3.210   7.221   2.154
 5340TIP3   OH215962   2.886   7.523   1.215
 5340TIP3    H115963   2.816   7.462   1.190
 5340TIP3    H215964   2.851   7.568   1.292
 5341TIP3   OH215965   3.771   7.756   1.824
 5341TIP3    H115966   3.807   7.809   1.752
 5341TIP3    H215967   3.690   7.719   1.788
 5342TIP3   OH215968   3.318   6.819   1.115
 5342TIP3    H115969   3.224   6.800   1.109
 5342TIP3    H215970   3.325   6.912   1.093
 5343TIP3   OH215971   3.287   7.747   2.247
 5343TIP3    H115972   3.350   7.754   2.318
 5343TIP3    H215973   3.210   7.796   2.277
 5344TIP3   OH215974   3.411   7.088   1.211
 5344TIP3    H115975   3.507   7.086   1.206
 5344TIP3    H215976   3.385   7.141   1.136
 5345TIP3   OH215977   2.570   7.497   1.858
 5345TIP3    H115978   2.604   7.487   1.769
 5345TIP3    H215979   2.640   7.464   1.914
 5346TIP3   OH215980   3.042   7.693   1.066
 5346TIP3    H115981   2.980   7.767   1.060
 5346TIP3    H215982   2.993   7.625   1.113
 5347TIP3   OH215983   2.474   7.414   2.504
 5347TIP3    H115984   2.479   7.394   2.598
 5347TIP3    H215985   2.392   7.373   2.475
 5348TIP3   OH215986   3.200   7.536   2.532
 5348TIP3    H115987   3.137   7.481   2.487
 5348TIP3    H215988   3.284   7.517   2.489
 5349TIP3   OH215989   3.836   7.197   1.072
 5349TIP3    H115990   3.765   7.154   1.024
 5349TIP3    H215991   3.826   7.290   1.052
 5350TIP3   OH215992   4.068   8.007   2.086
 5350TIP3    H115993   3.976   8.018   2.062
 5350TIP3    H215994   4.115   8.006   2.003
 5351TIP3   OH215995   3.540   7.626   1.704
 5351TIP3    H115996   3.449   7.608   1.731
 5351TIP3    H215997   3.574   7.541   1.679
 5352TIP3   OH215998   2.267   7.142   1.229
 5352TIP3    H115999   2.311   7.225   1.246
 5352TIP3    H216000   2.190   7.143   1.286
 5353TIP3   OH216001   2.782   7.631   1.444
 5353TIP3    H116002   2.809   7.706   1.498
 5353TIP3    H216003   2.747   7.568   1.506
 5354TIP3   OH216004   3.332   7.821   1.977
 5354TIP3    H116005   3.310   7.792   2.065
 5354TIP3    H216006   3.425   7.840   1.980
 5355TIP3   OH216007   3.262   7.688   0.897
 5355TIP3    H116008   3.336   7.671   0.955
 5355TIP3    H216009   3.186   7.689   0.956
 5356TIP3   OH216010   2.666   6.974   2.490
 5356TIP3    H116011   2.571   6.984   2.495
 5356TIP3    H216012   2.688   6.922   2.567
 5357TIP3   OH216013   3.476   7.647   1.066
 5357TIP3    H116014   3.469   7.573   1.126
 5357TIP3    H216015   3.570   7.660   1.055
 5358TIP3   OH216016   2.634   7.642   0.872
 5358TIP3    H116017   2.633   7.551   0.842
 5358TIP3    H216018   2.725   7.669   0.861
 5359TIP3   OH216019   2.359   7.396   1.305
 5359TIP3    H116020   2.292   7.440   1.357
 5359TIP3    H216021   2.381   7.459   1.236
 5360TIP3   OH216022   3.553   7.005   2.212
 5360TIP3    H116023   3.573   7.044   2.298
 5360TIP3    H216024   3.521   6.917   2.232
 5361TIP3   OH216025   3.388   6.786   1.381
 5361TIP3    H116026   3.368   6.807   1.290
 5361TIP3    H216027   3.433   6.863   1.414
 5362TIP3   OH216028   3.052   6.980   1.483
 5362TIP3    H116029   3.119   7.040   1.451
 5362TIP3    H216030   3.068   6.973   1.577
 5363TIP3   OH216031   3.371   7.261   2.253
 5363TIP3    H116032   3.387   7.335   2.312
 5363TIP3    H216033   3.389   7.184   2.307
 5364TIP3   OH216034   3.225   6.664   1.561
 5364TIP3    H116035   3.253   6.708   1.641
 5364TIP3    H216036   3.278   6.703   1.492
 5365TIP3   OH216037   2.732   6.697   1.365
 5365TIP3    H116038   2.721   6.788   1.393
 5365TIP3    H216039   2.826   6.681   1.371
 5366TIP3   OH216040   3.961   7.123   2.158
 5366TIP3    H116041   3.889   7.183   2.178
 5366TIP3    H216042   4.024   7.177   2.111
 5367TIP3   OH216043   3.635   7.372   1.641
 5367TIP3    H116044   3.564   7.308   1.647
 5367TIP3    H216045   3.708   7.330   1.687
 5368TIP3   OH216046   2.375   7.596   1.088
 5368TIP3    H116047   2.425   7.675   1.069
 5368TIP3    H216048   2.424   7.526   1.044
 5369TIP3   OH216049   2.277   6.862   1.231
 5369TIP3    H116050   2.291   6.956   1.236
 5369TIP3    H216051   2.214   6.850   1.160
 5370TIP3   OH216052   2.677   6.596   2.103
 5370TIP3    H116053   2.647   6.562   2.018
 5370TIP3    H216054   2.669   6.521   2.162
 5371TIP3   OH216055   2.510   7.693   2.781
 5371TIP3    H116056   2.560   7.612   2.772
 5371TIP3    H216057   2.445   7.690   2.711
 5372TIP3   OH216058   2.506   7.377   0.993
 5372TIP3    H116059   2.565   7.361   1.067
 5372TIP3    H216060   2.563   7.374   0.916
 5373TIP3   OH216061   3.119   7.790   2.582
 5373TIP3    H116062   3.096   7.821   2.495
 5373TIP3    H216063   3.151   7.701   2.568
 5374TIP3   OH216064   2.908   7.610   0.826
 5374TIP3    H116065   2.983   7.637   0.880
 5374TIP3    H216066   2.930   7.521   0.798
 5375TIP3   OH216067   3.573   7.881   2.102
 5375TIP3    H116068   3.651   7.880   2.158
 5375TIP3    H216069   3.503   7.914   2.159
 5376TIP3   OH216070   2.671   7.468   2.759
 5376TIP3    H116071   2.753   7.443   2.716
 5376TIP3    H216072   2.699   7.500   2.845
 5377TIP3   OH216073   2.694   7.325   1.184
 5377TIP3    H116074   2.671   7.289   1.270
 5377TIP3    H216075   2.730   7.250   1.136
 5378TIP3   OH216076   2.989   7.401   2.400
 5378TIP3    H116077   2.906   7.449   2.406
 5378TIP3    H216078   3.033   7.438   2.324
 5379TIP3   OH216079   2.791   7.135   1.002
 5379TIP3    H116080   2.771   7.130   0.908
 5379TIP3    H216081   2.885   7.151   1.005
 5380TIP3   OH216082   3.458   7.755   2.478
 5380TIP3    H116083   3.529   7.817   2.465
 5380TIP3    H216084   3.433   7.765   2.570
 5381TIP3   OH216085   3.520   7.506   0.764
 5381TIP3    H116086   3.571   7.482   0.687
 5381TIP3    H216087   3.471   7.583   0.737
 5382TIP3   OH216088   3.098   7.185   2.526
 5382TIP3    H116089   3.098   7.110   2.466
 5382TIP3    H216090   3.059   7.256   2.475
 5383TIP3   OH216091   3.095   6.988   2.321
 5383TIP3    H116092   3.120   7.025   2.236
 5383TIP3    H216093   3.005   6.959   2.309
 5384TIP3   OH216094   3.162   7.500   2.212
 5384TIP3    H116095   3.222   7.573   2.226
 5384TIP3    H216096   3.113   7.524   2.133
 5385TIP3   OH216097   3.707   7.491   2.571
 5385TIP3    H116098   3.745   7.431   2.635
 5385TIP3    H216099   3.766   7.566   2.571
 5386TIP3   OH216100   3.776   7.645   2.287
 5386TIP3    H116101   3.724   7.713   2.330
 5386TIP3    H216102   3.854   7.691   2.256
 5387TIP3   OH216103   2.959   7.271   2.757
 5387TIP3    H116104   2.901   7.198   2.780
 5387TIP3    H216105   2.998   7.244   2.674
 5388TIP3   OH216106   3.211   6.753   2.424
 5388TIP3    H116107   3.170   6.833   2.392
 5388TIP3    H216108   3.145   6.685   2.412
 5389TIP3   OH216109   3.370   7.215   2.609
 5389TIP3    H116110   3.374   7.208   2.704
 5389TIP3    H216111   3.278   7.201   2.587
 5390TIP3   OH216112   3.590   7.146   2.444
 5390TIP3    H116113   3.522   7.164   2.509
 5390TIP3    H216114   3.670   7.138   2.495
 5391TIP3   OH216115   3.823   7.128   2.592
 5391TIP3    H116116   3.835   7.038   2.624
 5391TIP3    H216117   3.804   7.179   2.671
 5392TIP3   OH216118   2.811   7.044   2.826
 5392TIP3    H116119   2.818   6.954   2.793
 5392TIP3    H216120   2.845   7.038   2.916
 5393TIP3   OH216121   3.286   6.735   2.689
 5393TIP3    H116122   3.352   6.666   2.684
 5393TIP3    H216123   3.254   6.743   2.599
 5394TIP3   OH216124   3.382   6.952   2.829
 5394TIP3    H116125   3.351   6.877   2.778
 5394TIP3    H216126   3.309   7.014   2.828
 5395TIP3   OH216127   2.108   7.544   1.137
 5395TIP3    H116128   2.196   7.571   1.110
 5395TIP3    H216129   2.090   7.466   1.085
 5396TIP3   OH216130   6.813   0.104   2.382
 5396TIP3    H116131   6.735   0.054   2.359
 5396TIP3    H216132   6.828   0.161   2.306
 5397TIP3   OH216133   3.748   7.674   1.069
 5397TIP3    H116134   3.783   7.763   1.077
 5397TIP3    H216135   3.802   7.623   1.130
 5398TIP3   OH216136   3.886   7.504   1.227
 5398TIP3    H116137   3.830   7.459   1.291
 5398TIP3    H216138   3.957   7.541   1.279
 5399TIP3   OH216139   3.948   7.896   1.658
 5399TIP3    H116140   4.004   7.826   1.624
 5399TIP3    H216141   3.950   7.963   1.589
 5400TIP3   OH216142   3.726   7.433   0.933
 5400TIP3    H116143   3.644   7.445   0.885
 5400TIP3    H216144   3.725   7.505   0.997
 5401TIP3   OH216145   3.624   7.113   0.920
 5401TIP3    H116146   3.687   7.131   0.850
 5401TIP3    H216147   3.600   7.021   0.907
 5402TIP3   OH216148   3.708   7.353   1.376
 5402TIP3    H116149   3.709   7.258   1.365
 5402TIP3    H216150   3.688   7.367   1.468
 5403TIP3   OH216151   2.321   7.394   2.140
 5403TIP3    H116152   2.313   7.368   2.048
 5403TIP3    H216153   2.415   7.403   2.155
 5404TIP3   OH216154   4.006   7.769   2.211
 5404TIP3    H116155   4.073   7.706   2.183
 5404TIP3    H216156   4.023   7.847   2.159
 5405TIP3   OH216157   4.175   7.556   2.185
 5405TIP3    H116158   4.104   7.518   2.238
 5405TIP3    H216159   4.254   7.512   2.216
 5406TIP3   OH216160   3.558   6.865   0.839
 5406TIP3    H116161   3.623   6.826   0.781
 5406TIP3    H216162   3.492   6.797   0.850
 5407TIP3   OH216163   3.699   7.081   1.283
 5407TIP3    H116164   3.738   6.995   1.294
 5407TIP3    H216165   3.751   7.122   1.213
 5408TIP3   OH216166   3.853   7.253   1.766
 5408TIP3    H116167   3.933   7.269   1.716
 5408TIP3    H216168   3.867   7.299   1.849
 5409TIP3   OH216169   3.914   7.413   1.983
 5409TIP3    H116170   3.832   7.445   2.020
 5409TIP3    H216171   3.954   7.489   1.942
 5410TIP3   OH216172   2.547   7.098   2.769
 5410TIP3    H116173   2.641   7.094   2.786
 5410TIP3    H216174   2.513   7.016   2.802
 5411TIP3   OH216175   4.319   7.031   2.544
 5411TIP3    H116176   4.389   6.972   2.574
 5411TIP3    H216177   4.347   7.057   2.456
 5412TIP3   OH216178   3.796   6.830   1.330
 5412TIP3    H116179   3.844   6.804   1.408
 5412TIP3    H216180   3.732   6.760   1.316
 5413TIP3   OH216181   2.514   6.820   2.120
 5413TIP3    H116182   2.567   6.741   2.126
 5413TIP3    H216183   2.577   6.890   2.103
 5414TIP3   OH216184   2.295   7.081   2.174
 5414TIP3    H116185   2.345   7.067   2.094
 5414TIP3    H216186   2.325   7.166   2.207
 5415TIP3   OH216187   4.223   7.152   2.313
 5415TIP3    H116188   4.169   7.185   2.385
 5415TIP3    H216189   4.171   7.085   2.271
 5416TIP3   OH216190   3.870   6.773   1.015
 5416TIP3    H116191   3.902   6.703   0.958
 5416TIP3    H216192   3.857   6.847   0.957
 5417TIP3   OH216193   2.287   6.596   1.688
 5417TIP3    H116194   2.201   6.581   1.726
 5417TIP3    H216195   2.270   6.649   1.610
 5418TIP3   OH216196   2.510   6.658   2.510
 5418TIP3    H116197   2.456   6.642   2.587
 5418TIP3    H216198   2.453   6.704   2.449
 5419TIP3   OH216199   4.081   6.889   2.229
 5419TIP3    H116200   4.026   6.964   2.204
 5419TIP3    H216201   4.030   6.813   2.202
 5420TIP3   OH216202   3.301   6.757   1.812
 5420TIP3    H116203   3.281   6.701   1.887
 5420TIP3    H216204   3.396   6.746   1.799
 5421TIP3   OH216205   3.836   6.752   1.805
 5421TIP3    H116206   3.882   6.752   1.721
 5421TIP3    H216207   3.745   6.731   1.784
 5422TIP3   OH216208   3.956   6.755   1.552
 5422TIP3    H116209   4.026   6.701   1.516
 5422TIP3    H216210   3.987   6.845   1.542
 5423TIP3   OH216211   2.589   6.492   1.862
 5423TIP3    H116212   2.500   6.458   1.871
 5423TIP3    H216213   2.643   6.414   1.853
 5424TIP3   OH216214   2.405   6.402   1.513
 5424TIP3    H116215   2.436   6.451   1.437
 5424TIP3    H216216   2.374   6.469   1.574
 5425TIP3   OH216217   3.060   6.535   1.754
 5425TIP3    H116218   3.108   6.580   1.685
 5425TIP3    H216219   3.104   6.561   1.835
 5426TIP3   OH216220   3.567   6.680   1.743
 5426TIP3    H116221   3.577   6.650   1.653
 5426TIP3    H216222   3.568   6.600   1.796
 5427TIP3   OH216223   3.608   6.627   1.322
 5427TIP3    H116224   3.525   6.674   1.335
 5427TIP3    H216225   3.592   6.540   1.358
 5428TIP3   OH216226   2.523   6.527   1.281
 5428TIP3    H116227   2.569   6.466   1.223
 5428TIP3    H216228   2.593   6.584   1.315
 5429TIP3   OH216229   3.008   6.729   1.381
 5429TIP3    H116230   3.068   6.675   1.433
 5429TIP3    H216231   3.024   6.818   1.412
 5430TIP3   OH216232   2.825   6.774   2.746
 5430TIP3    H116233   2.788   6.710   2.808
 5430TIP3    H216234   2.917   6.781   2.771
 5431TIP3   OH216235   3.070   6.779   2.872
 5431TIP3    H116236   3.149   6.757   2.822
 5431TIP3    H216237   3.064   6.710   2.938
 5432TIP3   OH216238   3.883   6.863   2.649
 5432TIP3    H116239   3.898   6.841   2.741
 5432TIP3    H216240   3.969   6.850   2.607
 5433TIP3   OH216241   4.942   7.823   0.938
 5433TIP3    H116242   4.977   7.904   0.901
 5433TIP3    H216243   4.862   7.807   0.888
 5434TIP3   OH216244   5.010   7.774   1.359
 5434TIP3    H116245   5.091   7.774   1.411
 5434TIP3    H216246   4.981   7.683   1.360
 5435TIP3   OH216247   4.373   7.650   1.676
 5435TIP3    H116248   4.406   7.593   1.745
 5435TIP3    H216249   4.451   7.690   1.639
 5436TIP3   OH216250   8.135   0.023   0.914
 5436TIP3    H116251   8.217  -0.008   0.953
 5436TIP3    H216252   8.158   0.106   0.872
 5437TIP3   OH216253   4.428   8.006   1.464
 5437TIP3    H116254   4.376   7.935   1.427
 5437TIP3    H216255   4.486   8.033   1.393
 5438TIP3   OH216256   4.043   7.265   1.246
 5438TIP3    H116257   4.021   7.358   1.239
 5438TIP3    H216258   3.975   7.221   1.194
 5439TIP3   OH216259   4.116   7.576   1.359
 5439TIP3    H116260   4.170   7.503   1.389
 5439TIP3    H216261   4.178   7.645   1.337
 5440TIP3   OH216262   7.735   0.015   1.353
 5440TIP3    H116263   7.766  -0.074   1.336
 5440TIP3    H216264   7.812   0.063   1.382
 5441TIP3   OH216265   5.890   7.334   1.422
 5441TIP3    H116266   5.910   7.413   1.473
 5441TIP3    H216267   5.913   7.358   1.332
 5442TIP3   OH216268   5.316   7.477   1.404
 5442TIP3    H116269   5.401   7.434   1.417
 5442TIP3    H216270   5.267   7.418   1.347
 5443TIP3   OH216271   4.637   7.144   1.343
 5443TIP3    H116272   4.605   7.216   1.289
 5443TIP3    H216273   4.584   7.069   1.317
 5444TIP3   OH216274   5.366   7.265   0.938
 5444TIP3    H116275   5.438   7.269   1.000
 5444TIP3    H216276   5.357   7.354   0.904
 5445TIP3   OH216277   4.269   7.373   1.461
 5445TIP3    H116278   4.354   7.353   1.502
 5445TIP3    H216279   4.263   7.311   1.388
 5446TIP3   OH216280   4.704   7.561   1.314
 5446TIP3    H116281   4.790   7.533   1.346
 5446TIP3    H216282   4.655   7.480   1.301
 5447TIP3   OH216283   5.974   7.553   1.563
 5447TIP3    H116284   5.884   7.583   1.573
 5447TIP3    H216285   6.018   7.580   1.644
 5448TIP3   OH216286   4.629   7.157   1.778
 5448TIP3    H116287   4.580   7.196   1.706
 5448TIP3    H216288   4.574   7.172   1.855
 5449TIP3   OH216289   7.711   0.031   0.774
 5449TIP3    H116290   7.638  -0.028   0.754
 5449TIP3    H216291   7.698   0.054   0.866
 5450TIP3   OH216292   4.746   7.931   1.559
 5450TIP3    H116293   4.688   7.996   1.598
 5450TIP3    H216294   4.794   7.979   1.491
 5451TIP3   OH216295   5.557   7.334   1.373
 5451TIP3    H116296   5.556   7.277   1.297
 5451TIP3    H216297   5.623   7.401   1.353
 5452TIP3   OH216298   4.514   7.269   1.553
 5452TIP3    H116299   4.569   7.345   1.574
 5452TIP3    H216300   4.562   7.223   1.484
 5453TIP3   OH216301   7.408   0.104   1.666
 5453TIP3    H116302   7.352   0.076   1.593
 5453TIP3    H216303   7.348   0.122   1.738
 5454TIP3   OH216304   4.026   7.780   1.041
 5454TIP3    H116305   3.988   7.728   0.970
 5454TIP3    H216306   3.999   7.870   1.022
 5455TIP3   OH216307   5.711   7.195   1.568
 5455TIP3    H116308   5.622   7.214   1.538
 5455TIP3    H216309   5.768   7.236   1.504
 5456TIP3   OH216310   4.964   6.845   1.544
 5456TIP3    H116311   4.959   6.751   1.561
 5456TIP3    H216312   4.882   6.880   1.580
 5457TIP3   OH216313   8.403   0.250   1.524
 5457TIP3    H116314   8.334   0.222   1.464
 5457TIP3    H216315   8.429   0.336   1.491
 5458TIP3   OH216316   4.888   7.590   0.727
 5458TIP3    H116317   4.817   7.652   0.744
 5458TIP3    H216318   4.926   7.619   0.644
 5459TIP3   OH216319   5.802   7.898   1.379
 5459TIP3    H116320   5.711   7.925   1.376
 5459TIP3    H216321   5.837   7.920   1.292
 5460TIP3   OH216322   5.273   7.718   0.615
 5460TIP3    H116323   5.207   7.784   0.638
 5460TIP3    H216324   5.263   7.650   0.681
 5461TIP3   OH216325   5.469   7.741   1.655
 5461TIP3    H116326   5.471   7.819   1.711
 5461TIP3    H216327   5.385   7.747   1.609
 5462TIP3   OH216328   4.477   7.657   1.167
 5462TIP3    H116329   4.433   7.593   1.110
 5462TIP3    H216330   4.551   7.609   1.204
 5463TIP3   OH216331   7.470   0.086   1.306
 5463TIP3    H116332   7.454   0.175   1.275
 5463TIP3    H216333   7.565   0.082   1.320
 5464TIP3   OH216334   4.590   7.711   1.514
 5464TIP3    H116335   4.632   7.672   1.437
 5464TIP3    H216336   4.640   7.791   1.530
 5465TIP3   OH216337   7.650   0.168   1.787
 5465TIP3    H116338   7.633   0.261   1.804
 5465TIP3    H216339   7.571   0.136   1.744
 5466TIP3   OH216340   4.529   7.767   1.946
 5466TIP3    H116341   4.538   7.858   1.976
 5466TIP3    H216342   4.435   7.753   1.939
 5467TIP3   OH216343   4.361   7.511   0.968
 5467TIP3    H116344   4.316   7.587   0.931
 5467TIP3    H216345   4.410   7.475   0.894
 5468TIP3   OH216346   4.174   7.952   1.841
 5468TIP3    H116347   4.098   7.935   1.785
 5468TIP3    H216348   4.207   7.865   1.863
 5469TIP3   OH216349   5.735   7.696   1.839
 5469TIP3    H116350   5.677   7.705   1.764
 5469TIP3    H216351   5.757   7.602   1.841
 5470TIP3   OH216352   7.221   0.117   1.859
 5470TIP3    H116353   7.261   0.081   1.938
 5470TIP3    H216354   7.140   0.067   1.847
 5471TIP3   OH216355   4.725   6.937   1.640
 5471TIP3    H116356   4.641   6.906   1.606
 5471TIP3    H216357   4.704   7.020   1.683
 5472TIP3   OH216358   5.282   7.053   1.822
 5472TIP3    H116359   5.358   7.023   1.872
 5472TIP3    H216360   5.207   7.031   1.877
 5473TIP3   OH216361   5.495   7.483   1.744
 5473TIP3    H116362   5.456   7.480   1.832
 5473TIP3    H216363   5.475   7.571   1.712
 5474TIP3   OH216364   4.823   6.988   0.613
 5474TIP3    H116365   4.818   6.991   0.709
 5474TIP3    H216366   4.794   6.900   0.590
 5475TIP3   OH216367   4.667   7.480   1.644
 5475TIP3    H116368   4.620   7.481   1.728
 5475TIP3    H216369   4.647   7.564   1.604
 5476TIP3   OH216370   4.527   7.371   1.233
 5476TIP3    H116371   4.440   7.337   1.252
 5476TIP3    H216372   4.542   7.350   1.141
 5477TIP3   OH216373   5.259   7.479   0.780
 5477TIP3    H116374   5.188   7.501   0.840
 5477TIP3    H216375   5.235   7.394   0.745
 5478TIP3   OH216376   5.226   7.689   1.960
 5478TIP3    H116377   5.201   7.622   2.023
 5478TIP3    H216378   5.318   7.707   1.980
 5479TIP3   OH216379   5.125   7.448   1.167
 5479TIP3    H116380   5.093   7.470   1.080
 5479TIP3    H216381   5.159   7.358   1.159
 5480TIP3   OH216382   4.504   7.482   1.865
 5480TIP3    H116383   4.517   7.549   1.932
 5480TIP3    H216384   4.488   7.402   1.913
 5481TIP3   OH216385   4.430   6.932   0.644
 5481TIP3    H116386   4.498   6.972   0.699
 5481TIP3    H216387   4.377   7.006   0.615
 5482TIP3   OH216388   4.071   6.987   1.485
 5482TIP3    H116389   4.150   7.032   1.515
 5482TIP3    H216390   4.090   6.964   1.394
 5483TIP3   OH216391   4.073   7.036   1.027
 5483TIP3    H116392   4.064   7.013   0.934
 5483TIP3    H216393   3.998   7.094   1.043
 5484TIP3   OH216394   5.208   7.685   1.544
 5484TIP3    H116395   5.247   7.619   1.487
 5484TIP3    H216396   5.177   7.636   1.620
 5485TIP3   OH216397   4.895   7.229   1.285
 5485TIP3    H116398   4.812   7.195   1.319
 5485TIP3    H216399   4.961   7.171   1.323
 5486TIP3   OH216400   4.309   7.210   1.244
 5486TIP3    H116401   4.215   7.208   1.226
 5486TIP3    H216402   4.336   7.118   1.241
 5487TIP3   OH216403   4.561   7.267   0.988
 5487TIP3    H116404   4.656   7.269   0.994
 5487TIP3    H216405   4.541   7.323   0.913
 5488TIP3   OH216406   5.359   7.123   1.468
 5488TIP3    H116407   5.334   7.180   1.541
 5488TIP3    H216408   5.340   7.174   1.390
 5489TIP3   OH216409   4.432   7.329   0.752
 5489TIP3    H116410   4.369   7.257   0.751
 5489TIP3    H216411   4.470   7.328   0.664
 5490TIP3   OH216412   7.351  -0.000   2.074
 5490TIP3    H116413   7.426   0.025   2.129
 5490TIP3    H216414   7.276   0.001   2.134
 5491TIP3   OH216415   4.960   7.507   1.376
 5491TIP3    H116416   5.016   7.467   1.310
 5491TIP3    H216417   4.964   7.446   1.450
 5492TIP3   OH216418   4.445   6.968   1.252
 5492TIP3    H116419   4.410   6.891   1.296
 5492TIP3    H216420   4.471   6.937   1.165
 5493TIP3   OH216421   4.929   7.393   1.626
 5493TIP3    H116422   4.845   7.437   1.635
 5493TIP3    H216423   4.992   7.452   1.669
 5494TIP3   OH216424   4.723   7.806   0.769
 5494TIP3    H116425   4.689   7.826   0.681
 5494TIP3    H216426   4.644   7.802   0.824
 5495TIP3   OH216427   5.549   7.975   1.314
 5495TIP3    H116428   5.564   8.046   1.252
 5495TIP3    H216429   5.461   7.990   1.347
 5496TIP3   OH216430   7.923   0.106   1.740
 5496TIP3    H116431   7.958   0.087   1.827
 5496TIP3    H216432   7.831   0.127   1.755
 5497TIP3   OH216433   4.335   7.752   1.377
 5497TIP3    H116434   4.379   7.730   1.295
 5497TIP3    H216435   4.396   7.726   1.445
 5498TIP3   OH216436   4.257   7.712   1.970
 5498TIP3    H116437   4.261   7.677   2.059
 5498TIP3    H216438   4.178   7.673   1.932
 5499TIP3   OH216439   4.990   7.829   2.004
 5499TIP3    H116440   4.922   7.769   1.974
 5499TIP3    H216441   5.072   7.791   1.972
 5500TIP3   OH216442   0.195   0.249   1.620
 5500TIP3    H116443   0.122   0.294   1.662
 5500TIP3    H216444   0.236   0.316   1.565
 5501TIP3   OH216445   5.279   7.903   1.329
 5501TIP3    H116446   5.222   7.947   1.266
 5501TIP3    H216447   5.284   7.813   1.298
 5502TIP3   OH216448   4.087   7.403   0.635
 5502TIP3    H116449   4.166   7.458   0.629
 5502TIP3    H216450   4.045   7.432   0.716
 5503TIP3   OH216451   4.533   7.829   0.959
 5503TIP3    H116452   4.600   7.869   1.014
 5503TIP3    H216453   4.492   7.763   1.015
 5504TIP3   OH216454   7.974   0.085   1.471
 5504TIP3    H116455   7.954   0.088   1.564
 5504TIP3    H216456   8.025   0.005   1.459
 5505TIP3   OH216457   4.463   7.226   1.989
 5505TIP3    H116458   4.368   7.220   1.997
 5505TIP3    H216459   4.497   7.184   2.068
 5506TIP3   OH216460   4.239   7.731   0.866
 5506TIP3    H116461   4.180   7.753   0.938
 5506TIP3    H216462   4.246   7.812   0.815
 5507TIP3   OH216463   5.302   7.291   1.685
 5507TIP3    H116464   5.383   7.338   1.708
 5507TIP3    H216465   5.301   7.216   1.745
 5508TIP3   OH216466   5.127   7.148   0.961
 5508TIP3    H116467   5.073   7.194   0.896
 5508TIP3    H216468   5.215   7.181   0.947
 5509TIP3   OH216469   4.827   7.267   1.027
 5509TIP3    H116470   4.899   7.303   0.975
 5509TIP3    H216471   4.861   7.263   1.116
 5510TIP3   OH216472   5.142   7.519   1.749
 5510TIP3    H116473   5.176   7.562   1.827
 5510TIP3    H216474   5.195   7.440   1.740
 5511TIP3   OH216475   5.009   6.956   1.109
 5511TIP3    H116476   5.029   6.989   1.197
 5511TIP3    H216477   5.053   7.017   1.050
 5512TIP3   OH216478   4.502   6.888   1.001
 5512TIP3    H116479   4.452   6.963   0.967
 5512TIP3    H216480   4.561   6.864   0.929
 5513TIP3   OH216481   5.756   7.418   1.738
 5513TIP3    H116482   5.664   7.442   1.743
 5513TIP3    H216483   5.758   7.339   1.685
 5514TIP3   OH216484   5.486   7.469   1.086
 5514TIP3    H116485   5.432   7.546   1.106
 5514TIP3    H216486   5.564   7.480   1.139
 5515TIP3   OH216487   4.165   7.830   0.583
 5515TIP3    H116488   4.257   7.841   0.560
 5515TIP3    H216489   4.121   7.812   0.499
 5516TIP3   OH216490   4.088   7.144   0.766
 5516TIP3    H116491   4.125   7.199   0.836
 5516TIP3    H216492   4.003   7.184   0.748
 5517TIP3   OH216493   4.466   6.853   1.596
 5517TIP3    H116494   4.433   6.820   1.512
 5517TIP3    H216495   4.457   6.778   1.655
 5518TIP3   OH216496   4.300   8.001   2.240
 5518TIP3    H116497   4.313   7.907   2.250
 5518TIP3    H216498   4.214   8.008   2.198
 5519TIP3   OH216499   7.730   0.073   2.035
 5519TIP3    H116500   7.703   0.098   1.946
 5519TIP3    H216501   7.773  -0.011   2.024
 5520TIP3   OH216502   8.212   0.117   1.686
 5520TIP3    H116503   8.267   0.178   1.638
 5520TIP3    H216504   8.124   0.154   1.680
 5521TIP3   OH216505   4.433   7.751   2.245
 5521TIP3    H116506   4.509   7.746   2.187
 5521TIP3    H216507   4.468   7.783   2.328
 5522TIP3   OH216508   4.564   7.606   0.602
 5522TIP3    H116509   4.586   7.577   0.691
 5522TIP3    H216510   4.630   7.563   0.547
 5523TIP3   OH216511   4.785   7.662   1.901
 5523TIP3    H116512   4.700   7.704   1.907
 5523TIP3    H216513   4.819   7.689   1.816
 5524TIP3   OH216514   8.096   0.039   1.997
 5524TIP3    H116515   8.169   0.011   1.941
 5524TIP3    H216516   8.100  -0.019   2.073
 5525TIP3   OH216517   4.885   7.434   2.017
 5525TIP3    H116518   4.886   7.359   1.957
 5525TIP3    H216519   4.851   7.506   1.963
 5526TIP3   OH216520   4.892   7.215   1.832
 5526TIP3    H116521   4.920   7.262   1.754
 5526TIP3    H216522   4.801   7.193   1.816
 5527TIP3   OH216523   4.908   7.746   1.674
 5527TIP3    H116524   4.995   7.756   1.637
 5527TIP3    H216525   4.856   7.814   1.632
 5528TIP3   OH216526   5.492   7.719   2.054
 5528TIP3    H116527   5.523   7.629   2.063
 5528TIP3    H216528   5.563   7.765   2.009
 5529TIP3   OH216529   5.524   7.960   1.827
 5529TIP3    H116530   5.468   8.021   1.779
 5529TIP3    H216531   5.611   7.974   1.790
 5530TIP3   OH216532   4.768   7.539   2.251
 5530TIP3    H116533   4.703   7.474   2.275
 5530TIP3    H216534   4.798   7.512   2.164
 5531TIP3   OH216535   5.022   6.980   1.911
 5531TIP3    H116536   4.987   7.066   1.886
 5531TIP3    H216537   4.948   6.920   1.903
 5532TIP3   OH216538   5.141   7.479   2.114
 5532TIP3    H116539   5.131   7.469   2.209
 5532TIP3    H216540   5.055   7.457   2.079
 5533TIP3   OH216541   5.390   7.438   1.989
 5533TIP3    H116542   5.311   7.434   2.043
 5533TIP3    H216543   5.460   7.405   2.045
 5534TIP3   OH216544   5.626   7.393   2.134
 5534TIP3    H116545   5.634   7.298   2.139
 5534TIP3    H216546   5.620   7.422   2.225
 5535TIP3   OH216547   4.621   7.312   2.319
 5535TIP3    H116548   4.640   7.228   2.277
 5535TIP3    H216549   4.653   7.302   2.408
 5536TIP3   OH216550   5.079   6.987   2.183
 5536TIP3    H116551   5.136   6.912   2.200
 5536TIP3    H216552   5.062   6.984   2.089
 5537TIP3   OH216553   5.171   7.208   2.319
 5537TIP3    H116554   5.141   7.135   2.265
 5537TIP3    H216555   5.097   7.270   2.319
 5538TIP3   OH216556   3.915   7.818   0.449
 5538TIP3    H116557   3.827   7.842   0.476
 5538TIP3    H216558   3.908   7.726   0.422
 5539TIP3   OH216559   0.093   0.393   1.864
 5539TIP3    H116560   0.025   0.382   1.931
 5539TIP3    H216561   0.114   0.486   1.867
 5540TIP3   OH216562   8.447   0.140   1.117
 5540TIP3    H116563   8.505   0.150   1.042
 5540TIP3    H216564   8.369   0.191   1.095
 5541TIP3   OH216565   5.476   7.687   0.864
 5541TIP3    H116566   5.562   7.645   0.871
 5541TIP3    H216567   5.482   7.763   0.921
 5542TIP3   OH216568   4.112   7.684   1.610
 5542TIP3    H116569   4.102   7.649   1.522
 5542TIP3    H216570   4.206   7.682   1.627
 5543TIP3   OH216571   0.101   0.010   1.721
 5543TIP3    H116572   0.170  -0.055   1.710
 5543TIP3    H216573   0.128   0.083   1.665
 5544TIP3   OH216574   5.955   7.825   1.724
 5544TIP3    H116575   5.881   7.777   1.762
 5544TIP3    H216576   6.032   7.776   1.753
 5545TIP3   OH216577   5.504   7.235   0.577
 5545TIP3    H116578   5.463   7.200   0.657
 5545TIP3    H216579   5.493   7.329   0.584
 5546TIP3   OH216580   5.710   7.518   1.240
 5546TIP3    H116581   5.787   7.559   1.200
 5546TIP3    H216582   5.663   7.591   1.280
 5547TIP3   OH216583   5.732   7.681   1.542
 5547TIP3    H116584   5.637   7.676   1.542
 5547TIP3    H216585   5.752   7.753   1.482
 5548TIP3   OH216586   4.365   7.376   2.247
 5548TIP3    H116587   4.456   7.364   2.273
 5548TIP3    H216588   4.321   7.295   2.276
 5549TIP3   OH216589   6.175   7.246   2.027
 5549TIP3    H116590   6.245   7.196   1.986
 5549TIP3    H216591   6.135   7.296   1.956
 5550TIP3   OH216592   5.591   7.097   0.819
 5550TIP3    H116593   5.642   7.043   0.879
 5550TIP3    H216594   5.517   7.041   0.794
 5551TIP3   OH216595   4.308   7.081   1.602
 5551TIP3    H116596   4.361   7.002   1.605
 5551TIP3    H216597   4.371   7.151   1.586
 5552TIP3   OH216598   4.093   7.349   1.677
 5552TIP3    H116599   4.144   7.338   1.596
 5552TIP3    H216600   4.115   7.438   1.706
 5553TIP3   OH216601   6.029   7.370   1.835
 5553TIP3    H116602   5.956   7.412   1.879
 5553TIP3    H216603   5.988   7.303   1.780
 5554TIP3   OH216604   4.069   6.856   1.230
 5554TIP3    H116605   3.976   6.833   1.229
 5554TIP3    H216606   4.079   6.919   1.158
 5555TIP3   OH216607   4.283   6.875   2.022
 5555TIP3    H116608   4.225   6.881   2.098
 5555TIP3    H216609   4.249   6.941   1.961
 5556TIP3   OH216610   5.920   7.121   1.733
 5556TIP3    H116611   5.837   7.129   1.686
 5556TIP3    H216612   5.945   7.029   1.722
 5557TIP3   OH216613   5.063   7.031   1.367
 5557TIP3    H116614   5.034   6.978   1.441
 5557TIP3    H216615   5.156   7.009   1.357
 5558TIP3   OH216616   5.571   6.948   1.376
 5558TIP3    H116617   5.608   7.031   1.348
 5558TIP3    H216618   5.586   6.888   1.303
 5559TIP3   OH216619   5.745   6.973   1.005
 5559TIP3    H116620   5.807   6.900   0.999
 5559TIP3    H216621   5.797   7.046   1.038
 5560TIP3   OH216622   4.365   6.737   1.371
 5560TIP3    H116623   4.276   6.703   1.376
 5560TIP3    H216624   4.420   6.660   1.357
 5561TIP3   OH216625   4.170   6.645   1.068
 5561TIP3    H116626   4.189   6.689   0.985
 5561TIP3    H216627   4.139   6.715   1.125
 5562TIP3   OH216628   4.850   6.802   1.273
 5562TIP3    H116629   4.877   6.865   1.206
 5562TIP3    H216630   4.882   6.840   1.355
 5563TIP3   OH216631   5.293   6.903   1.278
 5563TIP3    H116632   5.336   6.939   1.200
 5563TIP3    H216633   5.268   6.814   1.253
 5564TIP3   OH216634   5.510   6.806   0.815
 5564TIP3    H116635   5.435   6.831   0.762
 5564TIP3    H216636   5.473   6.755   0.887
 5565TIP3   OH216637   4.249   6.777   0.828
 5565TIP3    H116638   4.309   6.715   0.785
 5565TIP3    H216639   4.306   6.848   0.858
 5566TIP3   OH216640   4.837   7.026   0.885
 5566TIP3    H116641   4.873   6.950   0.931
 5566TIP3    H216642   4.844   7.098   0.948
 5567TIP3   OH216643   4.615   7.045   2.212
 5567TIP3    H116644   4.571   6.998   2.283
 5567TIP3    H216645   4.707   7.046   2.237
 5568TIP3   OH216646   4.854   7.046   2.341
 5568TIP3    H116647   4.936   7.025   2.295
 5568TIP3    H216648   4.852   6.985   2.415
 5569TIP3   OH216649   5.676   7.120   2.144
 5569TIP3    H116650   5.696   7.094   2.234
 5569TIP3    H216651   5.760   7.112   2.098
 5570TIP3   OH216652   6.169   7.907   1.084
 5570TIP3    H116653   6.226   7.943   1.152
 5570TIP3    H216654   6.172   7.972   1.014
 5571TIP3   OH216655   6.056   7.662   0.886
 5571TIP3    H116656   6.129   7.600   0.885
 5571TIP3    H216657   6.003   7.637   0.811
 5572TIP3   OH216658   6.352   7.439   1.269
 5572TIP3    H116659   6.312   7.514   1.225
 5572TIP3    H216660   6.331   7.451   1.361
 5573TIP3   OH216661   6.261   7.471   0.968
 5573TIP3    H116662   6.240   7.532   1.039
 5573TIP3    H216663   6.341   7.507   0.929
 5574TIP3   OH216664   6.784   7.204   1.005
 5574TIP3    H116665   6.762   7.156   0.925
 5574TIP3    H216666   6.701   7.215   1.051
 5575TIP3   OH216667   0.705   0.103   1.555
 5575TIP3    H116668   0.616   0.115   1.521
 5575TIP3    H216669   0.742   0.033   1.501
 5576TIP3   OH216670   0.380   0.181   1.333
 5576TIP3    H116671   0.292   0.189   1.297
 5576TIP3    H216672   0.370   0.122   1.408
 5577TIP3   OH216673   6.540   7.266   1.145
 5577TIP3    H116674   6.491   7.184   1.133
 5577TIP3    H216675   6.480   7.324   1.190
 5578TIP3   OH216676   7.112   7.288   1.326
 5578TIP3    H116677   7.179   7.322   1.386
 5578TIP3    H216678   7.030   7.328   1.356
 5579TIP3   OH216679   6.492   7.731   1.206
 5579TIP3    H116680   6.430   7.724   1.279
 5579TIP3    H216681   6.479   7.819   1.171
 5580TIP3   OH216682   6.328   7.728   1.429
 5580TIP3    H116683   6.293   7.814   1.408
 5580TIP3    H216684   6.257   7.683   1.474
 5581TIP3   OH216685   5.888   7.370   0.907
 5581TIP3    H116686   5.926   7.285   0.887
 5581TIP3    H216687   5.795   7.361   0.884
 5582TIP3   OH216688   6.023   7.992   1.513
 5582TIP3    H116689   6.030   7.944   1.596
 5582TIP3    H216690   5.934   7.973   1.482
 5583TIP3   OH216691   6.249   7.450   1.521
 5583TIP3    H116692   6.156   7.457   1.546
 5583TIP3    H216693   6.288   7.397   1.590
 5584TIP3   OH216694   6.396   7.048   1.089
 5584TIP3    H116695   6.346   7.023   1.012
 5584TIP3    H216696   6.345   7.016   1.163
 5585TIP3   OH216697   0.439   0.226   1.746
 5585TIP3    H116698   0.462   0.133   1.742
 5585TIP3    H216699   0.354   0.232   1.704
 5586TIP3   OH216700   0.567  -0.022   1.762
 5586TIP3    H116701   0.635   0.002   1.699
 5586TIP3    H216702   0.592   0.023   1.843
 5587TIP3   OH216703   6.750   7.690   1.632
 5587TIP3    H116704   6.799   7.731   1.561
 5587TIP3    H216705   6.686   7.634   1.587
 5588TIP3   OH216706   6.684   7.528   1.209
 5588TIP3    H116707   6.726   7.524   1.123
 5588TIP3    H216708   6.612   7.590   1.198
 5589TIP3   OH216709   6.542   7.828   1.745
 5589TIP3    H116710   6.479   7.759   1.768
 5589TIP3    H216711   6.621   7.781   1.720
 5590TIP3   OH216712   6.865   7.398   1.386
 5590TIP3    H116713   6.813   7.453   1.328
 5590TIP3    H216714   6.834   7.309   1.370
 5591TIP3   OH216715   6.404   7.584   1.807
 5591TIP3    H116716   6.407   7.499   1.762
 5591TIP3    H216717   6.436   7.566   1.895
 5592TIP3   OH216718   7.000   7.274   1.645
 5592TIP3    H116719   7.054   7.198   1.624
 5592TIP3    H216720   6.910   7.244   1.632
 5593TIP3   OH216721   7.077   7.466   1.819
 5593TIP3    H116722   7.041   7.382   1.790
 5593TIP3    H216723   7.002   7.511   1.858
 5594TIP3   OH216724   5.906   7.956   1.138
 5594TIP3    H116725   5.876   7.955   1.047
 5594TIP3    H216726   6.001   7.946   1.133
 5595TIP3   OH216727   6.133   7.622   1.778
 5595TIP3    H116728   6.228   7.625   1.789
 5595TIP3    H216729   6.108   7.538   1.817
 5596TIP3   OH216730   6.158   7.236   1.040
 5596TIP3    H116731   6.197   7.191   1.115
 5596TIP3    H216732   6.219   7.307   1.020
 5597TIP3   OH216733   5.908   7.663   1.118
 5597TIP3    H116734   5.967   7.677   1.043
 5597TIP3    H216735   5.946   7.715   1.188
 5598TIP3   OH216736   6.083   7.168   1.515
 5598TIP3    H116737   6.039   7.147   1.597
 5598TIP3    H216738   6.019   7.220   1.466
 5599TIP3   OH216739   6.243   6.970   0.885
 5599TIP3    H116740   6.170   6.910   0.874
 5599TIP3    H216741   6.251   7.015   0.801
 5600TIP3   OH216742   6.388   7.304   1.724
 5600TIP3    H116743   6.356   7.242   1.790
 5600TIP3    H216744   6.482   7.310   1.742
 5601TIP3   OH216745   6.634   7.299   1.849
 5601TIP3    H116746   6.701   7.270   1.787
 5601TIP3    H216747   6.632   7.230   1.916
 5602TIP3   OH216748   1.873   0.521   5.758
 5602TIP3    H116749   1.876   0.455   5.828
 5602TIP3    H216750   1.890   0.604   5.803
 5603TIP3   OH216751   1.516   0.925   5.789
 5603TIP3    H116752   1.551   0.863   5.725
 5603TIP3    H216753   1.530   0.884   5.874
 5604TIP3   OH216754   8.088   7.958   6.349
 5604TIP3    H116755   8.008   7.980   6.300
 5604TIP3    H216756   8.127   8.043   6.369
 5605TIP3   OH216757   1.509   0.449   5.514
 5605TIP3    H116758   1.453   0.379   5.547
 5605TIP3    H216759   1.454   0.528   5.516
 5606TIP3   OH216760   1.894   0.776   5.888
 5606TIP3    H116761   1.803   0.765   5.917
 5606TIP3    H216762   1.894   0.860   5.842
 5607TIP3   OH216763   1.613   0.786   5.570
 5607TIP3    H116764   1.668   0.709   5.556
 5607TIP3    H216765   1.666   0.859   5.539
 5608TIP3   OH216766   1.764   0.568   5.506
 5608TIP3    H116767   1.692   0.506   5.499
 5608TIP3    H216768   1.812   0.540   5.585
 5609TIP3   OH216769   2.132   0.655   6.257
 5609TIP3    H116770   2.125   0.580   6.199
 5609TIP3    H216771   2.114   0.731   6.201
 5610TIP3   OH216772   2.327   0.288   6.101
 5610TIP3    H116773   2.249   0.344   6.103
 5610TIP3    H216774   2.371   0.312   6.019
 5611TIP3   OH216775   1.816   0.164   5.511
 5611TIP3    H116776   1.747   0.181   5.576
 5611TIP3    H216777   1.888   0.128   5.562
 5612TIP3   OH216778   1.646   0.750   6.003
 5612TIP3    H116779   1.638   0.826   6.061
 5612TIP3    H216780   1.660   0.676   6.061
 5613TIP3   OH216781   1.357   0.685   5.534
 5613TIP3    H116782   1.440   0.721   5.565
 5613TIP3    H216783   1.306   0.762   5.507
 5614TIP3   OH216784   1.946   0.601   4.932
 5614TIP3    H116785   1.940   0.692   4.906
 5614TIP3    H216786   2.036   0.575   4.911
 5615TIP3   OH216787   2.371   1.029   6.303
 5615TIP3    H116788   2.378   0.934   6.309
 5615TIP3    H216789   2.284   1.049   6.338
 5616TIP3   OH216790   1.467   0.800   6.394
 5616TIP3    H116791   1.462   0.892   6.422
 5616TIP3    H216792   1.416   0.753   6.460
 5617TIP3   OH216793   1.242   0.903   5.398
 5617TIP3    H116794   1.197   0.886   5.315
 5617TIP3    H216795   1.208   0.987   5.427
 5618TIP3   OH216796   1.442   0.825   5.030
 5618TIP3    H116797   1.489   0.750   4.994
 5618TIP3    H216798   1.477   0.837   5.118
 5619TIP3   OH216799   1.499   0.874   5.297
 5619TIP3    H116800   1.413   0.876   5.338
 5619TIP3    H216801   1.556   0.832   5.362
 5620TIP3   OH216802   2.241   0.138   6.603
 5620TIP3    H116803   2.173   0.205   6.593
 5620TIP3    H216804   2.195   0.055   6.590
 5621TIP3   OH216805   7.413   7.955   5.088
 5621TIP3    H116806   7.356   7.951   5.012
 5621TIP3    H216807   7.455   8.041   5.082
 5622TIP3   OH216808   2.053   1.353   6.383
 5622TIP3    H116809   2.055   1.366   6.288
 5622TIP3    H216810   2.135   1.392   6.414
 5623TIP3   OH216811   2.100   0.449   6.080
 5623TIP3    H116812   2.140   0.495   6.007
 5623TIP3    H216813   2.020   0.411   6.044
 5624TIP3   OH216814   1.383   0.397   5.178
 5624TIP3    H116815   1.331   0.459   5.229
 5624TIP3    H216816   1.366   0.312   5.219
 5625TIP3   OH216817   1.748   0.782   6.397
 5625TIP3    H116818   1.653   0.790   6.389
 5625TIP3    H216819   1.768   0.818   6.484
 5626TIP3   OH216820   7.871   7.871   5.205
 5626TIP3    H116821   7.793   7.822   5.178
 5626TIP3    H216822   7.852   7.962   5.180
 5627TIP3   OH216823   2.380   0.755   6.327
 5627TIP3    H116824   2.289   0.728   6.337
 5627TIP3    H216825   2.405   0.722   6.240
 5628TIP3   OH216826   1.869   0.675   5.204
 5628TIP3    H116827   1.844   0.610   5.270
 5628TIP3    H216828   1.886   0.624   5.125
 5629TIP3   OH216829   1.872   0.335   5.971
 5629TIP3    H116830   1.793   0.347   6.024
 5629TIP3    H216831   1.880   0.240   5.962
 5630TIP3   OH216832   1.264   0.913   6.215
 5630TIP3    H116833   1.314   0.974   6.161
 5630TIP3    H216834   1.330   0.863   6.263
 5631TIP3   OH216835   1.711   0.545   6.190
 5631TIP3    H116836   1.645   0.565   6.256
 5631TIP3    H216837   1.792   0.536   6.240
 5632TIP3   OH216838   1.646   0.425   5.098
 5632TIP3    H116839   1.704   0.385   5.163
 5632TIP3    H216840   1.559   0.421   5.138
 5633TIP3   OH216841   1.878   1.037   6.247
 5633TIP3    H116842   1.802   0.979   6.249
 5633TIP3    H216843   1.865   1.092   6.170
 5634TIP3   OH216844   1.935   0.876   4.874
 5634TIP3    H116845   1.925   0.921   4.790
 5634TIP3    H216846   1.866   0.913   4.929
 5635TIP3   OH216847   1.818   0.312   5.274
 5635TIP3    H116848   1.806   0.258   5.353
 5635TIP3    H216849   1.913   0.320   5.266
 5636TIP3   OH216850   1.208   0.576   5.292
 5636TIP3    H116851   1.208   0.589   5.387
 5636TIP3    H216852   1.196   0.664   5.255
 5637TIP3   OH216853   1.911   1.038   5.790
 5637TIP3    H116854   1.871   1.094   5.723
 5637TIP3    H216855   2.005   1.057   5.784
 5638TIP3   OH216856   1.125   0.568   5.010
 5638TIP3    H116857   1.166   0.532   5.089
 5638TIP3    H216858   1.180   0.535   4.939
 5639TIP3   OH216859   1.814   0.876   6.650
 5639TIP3    H116860   1.825   0.840   6.738
 5639TIP3    H216861   1.886   0.937   6.640
 5640TIP3   OH216862   1.576   0.618   4.913
 5640TIP3    H116863   1.624   0.562   4.974
 5640TIP3    H216864   1.629   0.618   4.833
 5641TIP3   OH216865   1.915   0.557   6.396
 5641TIP3    H116866   1.997   0.592   6.362
 5641TIP3    H216867   1.861   0.635   6.410
 5642TIP3   OH216868   1.907   0.129   4.950
 5642TIP3    H116869   1.894   0.079   4.869
 5642TIP3    H216870   1.874   0.217   4.928
 5643TIP3   OH216871   2.075   0.365   6.558
 5643TIP3    H116872   2.002   0.412   6.519
 5643TIP3    H216873   2.153   0.403   6.519
 5644TIP3   OH216874   0.938   0.911   5.205
 5644TIP3    H116875   1.022   0.873   5.178
 5644TIP3    H216876   0.900   0.945   5.124
 5645TIP3   OH216877   2.174   1.105   5.786
 5645TIP3    H116878   2.204   1.114   5.877
 5645TIP3    H216879   2.255   1.094   5.736
 5646TIP3   OH216880   2.197   1.109   6.070
 5646TIP3    H116881   2.153   1.024   6.076
 5646TIP3    H216882   2.286   1.092   6.099
 5647TIP3   OH216883   2.279   0.793   6.628
 5647TIP3    H116884   2.203   0.808   6.685
 5647TIP3    H216885   2.327   0.876   6.631
 5648TIP3   OH216886   2.095   0.322   5.270
 5648TIP3    H116887   2.153   0.394   5.244
 5648TIP3    H216888   2.127   0.295   5.356
 5649TIP3   OH216889   2.187   0.211   5.506
 5649TIP3    H116890   2.129   0.177   5.574
 5649TIP3    H216891   2.266   0.237   5.553
 5650TIP3   OH216892   2.254   0.568   5.892
 5650TIP3    H116893   2.317   0.501   5.866
 5650TIP3    H216894   2.243   0.622   5.814
 5651TIP3   OH216895   2.054   0.868   6.099
 5651TIP3    H116896   1.985   0.910   6.151
 5651TIP3    H216897   2.008   0.830   6.024
 5652TIP3   OH216898   2.122   0.101   5.112
 5652TIP3    H116899   2.046   0.106   5.054
 5652TIP3    H216900   2.114   0.176   5.170
 5653TIP3   OH216901   7.654   7.809   5.048
 5653TIP3    H116902   7.593   7.874   5.084
 5653TIP3    H216903   7.599   7.748   4.999
 5654TIP3   OH216904   2.022   0.051   5.677
 5654TIP3    H116905   2.043  -0.036   5.645
 5654TIP3    H216906   2.044   0.049   5.771
 5655TIP3   OH216907   2.313   0.452   6.453
 5655TIP3    H116908   2.369   0.375   6.443
 5655TIP3    H216909   2.337   0.509   6.381
 5656TIP3   OH216910   2.453   0.219   6.446
 5656TIP3    H116911   2.387   0.184   6.506
 5656TIP3    H216912   2.535   0.180   6.476
 5657TIP3   OH216913   2.112   0.020   5.944
 5657TIP3    H116914   2.204   0.021   5.916
 5657TIP3    H216915   2.116   0.013   6.039
 5658TIP3   OH216916   2.202   0.079   6.226
 5658TIP3    H116917   2.147   0.132   6.284
 5658TIP3    H216918   2.256   0.143   6.180
 5659TIP3   OH216919   1.741   0.994   5.456
 5659TIP3    H116920   1.799   0.979   5.382
 5659TIP3    H216921   1.778   1.069   5.502
 5660TIP3   OH216922   1.472   1.058   6.479
 5660TIP3    H116923   1.505   1.043   6.568
 5660TIP3    H216924   1.539   1.112   6.437
 5661TIP3   OH216925   1.673   1.214   6.377
 5661TIP3    H116926   1.746   1.161   6.345
 5661TIP3    H216927   1.714   1.281   6.431
 5662TIP3   OH216928   1.384   1.101   6.051
 5662TIP3    H116929   1.319   1.123   5.985
 5662TIP3    H216930   1.400   1.184   6.097
 5663TIP3   OH216931   1.632   1.002   6.110
 5663TIP3    H116932   1.542   1.030   6.094
 5663TIP3    H216933   1.686   1.070   6.069
 5664TIP3   OH216934   1.828   1.176   6.013
 5664TIP3    H116935   1.825   1.265   5.979
 5664TIP3    H216936   1.858   1.123   5.939
 5665TIP3   OH216937   1.184   0.809   5.133
 5665TIP3    H116938   1.267   0.834   5.091
 5665TIP3    H216939   1.147   0.742   5.075
 5666TIP3   OH216940   1.896   0.945   5.231
 5666TIP3    H116941   1.894   0.849   5.229
 5666TIP3    H216942   1.846   0.971   5.154
 5667TIP3   OH216943   2.115   1.084   6.387
 5667TIP3    H116944   2.038   1.050   6.341
 5667TIP3    H216945   2.098   1.178   6.394
 5668TIP3   OH216946   3.375   0.468   5.153
 5668TIP3    H116947   3.348   0.557   5.128
 5668TIP3    H216948   3.303   0.412   5.122
 5669TIP3   OH216949   3.393   0.457   5.581
 5669TIP3    H116950   3.446   0.426   5.654
 5669TIP3    H216951   3.338   0.382   5.558
 5670TIP3   OH216952   3.654   0.772   5.251
 5670TIP3    H116953   3.632   0.712   5.322
 5670TIP3    H216954   3.676   0.855   5.295
 5671TIP3   OH216955   7.991   7.995   5.429
 5671TIP3    H116956   7.941   8.075   5.447
 5671TIP3    H216957   7.938   7.948   5.365
 5672TIP3   OH216958   2.441   0.253   5.613
 5672TIP3    H116959   2.479   0.169   5.637
 5672TIP3    H216960   2.509   0.298   5.563
 5673TIP3   OH216961   3.295   1.214   5.243
 5673TIP3    H116962   3.328   1.137   5.196
 5673TIP3    H216963   3.286   1.184   5.333
 5674TIP3   OH216964   3.215   0.669   5.597
 5674TIP3    H116965   3.262   0.591   5.568
 5674TIP3    H216966   3.284   0.733   5.615
 5675TIP3   OH216967   3.632   0.156   5.636
 5675TIP3    H116968   3.704   0.093   5.632
 5675TIP3    H216969   3.581   0.140   5.557
 5676TIP3   OH216970   0.069   7.828   5.612
 5676TIP3    H116971   0.070   7.896   5.545
 5676TIP3    H216972   0.032   7.751   5.568
 5677TIP3   OH216973   0.727   7.966   5.259
 5677TIP3    H116974   0.803   7.907   5.268
 5677TIP3    H216975   0.720   7.981   5.165
 5678TIP3   OH216976   2.569   0.021   5.686
 5678TIP3    H116977   2.651   0.015   5.734
 5678TIP3    H216978   2.583  -0.030   5.607
 5679TIP3   OH216979   2.981   0.239   5.477
 5679TIP3    H116980   3.072   0.232   5.506
 5679TIP3    H216981   2.952   0.149   5.466
 5680TIP3   OH216982   4.276   0.260   5.767
 5680TIP3    H116983   4.183   0.279   5.756
 5680TIP3    H216984   4.289   0.260   5.862
 5681TIP3   OH216985   3.286   0.689   5.009
 5681TIP3    H116986   3.248   0.657   4.927
 5681TIP3    H216987   3.231   0.764   5.034
 5682TIP3   OH216988   3.057   0.632   5.810
 5682TIP3    H116989   3.100   0.695   5.867
 5682TIP3    H216990   3.102   0.642   5.726
 5683TIP3   OH216991  -0.023   8.000   5.807
 5683TIP3    H116992   0.047   8.061   5.830
 5683TIP3    H216993   0.020   7.934   5.752
 5684TIP3   OH216994   2.834   0.799   5.901
 5684TIP3    H116995   2.827   0.875   5.844
 5684TIP3    H216996   2.763   0.810   5.964
 5685TIP3   OH216997   2.262   0.515   5.156
 5685TIP3    H116998   2.227   0.530   5.068
 5685TIP3    H216999   2.283   0.603   5.188
 5686TIP3   OH217000   3.697   1.017   5.388
 5686TIP3    H117001   3.612   1.009   5.431
 5686TIP3    H217002   3.694   1.101   5.343
 5687TIP3   OH217003   3.399   1.040   5.049
 5687TIP3    H117004   3.453   0.962   5.037
 5687TIP3    H217005   3.455   1.113   5.021
 5688TIP3   OH217006   3.540   0.811   5.002
 5688TIP3    H117007   3.464   0.752   5.002
 5688TIP3    H217008   3.588   0.788   5.081
 5689TIP3   OH217009   3.931   0.899   5.739
 5689TIP3    H117010   3.907   0.828   5.681
 5689TIP3    H217011   3.915   0.979   5.688
 5690TIP3   OH217012   3.206   0.317   4.992
 5690TIP3    H117013   3.123   0.360   4.971
 5690TIP3    H217014   3.252   0.312   4.909
 5691TIP3   OH217015   3.191   0.094   4.711
 5691TIP3    H117016   3.257   0.146   4.757
 5691TIP3    H217017   3.238   0.052   4.640
 5692TIP3   OH217018   4.105   0.593   5.615
 5692TIP3    H117019   4.018   0.631   5.608
 5692TIP3    H217020   4.137   0.588   5.524
 5693TIP3   OH217021   3.563   0.404   4.967
 5693TIP3    H117022   3.502   0.427   5.036
 5693TIP3    H217023   3.649   0.404   5.010
 5694TIP3   OH217024   3.789   0.439   5.896
 5694TIP3    H117025   3.773   0.518   5.947
 5694TIP3    H217026   3.705   0.422   5.852
 5695TIP3   OH217027   2.805   0.388   5.328
 5695TIP3    H117028   2.767   0.316   5.278
 5695TIP3    H217029   2.866   0.346   5.388
 5696TIP3   OH217030   2.856   0.734   5.620
 5696TIP3    H117031   2.891   0.724   5.531
 5696TIP3    H217032   2.843   0.828   5.630
 5697TIP3   OH217033   3.466   1.011   5.526
 5697TIP3    H117034   3.443   1.092   5.573
 5697TIP3    H217035   3.447   0.941   5.589
 5698TIP3   OH217036   3.048   0.902   6.049
 5698TIP3    H117037   2.996   0.968   6.095
 5698TIP3    H217038   2.984   0.857   5.993
 5699TIP3   OH217039   3.402   0.260   4.792
 5699TIP3    H117040   3.460   0.309   4.850
 5699TIP3    H217041   3.435   0.279   4.704
 5700TIP3   OH217042   2.835   0.460   6.177
 5700TIP3    H117043   2.819   0.549   6.209
 5700TIP3    H217044   2.799   0.460   6.088
 5701TIP3   OH217045   3.148   0.928   5.044
 5701TIP3    H117046   3.232   0.973   5.056
 5701TIP3    H217047   3.093   0.991   4.998
 5702TIP3   OH217048   2.851   1.077   6.140
 5702TIP3    H117049   2.812   1.091   6.053
 5702TIP3    H217050   2.777   1.060   6.197
 5703TIP3   OH217051   2.673   0.203   5.160
 5703TIP3    H117052   2.589   0.242   5.134
 5703TIP3    H217053   2.650   0.117   5.193
 5704TIP3   OH217054   3.734   0.854   4.412
 5704TIP3    H117055   3.727   0.948   4.393
 5704TIP3    H217056   3.824   0.832   4.389
 5705TIP3   OH217057   2.446   0.648   6.086
 5705TIP3    H117058   2.385   0.619   6.019
 5705TIP3    H217059   2.481   0.566   6.124
 5706TIP3   OH217060   4.159   1.272   5.803
 5706TIP3    H117061   4.165   1.177   5.814
 5706TIP3    H217062   4.079   1.296   5.851
 5707TIP3   OH217063   3.272   1.041   5.956
 5707TIP3    H117064   3.253   1.134   5.963
 5707TIP3    H217065   3.189   0.998   5.978
 5708TIP3   OH217066   3.040   1.143   4.882
 5708TIP3    H117067   2.999   1.127   4.798
 5708TIP3    H217068   3.007   1.229   4.910
 5709TIP3   OH217069   2.457   1.029   5.251
 5709TIP3    H117070   2.505   1.027   5.334
 5709TIP3    H217071   2.415   0.943   5.245
 5710TIP3   OH217072   3.242   1.082   4.509
 5710TIP3    H117073   3.293   1.009   4.473
 5710TIP3    H217074   3.278   1.095   4.597
 5711TIP3   OH217075   3.296   1.125   4.779
 5711TIP3    H117076   3.211   1.125   4.823
 5711TIP3    H217077   3.358   1.093   4.845
 5712TIP3   OH217078   4.030   0.400   6.099
 5712TIP3    H117079   3.970   0.455   6.049
 5712TIP3    H217080   3.995   0.311   6.091
 5713TIP3   OH217081   2.642   0.839   6.090
 5713TIP3    H117082   2.697   0.806   6.162
 5713TIP3    H217083   2.572   0.775   6.082
 5714TIP3   OH217084   3.850   0.202   6.043
 5714TIP3    H117085   3.787   0.130   6.045
 5714TIP3    H217086   3.817   0.261   5.975
 5715TIP3   OH217087   2.979   0.192   5.901
 5715TIP3    H117088   2.947   0.184   5.990
 5715TIP3    H217089   2.930   0.266   5.864
 5716TIP3   OH217090   8.520   8.008   5.411
 5716TIP3    H117091   8.426   7.992   5.420
 5716TIP3    H217092   8.539   7.987   5.320
 5717TIP3   OH217093   3.309   0.124   5.156
 5717TIP3    H117094   3.264   0.193   5.108
 5717TIP3    H217095   3.389   0.109   5.106
 5718TIP3   OH217096   3.525   0.394   6.213
 5718TIP3    H117097   3.489   0.321   6.263
 5718TIP3    H217098   3.618   0.397   6.237
 5719TIP3   OH217099   3.473   0.162   5.400
 5719TIP3    H117100   3.409   0.198   5.338
 5719TIP3    H217101   3.503   0.081   5.359
 5720TIP3   OH217102   2.862   0.179   6.154
 5720TIP3    H117103   2.846   0.272   6.169
 5720TIP3    H217104   2.775   0.141   6.140
 5721TIP3   OH217105   8.136   7.772   5.224
 5721TIP3    H117106   8.144   7.765   5.129
 5721TIP3    H217107   8.046   7.801   5.238
 5722TIP3   OH217108   3.540   0.353   5.796
 5722TIP3    H117109   3.576   0.286   5.737
 5722TIP3    H217110   3.499   0.303   5.867
 5723TIP3   OH217111   8.254   7.926   5.425
 5723TIP3    H117112   8.164   7.959   5.435
 5723TIP3    H217113   8.246   7.856   5.360
 5724TIP3   OH217114   0.056   7.926   5.153
 5724TIP3    H117115   0.148   7.916   5.130
 5724TIP3    H217116   0.009   7.918   5.070
 5725TIP3   OH217117   8.421   7.925   4.905
 5725TIP3    H117118   8.343   7.931   4.850
 5725TIP3    H217119   8.488   7.971   4.856
 5726TIP3   OH217120   3.870   1.609   5.894
 5726TIP3    H117121   3.867   1.626   5.800
 5726TIP3    H217122   3.947   1.658   5.925
 5727TIP3   OH217123   2.798   0.716   6.297
 5727TIP3    H117124   2.877   0.738   6.347
 5727TIP3    H217125   2.729   0.712   6.363
 5728TIP3   OH217126   3.250   0.214   5.564
 5728TIP3    H117127   3.325   0.171   5.522
 5728TIP3    H217128   3.248   0.178   5.653
 5729TIP3   OH217129   3.246   0.134   5.825
 5729TIP3    H117130   3.157   0.152   5.856
 5729TIP3    H217131   3.303   0.166   5.894
 5730TIP3   OH217132   2.969   0.451   4.941
 5730TIP3    H117133   2.897   0.390   4.922
 5730TIP3    H217134   2.941   0.497   5.020
 5731TIP3   OH217135   3.861   0.708   5.557
 5731TIP3    H117136   3.893   0.756   5.481
 5731TIP3    H217137   3.778   0.670   5.528
 5732TIP3   OH217138   0.474   7.792   4.850
 5732TIP3    H117139   0.424   7.818   4.928
 5732TIP3    H217140   0.525   7.870   4.827
 5733TIP3   OH217141   3.387   0.785   5.968
 5733TIP3    H117142   3.434   0.773   6.051
 5733TIP3    H217143   3.352   0.874   5.974
 5734TIP3   OH217144   3.530   0.067   4.997
 5734TIP3    H117145   3.616   0.110   5.001
 5734TIP3    H217146   3.501   0.081   4.907
 5735TIP3   OH217147   3.131   0.605   4.788
 5735TIP3    H117148   3.084   0.689   4.784
 5735TIP3    H217149   3.075   0.548   4.839
 5736TIP3   OH217150   2.521   0.446   6.256
 5736TIP3    H117151   2.589   0.431   6.322
 5736TIP3    H217152   2.485   0.359   6.239
 5737TIP3   OH217153   3.301   0.558   6.264
 5737TIP3    H117154   3.231   0.500   6.233
 5737TIP3    H217155   3.381   0.519   6.229
 5738TIP3   OH217156   3.536   1.075   5.861
 5738TIP3    H117157   3.442   1.058   5.865
 5738TIP3    H217158   3.557   1.113   5.947
 5739TIP3   OH217159   3.908   0.153   4.750
 5739TIP3    H117160   3.852   0.103   4.690
 5739TIP3    H217161   3.920   0.237   4.707
 5740TIP3   OH217162   4.177   0.994   5.821
 5740TIP3    H117163   4.084   0.973   5.820
 5740TIP3    H217164   4.210   0.959   5.738
 5741TIP3   OH217165   3.656   0.928   4.680
 5741TIP3    H117166   3.629   0.861   4.742
 5741TIP3    H217167   3.673   0.880   4.599
 5742TIP3   OH217168   3.619   0.593   5.468
 5742TIP3    H117169   3.531   0.570   5.498
 5742TIP3    H217170   3.650   0.514   5.424
 5743TIP3   OH217171   2.742   0.823   5.269
 5743TIP3    H117172   2.748   0.897   5.208
 5743TIP3    H217173   2.682   0.762   5.226
 5744TIP3   OH217174   2.353   0.070   4.967
 5744TIP3    H117175   2.401   0.151   4.986
 5744TIP3    H217176   2.271   0.078   5.016
 5745TIP3   OH217177   2.858   0.587   5.149
 5745TIP3    H117178   2.870   0.667   5.200
 5745TIP3    H217179   2.841   0.519   5.215
 5746TIP3   OH217180   2.689   1.046   5.105
 5746TIP3    H117181   2.604   1.050   5.149
 5746TIP3    H217182   2.725   1.134   5.114
 5747TIP3   OH217183   3.444   0.790   5.697
 5747TIP3    H117184   3.427   0.784   5.791
 5747TIP3    H217185   3.526   0.742   5.684
 5748TIP3   OH217186   3.414   0.666   4.559
 5748TIP3    H117187   3.465   0.638   4.635
 5748TIP3    H217188   3.329   0.623   4.570
 5749TIP3   OH217189   3.690   1.280   5.735
 5749TIP3    H117190   3.619   1.220   5.756
 5749TIP3    H217191   3.655   1.336   5.665
 5750TIP3   OH217192   3.732   1.128   4.370
 5750TIP3    H117193   3.752   1.189   4.298
 5750TIP3    H217194   3.662   1.171   4.419
 5751TIP3   OH217195   3.585   0.576   4.749
 5751TIP3    H117196   3.573   0.526   4.830
 5751TIP3    H217197   3.680   0.590   4.744
 5752TIP3   OH217198   2.474   1.033   5.924
 5752TIP3    H117199   2.540   0.980   5.967
 5752TIP3    H217200   2.507   1.123   5.930
 5753TIP3   OH217201   2.768   0.641   4.587
 5753TIP3    H117202   2.782   0.551   4.558
 5753TIP3    H217203   2.760   0.635   4.682
 5754TIP3   OH217204   2.719   0.649   4.863
 5754TIP3    H117205   2.783   0.623   4.930
 5754TIP3    H217206   2.720   0.745   4.865
 5755TIP3   OH217207   2.442   0.323   5.054
 5755TIP3    H117208   2.383   0.374   5.109
 5755TIP3    H217209   2.468   0.383   4.984
 5756TIP3   OH217210   2.981   0.830   4.781
 5756TIP3    H117211   2.899   0.856   4.824
 5756TIP3    H217212   3.007   0.906   4.730
 5757TIP3   OH217213   0.338   7.900   5.133
 5757TIP3    H117214   0.379   7.986   5.140
 5757TIP3    H217215   0.363   7.856   5.215
 5758TIP3   OH217216   3.442   0.217   6.016
 5758TIP3    H117217   3.460   0.293   6.071
 5758TIP3    H217218   3.440   0.143   6.077
 5759TIP3   OH217219   2.734   0.922   4.866
 5759TIP3    H117220   2.716   0.990   4.800
 5759TIP3    H217221   2.720   0.966   4.950
 5760TIP3   OH217222   3.688   0.346   5.369
 5760TIP3    H117223   3.617   0.285   5.388
 5760TIP3    H217224   3.761   0.316   5.423
 5761TIP3   OH217225   2.477   0.518   4.850
 5761TIP3    H117226   2.550   0.578   4.863
 5761TIP3    H217227   2.510   0.454   4.787
 5762TIP3   OH217228   8.017   7.797   4.957
 5762TIP3    H117229   8.040   7.888   4.944
 5762TIP3    H217230   7.952   7.799   5.028
 5763TIP3   OH217231   3.713   1.283   5.306
 5763TIP3    H117232   3.672   1.333   5.236
 5763TIP3    H217233   3.807   1.294   5.292
 5764TIP3   OH217234   2.295   0.792   5.221
 5764TIP3    H117235   2.250   0.833   5.295
 5764TIP3    H217236   2.255   0.831   5.144
 5765TIP3   OH217237   2.493   1.297   6.304
 5765TIP3    H117238   2.573   1.247   6.318
 5765TIP3    H217239   2.424   1.231   6.296
 5766TIP3   OH217240   2.962   1.255   6.319
 5766TIP3    H117241   3.050   1.223   6.339
 5766TIP3    H217242   2.929   1.195   6.253
 5767TIP3   OH217243   2.926   0.833   4.466
 5767TIP3    H117244   2.880   0.765   4.516
 5767TIP3    H217245   3.001   0.787   4.428
 5768TIP3   OH217246   3.587   1.174   6.112
 5768TIP3    H117247   3.605   1.104   6.174
 5768TIP3    H217248   3.660   1.235   6.123
 5769TIP3   OH217249   3.370   0.873   4.387
 5769TIP3    H117250   3.400   0.807   4.450
 5769TIP3    H217251   3.431   0.866   4.314
 5770TIP3   OH217252   2.596   0.706   6.489
 5770TIP3    H117253   2.609   0.611   6.488
 5770TIP3    H217254   2.512   0.719   6.446
 5771TIP3   OH217255   2.607   0.331   4.700
 5771TIP3    H117256   2.658   0.301   4.775
 5771TIP3    H217257   2.672   0.348   4.632
 5772TIP3   OH217258   3.195   0.819   6.272
 5772TIP3    H117259   3.157   0.832   6.185
 5772TIP3    H217260   3.242   0.735   6.265
 5773TIP3   OH217261   3.155   0.550   4.521
 5773TIP3    H117262   3.136   0.560   4.614
 5773TIP3    H217263   3.155   0.455   4.506
 5774TIP3   OH217264   3.701   0.847   5.889
 5774TIP3    H117265   3.779   0.875   5.842
 5774TIP3    H217266   3.638   0.918   5.875
 5775TIP3   OH217267   2.716   0.454   6.463
 5775TIP3    H117268   2.793   0.439   6.408
 5775TIP3    H217269   2.751   0.463   6.551
 5776TIP3   OH217270   2.775   0.258   4.906
 5776TIP3    H117271   2.753   0.231   4.996
 5776TIP3    H217272   2.828   0.186   4.871
 5777TIP3   OH217273   3.107   0.392   6.163
 5777TIP3    H117274   3.016   0.420   6.157
 5777TIP3    H217275   3.141   0.403   6.075
 5778TIP3   OH217276   2.919   0.072   4.758
 5778TIP3    H117277   2.892   0.087   4.668
 5778TIP3    H217278   3.015   0.072   4.755
 5779TIP3   OH217279   3.583   0.728   6.245
 5779TIP3    H117280   3.647   0.685   6.189
 5779TIP3    H217281   3.578   0.672   6.323
 5780TIP3   OH217282   3.692   0.342   4.416
 5780TIP3    H117283   3.648   0.304   4.339
 5780TIP3    H217284   3.671   0.435   4.413
 5781TIP3   OH217285   3.130   0.145   6.274
 5781TIP3    H117286   3.059   0.099   6.228
 5781TIP3    H217287   3.129   0.234   6.236
 5782TIP3   OH217288   3.228   0.445   5.927
 5782TIP3    H117289   3.311   0.459   5.883
 5782TIP3    H217290   3.164   0.491   5.872
 5783TIP3   OH217291   3.784   0.401   6.316
 5783TIP3    H117292   3.814   0.353   6.394
 5783TIP3    H217293   3.863   0.413   6.263
 5784TIP3   OH217294   3.814   0.671   6.062
 5784TIP3    H117295   3.760   0.732   6.012
 5784TIP3    H217296   3.903   0.685   6.029
 5785TIP3   OH217297   3.055   0.249   6.524
 5785TIP3    H117298   2.968   0.217   6.549
 5785TIP3    H217299   3.072   0.207   6.439
 5786TIP3   OH217300   3.404   0.173   6.321
 5786TIP3    H117301   3.417   0.138   6.409
 5786TIP3    H217302   3.311   0.158   6.304
 5787TIP3   OH217303   2.730   1.125   4.679
 5787TIP3    H117304   2.821   1.107   4.655
 5787TIP3    H217305   2.694   1.171   4.603
 5788TIP3   OH217306   2.206   0.516   4.873
 5788TIP3    H117307   2.300   0.531   4.869
 5788TIP3    H217308   2.194   0.428   4.839
 5789TIP3   OH217309   2.121   1.100   5.247
 5789TIP3    H117310   2.042   1.045   5.246
 5789TIP3    H217311   2.172   1.067   5.321
 5790TIP3   OH217312   2.223   0.952   5.460
 5790TIP3    H117313   2.167   0.906   5.522
 5790TIP3    H217314   2.294   0.988   5.513
 5791TIP3   OH217315   3.984   1.330   5.299
 5791TIP3    H117316   4.003   1.355   5.389
 5791TIP3    H217317   4.035   1.391   5.246
 5792TIP3   OH217318   4.004   1.357   5.579
 5792TIP3    H117319   3.957   1.274   5.576
 5792TIP3    H217320   4.073   1.343   5.643
 5793TIP3   OH217321   4.067   1.060   6.156
 5793TIP3    H117322   3.994   1.073   6.216
 5793TIP3    H217323   4.109   1.146   6.151
 5794TIP3   OH217324   3.862   0.601   4.744
 5794TIP3    H117325   3.920   0.670   4.713
 5794TIP3    H217326   3.904   0.569   4.823
 5795TIP3   OH217327   3.990   0.491   4.961
 5795TIP3    H117328   3.923   0.469   5.025
 5795TIP3    H217329   4.059   0.534   5.011
 5796TIP3   OH217330   4.052   0.844   5.397
 5796TIP3    H117331   4.091   0.774   5.345
 5796TIP3    H217332   4.051   0.920   5.338
 5797TIP3   OH217333   3.862   1.119   5.589
 5797TIP3    H117334   3.795   1.166   5.638
 5797TIP3    H217335   3.815   1.080   5.515
 5798TIP3   OH217336   3.906   0.377   4.591
 5798TIP3    H117337   3.834   0.366   4.529
 5798TIP3    H217338   3.883   0.457   4.639
 5799TIP3   OH217339   3.732   0.094   4.544
 5799TIP3    H117340   3.723   0.178   4.499
 5799TIP3    H217341   3.652   0.046   4.520
 5800TIP3   OH217342   3.796   0.383   5.120
 5800TIP3    H117343   3.801   0.291   5.094
 5800TIP3    H217344   3.759   0.381   5.208
 5801TIP3   OH217345   2.444   0.374   5.863
 5801TIP3    H117346   2.439   0.328   5.779
 5801TIP3    H217347   2.536   0.400   5.871
 5802TIP3   OH217348   4.062   0.711   5.951
 5802TIP3    H117349   4.135   0.651   5.936
 5802TIP3    H217350   4.058   0.765   5.872
 5803TIP3   OH217351   4.253   0.515   5.965
 5803TIP3    H117352   4.182   0.464   6.003
 5803TIP3    H217353   4.333   0.468   5.990
 5804TIP3   OH217354   3.801   0.136   5.001
 5804TIP3    H117355   3.839   0.054   5.030
 5804TIP3    H217356   3.837   0.150   4.913
 5805TIP3   OH217357   3.917   0.294   5.504
 5805TIP3    H117358   3.998   0.305   5.456
 5805TIP3    H217359   3.942   0.305   5.596
 5806TIP3   OH217360   4.018   0.367   5.752
 5806TIP3    H117361   3.939   0.391   5.800
 5806TIP3    H217362   4.050   0.449   5.715
 5807TIP3   OH217363   2.656   0.057   6.519
 5807TIP3    H117364   2.735   0.074   6.569
 5807TIP3    H217365   2.655  -0.038   6.507
 5808TIP3   OH217366   2.378   0.037   5.887
 5808TIP3    H117367   2.437   0.018   5.814
 5808TIP3    H217368   2.431   0.086   5.949
 5809TIP3   OH217369   3.539   1.243   4.940
 5809TIP3    H117370   3.596   1.234   4.863
 5809TIP3    H217371   3.580   1.311   4.992
 5810TIP3   OH217372   2.646   1.064   6.330
 5810TIP3    H117373   2.557   1.039   6.307
 5810TIP3    H217374   2.658   1.031   6.419
 5811TIP3   OH217375   3.242   1.318   6.010
 5811TIP3    H117376   3.279   1.308   6.098
 5811TIP3    H217377   3.307   1.369   5.962
 5812TIP3   OH217378   3.434   1.471   5.884
 5812TIP3    H117379   3.493   1.418   5.830
 5812TIP3    H217380   3.492   1.527   5.936
 5813TIP3   OH217381   2.510   1.316   5.933
 5813TIP3    H117382   2.425   1.347   5.901
 5813TIP3    H217383   2.538   1.383   5.995
 5814TIP3   OH217384   2.746   1.336   5.775
 5814TIP3    H117385   2.663   1.325   5.821
 5814TIP3    H217386   2.771   1.247   5.749
 5815TIP3   OH217387   3.191   1.378   5.503
 5815TIP3    H117388   3.100   1.370   5.474
 5815TIP3    H217389   3.189   1.445   5.570
 5816TIP3   OH217390   3.426   1.278   5.603
 5816TIP3    H117391   3.337   1.300   5.575
 5816TIP3    H217392   3.482   1.342   5.559
 5817TIP3   OH217393   3.631   1.448   5.511
 5817TIP3    H117394   3.623   1.534   5.469
 5817TIP3    H217395   3.659   1.389   5.440
 5818TIP3   OH217396   2.411   1.035   5.650
 5818TIP3    H117397   2.443   1.027   5.739
 5818TIP3    H217398   2.489   1.027   5.595
 5819TIP3   OH217399   2.621   0.983   5.467
 5819TIP3    H117400   2.671   0.919   5.417
 5819TIP3    H217401   2.679   1.008   5.539
 5820TIP3   OH217402   2.188   0.903   4.988
 5820TIP3    H117403   2.102   0.875   4.956
 5820TIP3    H217404   2.196   0.994   4.957
 5821TIP3   OH217405   2.988   1.056   4.612
 5821TIP3    H117406   3.072   1.083   4.575
 5821TIP3    H217407   2.958   0.985   4.555
 5822TIP3   OH217408   3.692   1.197   4.711
 5822TIP3    H117409   3.684   1.102   4.705
 5822TIP3    H217410   3.648   1.231   4.633
 5823TIP3   OH217411   2.298   0.887   4.682
 5823TIP3    H117412   2.300   0.872   4.777
 5823TIP3    H217413   2.379   0.848   4.649
 5824TIP3   OH217414   3.908   1.336   5.901
 5824TIP3    H117415   3.834   1.306   5.848
 5824TIP3    H217416   3.896   1.431   5.908
 5825TIP3   OH217417   5.169   0.712   4.666
 5825TIP3    H117418   5.153   0.804   4.648
 5825TIP3    H217419   5.099   0.666   4.619
 5826TIP3   OH217420   5.196   0.757   5.050
 5826TIP3    H117421   5.236   0.742   5.136
 5826TIP3    H217422   5.146   0.677   5.032
 5827TIP3   OH217423   4.468   0.617   5.402
 5827TIP3    H117424   4.512   0.579   5.478
 5827TIP3    H217425   4.539   0.646   5.345
 5828TIP3   OH217426   5.448   1.037   4.731
 5828TIP3    H117427   5.437   0.974   4.803
 5828TIP3    H217428   5.470   1.119   4.775
 5829TIP3   OH217429   4.473   1.019   5.097
 5829TIP3    H117430   4.451   0.925   5.097
 5829TIP3    H217431   4.568   1.021   5.087
 5830TIP3   OH217432   4.134   0.260   4.922
 5830TIP3    H117433   4.082   0.340   4.929
 5830TIP3    H217434   4.092   0.210   4.852
 5831TIP3   OH217435   4.220   0.581   5.085
 5831TIP3    H117436   4.285   0.512   5.102
 5831TIP3    H217437   4.273   0.658   5.062
 5832TIP3   OH217438   5.110   1.451   4.749
 5832TIP3    H117439   5.136   1.387   4.682
 5832TIP3    H217440   5.113   1.403   4.831
 5833TIP3   OH217441   4.990   0.956   5.067
 5833TIP3    H117442   5.038   0.881   5.033
 5833TIP3    H217443   5.058   1.013   5.104
 5834TIP3   OH217444   5.371   0.459   5.103
 5834TIP3    H117445   5.382   0.364   5.095
 5834TIP3    H217446   5.327   0.484   5.022
 5835TIP3   OH217447   4.814  -0.001   5.021
 5835TIP3    H117448   4.800   0.012   5.114
 5835TIP3    H217449   4.726  -0.014   4.985
 5836TIP3   OH217450   5.339   0.137   4.777
 5836TIP3    H117451   5.430   0.118   4.798
 5836TIP3    H217452   5.342   0.217   4.724
 5837TIP3   OH217453   4.418   0.418   5.170
 5837TIP3    H117454   4.442   0.409   5.262
 5837TIP3    H217455   4.469   0.350   5.126
 5838TIP3   OH217456   4.789   0.563   4.990
 5838TIP3    H117457   4.884   0.555   4.996
 5838TIP3    H217458   4.760   0.481   4.951
 5839TIP3   OH217459   6.033   0.457   5.291
 5839TIP3    H117460   5.954   0.504   5.265
 5839TIP3    H217461   6.053   0.491   5.379
 5840TIP3   OH217462   5.088   0.931   4.509
 5840TIP3    H117463   5.049   0.901   4.427
 5840TIP3    H217464   5.035   1.007   4.534
 5841TIP3   OH217465   4.833   0.875   5.281
 5841TIP3    H117466   4.776   0.945   5.313
 5841TIP3    H217467   4.879   0.914   5.206
 5842TIP3   OH217468   4.566   0.257   5.356
 5842TIP3    H117469   4.640   0.318   5.357
 5842TIP3    H217470   4.569   0.216   5.270
 5843TIP3   OH217471   4.667   1.069   5.383
 5843TIP3    H117472   4.653   1.159   5.353
 5843TIP3    H217473   4.589   1.048   5.435
 5844TIP3   OH217474   4.044   0.781   4.634
 5844TIP3    H117475   4.012   0.801   4.546
 5844TIP3    H217476   4.068   0.866   4.671
 5845TIP3   OH217477   5.484   1.277   4.874
 5845TIP3    H117478   5.397   1.268   4.914
 5845TIP3    H217479   5.481   1.362   4.830
 5846TIP3   OH217480   5.195   1.301   4.529
 5846TIP3    H117481   5.248   1.222   4.517
 5846TIP3    H217482   5.252   1.373   4.502
 5847TIP3   OH217483   5.331   1.069   4.485
 5847TIP3    H117484   5.258   1.007   4.489
 5847TIP3    H217485   5.382   1.051   4.564
 5848TIP3   OH217486   5.718   1.170   5.224
 5848TIP3    H117487   5.701   1.095   5.167
 5848TIP3    H217488   5.703   1.246   5.168
 5849TIP3   OH217489   4.998   0.587   4.488
 5849TIP3    H117490   4.913   0.626   4.465
 5849TIP3    H217491   5.046   0.585   4.406
 5850TIP3   OH217492   4.955   0.419   4.176
 5850TIP3    H117493   5.023   0.476   4.212
 5850TIP3    H217494   4.990   0.330   4.188
 5851TIP3   OH217495   5.898   0.843   5.090
 5851TIP3    H117496   5.812   0.885   5.089
 5851TIP3    H217497   5.927   0.845   4.998
 5852TIP3   OH217498   5.354   0.674   4.460
 5852TIP3    H117499   5.297   0.691   4.535
 5852TIP3    H217500   5.442   0.673   4.497
 5853TIP3   OH217501   5.598   0.733   5.376
 5853TIP3    H117502   5.582   0.809   5.431
 5853TIP3    H217503   5.514   0.715   5.334
 5854TIP3   OH217504   4.569   0.653   4.840
 5854TIP3    H117505   4.538   0.584   4.780
 5854TIP3    H217506   4.647   0.615   4.881
 5855TIP3   OH217507   4.734   1.056   4.998
 5855TIP3    H117508   4.712   1.043   4.906
 5855TIP3    H217509   4.823   1.022   5.006
 5856TIP3   OH217510   4.678   0.660   5.221
 5856TIP3    H117511   4.715   0.627   5.139
 5856TIP3    H217512   4.731   0.737   5.242
 5857TIP3   OH217513   5.248   1.265   5.010
 5857TIP3    H117514   5.234   1.348   5.056
 5857TIP3    H217515   5.232   1.198   5.077
 5858TIP3   OH217516   4.866   1.163   5.551
 5858TIP3    H117517   4.807   1.221   5.598
 5858TIP3    H217518   4.809   1.112   5.493
 5859TIP3   OH217519   5.185   0.545   4.282
 5859TIP3    H117520   5.246   0.602   4.328
 5859TIP3    H217521   5.218   0.540   4.193
 5860TIP3   OH217522   4.622   0.741   5.673
 5860TIP3    H117523   4.629   0.831   5.706
 5860TIP3    H217524   4.532   0.716   5.690
 5861TIP3   OH217525   4.952   1.171   4.540
 5861TIP3    H117526   5.031   1.225   4.544
 5861TIP3    H217527   4.888   1.225   4.493
 5862TIP3   OH217528   4.659   1.322   5.639
 5862TIP3    H117529   4.632   1.334   5.547
 5862TIP3    H217530   4.577   1.308   5.686
 5863TIP3   OH217531   4.447   0.471   4.654
 5863TIP3    H117532   4.374   0.521   4.620
 5863TIP3    H217533   4.407   0.401   4.705
 5864TIP3   OH217534   5.533   1.115   3.897
 5864TIP3    H117535   5.526   1.208   3.878
 5864TIP3    H217536   5.623   1.092   3.872
 5865TIP3   OH217537   4.255   0.874   5.588
 5865TIP3    H117538   4.182   0.866   5.527
 5865TIP3    H217539   4.286   0.784   5.600
 5866TIP3   OH217540   4.095   1.078   5.245
 5866TIP3    H117541   4.186   1.103   5.263
 5866TIP3    H217542   4.043   1.154   5.270
 5867TIP3   OH217543   5.948   1.518   5.288
 5867TIP3    H117544   5.954   1.424   5.303
 5867TIP3    H217545   5.869   1.545   5.334
 5868TIP3   OH217546   5.055   1.308   5.412
 5868TIP3    H117547   5.046   1.398   5.443
 5868TIP3    H217548   4.990   1.259   5.462
 5869TIP3   OH217549   4.838   1.406   4.368
 5869TIP3    H117550   4.791   1.386   4.286
 5869TIP3    H217551   4.801   1.488   4.398
 5870TIP3   OH217552   4.272   1.264   4.744
 5870TIP3    H117553   4.316   1.258   4.829
 5870TIP3    H217554   4.223   1.182   4.736
 5871TIP3   OH217555   5.038   1.343   3.994
 5871TIP3    H117556   5.089   1.270   3.958
 5871TIP3    H217557   5.073   1.355   4.082
 5872TIP3   OH217558   5.091   1.382   4.264
 5872TIP3    H117559   5.005   1.385   4.305
 5872TIP3    H217560   5.149   1.346   4.331
 5873TIP3   OH217561   5.836   0.670   5.545
 5873TIP3    H117562   5.762   0.721   5.512
 5873TIP3    H217563   5.826   0.585   5.504
 5874TIP3   OH217564   4.449   1.069   5.553
 5874TIP3    H117565   4.499   1.063   5.635
 5874TIP3    H217566   4.380   1.004   5.563
 5875TIP3   OH217567   5.759   0.415   5.470
 5875TIP3    H117568   5.680   0.415   5.524
 5875TIP3    H217569   5.729   0.385   5.384
 5876TIP3   OH217570   5.267   0.510   4.026
 5876TIP3    H117571   5.220   0.517   3.943
 5876TIP3    H217572   5.353   0.548   4.007
 5877TIP3   OH217573   4.751   0.460   5.394
 5877TIP3    H117574   4.711   0.483   5.477
 5877TIP3    H217575   4.724   0.530   5.334
 5878TIP3   OH217576   4.661   0.363   4.856
 5878TIP3    H117577   4.567   0.346   4.857
 5878TIP3    H217578   4.694   0.315   4.780
 5879TIP3   OH217579   5.109   0.392   4.640
 5879TIP3    H117580   5.058   0.462   4.599
 5879TIP3    H217581   5.168   0.362   4.572
 5880TIP3   OH217582   5.299   0.679   5.700
 5880TIP3    H117583   5.294   0.633   5.784
 5880TIP3    H217584   5.391   0.705   5.693
 5881TIP3   OH217585   5.281   0.518   4.834
 5881TIP3    H117586   5.240   0.592   4.788
 5881TIP3    H217587   5.216   0.448   4.830
 5882TIP3   OH217588   4.574   0.447   5.614
 5882TIP3    H117589   4.532   0.514   5.668
 5882TIP3    H217590   4.513   0.373   5.616
 5883TIP3   OH217591   4.214   0.080   4.704
 5883TIP3    H117592   4.301   0.063   4.668
 5883TIP3    H217593   4.208   0.022   4.780
 5884TIP3   OH217594   5.341   0.667   5.274
 5884TIP3    H117595   5.357   0.595   5.213
 5884TIP3    H217596   5.300   0.625   5.350
 5885TIP3   OH217597   4.405   0.253   4.854
 5885TIP3    H117598   4.315   0.265   4.882
 5885TIP3    H217599   4.402   0.180   4.792
 5886TIP3   OH217600   4.703   0.209   4.633
 5886TIP3    H117601   4.799   0.204   4.626
 5886TIP3    H217602   4.673   0.219   4.543
 5887TIP3   OH217603   4.581   0.174   4.399
 5887TIP3    H117604   4.486   0.171   4.386
 5887TIP3    H217605   4.613   0.228   4.327
 5888TIP3   OH217606   5.664   1.866   5.379
 5888TIP3    H117607   5.661   1.881   5.285
 5888TIP3    H217608   5.743   1.911   5.408
 5889TIP3   OH217609   4.607   0.994   5.789
 5889TIP3    H117610   4.688   1.008   5.838
 5889TIP3    H217611   4.538   0.999   5.855
 5890TIP3   OH217612   5.057   0.519   5.049
 5890TIP3    H117613   5.097   0.438   5.018
 5890TIP3    H217614   5.049   0.507   5.144
 5891TIP3   OH217615   5.013   0.464   5.313
 5891TIP3    H117616   4.928   0.464   5.357
 5891TIP3    H217617   5.071   0.514   5.372
 5892TIP3   OH217618   4.756   0.706   4.427
 5892TIP3    H117619   4.680   0.651   4.407
 5892TIP3    H217620   4.735   0.748   4.510
 5893TIP3   OH217621   5.662   0.974   5.044
 5893TIP3    H117622   5.699   1.021   4.969
 5893TIP3    H217623   5.580   0.937   5.010
 5894TIP3   OH217624   5.096   0.191   4.223
 5894TIP3    H117625   5.064   0.114   4.270
 5894TIP3    H217626   5.172   0.220   4.274
 5895TIP3   OH217627   5.179   1.009   5.472
 5895TIP3    H117628   5.241   1.002   5.545
 5895TIP3    H217629   5.142   1.096   5.479
 5896TIP3   OH217630   5.262   0.314   4.426
 5896TIP3    H117631   5.336   0.331   4.484
 5896TIP3    H217632   5.254   0.393   4.373
 5897TIP3   OH217633   4.448   0.744   5.069
 5897TIP3    H117634   4.482   0.720   4.983
 5897TIP3    H217635   4.509   0.702   5.131
 5898TIP3   OH217636   4.927   0.862   4.285
 5898TIP3    H117637   4.885   0.947   4.281
 5898TIP3    H217638   4.865   0.806   4.332
 5899TIP3   OH217639   4.368   0.624   5.722
 5899TIP3    H117640   4.364   0.615   5.817
 5899TIP3    H217641   4.283   0.592   5.690
 5900TIP3   OH217642   5.062   0.803   5.757
 5900TIP3    H117643   4.999   0.737   5.730
 5900TIP3    H217644   5.147   0.771   5.726
 5901TIP3   OH217645   5.323   1.334   5.338
 5901TIP3    H117646   5.229   1.318   5.344
 5901TIP3    H217647   5.347   1.368   5.424
 5902TIP3   OH217648   5.703   0.404   4.213
 5902TIP3    H117649   5.645   0.354   4.155
 5902TIP3    H217650   5.714   0.488   4.169
 5903TIP3   OH217651   5.966   1.239   5.311
 5903TIP3    H117652   5.871   1.228   5.301
 5903TIP3    H217653   6.002   1.209   5.228
 5904TIP3   OH217654   5.453   1.186   4.163
 5904TIP3    H117655   5.425   1.117   4.223
 5904TIP3    H217656   5.473   1.141   4.081
 5905TIP3   OH217657   5.433   0.856   4.941
 5905TIP3    H117658   5.346   0.829   4.970
 5905TIP3    H217659   5.471   0.775   4.905
 5906TIP3   OH217660   4.591   1.065   4.755
 5906TIP3    H117661   4.584   1.140   4.696
 5906TIP3    H217662   4.502   1.055   4.791
 5907TIP3   OH217663   4.158   0.338   4.499
 5907TIP3    H117664   4.197   0.425   4.493
 5907TIP3    H217665   4.074   0.352   4.543
 5908TIP3   OH217666   4.672   0.825   4.651
 5908TIP3    H117667   4.659   0.915   4.682
 5908TIP3    H217668   4.636   0.770   4.721
 5909TIP3   OH217669   4.874   1.380   5.207
 5909TIP3    H117670   4.909   1.453   5.158
 5909TIP3    H217671   4.947   1.347   5.259
 5910TIP3   OH217672   4.507   1.282   4.601
 5910TIP3    H117673   4.419   1.288   4.639
 5910TIP3    H217674   4.542   1.370   4.607
 5911TIP3   OH217675   5.222   1.050   5.193
 5911TIP3    H117676   5.212   1.034   5.287
 5911TIP3    H217677   5.302   1.002   5.169
 5912TIP3   OH217678   5.211   0.925   4.041
 5912TIP3    H117679   5.260   0.896   4.118
 5912TIP3    H217680   5.126   0.882   4.050
 5913TIP3   OH217681   5.478   1.540   5.220
 5913TIP3    H117682   5.409   1.477   5.240
 5913TIP3    H217683   5.443   1.593   5.149
 5914TIP3   OH217684   5.528   1.387   3.856
 5914TIP3    H117685   5.547   1.447   3.783
 5914TIP3    H217686   5.458   1.430   3.905
 5915TIP3   OH217687   5.379   0.835   4.235
 5915TIP3    H117688   5.368   0.793   4.320
 5915TIP3    H217689   5.474   0.851   4.229
 5916TIP3   OH217690   4.302   1.273   5.368
 5916TIP3    H117691   4.354   1.214   5.422
 5916TIP3    H217692   4.315   1.359   5.407
 5917TIP3   OH217693   4.568   0.896   4.067
 5917TIP3    H117694   4.579   0.805   4.039
 5917TIP3    H217695   4.554   0.891   4.161
 5918TIP3   OH217696   4.512   0.905   4.338
 5918TIP3    H117697   4.576   0.878   4.404
 5918TIP3    H217698   4.510   1.000   4.343
 5919TIP3   OH217699   4.236   0.603   4.539
 5919TIP3    H117700   4.171   0.652   4.590
 5919TIP3    H217701   4.256   0.661   4.465
 5920TIP3   OH217702   4.784   1.092   4.273
 5920TIP3    H117703   4.698   1.114   4.310
 5920TIP3    H217704   4.806   1.166   4.217
 5921TIP3   OH217705   4.969   0.164   4.617
 5921TIP3    H117706   5.016   0.247   4.626
 5921TIP3    H217707   4.959   0.133   4.706
 5922TIP3   OH217708   5.250   0.514   5.488
 5922TIP3    H117709   5.224   0.584   5.548
 5922TIP3    H217710   5.325   0.473   5.530
 5923TIP3   OH217711   4.533   1.177   4.350
 5923TIP3    H117712   4.512   1.248   4.289
 5923TIP3    H217713   4.521   1.215   4.437
 5924TIP3   OH217714   5.535   0.614   4.849
 5924TIP3    H117715   5.450   0.570   4.861
 5924TIP3    H217716   5.593   0.568   4.910
 5925TIP3   OH217717   4.264   0.780   4.324
 5925TIP3    H117718   4.338   0.840   4.334
 5925TIP3    H217719   4.294   0.716   4.259
 5926TIP3   OH217720   4.006   0.144   4.361
 5926TIP3    H117721   4.037   0.215   4.418
 5926TIP3    H217722   4.002   0.067   4.417
 5927TIP3   OH217723   5.507   1.541   4.792
 5927TIP3    H117724   5.466   1.593   4.722
 5927TIP3    H217725   5.601   1.552   4.777
 5928TIP3   OH217726   4.096   1.045   4.723
 5928TIP3    H117727   4.054   1.081   4.801
 5928TIP3    H217728   4.051   1.087   4.650
 5929TIP3   OH217729   4.293   1.581   5.789
 5929TIP3    H117730   4.376   1.585   5.837
 5929TIP3    H217731   4.274   1.488   5.783
 5930TIP3   OH217732   4.764   1.485   5.835
 5930TIP3    H117733   4.855   1.458   5.844
 5930TIP3    H217734   4.730   1.431   5.763
 5931TIP3   OH217735   4.724   1.090   3.950
 5931TIP3    H117736   4.677   1.022   3.998
 5931TIP3    H217737   4.799   1.045   3.911
 5932TIP3   OH217738   5.385   1.426   5.588
 5932TIP3    H117739   5.399   1.357   5.653
 5932TIP3    H217740   5.458   1.487   5.602
 5933TIP3   OH217741   5.165   1.133   3.872
 5933TIP3    H117742   5.197   1.068   3.934
 5933TIP3    H217743   5.224   1.126   3.797
 5934TIP3   OH217744   4.404   0.980   5.980
 5934TIP3    H117745   4.430   0.888   5.985
 5934TIP3    H217746   4.318   0.979   5.939
 5935TIP3   OH217747   4.388   0.589   4.173
 5935TIP3    H117748   4.434   0.564   4.253
 5935TIP3    H217749   4.457   0.605   4.109
 5936TIP3   OH217750   5.021   1.076   5.760
 5936TIP3    H117751   4.973   1.093   5.679
 5936TIP3    H217752   5.048   0.985   5.753
 5937TIP3   OH217753   4.957   0.812   4.016
 5937TIP3    H117754   4.936   0.819   4.109
 5937TIP3    H217755   4.932   0.723   3.992
 5938TIP3   OH217756   5.488   1.110   5.366
 5938TIP3    H117757   5.568   1.136   5.320
 5938TIP3    H217758   5.426   1.181   5.350
 5939TIP3   OH217759   4.535   0.733   5.984
 5939TIP3    H117760   4.618   0.702   5.947
 5939TIP3    H217761   4.553   0.742   6.078
 5940TIP3   OH217762   4.547   0.527   4.394
 5940TIP3    H117763   4.526   0.495   4.482
 5940TIP3    H217764   4.598   0.457   4.354
 5941TIP3   OH217765   4.875   0.622   5.630
 5941TIP3    H117766   4.791   0.666   5.646
 5941TIP3    H217767   4.915   0.673   5.560
 5942TIP3   OH217768   4.690   0.358   4.231
 5942TIP3    H117769   4.654   0.360   4.142
 5942TIP3    H217770   4.782   0.381   4.220
 5943TIP3   OH217771   5.370   0.985   5.704
 5943TIP3    H117772   5.452   0.967   5.659
 5943TIP3    H217773   5.376   0.935   5.785
 5944TIP3   OH217774   5.493   0.620   3.905
 5944TIP3    H117775   5.475   0.585   3.817
 5944TIP3    H217776   5.472   0.713   3.898
 5945TIP3   OH217777   4.992   0.373   5.666
 5945TIP3    H117778   4.932   0.314   5.620
 5945TIP3    H217779   4.954   0.460   5.654
 5946TIP3   OH217780   5.026   0.759   5.441
 5946TIP3    H117781   5.088   0.831   5.455
 5946TIP3    H217782   4.961   0.795   5.380
 5947TIP3   OH217783   5.582   0.649   5.757
 5947TIP3    H117784   5.550   0.623   5.844
 5947TIP3    H217785   5.635   0.726   5.774
 5948TIP3   OH217786   5.611   0.956   5.550
 5948TIP3    H117787   5.559   1.013   5.494
 5948TIP3    H217788   5.700   0.965   5.518
 5949TIP3   OH217789   4.818   0.579   5.998
 5949TIP3    H117790   4.747   0.515   6.002
 5949TIP3    H217791   4.895   0.528   5.974
 5950TIP3   OH217792   5.255   0.336   5.744
 5950TIP3    H117793   5.269   0.399   5.815
 5950TIP3    H217794   5.163   0.350   5.719
 5951TIP3   OH217795   4.529   1.385   4.167
 5951TIP3    H117796   4.618   1.365   4.140
 5951TIP3    H217797   4.491   1.431   4.092
 5952TIP3   OH217798   3.992   0.777   4.348
 5952TIP3    H117799   4.086   0.792   4.342
 5952TIP3    H217800   3.979   0.691   4.308
 5953TIP3   OH217801   3.898   1.349   4.807
 5953TIP3    H117802   3.833   1.296   4.762
 5953TIP3    H217803   3.942   1.288   4.867
 5954TIP3   OH217804   4.043   1.182   4.975
 5954TIP3    H117805   4.034   1.113   5.041
 5954TIP3    H217806   4.095   1.250   5.017
 5955TIP3   OH217807   5.780   1.585   4.784
 5955TIP3    H117808   5.801   1.613   4.873
 5955TIP3    H217809   5.837   1.638   4.728
 5956TIP3   OH217810   5.798   1.619   5.064
 5956TIP3    H117811   5.749   1.537   5.059
 5956TIP3    H217812   5.867   1.602   5.128
 5957TIP3   OH217813   5.848   1.323   5.630
 5957TIP3    H117814   5.775   1.332   5.691
 5957TIP3    H217815   5.895   1.406   5.638
 5958TIP3   OH217816   5.655   0.866   4.224
 5958TIP3    H117817   5.710   0.936   4.189
 5958TIP3    H217818   5.702   0.836   4.302
 5959TIP3   OH217819   5.797   0.763   4.433
 5959TIP3    H117820   5.729   0.743   4.497
 5959TIP3    H217821   5.867   0.803   4.484
 5960TIP3   OH217822   5.848   1.101   4.880
 5960TIP3    H117823   5.892   1.031   4.832
 5960TIP3    H217824   5.850   1.176   4.820
 5961TIP3   OH217825   5.652   1.384   5.068
 5961TIP3    H117826   5.584   1.429   5.119
 5961TIP3    H217827   5.604   1.344   4.995
 5962TIP3   OH217828   5.705   0.640   4.078
 5962TIP3    H117829   5.634   0.633   4.014
 5962TIP3    H217830   5.685   0.719   4.128
 5963TIP3   OH217831   5.525   0.309   4.020
 5963TIP3    H117832   5.529   0.383   3.960
 5963TIP3    H217833   5.505   0.234   3.965
 5964TIP3   OH217834   5.600   0.653   4.586
 5964TIP3    H117835   5.627   0.565   4.560
 5964TIP3    H217836   5.587   0.646   4.681
 5965TIP3   OH217837   4.204   0.598   5.357
 5965TIP3    H117838   4.194   0.592   5.262
 5965TIP3    H217839   4.297   0.613   5.371
 5966TIP3   OH217840   5.865   0.978   5.444
 5966TIP3    H117841   5.934   0.915   5.429
 5966TIP3    H217842   5.882   1.049   5.382
 5967TIP3   OH217843   6.074   0.800   5.443
 5967TIP3    H117844   6.018   0.730   5.476
 5967TIP3    H217845   6.139   0.815   5.511
 5968TIP3   OH217846   5.648   0.406   4.478
 5968TIP3    H117847   5.621   0.314   4.475
 5968TIP3    H217848   5.674   0.427   4.388
 5969TIP3   OH217849   5.722   0.507   5.015
 5969TIP3    H117850   5.796   0.529   4.958
 5969TIP3    H217851   5.745   0.542   5.100
 5970TIP3   OH217852   5.816   0.627   5.240
 5970TIP3    H117853   5.741   0.660   5.289
 5970TIP3    H217854   5.853   0.704   5.196
 5971TIP3   OH217855   4.350   0.256   6.049
 5971TIP3    H117856   4.398   0.183   6.009
 5971TIP3    H217857   4.302   0.216   6.121
 5972TIP3   OH217858   4.174   0.317   5.396
 5972TIP3    H117859   4.209   0.281   5.314
 5972TIP3    H217860   4.194   0.410   5.392
 5973TIP3   OH217861   5.337   1.504   4.426
 5973TIP3    H117862   5.393   1.494   4.349
 5973TIP3    H217863   5.378   1.574   4.476
 5974TIP3   OH217864   4.435   1.295   5.803
 5974TIP3    H117865   4.341   1.279   5.795
 5974TIP3    H217866   4.453   1.289   5.897
 5975TIP3   OH217867   4.645   1.345   5.356
 5975TIP3    H117868   4.594   1.420   5.325
 5975TIP3    H217869   4.730   1.353   5.312
 5976TIP3   OH217870   5.041   1.574   5.493
 5976TIP3    H117871   5.078   1.566   5.581
 5976TIP3    H217872   5.104   1.628   5.445
 5977TIP3   OH217873   5.234   1.729   5.369
 5977TIP3    H117874   5.297   1.676   5.321
 5977TIP3    H217875   5.287   1.788   5.423
 5978TIP3   OH217876   4.303   1.579   5.403
 5978TIP3    H117877   4.212   1.595   5.379
 5978TIP3    H217878   4.323   1.647   5.468
 5979TIP3   OH217879   4.535   1.576   5.254
 5979TIP3    H117880   4.452   1.579   5.301
 5979TIP3    H217881   4.513   1.599   5.164
 5980TIP3   OH217882   4.949   1.592   5.045
 5980TIP3    H117883   4.876   1.603   4.984
 5980TIP3    H217884   4.958   1.678   5.086
 5981TIP3   OH217885   5.213   1.527   5.089
 5981TIP3    H117886   5.121   1.548   5.072
 5981TIP3    H217887   5.262   1.596   5.045
 5982TIP3   OH217888   5.415   1.701   4.996
 5982TIP3    H117889   5.413   1.788   4.957
 5982TIP3    H217890   5.445   1.643   4.926
 5983TIP3   OH217891   4.215   1.361   5.117
 5983TIP3    H117892   4.240   1.337   5.206
 5983TIP3    H217893   4.288   1.331   5.063
 5984TIP3   OH217894   4.420   1.254   4.975
 5984TIP3    H117895   4.431   1.171   5.023
 5984TIP3    H217896   4.507   1.295   4.980
 5985TIP3   OH217897   4.688   1.333   5.004
 5985TIP3    H117898   4.706   1.240   4.989
 5985TIP3    H217899   4.743   1.357   5.079
 5986TIP3   OH217900   3.977   1.160   4.504
 5986TIP3    H117901   3.893   1.127   4.472
 5986TIP3    H217902   3.981   1.250   4.471
 5987TIP3   OH217903   4.784   1.312   4.097
 5987TIP3    H117904   4.868   1.340   4.060
 5987TIP3    H217905   4.755   1.241   4.040
 5988TIP3   OH217906   5.487   1.455   4.197
 5988TIP3    H117907   5.481   1.360   4.190
 5988TIP3    H217908   5.444   1.489   4.119
 5989TIP3   OH217909   4.092   1.155   4.155
 5989TIP3    H117910   4.092   1.165   4.250
 5989TIP3    H217911   4.173   1.108   4.135
 5990TIP3   OH217912   5.700   1.592   5.383
 5990TIP3    H117913   5.625   1.562   5.331
 5990TIP3    H217914   5.687   1.687   5.391
 5991TIP3   OH217915   6.964   0.985   4.136
 5991TIP3    H117916   6.942   1.075   4.111
 5991TIP3    H217917   6.891   0.933   4.104
 5992TIP3   OH217918   6.968   1.019   4.525
 5992TIP3    H117919   7.011   0.997   4.608
 5992TIP3    H217920   6.929   0.937   4.496
 5993TIP3   OH217921   6.262   0.880   4.881
 5993TIP3    H117922   6.300   0.830   4.953
 5993TIP3    H217923   6.337   0.902   4.825
 5994TIP3   OH217924   7.248   1.296   4.219
 5994TIP3    H117925   7.229   1.234   4.290
 5994TIP3    H217926   7.270   1.378   4.264
 5995TIP3   OH217927   6.268   1.277   4.587
 5995TIP3    H117928   6.247   1.184   4.586
 5995TIP3    H217929   6.363   1.281   4.574
 5996TIP3   OH217930   5.944   0.530   4.412
 5996TIP3    H117931   5.894   0.611   4.413
 5996TIP3    H217932   5.906   0.478   4.341
 5997TIP3   OH217933   6.024   0.841   4.565
 5997TIP3    H117934   6.085   0.769   4.585
 5997TIP3    H217935   6.080   0.916   4.547
 5998TIP3   OH217936   6.910   1.705   4.240
 5998TIP3    H117937   6.933   1.643   4.171
 5998TIP3    H217938   6.918   1.656   4.321
 5999TIP3   OH217939   6.781   1.222   4.558
 5999TIP3    H117940   6.827   1.145   4.524
 5999TIP3    H217941   6.850   1.278   4.592
 6000TIP3   OH217942   7.150   0.706   4.600
 6000TIP3    H117943   7.168   0.612   4.604
 6000TIP3    H217944   7.141   0.725   4.506
 6001TIP3   OH217945   6.624   0.249   4.516
 6001TIP3    H117946   6.613   0.282   4.605
 6001TIP3    H217947   6.534   0.240   4.483
 6002TIP3   OH217948   7.179   0.481   4.196
 6002TIP3    H117949   7.241   0.408   4.200
 6002TIP3    H217950   7.169   0.499   4.102
 6003TIP3   OH217951   6.214   0.669   4.651
 6003TIP3    H117952   6.240   0.650   4.741
 6003TIP3    H217953   6.268   0.611   4.598
 6004TIP3   OH217954   6.591   0.819   4.477
 6004TIP3    H117955   6.686   0.809   4.474
 6004TIP3    H217956   6.558   0.740   4.433
 6005TIP3   OH217957   7.847   0.715   4.781
 6005TIP3    H117958   7.768   0.763   4.758
 6005TIP3    H217959   7.874   0.752   4.865
 6006TIP3   OH217960   6.878   1.202   3.989
 6006TIP3    H117961   6.839   1.169   3.908
 6006TIP3    H217962   6.823   1.277   4.013
 6007TIP3   OH217963   6.631   1.130   4.772
 6007TIP3    H117964   6.573   1.199   4.804
 6007TIP3    H217965   6.677   1.169   4.697
 6008TIP3   OH217966   6.357   0.511   4.834
 6008TIP3    H117967   6.436   0.563   4.849
 6008TIP3    H217968   6.369   0.474   4.746
 6009TIP3   OH217969   6.464   1.326   4.870
 6009TIP3    H117970   6.451   1.415   4.838
 6009TIP3    H217971   6.385   1.306   4.919
 6010TIP3   OH217972   5.837   1.044   4.114
 6010TIP3    H117973   5.809   1.066   4.025
 6010TIP3    H217974   5.862   1.127   4.153
 6011TIP3   OH217975   7.279   1.536   4.363
 6011TIP3    H117976   7.191   1.527   4.401
 6011TIP3    H217977   7.277   1.621   4.320
 6012TIP3   OH217978   6.989   1.559   4.017
 6012TIP3    H117979   7.042   1.480   4.005
 6012TIP3    H217980   7.047   1.631   3.989
 6013TIP3   OH217981   7.128   1.329   3.974
 6013TIP3    H117982   7.054   1.268   3.977
 6013TIP3    H217983   7.179   1.309   4.052
 6014TIP3   OH217984   7.518   1.420   4.718
 6014TIP3    H117985   7.497   1.346   4.660
 6014TIP3    H217986   7.501   1.498   4.665
 6015TIP3   OH217987   6.788   0.846   3.966
 6015TIP3    H117988   6.704   0.886   3.942
 6015TIP3    H217989   6.838   0.842   3.885
 6016TIP3   OH217990   6.767   0.649   3.670
 6016TIP3    H117991   6.833   0.710   3.704
 6016TIP3    H217992   6.801   0.562   3.691
 6017TIP3   OH217993   7.682   1.077   4.547
 6017TIP3    H117994   7.599   1.126   4.551
 6017TIP3    H217995   7.720   1.102   4.463
 6018TIP3   OH217996   7.148   0.931   3.940
 6018TIP3    H117997   7.091   0.952   4.014
 6018TIP3    H217998   7.233   0.914   3.980
 6019TIP3   OH217999   7.381   0.956   4.816
 6019TIP3    H118000   7.386   1.024   4.883
 6019TIP3    H218001   7.291   0.963   4.782
 6020TIP3   OH218002   6.368   0.912   4.328
 6020TIP3    H118003   6.338   0.843   4.268
 6020TIP3    H218004   6.446   0.875   4.369
 6021TIP3   OH218005   6.526   1.315   4.486
 6021TIP3    H118006   6.507   1.300   4.393
 6021TIP3    H218007   6.615   1.282   4.498
 6022TIP3   OH218008   6.477   0.915   4.705
 6022TIP3    H118009   6.516   0.883   4.623
 6022TIP3    H218010   6.530   0.992   4.728
 6023TIP3   OH218011   7.039   1.527   4.494
 6023TIP3    H118012   7.030   1.607   4.545
 6023TIP3    H218013   7.030   1.456   4.558
 6024TIP3   OH218014   6.662   1.427   5.036
 6024TIP3    H118015   6.601   1.485   5.081
 6024TIP3    H218016   6.607   1.374   4.978
 6025TIP3   OH218017   6.982   0.794   3.768
 6025TIP3    H118018   7.042   0.850   3.817
 6025TIP3    H218019   7.019   0.791   3.679
 6026TIP3   OH218020   6.418   0.992   5.152
 6026TIP3    H118021   6.423   1.083   5.180
 6026TIP3    H218022   6.325   0.969   5.161
 6027TIP3   OH218023   6.741   1.440   4.025
 6027TIP3    H118024   6.823   1.489   4.031
 6027TIP3    H218025   6.682   1.497   3.976
 6028TIP3   OH218026   6.450   1.584   5.121
 6028TIP3    H118027   6.428   1.593   5.028
 6028TIP3    H218028   6.366   1.569   5.164
 6029TIP3   OH218029   6.241   0.732   4.137
 6029TIP3    H118030   6.170   0.785   4.103
 6029TIP3    H218031   6.198   0.662   4.187
 6030TIP3   OH218032   7.322   1.375   3.384
 6030TIP3    H118033   7.317   1.468   3.364
 6030TIP3    H218034   7.413   1.351   3.363
 6031TIP3   OH218035   6.050   1.138   5.073
 6031TIP3    H118036   5.979   1.122   5.011
 6031TIP3    H218037   6.087   1.051   5.091
 6032TIP3   OH218038   5.894   1.332   4.727
 6032TIP3    H118039   5.985   1.355   4.744
 6032TIP3    H218040   5.844   1.409   4.756
 6033TIP3   OH218041   7.752   1.801   4.774
 6033TIP3    H118042   7.761   1.705   4.776
 6033TIP3    H218043   7.671   1.818   4.822
 6034TIP3   OH218044   6.854   1.568   4.896
 6034TIP3    H118045   6.846   1.657   4.929
 6034TIP3    H218046   6.790   1.517   4.946
 6035TIP3   OH218047   6.633   1.661   3.855
 6035TIP3    H118048   6.589   1.642   3.772
 6035TIP3    H218049   6.596   1.744   3.884
 6036TIP3   OH218050   6.068   1.522   4.232
 6036TIP3    H118051   6.113   1.515   4.316
 6036TIP3    H218052   6.020   1.440   4.224
 6037TIP3   OH218053   6.835   1.598   3.481
 6037TIP3    H118054   6.885   1.525   3.444
 6037TIP3    H218055   6.870   1.610   3.569
 6038TIP3   OH218056   6.887   1.637   3.751
 6038TIP3    H118057   6.801   1.640   3.793
 6038TIP3    H218058   6.945   1.599   3.817
 6039TIP3   OH218059   7.625   0.938   5.047
 6039TIP3    H118060   7.552   0.998   5.029
 6039TIP3    H218061   7.603   0.858   5.000
 6040TIP3   OH218062   6.242   1.333   5.035
 6040TIP3    H118063   6.296   1.323   5.113
 6040TIP3    H218064   6.173   1.267   5.045
 6041TIP3   OH218065   7.539   0.689   4.968
 6041TIP3    H118066   7.452   0.677   5.005
 6041TIP3    H218067   7.532   0.656   4.878
 6042TIP3   OH218068   7.073   0.766   3.513
 6042TIP3    H118069   7.021   0.767   3.433
 6042TIP3    H218070   7.154   0.811   3.490
 6043TIP3   OH218071   6.560   0.712   4.868
 6043TIP3    H118072   6.508   0.725   4.947
 6043TIP3    H218073   6.528   0.779   4.807
 6044TIP3   OH218074   6.457   0.632   4.334
 6044TIP3    H118075   6.365   0.605   4.329
 6044TIP3    H218076   6.501   0.576   4.270
 6045TIP3   OH218077   6.924   0.675   4.124
 6045TIP3    H118078   6.869   0.736   4.076
 6045TIP3    H218079   6.992   0.650   4.061
 6046TIP3   OH218080   7.089   0.962   5.167
 6046TIP3    H118081   7.072   0.879   5.211
 6046TIP3    H218082   7.184   0.972   5.169
 6047TIP3   OH218083   7.103   0.707   4.331
 6047TIP3    H118084   7.034   0.730   4.269
 6047TIP3    H218085   7.144   0.630   4.293
 6048TIP3   OH218086   6.377   0.711   5.071
 6048TIP3    H118087   6.396   0.772   5.142
 6048TIP3    H218088   6.314   0.649   5.109
 6049TIP3   OH218089   6.014   0.339   4.202
 6049TIP3    H118090   6.101   0.321   4.166
 6049TIP3    H218091   6.006   0.279   4.277
 6050TIP3   OH218092   7.111   0.929   4.744
 6050TIP3    H118093   7.131   0.853   4.690
 6050TIP3    H218094   7.080   0.893   4.827
 6051TIP3   OH218095   6.212   0.510   4.347
 6051TIP3    H118096   6.121   0.522   4.375
 6051TIP3    H218097   6.208   0.439   4.282
 6052TIP3   OH218098   6.513   0.462   4.111
 6052TIP3    H118099   6.609   0.469   4.105
 6052TIP3    H218100   6.482   0.475   4.022
 6053TIP3   OH218101   6.380   0.440   3.880
 6053TIP3    H118102   6.291   0.434   3.847
 6053TIP3    H218103   6.427   0.492   3.814
 6054TIP3   OH218104   7.458   2.121   4.870
 6054TIP3    H118105   7.455   2.131   4.775
 6054TIP3    H218106   7.536   2.170   4.896
 6055TIP3   OH218107   6.405   1.256   5.261
 6055TIP3    H118108   6.486   1.270   5.311
 6055TIP3    H218109   6.336   1.257   5.327
 6056TIP3   OH218110   6.862   0.764   4.498
 6056TIP3    H118111   6.927   0.709   4.454
 6056TIP3    H218112   6.869   0.740   4.591
 6057TIP3   OH218113   6.819   0.722   4.774
 6057TIP3    H118114   6.735   0.725   4.821
 6057TIP3    H218115   6.880   0.771   4.830
 6058TIP3   OH218116   6.546   0.968   3.907
 6058TIP3    H118117   6.471   0.911   3.890
 6058TIP3    H218118   6.527   1.007   3.992
 6059TIP3   OH218119   7.454   1.234   4.529
 6059TIP3    H118120   7.491   1.277   4.451
 6059TIP3    H218121   7.370   1.200   4.499
 6060TIP3   OH218122   6.911   0.423   3.736
 6060TIP3    H118123   6.886   0.354   3.797
 6060TIP3    H218124   7.005   0.434   3.748
 6061TIP3   OH218125   6.986   1.259   4.951
 6061TIP3    H118126   7.063   1.253   5.008
 6061TIP3    H218127   6.951   1.347   4.966
 6062TIP3   OH218128   7.105   0.597   3.939
 6062TIP3    H118129   7.199   0.610   3.934
 6062TIP3    H218130   7.070   0.644   3.864
 6063TIP3   OH218131   6.248   1.003   4.557
 6063TIP3    H118132   6.283   0.980   4.470
 6063TIP3    H218133   6.310   0.963   4.619
 6064TIP3   OH218134   6.722   1.120   3.769
 6064TIP3    H118135   6.679   1.206   3.764
 6064TIP3    H218136   6.659   1.065   3.815
 6065TIP3   OH218137   6.150   0.897   5.191
 6065TIP3    H118138   6.148   0.875   5.284
 6065TIP3    H218139   6.069   0.860   5.156
 6066TIP3   OH218140   6.849   1.062   5.238
 6066TIP3    H118141   6.786   0.995   5.212
 6066TIP3    H218142   6.932   1.034   5.200
 6067TIP3   OH218143   7.125   1.587   4.822
 6067TIP3    H118144   7.031   1.571   4.826
 6067TIP3    H218145   7.147   1.623   4.907
 6068TIP3   OH218146   7.483   0.654   3.717
 6068TIP3    H118147   7.421   0.612   3.657
 6068TIP3    H218148   7.495   0.742   3.681
 6069TIP3   OH218149   7.768   1.526   4.782
 6069TIP3    H118150   7.676   1.500   4.791
 6069TIP3    H218151   7.796   1.486   4.699
 6070TIP3   OH218152   7.241   1.441   3.651
 6070TIP3    H118153   7.215   1.371   3.711
 6070TIP3    H218154   7.260   1.396   3.569
 6071TIP3   OH218155   7.212   1.125   4.436
 6071TIP3    H118156   7.121   1.101   4.455
 6071TIP3    H218157   7.251   1.046   4.399
 6072TIP3   OH218158   6.388   1.322   4.240
 6072TIP3    H118159   6.383   1.397   4.182
 6072TIP3    H218160   6.298   1.309   4.270
 6073TIP3   OH218161   5.956   0.593   3.983
 6073TIP3    H118162   6.000   0.677   3.973
 6073TIP3    H218163   5.874   0.614   4.028
 6074TIP3   OH218164   6.470   1.082   4.137
 6074TIP3    H118165   6.458   1.171   4.168
 6074TIP3    H218166   6.436   1.027   4.207
 6075TIP3   OH218167   6.671   1.637   4.693
 6075TIP3    H118168   6.707   1.710   4.643
 6075TIP3    H218169   6.744   1.604   4.744
 6076TIP3   OH218170   6.302   1.540   4.088
 6076TIP3    H118171   6.215   1.546   4.127
 6076TIP3    H218172   6.337   1.628   4.094
 6077TIP3   OH218173   7.023   1.308   4.672
 6077TIP3    H118174   7.016   1.287   4.766
 6077TIP3    H218175   7.097   1.254   4.642
 6078TIP3   OH218176   7.007   1.181   3.527
 6078TIP3    H118177   7.056   1.154   3.604
 6078TIP3    H218178   6.922   1.138   3.536
 6079TIP3   OH218179   7.279   1.796   4.710
 6079TIP3    H118180   7.211   1.731   4.730
 6079TIP3    H218181   7.241   1.848   4.639
 6080TIP3   OH218182   7.323   1.648   3.339
 6080TIP3    H118183   7.329   1.703   3.261
 6080TIP3    H218184   7.255   1.689   3.392
 6081TIP3   OH218185   7.177   1.098   3.721
 6081TIP3    H118186   7.162   1.050   3.803
 6081TIP3    H218187   7.272   1.109   3.717
 6082TIP3   OH218188   6.098   1.529   4.857
 6082TIP3    H118189   6.149   1.468   4.910
 6082TIP3    H218190   6.114   1.615   4.897
 6083TIP3   OH218191   6.364   1.153   3.553
 6083TIP3    H118192   6.375   1.062   3.525
 6083TIP3    H218193   6.351   1.148   3.647
 6084TIP3   OH218194   6.309   1.162   3.824
 6084TIP3    H118195   6.379   1.134   3.883
 6084TIP3    H218196   6.309   1.257   3.831
 6085TIP3   OH218197   6.030   0.864   4.023
 6085TIP3    H118198   5.965   0.913   4.073
 6085TIP3    H218199   6.052   0.921   3.950
 6086TIP3   OH218200   6.578   1.349   3.758
 6086TIP3    H118201   6.494   1.372   3.796
 6086TIP3    H218202   6.601   1.423   3.702
 6087TIP3   OH218203   6.791   0.442   4.115
 6087TIP3    H118204   6.842   0.523   4.109
 6087TIP3    H218205   6.762   0.438   4.206
 6088TIP3   OH218206   7.038   0.774   4.961
 6088TIP3    H118207   7.004   0.845   5.015
 6088TIP3    H218208   7.115   0.743   5.009
 6089TIP3   OH218209   6.329   1.434   3.837
 6089TIP3    H118210   6.309   1.505   3.776
 6089TIP3    H218211   6.318   1.472   3.924
 6090TIP3   OH218212   7.308   0.889   4.339
 6090TIP3    H118213   7.237   0.824   4.340
 6090TIP3    H218214   7.377   0.850   4.393
 6091TIP3   OH218215   6.061   1.039   3.808
 6091TIP3    H118216   6.136   1.098   3.819
 6091TIP3    H218217   6.091   0.975   3.744
 6092TIP3   OH218218   5.796   0.405   3.859
 6092TIP3    H118219   5.840   0.473   3.909
 6092TIP3    H218220   5.806   0.326   3.913
 6093TIP3   OH218221   7.303   1.801   4.280
 6093TIP3    H118222   7.262   1.852   4.211
 6093TIP3    H218223   7.397   1.809   4.264
 6094TIP3   OH218224   5.892   1.303   4.210
 6094TIP3    H118225   5.850   1.339   4.288
 6094TIP3    H218226   5.847   1.346   4.137
 6095TIP3   OH218227   6.103   1.834   5.278
 6095TIP3    H118228   6.184   1.842   5.329
 6095TIP3    H218229   6.095   1.740   5.261
 6096TIP3   OH218230   6.560   1.741   5.318
 6096TIP3    H118231   6.650   1.709   5.326
 6096TIP3    H218232   6.524   1.690   5.245
 6097TIP3   OH218233   6.520   1.348   3.438
 6097TIP3    H118234   6.473   1.279   3.485
 6097TIP3    H218235   6.594   1.303   3.398
 6098TIP3   OH218236   7.179   1.688   5.068
 6098TIP3    H118237   7.175   1.618   5.133
 6098TIP3    H218238   7.260   1.735   5.089
 6099TIP3   OH218239   6.962   1.389   3.357
 6099TIP3    H118240   6.993   1.324   3.420
 6099TIP3    H218241   7.021   1.382   3.283
 6100TIP3   OH218242   6.201   1.258   5.458
 6100TIP3    H118243   6.235   1.168   5.463
 6100TIP3    H218244   6.113   1.248   5.422
 6101TIP3   OH218245   6.180   0.844   3.659
 6101TIP3    H118246   6.228   0.818   3.737
 6101TIP3    H218247   6.249   0.861   3.594
 6102TIP3   OH218248   6.812   1.335   5.246
 6102TIP3    H118249   6.768   1.356   5.163
 6102TIP3    H218250   6.837   1.243   5.235
 6103TIP3   OH218251   6.753   1.067   3.502
 6103TIP3    H118252   6.733   1.076   3.595
 6103TIP3    H218253   6.734   0.976   3.481
 6104TIP3   OH218254   7.288   1.356   4.873
 6104TIP3    H118255   7.372   1.379   4.832
 6104TIP3    H218256   7.230   1.429   4.849
 6105TIP3   OH218257   6.327   1.016   5.435
 6105TIP3    H118258   6.418   0.996   5.412
 6105TIP3    H218259   6.304   0.951   5.501
 6106TIP3   OH218260   6.342   0.783   3.877
 6106TIP3    H118261   6.324   0.750   3.965
 6106TIP3    H218262   6.398   0.716   3.838
 6107TIP3   OH218263   6.673   0.877   5.113
 6107TIP3    H118264   6.587   0.920   5.121
 6107TIP3    H218265   6.715   0.922   5.040
 6108TIP3   OH218266   6.499   0.619   3.719
 6108TIP3    H118267   6.463   0.622   3.630
 6108TIP3    H218268   6.593   0.633   3.707
 6109TIP3   OH218269   7.177   1.254   5.212
 6109TIP3    H118270   7.268   1.256   5.240
 6109TIP3    H218271   7.140   1.176   5.253
 6110TIP3   OH218272   7.293   0.875   3.389
 6110TIP3    H118273   7.275   0.841   3.301
 6110TIP3    H218274   7.274   0.969   3.383
 6111TIP3   OH218275   6.787   0.624   5.152
 6111TIP3    H118276   6.737   0.562   5.099
 6111TIP3    H218277   6.750   0.710   5.130
 6112TIP3   OH218278   6.827   1.011   4.926
 6112TIP3    H118279   6.891   1.081   4.937
 6112TIP3    H218280   6.762   1.047   4.866
 6113TIP3   OH218281   7.359   0.935   5.219
 6113TIP3    H118282   7.370   0.933   5.314
 6113TIP3    H218283   7.398   1.018   5.192
 6114TIP3   OH218284   7.424   1.145   5.010
 6114TIP3    H118285   7.358   1.212   4.994
 6114TIP3    H218286   7.507   1.189   4.993
 6115TIP3   OH218287   6.637   0.831   5.481
 6115TIP3    H118288   6.592   0.790   5.555
 6115TIP3    H218289   6.712   0.773   5.464
 6116TIP3   OH218290   7.030   0.719   5.263
 6116TIP3    H118291   7.041   0.688   5.353
 6116TIP3    H218292   6.953   0.671   5.232
 6117TIP3   OH218293   6.326   1.643   3.655
 6117TIP3    H118294   6.415   1.622   3.628
 6117TIP3    H218295   6.287   1.687   3.580
 6118TIP3   OH218296   5.789   1.036   3.826
 6118TIP3    H118297   5.884   1.048   3.822
 6118TIP3    H218298   5.774   0.949   3.788
 6119TIP3   OH218299   5.694   1.607   4.295
 6119TIP3    H118300   5.629   1.553   4.248
 6119TIP3    H218301   5.738   1.546   4.354
 6120TIP3   OH218302   5.838   1.439   4.461
 6120TIP3    H118303   5.830   1.370   4.527
 6120TIP3    H218304   5.891   1.506   4.503
 6121TIP3   OH218305   7.575   1.836   4.263
 6121TIP3    H118306   7.604   1.862   4.350
 6121TIP3    H218307   7.641   1.873   4.203
 6122TIP3   OH218308   7.597   1.872   4.545
 6122TIP3    H118309   7.550   1.789   4.542
 6122TIP3    H218310   7.669   1.856   4.606
 6123TIP3   OH218311   7.644   1.580   5.121
 6123TIP3    H118312   7.581   1.566   5.192
 6123TIP3    H218313   7.685   1.664   5.141
 6124TIP3   OH218314   7.454   1.117   3.719
 6124TIP3    H118315   7.516   1.181   3.685
 6124TIP3    H218316   7.492   1.087   3.802
 6125TIP3   OH218317   7.567   1.014   3.945
 6125TIP3    H118318   7.497   0.967   3.991
 6125TIP3    H218319   7.616   1.057   4.015
 6126TIP3   OH218320   7.640   1.343   4.352
 6126TIP3    H118321   7.692   1.277   4.307
 6126TIP3    H218322   7.647   1.421   4.297
 6127TIP3   OH218323   7.451   1.637   4.559
 6127TIP3    H118324   7.384   1.683   4.610
 6127TIP3    H218325   7.402   1.596   4.487
 6128TIP3   OH218326   7.494   0.887   3.578
 6128TIP3    H118327   7.428   0.883   3.508
 6128TIP3    H218328   7.476   0.968   3.624
 6129TIP3   OH218329   7.331   0.557   3.509
 6129TIP3    H118330   7.306   0.633   3.456
 6129TIP3    H218331   7.357   0.491   3.445
 6130TIP3   OH218332   7.379   0.870   4.075
 6130TIP3    H118333   7.384   0.775   4.060
 6130TIP3    H218334   7.361   0.879   4.169
 6131TIP3   OH218335   5.998   0.864   4.836
 6131TIP3    H118336   5.992   0.854   4.741
 6131TIP3    H218337   6.092   0.878   4.852
 6132TIP3   OH218338   7.664   1.240   4.921
 6132TIP3    H118339   7.732   1.176   4.900
 6132TIP3    H218340   7.658   1.295   4.843
 6133TIP3   OH218341   7.859   1.049   4.907
 6133TIP3    H118342   7.803   0.980   4.944
 6133TIP3    H218343   7.932   1.056   4.968
 6134TIP3   OH218344   7.377   0.616   3.967
 6134TIP3    H118345   7.407   0.528   3.991
 6134TIP3    H218346   7.420   0.634   3.884
 6135TIP3   OH218347   7.514   0.793   4.482
 6135TIP3    H118348   7.597   0.803   4.436
 6135TIP3    H218349   7.536   0.803   4.574
 6136TIP3   OH218350   7.624   0.872   4.723
 6136TIP3    H118351   7.540   0.900   4.761
 6136TIP3    H218352   7.653   0.946   4.671
 6137TIP3   OH218353   6.118   0.509   5.553
 6137TIP3    H118354   6.187   0.570   5.580
 6137TIP3    H218355   6.166   0.433   5.519
 6138TIP3   OH218356   5.968   0.577   4.890
 6138TIP3    H118357   6.011   0.538   4.814
 6138TIP3    H218358   5.991   0.670   4.885
 6139TIP3   OH218359   7.131   1.763   3.914
 6139TIP3    H118360   7.186   1.750   3.837
 6139TIP3    H218361   7.175   1.832   3.964
 6140TIP3   OH218362   6.220   1.558   5.280
 6140TIP3    H118363   6.128   1.533   5.276
 6140TIP3    H218364   6.248   1.531   5.368
 6141TIP3   OH218365   6.442   1.602   4.840
 6141TIP3    H118366   6.392   1.677   4.809
 6141TIP3    H218367   6.527   1.610   4.797
 6142TIP3   OH218368   6.838   1.831   4.985
 6142TIP3    H118369   6.877   1.822   5.072
 6142TIP3    H218370   6.901   1.884   4.936
 6143TIP3   OH218371   7.028   1.984   4.856
 6143TIP3    H118372   7.088   1.927   4.807
 6143TIP3    H218373   7.085   2.039   4.909
 6144TIP3   OH218374   6.102   1.838   4.891
 6144TIP3    H118375   6.011   1.855   4.868
 6144TIP3    H218376   6.124   1.905   4.956
 6145TIP3   OH218377   6.333   1.834   4.741
 6145TIP3    H118378   6.249   1.837   4.788
 6145TIP3    H218379   6.310   1.857   4.650
 6146TIP3   OH218380   6.746   1.849   4.532
 6146TIP3    H118381   6.675   1.859   4.469
 6146TIP3    H218382   6.755   1.936   4.572
 6147TIP3   OH218383   7.011   1.789   4.582
 6147TIP3    H118384   6.920   1.807   4.560
 6147TIP3    H218385   7.060   1.856   4.534
 6148TIP3   OH218386   7.215   1.961   4.485
 6148TIP3    H118387   7.208   2.047   4.444
 6148TIP3    H218388   7.244   1.903   4.415
 6149TIP3   OH218389   6.011   1.616   4.607
 6149TIP3    H118390   6.038   1.592   4.696
 6149TIP3    H218391   6.083   1.587   4.552
 6150TIP3   OH218392   6.216   1.512   4.464
 6150TIP3    H118393   6.227   1.429   4.510
 6150TIP3    H218394   6.303   1.552   4.467
 6151TIP3   OH218395   6.484   1.592   4.490
 6151TIP3    H118396   6.501   1.499   4.475
 6151TIP3    H218397   6.540   1.614   4.565
 6152TIP3   OH218398   5.771   1.419   3.992
 6152TIP3    H118399   5.688   1.386   3.958
 6152TIP3    H218400   5.777   1.508   3.958
 6153TIP3   OH218401   6.581   1.570   3.584
 6153TIP3    H118402   6.665   1.598   3.547
 6153TIP3    H218403   6.551   1.500   3.527
 6154TIP3   OH218404   7.280   1.709   3.686
 6154TIP3    H118405   7.271   1.614   3.678
 6154TIP3    H218406   7.236   1.743   3.607
 6155TIP3   OH218407   5.891   1.413   3.643
 6155TIP3    H118408   5.893   1.421   3.738
 6155TIP3    H218409   5.971   1.366   3.621
 6156TIP3   OH218410   7.498   1.847   4.880
 6156TIP3    H118411   7.425   1.816   4.826
 6156TIP3    H218412   7.483   1.941   4.888
 6157TIP3   OH218413   8.064   1.532   4.117
 6157TIP3    H118414   8.050   1.437   4.109
 6157TIP3    H218415   8.150   1.540   4.157
 6158TIP3   OH218416   7.737   0.782   3.946
 6158TIP3    H118417   7.663   0.829   3.907
 6158TIP3    H218418   7.782   0.742   3.872
 6159TIP3   OH218419   7.861   0.997   4.061
 6159TIP3    H118420   7.811   0.923   4.027
 6159TIP3    H218421   7.912   1.028   3.987
 6160TIP3   OH218422   7.641   1.287   3.605
 6160TIP3    H118423   7.601   1.310   3.521
 6160TIP3    H218424   7.661   1.372   3.646
 6161TIP3   OH218425   8.270   1.886   4.670
 6161TIP3    H118426   8.271   1.842   4.585
 6161TIP3    H218427   8.185   1.864   4.707
 6162TIP3   OH218428   7.835   1.399   4.549
 6162TIP3    H118429   7.763   1.374   4.490
 6162TIP3    H218430   7.869   1.315   4.581
 6163TIP3   OH218431   7.693   1.582   4.216
 6163TIP3    H118432   7.783   1.611   4.235
 6163TIP3    H218433   7.638   1.656   4.243
 6164TIP3   OH218434   7.848   1.784   3.745
 6164TIP3    H118435   7.921   1.776   3.807
 6164TIP3    H218436   7.822   1.693   3.726
 6165TIP3   OH218437   8.010   1.611   4.520
 6165TIP3    H118438   8.086   1.581   4.570
 6165TIP3    H218439   7.948   1.538   4.523
 6166TIP3   OH218440   7.852   0.663   3.724
 6166TIP3    H118441   7.821   0.659   3.634
 6166TIP3    H218442   7.840   0.575   3.758
 6167TIP3   OH218443   8.191   1.484   4.731
 6167TIP3    H118444   8.140   1.538   4.792
 6167TIP3    H218445   8.179   1.394   4.763
 6168TIP3   OH218446   7.948   1.183   4.673
 6168TIP3    H118447   8.022   1.203   4.730
 6168TIP3    H218448   7.897   1.117   4.721
 6169TIP3   OH218449   7.742   0.848   3.468
 6169TIP3    H118450   7.790   0.931   3.466
 6169TIP3    H218451   7.662   0.867   3.516
 6170TIP3   OH218452   7.878   1.788   4.343
 6170TIP3    H118453   7.932   1.731   4.398
 6170TIP3    H218454   7.896   1.876   4.376
 6171TIP3   OH218455   7.822   1.112   3.480
 6171TIP3    H118456   7.768   1.162   3.541
 6171TIP3    H218457   7.844   1.174   3.411
 6172TIP3   OH218458   7.849   1.317   3.282
 6172TIP3    H118459   7.907   1.382   3.321
 6172TIP3    H218460   7.862   1.326   3.188
 6173TIP3   OH218461   7.605   0.656   3.334
 6173TIP3    H118462   7.651   0.727   3.379
 6173TIP3    H218463   7.608   0.582   3.395
 6174TIP3   OH218464   7.682   1.546   3.699
 6174TIP3    H118465   7.647   1.589   3.778
 6174TIP3    H218466   7.640   1.593   3.626
 6175TIP3   OH218467   7.866   2.069   4.762
 6175TIP3    H118468   7.948   2.067   4.812
 6175TIP3    H218469   7.837   1.978   4.760
 6176TIP3   OH218470   7.994   1.520   4.943
 6176TIP3    H118471   8.001   1.432   4.980
 6176TIP3    H218472   7.910   1.521   4.898
 6177TIP3   OH218473   8.156   1.228   4.855
 6177TIP3    H118474   8.233   1.172   4.842
 6177TIP3    H218475   8.116   1.195   4.936
 6178TIP3   OH218476   7.577   1.286   3.323
 6178TIP3    H118477   7.672   1.294   3.316
 6178TIP3    H218478   7.559   1.197   3.294
 6179TIP3   OH218479   7.485   1.858   3.787
 6179TIP3    H118480   7.420   1.805   3.741
 6179TIP3    H218481   7.531   1.797   3.843
 6180TIP3   OH218482   7.628   1.683   3.947
 6180TIP3    H118483   7.623   1.619   4.018
 6180TIP3    H218484   7.691   1.748   3.978
 6181TIP3   OH218485   7.817   1.132   4.299
 6181TIP3    H118486   7.823   1.082   4.218
 6181TIP3    H218487   7.908   1.153   4.321
 6182TIP3   OH218488   7.921   0.796   5.046
 6182TIP3    H118489   8.012   0.824   5.039
 6182TIP3    H218490   7.925   0.707   5.081
 6183TIP3   OH218491   7.784   0.821   4.410
 6183TIP3    H118492   7.841   0.806   4.334
 6183TIP3    H218493   7.811   0.907   4.442
 6184TIP3   OH218494   8.038   1.805   4.806
 6184TIP3    H118495   7.951   1.791   4.766
 6184TIP3    H218496   8.031   1.764   4.892
 6185TIP3   OH218497   7.884   2.073   4.387
 6185TIP3    H118498   7.796   2.101   4.365
 6185TIP3    H218499   7.916   2.138   4.449
 6186TIP3   OH218500   8.101   2.019   4.217
 6186TIP3    H118501   8.030   2.036   4.280
 6186TIP3    H218502   8.079   2.076   4.142
 6187TIP3   OH218503   7.806   1.863   4.087
 6187TIP3    H118504   7.835   1.844   4.176
 6187TIP3    H218505   7.880   1.837   4.031
 6188TIP3   OH218506   8.023   1.753   3.961
 6188TIP3    H118507   8.031   1.672   4.011
 6188TIP3    H218508   8.106   1.798   3.975
 6189TIP3   OH218509   7.569   1.663   3.475
 6189TIP3    H118510   7.482   1.640   3.442
 6189TIP3    H218511   7.581   1.754   3.449
 6190TIP3   OH218512   7.627   1.697   3.162
 6190TIP3    H118513   7.598   1.765   3.223
 6190TIP3    H218514   7.659   1.627   3.219
 6191TIP3   OH218515   1.229   2.023   5.302
 6191TIP3    H118516   1.201   2.111   5.278
 6191TIP3    H218517   1.158   1.966   5.273
 6192TIP3   OH218518   1.227   2.015   5.725
 6192TIP3    H118519   1.280   1.998   5.803
 6192TIP3    H218520   1.185   1.931   5.706
 6193TIP3   OH218521   0.547   1.933   6.098
 6193TIP3    H118522   0.561   2.023   6.125
 6193TIP3    H218523   0.603   1.921   6.021
 6194TIP3   OH218524   1.497   2.325   5.400
 6194TIP3    H118525   1.485   2.261   5.470
 6194TIP3    H218526   1.518   2.406   5.446
 6195TIP3   OH218527   0.518   2.297   5.778
 6195TIP3    H118528   0.500   2.203   5.770
 6195TIP3    H218529   0.613   2.304   5.766
 6196TIP3   OH218530   0.274   1.820   5.799
 6196TIP3    H118531   0.326   1.740   5.802
 6196TIP3    H218532   0.326   1.882   5.748
 6197TIP3   OH218533   1.150   2.754   5.410
 6197TIP3    H118534   1.179   2.689   5.346
 6197TIP3    H218535   1.148   2.707   5.493
 6198TIP3   OH218536   1.036   2.233   5.740
 6198TIP3    H118537   1.083   2.156   5.708
 6198TIP3    H218538   1.104   2.291   5.773
 6199TIP3   OH218539   2.045   1.574   5.754
 6199TIP3    H118540   2.069   1.639   5.820
 6199TIP3    H218541   2.046   1.621   5.671
 6200TIP3   OH218542   1.439   1.728   5.766
 6200TIP3    H118543   1.474   1.642   5.790
 6200TIP3    H218544   1.398   1.714   5.681
 6201TIP3   OH218545   0.827   1.409   5.727
 6201TIP3    H118546   0.797   1.479   5.670
 6201TIP3    H218547   0.790   1.329   5.689
 6202TIP3   OH218548   1.502   1.493   5.374
 6202TIP3    H118549   1.571   1.483   5.440
 6202TIP3    H218550   1.546   1.532   5.299
 6203TIP3   OH218551   0.452   1.604   5.813
 6203TIP3    H118552   0.517   1.580   5.878
 6203TIP3    H218553   0.458   1.536   5.746
 6204TIP3   OH218554   0.842   1.803   5.671
 6204TIP3    H118555   0.936   1.788   5.675
 6204TIP3    H218556   0.806   1.723   5.634
 6205TIP3   OH218557   2.098   1.769   5.935
 6205TIP3    H118558   2.026   1.830   5.922
 6205TIP3    H218559   2.156   1.813   5.997
 6206TIP3   OH218560   0.784   1.365   6.160
 6206TIP3    H118561   0.733   1.412   6.094
 6206TIP3    H218562   0.723   1.351   6.232
 6207TIP3   OH218563   1.129   2.242   5.165
 6207TIP3    H118564   1.090   2.213   5.083
 6207TIP3    H218565   1.076   2.318   5.191
 6208TIP3   OH218566   0.869   2.159   5.949
 6208TIP3    H118567   0.817   2.231   5.984
 6208TIP3    H218568   0.919   2.198   5.877
 6209TIP3   OH218569   1.683   1.488   5.588
 6209TIP3    H118570   1.623   1.474   5.661
 6209TIP3    H218571   1.723   1.573   5.604
 6210TIP3   OH218572   0.689   1.512   5.947
 6210TIP3    H118573   0.743   1.587   5.974
 6210TIP3    H218574   0.737   1.473   5.875
 6211TIP3   OH218575   0.711   2.357   6.065
 6211TIP3    H118576   0.701   2.445   6.031
 6211TIP3    H218577   0.636   2.344   6.122
 6212TIP3   OH218578   0.119   2.051   5.304
 6212TIP3    H118579   0.071   2.062   5.222
 6212TIP3    H218580   0.136   2.140   5.335
 6213TIP3   OH218581   1.531   2.571   5.539
 6213TIP3    H118582   1.444   2.563   5.579
 6213TIP3    H218583   1.528   2.655   5.493
 6214TIP3   OH218584   1.859   1.428   5.904
 6214TIP3    H118585   1.776   1.470   5.882
 6214TIP3    H218586   1.923   1.469   5.845
 6215TIP3   OH218587   1.150   1.105   5.882
 6215TIP3    H118588   1.154   1.014   5.910
 6215TIP3    H218589   1.073   1.141   5.927
 6216TIP3   OH218590   1.242   2.599   5.199
 6216TIP3    H118591   1.295   2.521   5.186
 6216TIP3    H218592   1.297   2.671   5.170
 6217TIP3   OH218593   1.380   2.369   5.153
 6217TIP3    H118594   1.306   2.309   5.153
 6217TIP3    H218595   1.430   2.347   5.232
 6218TIP3   OH218596   1.761   2.462   5.880
 6218TIP3    H118597   1.748   2.386   5.823
 6218TIP3    H218598   1.745   2.538   5.824
 6219TIP3   OH218599   1.055   1.866   5.152
 6219TIP3    H118600   0.972   1.909   5.135
 6219TIP3    H218601   1.100   1.866   5.067
 6220TIP3   OH218602   1.026   1.675   4.846
 6220TIP3    H118603   1.093   1.725   4.894
 6220TIP3    H218604   1.075   1.609   4.798
 6221TIP3   OH218605   1.945   2.110   5.749
 6221TIP3    H118606   1.863   2.160   5.746
 6221TIP3    H218607   1.988   2.129   5.666
 6222TIP3   OH218608   1.416   1.953   5.114
 6222TIP3    H118609   1.361   1.981   5.187
 6222TIP3    H218610   1.501   1.934   5.154
 6223TIP3   OH218611   1.637   1.982   6.057
 6223TIP3    H118612   1.639   2.067   6.102
 6223TIP3    H218613   1.553   1.981   6.012
 6224TIP3   OH218614   0.639   1.930   5.515
 6224TIP3    H118615   0.605   1.869   5.450
 6224TIP3    H218616   0.713   1.884   5.555
 6225TIP3   OH218617   0.781   2.342   5.668
 6225TIP3    H118618   0.761   2.332   5.575
 6225TIP3    H218619   0.869   2.307   5.677
 6226TIP3   OH218620   0.736   1.927   5.892
 6226TIP3    H118621   0.773   1.889   5.812
 6226TIP3    H218622   0.785   2.009   5.904
 6227TIP3   OH218623   1.296   2.559   5.676
 6227TIP3    H118624   1.282   2.643   5.720
 6227TIP3    H218625   1.275   2.493   5.742
 6228TIP3   OH218626   0.910   2.465   6.228
 6228TIP3    H118627   0.851   2.526   6.272
 6228TIP3    H218628   0.853   2.413   6.172
 6229TIP3   OH218629   1.247   1.816   4.944
 6229TIP3    H118630   1.306   1.876   4.990
 6229TIP3    H218631   1.276   1.820   4.853
 6230TIP3   OH218632   0.992   2.482   5.203
 6230TIP3    H118633   1.075   2.530   5.210
 6230TIP3    H218634   0.934   2.541   5.155
 6231TIP3   OH218635   0.704   2.635   6.304
 6231TIP3    H118636   0.688   2.645   6.210
 6231TIP3    H218637   0.617   2.638   6.344
 6232TIP3   OH218638   1.756   1.035   5.011
 6232TIP3    H118639   1.678   1.059   5.061
 6232TIP3    H218640   1.772   1.111   4.955
 6233TIP3   OH218641   0.525   1.769   5.313
 6233TIP3    H118642   0.446   1.812   5.282
 6233TIP3    H218643   0.503   1.675   5.311
 6234TIP3   OH218644   1.581   2.413   4.562
 6234TIP3    H118645   1.575   2.506   4.540
 6234TIP3    H218646   1.671   2.390   4.540
 6235TIP3   OH218647   0.304   2.153   6.208
 6235TIP3    H118648   0.249   2.213   6.158
 6235TIP3    H218649   0.287   2.067   6.169
 6236TIP3   OH218650   0.192   2.316   5.841
 6236TIP3    H118651   0.286   2.332   5.849
 6236TIP3    H218652   0.153   2.370   5.909
 6237TIP3   OH218653   1.996   2.821   5.957
 6237TIP3    H118654   1.996   2.725   5.962
 6237TIP3    H218655   1.913   2.847   5.997
 6238TIP3   OH218656   1.101   2.602   6.084
 6238TIP3    H118657   1.097   2.694   6.112
 6238TIP3    H218658   1.033   2.559   6.135
 6239TIP3   OH218659   0.886   2.700   5.036
 6239TIP3    H118660   0.843   2.683   4.952
 6239TIP3    H218661   0.850   2.784   5.065
 6240TIP3   OH218662   0.326   2.550   5.397
 6240TIP3    H118663   0.370   2.541   5.482
 6240TIP3    H218664   0.280   2.466   5.385
 6241TIP3   OH218665   1.083   2.640   4.659
 6241TIP3    H118666   1.133   2.567   4.624
 6241TIP3    H218667   1.119   2.654   4.747
 6242TIP3   OH218668   1.139   2.683   4.928
 6242TIP3    H118669   1.055   2.683   4.973
 6242TIP3    H218670   1.202   2.651   4.994
 6243TIP3   OH218671   1.884   1.951   6.247
 6243TIP3    H118672   1.802   1.959   6.198
 6243TIP3    H218673   1.905   1.858   6.242
 6244TIP3   OH218674   0.504   2.339   6.248
 6244TIP3    H118675   0.555   2.310   6.324
 6244TIP3    H218676   0.433   2.274   6.241
 6245TIP3   OH218677   0.916   1.177   6.001
 6245TIP3    H118678   0.839   1.138   5.961
 6245TIP3    H218679   0.881   1.242   6.063
 6246TIP3   OH218680   1.458   1.305   6.222
 6246TIP3    H118681   1.527   1.275   6.281
 6246TIP3    H218682   1.376   1.286   6.269
 6247TIP3   OH218683   1.651   1.716   6.134
 6247TIP3    H118684   1.606   1.709   6.218
 6247TIP3    H218685   1.637   1.807   6.106
 6248TIP3   OH218686   1.328   1.788   4.683
 6248TIP3    H118687   1.280   1.795   4.600
 6248TIP3    H218688   1.410   1.836   4.667
 6249TIP3   OH218689   1.055   1.221   4.995
 6249TIP3    H118690   1.015   1.229   5.082
 6249TIP3    H218691   1.016   1.142   4.957
 6250TIP3   OH218692   0.833   1.725   6.055
 6250TIP3    H118693   0.798   1.742   6.142
 6250TIP3    H218694   0.801   1.798   6.001
 6251TIP3   OH218695   0.709   1.590   5.560
 6251TIP3    H118696   0.623   1.557   5.585
 6251TIP3    H218697   0.722   1.558   5.470
 6252TIP3   OH218698   1.187   1.668   5.288
 6252TIP3    H118699   1.136   1.739   5.248
 6252TIP3    H218700   1.244   1.637   5.218
 6253TIP3   OH218701   1.366   1.937   6.355
 6253TIP3    H118702   1.337   1.877   6.424
 6253TIP3    H218703   1.457   1.958   6.378
 6254TIP3   OH218704   1.342   1.673   5.517
 6254TIP3    H118705   1.277   1.697   5.450
 6254TIP3    H218706   1.390   1.600   5.478
 6255TIP3   OH218707   0.710   1.200   5.001
 6255TIP3    H118708   0.690   1.191   5.094
 6255TIP3    H218709   0.633   1.242   4.964
 6256TIP3   OH218710   1.380   1.921   5.945
 6256TIP3    H118711   1.408   1.856   5.881
 6256TIP3    H218712   1.344   1.870   6.017
 6257TIP3   OH218713   1.085   1.394   5.610
 6257TIP3    H118714   1.008   1.395   5.667
 6257TIP3    H218715   1.159   1.379   5.669
 6258TIP3   OH218716   0.504   1.408   5.618
 6258TIP3    H118717   0.423   1.373   5.580
 6258TIP3    H218718   0.567   1.337   5.609
 6259TIP3   OH218719   0.730   1.470   5.316
 6259TIP3    H118720   0.824   1.480   5.304
 6259TIP3    H218721   0.692   1.490   5.230
 6260TIP3   OH218722   1.513   1.463   5.804
 6260TIP3    H118723   1.498   1.479   5.897
 6260TIP3    H218724   1.442   1.404   5.779
 6261TIP3   OH218725   0.606   1.507   5.078
 6261TIP3    H118726   0.555   1.445   5.026
 6261TIP3    H218727   0.663   1.551   5.014
 6262TIP3   OH218728   1.714   3.160   6.045
 6262TIP3    H118729   1.714   3.180   5.951
 6262TIP3    H218730   1.787   3.210   6.080
 6263TIP3   OH218731   0.628   2.237   6.473
 6263TIP3    H118732   0.711   2.262   6.512
 6263TIP3    H218733   0.563   2.253   6.541
 6264TIP3   OH218734   1.115   1.748   5.716
 6264TIP3    H118735   1.176   1.696   5.663
 6264TIP3    H218736   1.115   1.705   5.801
 6265TIP3   OH218737   0.702   1.210   5.571
 6265TIP3    H118738   0.777   1.156   5.595
 6265TIP3    H218739   0.684   1.189   5.479
 6266TIP3   OH218740   1.092   1.654   5.981
 6266TIP3    H118741   1.007   1.687   6.009
 6266TIP3    H218742   1.155   1.696   6.040
 6267TIP3   OH218743   0.819   2.000   5.102
 6267TIP3    H118744   0.743   1.948   5.074
 6267TIP3    H218745   0.790   2.044   5.182
 6268TIP3   OH218746   1.714   2.255   5.704
 6268TIP3    H118747   1.751   2.305   5.631
 6268TIP3    H218748   1.633   2.217   5.669
 6269TIP3   OH218749   1.303   1.326   5.014
 6269TIP3    H118750   1.211   1.302   5.004
 6269TIP3    H218751   1.303   1.421   5.021
 6270TIP3   OH218752   1.227   2.337   6.133
 6270TIP3    H118753   1.274   2.326   6.216
 6270TIP3    H218754   1.188   2.425   6.140
 6271TIP3   OH218755   1.350   1.592   5.075
 6271TIP3    H118756   1.445   1.602   5.084
 6271TIP3    H218757   1.324   1.667   5.022
 6272TIP3   OH218758   0.511   2.019   5.744
 6272TIP3    H118759   0.541   1.999   5.655
 6272TIP3    H218760   0.577   1.980   5.801
 6273TIP3   OH218761   0.973   2.159   4.944
 6273TIP3    H118762   0.925   2.242   4.940
 6273TIP3    H218763   0.917   2.102   4.997
 6274TIP3   OH218764   0.551   1.941   6.422
 6274TIP3    H118765   0.507   2.026   6.427
 6274TIP3    H218766   0.485   1.881   6.387
 6275TIP3   OH218767   1.124   2.094   6.351
 6275TIP3    H118768   1.112   2.076   6.258
 6275TIP3    H218769   1.212   2.060   6.371
 6276TIP3   OH218770   1.371   2.622   6.006
 6276TIP3    H118771   1.276   2.609   6.009
 6276TIP3    H218772   1.392   2.661   6.090
 6277TIP3   OH218773   1.756   1.669   4.895
 6277TIP3    H118774   1.701   1.621   4.833
 6277TIP3    H218775   1.762   1.757   4.859
 6278TIP3   OH218776   2.003   2.540   5.973
 6278TIP3    H118777   1.910   2.523   5.958
 6278TIP3    H218778   2.045   2.516   5.890
 6279TIP3   OH218779   1.499   2.488   4.825
 6279TIP3    H118780   1.471   2.417   4.884
 6279TIP3    H218781   1.519   2.444   4.743
 6280TIP3   OH218782   1.482   2.124   5.603
 6280TIP3    H118783   1.391   2.106   5.628
 6280TIP3    H218784   1.513   2.043   5.562
 6281TIP3   OH218785   0.642   2.365   5.421
 6281TIP3    H118786   0.645   2.432   5.352
 6281TIP3    H218787   0.567   2.389   5.476
 6282TIP3   OH218788   0.167   1.639   5.130
 6282TIP3    H118789   0.218   1.718   5.147
 6282TIP3    H218790   0.096   1.643   5.194
 6283TIP3   OH218791   0.711   2.117   5.320
 6283TIP3    H118792   0.694   2.206   5.352
 6283TIP3    H218793   0.685   2.060   5.393
 6284TIP3   OH218794   0.927   2.676   5.871
 6284TIP3    H118795   0.959   2.752   5.823
 6284TIP3    H218796   1.001   2.648   5.925
 6285TIP3   OH218797   0.561   2.581   5.258
 6285TIP3    H118798   0.475   2.583   5.299
 6285TIP3    H218799   0.593   2.671   5.265
 6286TIP3   OH218800   1.264   2.343   5.859
 6286TIP3    H118801   1.248   2.338   5.953
 6286TIP3    H218802   1.352   2.307   5.847
 6287TIP3   OH218803   1.264   2.224   4.712
 6287TIP3    H118804   1.315   2.196   4.788
 6287TIP3    H218805   1.181   2.179   4.720
 6288TIP3   OH218806   1.525   2.840   5.886
 6288TIP3    H118807   1.451   2.781   5.899
 6288TIP3    H218808   1.498   2.898   5.815
 6289TIP3   OH218809   1.573   2.685   4.516
 6289TIP3    H118810   1.584   2.741   4.439
 6289TIP3    H218811   1.505   2.729   4.567
 6290TIP3   OH218812   1.440   2.134   4.903
 6290TIP3    H118813   1.425   2.083   4.983
 6290TIP3    H218814   1.535   2.143   4.898
 6291TIP3   OH218815   0.374   2.567   6.004
 6291TIP3    H118816   0.418   2.511   6.067
 6291TIP3    H218817   0.383   2.656   6.040
 6292TIP3   OH218818   0.615   2.188   4.727
 6292TIP3    H118819   0.625   2.097   4.700
 6292TIP3    H218820   0.596   2.183   4.821
 6293TIP3   OH218821   0.548   2.200   4.999
 6293TIP3    H118822   0.610   2.172   5.067
 6293TIP3    H218823   0.549   2.295   5.003
 6294TIP3   OH218824   0.298   1.876   5.197
 6294TIP3    H118825   0.239   1.927   5.253
 6294TIP3    H218826   0.315   1.933   5.123
 6295TIP3   OH218827   1.464   1.527   6.063
 6295TIP3    H118828   1.537   1.580   6.093
 6295TIP3    H218829   1.461   1.453   6.125
 6296TIP3   OH218830   1.352   1.275   5.281
 6296TIP3    H118831   1.331   1.295   5.190
 6296TIP3    H218832   1.394   1.355   5.313
 6297TIP3   OH218833   0.824   2.385   4.937
 6297TIP3    H118834   0.738   2.409   4.972
 6297TIP3    H218835   0.850   2.461   4.884
 6298TIP3   OH218836   1.006   1.476   5.359
 6298TIP3    H118837   1.066   1.545   5.332
 6298TIP3    H218838   1.031   1.457   5.450
 6299TIP3   OH218839   1.286   1.762   6.152
 6299TIP3    H118840   1.314   1.819   6.224
 6299TIP3    H218841   1.341   1.684   6.160
 6300TIP3   OH218842   1.163   1.170   5.453
 6300TIP3    H118843   1.142   1.246   5.506
 6300TIP3    H218844   1.233   1.200   5.395
 6301TIP3   OH218845   0.571   2.472   5.009
 6301TIP3    H118846   0.554   2.544   4.948
 6301TIP3    H218847   0.567   2.511   5.096
 6302TIP3   OH218848   0.695   1.197   5.287
 6302TIP3    H118849   0.694   1.292   5.299
 6302TIP3    H218850   0.787   1.176   5.272
 6303TIP3   OH218851   1.921   1.688   6.153
 6303TIP3    H118852   1.826   1.677   6.144
 6303TIP3    H218853   1.954   1.689   6.063
 6304TIP3   OH218854   1.566   1.863   5.512
 6304TIP3    H118855   1.486   1.811   5.525
 6304TIP3    H218856   1.630   1.824   5.571
 6305TIP3   OH218857   0.304   2.064   4.986
 6305TIP3    H118858   0.374   2.128   4.998
 6305TIP3    H218859   0.339   2.004   4.919
 6306TIP3   OH218860   0.256   1.398   5.013
 6306TIP3    H118861   0.240   1.479   5.061
 6306TIP3    H218862   0.225   1.329   5.071
 6307TIP3   OH218863   1.552   2.837   5.456
 6307TIP3    H118864   1.510   2.889   5.387
 6307TIP3    H218865   1.646   2.850   5.442
 6308TIP3   OH218866   0.157   2.321   5.374
 6308TIP3    H118867   0.130   2.354   5.460
 6308TIP3    H218868   0.094   2.359   5.313
 6309TIP3   OH218869   0.370   2.902   6.450
 6309TIP3    H118870   0.440   2.912   6.514
 6309TIP3    H218871   0.373   2.809   6.426
 6310TIP3   OH218872   0.809   2.803   6.499
 6310TIP3    H118873   0.899   2.777   6.519
 6310TIP3    H218874   0.781   2.743   6.430
 6311TIP3   OH218875   0.769   2.390   4.619
 6311TIP3    H118876   0.721   2.319   4.663
 6311TIP3    H218877   0.843   2.347   4.578
 6312TIP3   OH218878   1.420   2.722   6.256
 6312TIP3    H118879   1.438   2.653   6.320
 6312TIP3    H218880   1.489   2.786   6.270
 6313TIP3   OH218881   1.210   2.430   4.539
 6313TIP3    H118882   1.245   2.366   4.601
 6313TIP3    H218883   1.267   2.424   4.463
 6314TIP3   OH218884   0.438   2.257   6.672
 6314TIP3    H118885   0.498   2.212   6.731
 6314TIP3    H218886   0.353   2.214   6.688
 6315TIP3   OH218887   0.434   1.877   4.836
 6315TIP3    H118888   0.486   1.856   4.914
 6315TIP3    H218889   0.499   1.893   4.767
 6316TIP3   OH218890   1.055   2.353   6.435
 6316TIP3    H118891   1.011   2.384   6.356
 6316TIP3    H218892   1.092   2.269   6.411
 6317TIP3   OH218893   1.013   2.102   4.679
 6317TIP3    H118894   0.988   2.113   4.771
 6317TIP3    H218895   0.992   2.010   4.659
 6318TIP3   OH218896   1.537   2.397   6.027
 6318TIP3    H118897   1.613   2.428   5.977
 6318TIP3    H218898   1.473   2.468   6.019
 6319TIP3   OH218899   0.609   1.829   5.047
 6319TIP3    H118900   0.592   1.797   5.135
 6319TIP3    H218901   0.661   1.759   5.006
 6320TIP3   OH218902   0.874   1.977   6.331
 6320TIP3    H118903   0.948   2.021   6.372
 6320TIP3    H218904   0.900   1.967   6.239
 6321TIP3   OH218905   0.757   1.647   4.901
 6321TIP3    H118906   0.725   1.649   4.810
 6321TIP3    H218907   0.852   1.653   4.893
 6322TIP3   OH218908   1.405   2.282   6.383
 6322TIP3    H118909   1.479   2.250   6.332
 6322TIP3    H218910   1.406   2.229   6.463
 6323TIP3   OH218911   1.547   1.923   4.580
 6323TIP3    H118912   1.534   1.884   4.494
 6323TIP3    H218913   1.524   2.015   4.569
 6324TIP3   OH218914   1.023   1.663   6.393
 6324TIP3    H118915   1.034   1.582   6.343
 6324TIP3    H218916   1.087   1.723   6.355
 6325TIP3   OH218917   1.041   1.462   6.193
 6325TIP3    H118918   1.063   1.505   6.110
 6325TIP3    H218919   0.951   1.433   6.182
 6326TIP3   OH218920   1.036   2.000   6.099
 6326TIP3    H118921   1.115   1.987   6.047
 6326TIP3    H218922   0.982   2.061   6.047
 6327TIP3   OH218923   1.648   1.945   6.455
 6327TIP3    H118924   1.687   1.858   6.467
 6327TIP3    H218925   1.722   2.003   6.437
 6328TIP3   OH218926   1.672   2.226   6.188
 6328TIP3    H118927   1.616   2.285   6.139
 6328TIP3    H218928   1.761   2.247   6.158
 6329TIP3   OH218929   0.802   1.762   6.535
 6329TIP3    H118930   0.793   1.744   6.629
 6329TIP3    H218931   0.876   1.709   6.507
 6330TIP3   OH218932   1.190   1.243   6.275
 6330TIP3    H118933   1.137   1.318   6.248
 6330TIP3    H218934   1.142   1.167   6.243
 6331TIP3   OH218935   1.296   1.733   6.523
 6331TIP3    H118936   1.349   1.730   6.602
 6331TIP3    H218937   1.211   1.698   6.549
 6332TIP3   OH218938   1.516   1.664   6.361
 6332TIP3    H118939   1.439   1.674   6.417
 6332TIP3    H218940   1.588   1.649   6.422
 6333TIP3   OH218941   1.747   1.651   6.518
 6333TIP3    H118942   1.766   1.557   6.521
 6333TIP3    H218943   1.745   1.679   6.610
 6334TIP3   OH218944   1.260   1.223   6.537
 6334TIP3    H118945   1.323   1.151   6.530
 6334TIP3    H218946   1.221   1.230   6.450
 6335TIP3   OH218947   1.309   1.451   6.671
 6335TIP3    H118948   1.288   1.372   6.621
 6335TIP3    H218949   1.227   1.501   6.674
 6336TIP3   OH218950   0.571   2.678   4.827
 6336TIP3    H118951   0.663   2.661   4.807
 6336TIP3    H218952   0.538   2.725   4.750
 6337TIP3   OH218953   0.033   2.034   5.035
 6337TIP3    H118954   0.124   2.053   5.014
 6337TIP3    H218955   0.007   1.968   4.970
 6338TIP3   OH218956   8.466   2.597   5.427
 6338TIP3    H118957   8.443   2.534   5.358
 6338TIP3    H218958   8.506   2.543   5.495
 6339TIP3   OH218959   0.115   2.456   5.612
 6339TIP3    H118960   0.130   2.389   5.679
 6339TIP3    H218961   0.136   2.539   5.654
 6340TIP3   OH218962   1.824   2.886   5.448
 6340TIP3    H118963   1.843   2.917   5.536
 6340TIP3    H218964   1.878   2.940   5.391
 6341TIP3   OH218965   1.842   2.919   5.729
 6341TIP3    H118966   1.795   2.836   5.724
 6341TIP3    H218967   1.915   2.903   5.789
 6342TIP3   OH218968   1.980   2.681   6.364
 6342TIP3    H118969   1.896   2.667   6.407
 6342TIP3    H218970   1.960   2.733   6.286
 6343TIP3   OH218971   1.721   2.134   4.907
 6343TIP3    H118972   1.775   2.206   4.875
 6343TIP3    H218973   1.769   2.100   4.983
 6344TIP3   OH218974   1.854   1.999   5.112
 6344TIP3    H118975   1.786   1.967   5.171
 6344TIP3    H218976   1.921   2.035   5.171
 6345TIP3   OH218977   1.892   2.397   5.544
 6345TIP3    H118978   1.946   2.330   5.502
 6345TIP3    H218979   1.894   2.471   5.484
 6346TIP3   OH218980   1.697   2.683   5.733
 6346TIP3    H118981   1.629   2.729   5.783
 6346TIP3    H218982   1.650   2.644   5.659
 6347TIP3   OH218983   1.756   1.906   4.757
 6347TIP3    H118984   1.685   1.906   4.693
 6347TIP3    H218985   1.742   1.986   4.808
 6348TIP3   OH218986   1.607   1.552   4.700
 6348TIP3    H118987   1.560   1.592   4.626
 6348TIP3    H218988   1.600   1.458   4.683
 6349TIP3   OH218989   1.646   1.864   5.247
 6349TIP3    H118990   1.648   1.769   5.231
 6349TIP3    H218991   1.622   1.872   5.339
 6350TIP3   OH218992   0.270   1.929   6.049
 6350TIP3    H118993   0.259   1.890   5.962
 6350TIP3    H218994   0.363   1.914   6.069
 6351TIP3   OH218995   1.934   2.285   6.110
 6351TIP3    H118996   1.992   2.210   6.095
 6351TIP3    H218997   1.955   2.345   6.039
 6352TIP3   OH218998   2.087   2.057   6.094
 6352TIP3    H118999   2.020   2.021   6.152
 6352TIP3    H219000   2.166   2.007   6.115
 6353TIP3   OH219001   1.581   1.279   4.676
 6353TIP3    H119002   1.629   1.253   4.754
 6353TIP3    H219003   1.490   1.253   4.694
 6354TIP3   OH219004   1.640   1.585   5.141
 6354TIP3    H119005   1.683   1.501   5.152
 6354TIP3    H219006   1.678   1.622   5.061
 6355TIP3   OH219007   1.779   1.740   5.655
 6355TIP3    H119008   1.862   1.757   5.610
 6355TIP3    H219009   1.790   1.781   5.741
 6356TIP3   OH219010   1.849   1.892   5.885
 6356TIP3    H119011   1.777   1.923   5.940
 6356TIP3    H219012   1.882   1.970   5.842
 6357TIP3   OH219013   2.294   1.467   6.427
 6357TIP3    H119014   2.376   1.421   6.408
 6357TIP3    H219015   2.293   1.541   6.366
 6358TIP3   OH219016   1.751   1.332   5.212
 6358TIP3    H119017   1.764   1.326   5.306
 6358TIP3    H219018   1.692   1.260   5.190
 6359TIP3   OH219019   2.176   1.611   6.219
 6359TIP3    H119020   2.087   1.645   6.224
 6359TIP3    H219021   2.167   1.527   6.173
 6360TIP3   OH219022   1.821   1.236   4.839
 6360TIP3    H119023   1.851   1.188   4.762
 6360TIP3    H219024   1.862   1.322   4.832
 6361TIP3   OH219025   1.379   2.802   5.090
 6361TIP3    H119026   1.437   2.793   5.014
 6361TIP3    H219027   1.418   2.872   5.142
 6362TIP3   OH219028   0.454   2.620   6.439
 6362TIP3    H119029   0.435   2.532   6.407
 6362TIP3    H219030   0.464   2.610   6.534
 6363TIP3   OH219031   0.703   2.629   6.022
 6363TIP3    H119032   0.650   2.701   5.987
 6363TIP3    H219033   0.788   2.639   5.979
 6364TIP3   OH219034   1.098   2.868   6.156
 6364TIP3    H119035   1.134   2.864   6.244
 6364TIP3    H219036   1.157   2.926   6.108
 6365TIP3   OH219037   1.284   3.031   6.032
 6365TIP3    H119038   1.349   2.982   5.982
 6365TIP3    H219039   1.335   3.090   6.087
 6366TIP3   OH219040   2.087   1.362   6.102
 6366TIP3    H119041   2.004   1.361   6.055
 6366TIP3    H219042   2.120   1.273   6.093
 6367TIP3   OH219043   0.398   2.838   6.082
 6367TIP3    H119044   0.310   2.843   6.047
 6367TIP3    H219045   0.408   2.917   6.135
 6368TIP3   OH219046   0.607   2.858   5.905
 6368TIP3    H119047   0.527   2.860   5.957
 6368TIP3    H219048   0.578   2.882   5.817
 6369TIP3   OH219049   1.000   2.886   5.707
 6369TIP3    H119050   0.931   2.897   5.642
 6369TIP3    H219051   1.011   2.974   5.745
 6370TIP3   OH219052   1.263   2.822   5.755
 6370TIP3    H119053   1.171   2.843   5.738
 6370TIP3    H219054   1.313   2.891   5.712
 6371TIP3   OH219055   1.464   2.997   5.663
 6371TIP3    H119056   1.456   3.084   5.623
 6371TIP3    H219057   1.494   2.941   5.591
 6372TIP3   OH219058   0.275   2.643   5.749
 6372TIP3    H119059   0.283   2.630   5.844
 6372TIP3    H219060   0.352   2.600   5.713
 6373TIP3   OH219061   0.486   2.518   5.622
 6373TIP3    H119062   0.492   2.444   5.683
 6373TIP3    H219063   0.566   2.567   5.636
 6374TIP3   OH219064   0.742   2.621   5.668
 6374TIP3    H119065   0.765   2.529   5.660
 6374TIP3    H219066   0.794   2.652   5.743
 6375TIP3   OH219067   1.306   1.288   5.741
 6375TIP3    H119068   1.255   1.223   5.789
 6375TIP3    H219069   1.371   1.236   5.692
 6376TIP3   OH219070   1.778   1.217   5.616
 6376TIP3    H119071   1.785   1.312   5.610
 6376TIP3    H219072   1.685   1.201   5.632
 6377TIP3   OH219073   0.950   1.102   5.637
 6377TIP3    H119074   1.011   1.100   5.563
 6377TIP3    H219075   1.006   1.091   5.714
 6378TIP3   OH219076   1.508   1.141   5.622
 6378TIP3    H119077   1.517   1.097   5.538
 6378TIP3    H219078   1.508   1.070   5.687
 6379TIP3   OH219079   1.568   1.121   5.193
 6379TIP3    H119080   1.488   1.169   5.214
 6379TIP3    H219081   1.555   1.034   5.231
 6380TIP3   OH219082   8.490   2.434   5.186
 6380TIP3    H119083   8.472   2.366   5.121
 6380TIP3    H219084   8.525   2.507   5.135
 6381TIP3   OH219085   0.967   1.227   5.255
 6381TIP3    H119086   1.023   1.173   5.310
 6381TIP3    H219087   0.981   1.316   5.287
 6382TIP3   OH219088   0.830   2.611   4.767
 6382TIP3    H119089   0.913   2.640   4.728
 6382TIP3    H219090   0.800   2.541   4.709
 6383TIP3   OH219091   1.532   2.756   4.863
 6383TIP3    H119092   1.526   2.661   4.855
 6383TIP3    H219093   1.490   2.790   4.783
 6384TIP3   OH219094   0.124   2.428   4.862
 6384TIP3    H119095   0.143   2.501   4.921
 6384TIP3    H219096   0.210   2.401   4.829
 6385TIP3   OH219097   1.824   1.387   6.529
 6385TIP3    H119098   1.840   1.346   6.614
 6385TIP3    H219099   1.907   1.376   6.481
 6386TIP3   OH219100   1.744   2.886   6.057
 6386TIP3    H119101   1.671   2.859   6.002
 6386TIP3    H219102   1.738   2.982   6.060
 6387TIP3   OH219103   3.023   2.274   4.788
 6387TIP3    H119104   2.987   2.362   4.772
 6387TIP3    H219105   2.952   2.215   4.764
 6388TIP3   OH219106   3.023   2.273   5.214
 6388TIP3    H119107   3.077   2.254   5.291
 6388TIP3    H219108   2.979   2.190   5.195
 6389TIP3   OH219109   2.321   2.133   5.564
 6389TIP3    H119110   2.362   2.080   5.632
 6389TIP3    H219111   2.394   2.160   5.507
 6390TIP3   OH219112   3.293   2.579   4.886
 6390TIP3    H119113   3.279   2.513   4.954
 6390TIP3    H219114   3.312   2.660   4.933
 6391TIP3   OH219115   2.313   2.554   5.241
 6391TIP3    H119116   2.295   2.460   5.248
 6391TIP3    H219117   2.408   2.559   5.230
 6392TIP3   OH219118   1.985   1.763   5.039
 6392TIP3    H119119   1.954   1.850   5.061
 6392TIP3    H219120   1.912   1.723   4.990
 6393TIP3   OH219121   2.085   2.070   5.258
 6393TIP3    H119122   2.135   1.993   5.284
 6393TIP3    H219123   2.151   2.136   5.235
 6394TIP3   OH219124   2.960   2.995   4.914
 6394TIP3    H119125   2.974   2.936   4.840
 6394TIP3    H219126   2.977   2.940   4.991
 6395TIP3   OH219127   2.831   2.494   5.217
 6395TIP3    H119128   2.877   2.414   5.190
 6395TIP3    H219129   2.900   2.553   5.245
 6396TIP3   OH219130   3.864   1.815   5.233
 6396TIP3    H119131   3.881   1.898   5.278
 6396TIP3    H219132   3.890   1.830   5.143
 6397TIP3   OH219133   3.240   1.977   5.252
 6397TIP3    H119134   3.280   1.893   5.278
 6397TIP3    H219135   3.199   1.959   5.167
 6398TIP3   OH219136   2.574   1.636   5.212
 6398TIP3    H119137   2.559   1.712   5.155
 6398TIP3    H219138   2.531   1.563   5.167
 6399TIP3   OH219139   3.290   1.740   4.847
 6399TIP3    H119140   3.354   1.739   4.918
 6399TIP3    H219141   3.337   1.777   4.772
 6400TIP3   OH219142   2.213   1.835   5.351
 6400TIP3    H119143   2.297   1.820   5.393
 6400TIP3    H219144   2.220   1.792   5.266
 6401TIP3   OH219145   2.634   2.056   5.160
 6401TIP3    H119146   2.728   2.043   5.165
 6401TIP3    H219147   2.600   1.973   5.126
 6402TIP3   OH219148   3.920   2.034   5.399
 6402TIP3    H119149   3.832   2.071   5.393
 6402TIP3    H219150   3.956   2.070   5.480
 6403TIP3   OH219151   2.566   1.639   5.661
 6403TIP3    H119152   2.518   1.673   5.586
 6403TIP3    H219153   2.510   1.658   5.736
 6404TIP3   OH219154   2.878   2.483   4.683
 6404TIP3    H119155   2.859   2.468   4.590
 6404TIP3    H219156   2.840   2.569   4.701
 6405TIP3   OH219157   2.667   2.420   5.428
 6405TIP3    H119158   2.615   2.493   5.462
 6405TIP3    H219159   2.717   2.457   5.355
 6406TIP3   OH219160   3.453   1.773   5.062
 6406TIP3    H119161   3.417   1.749   5.148
 6406TIP3    H219162   3.510   1.848   5.080
 6407TIP3   OH219163   2.468   1.762   5.433
 6407TIP3    H119164   2.528   1.833   5.455
 6407TIP3    H219165   2.512   1.714   5.363
 6408TIP3   OH219166   2.514   2.625   5.534
 6408TIP3    H119167   2.501   2.715   5.503
 6408TIP3    H219168   2.435   2.606   5.584
 6409TIP3   OH219169   1.887   2.326   4.789
 6409TIP3    H119170   1.855   2.344   4.700
 6409TIP3    H219171   1.910   2.412   4.824
 6410TIP3   OH219172   3.320   2.827   5.029
 6410TIP3    H119173   3.230   2.824   5.063
 6410TIP3    H219174   3.324   2.911   4.983
 6411TIP3   OH219175   3.655   1.707   5.397
 6411TIP3    H119176   3.570   1.729   5.360
 6411TIP3    H219177   3.718   1.735   5.331
 6412TIP3   OH219178   2.930   1.339   5.389
 6412TIP3    H119179   2.926   1.252   5.428
 6412TIP3    H219180   2.855   1.386   5.425
 6413TIP3   OH219181   3.028   2.856   4.681
 6413TIP3    H119182   3.083   2.779   4.668
 6413TIP3    H219183   3.083   2.930   4.658
 6414TIP3   OH219184   3.184   2.639   4.637
 6414TIP3    H119185   3.197   2.566   4.576
 6414TIP3    H219186   3.224   2.609   4.719
 6415TIP3   OH219187   3.565   2.712   5.375
 6415TIP3    H119188   3.545   2.638   5.318
 6415TIP3    H219189   3.549   2.789   5.320
 6416TIP3   OH219190   2.847   2.113   4.641
 6416TIP3    H119191   2.766   2.162   4.624
 6416TIP3    H219192   2.895   2.118   4.558
 6417TIP3   OH219193   2.820   1.922   4.332
 6417TIP3    H119194   2.883   1.972   4.383
 6417TIP3    H219195   2.872   1.856   4.286
 6418TIP3   OH219196   3.739   2.377   5.246
 6418TIP3    H119197   3.655   2.422   5.244
 6418TIP3    H219198   3.775   2.387   5.158
 6419TIP3   OH219199   3.210   2.211   4.599
 6419TIP3    H119200   3.154   2.237   4.673
 6419TIP3    H219201   3.293   2.187   4.640
 6420TIP3   OH219202   3.439   2.236   5.549
 6420TIP3    H119203   3.434   2.320   5.595
 6420TIP3    H219204   3.358   2.232   5.498
 6421TIP3   OH219205   2.435   2.186   5.006
 6421TIP3    H119206   2.403   2.126   4.939
 6421TIP3    H219207   2.509   2.141   5.046
 6422TIP3   OH219208   2.575   2.606   5.147
 6422TIP3    H119209   2.553   2.597   5.054
 6422TIP3    H219210   2.663   2.569   5.155
 6423TIP3   OH219211   2.530   2.188   5.381
 6423TIP3    H119212   2.570   2.150   5.303
 6423TIP3    H219213   2.580   2.268   5.397
 6424TIP3   OH219214   3.073   2.832   5.152
 6424TIP3    H119215   3.071   2.910   5.208
 6424TIP3    H219216   3.065   2.759   5.212
 6425TIP3   OH219217   2.709   2.722   5.706
 6425TIP3    H119218   2.649   2.781   5.751
 6425TIP3    H219219   2.653   2.671   5.647
 6426TIP3   OH219220   3.041   2.067   4.436
 6426TIP3    H119221   3.099   2.126   4.483
 6426TIP3    H219222   3.071   2.071   4.345
 6427TIP3   OH219223   2.467   2.280   5.833
 6427TIP3    H119224   2.468   2.371   5.862
 6427TIP3    H219225   2.374   2.258   5.825
 6428TIP3   OH219226   2.777   2.744   4.694
 6428TIP3    H119227   2.864   2.783   4.696
 6428TIP3    H219228   2.724   2.803   4.640
 6429TIP3   OH219229   2.504   2.889   5.787
 6429TIP3    H119230   2.485   2.899   5.694
 6429TIP3    H219231   2.418   2.875   5.827
 6430TIP3   OH219232   3.551   1.295   4.493
 6430TIP3    H119233   3.475   1.316   4.547
 6430TIP3    H219234   3.562   1.371   4.436
 6431TIP3   OH219235   2.313   2.029   4.802
 6431TIP3    H119236   2.238   2.080   4.772
 6431TIP3    H219237   2.277   1.941   4.816
 6432TIP3   OH219238   3.379   2.684   4.041
 6432TIP3    H119239   3.377   2.778   4.021
 6432TIP3    H219240   3.467   2.656   4.019
 6433TIP3   OH219241   2.093   2.442   5.737
 6433TIP3    H119242   2.026   2.422   5.672
 6433TIP3    H219243   2.129   2.357   5.762
 6434TIP3   OH219244   1.936   2.632   5.396
 6434TIP3    H119245   2.027   2.657   5.411
 6434TIP3    H219246   1.885   2.709   5.421
 6435TIP3   OH219247   3.796   3.082   5.440
 6435TIP3    H119248   3.800   2.987   5.453
 6435TIP3    H219249   3.715   3.108   5.484
 6436TIP3   OH219250   2.898   2.864   5.566
 6436TIP3    H119251   2.890   2.955   5.594
 6436TIP3    H219252   2.831   2.817   5.615
 6437TIP3   OH219253   2.676   2.951   4.517
 6437TIP3    H119254   2.638   2.932   4.432
 6437TIP3    H219255   2.641   3.037   4.541
 6438TIP3   OH219256   2.114   2.816   4.897
 6438TIP3    H119257   2.158   2.807   4.981
 6438TIP3    H219258   2.065   2.734   4.887
 6439TIP3   OH219259   2.877   2.894   4.141
 6439TIP3    H119260   2.928   2.821   4.106
 6439TIP3    H219261   2.915   2.911   4.227
 6440TIP3   OH219262   2.932   2.937   4.411
 6440TIP3    H119263   2.847   2.939   4.456
 6440TIP3    H219264   2.992   2.899   4.474
 6441TIP3   OH219265   3.680   2.197   5.713
 6441TIP3    H119266   3.600   2.201   5.661
 6441TIP3    H219267   3.701   2.104   5.718
 6442TIP3   OH219268   2.294   2.627   5.701
 6442TIP3    H119269   2.344   2.616   5.781
 6442TIP3    H219270   2.222   2.564   5.708
 6443TIP3   OH219271   2.701   1.445   5.486
 6443TIP3    H119272   2.612   1.430   5.453
 6443TIP3    H219273   2.688   1.473   5.576
 6444TIP3   OH219274   3.221   1.554   5.716
 6444TIP3    H119275   3.285   1.525   5.782
 6444TIP3    H219276   3.136   1.537   5.757
 6445TIP3   OH219277   3.439   1.971   5.640
 6445TIP3    H119278   3.399   1.967   5.727
 6445TIP3    H219279   3.424   2.061   5.610
 6446TIP3   OH219280   3.126   2.047   4.176
 6446TIP3    H119281   3.075   2.055   4.095
 6446TIP3    H219282   3.208   2.093   4.158
 6447TIP3   OH219283   2.826   1.470   4.496
 6447TIP3    H119284   2.792   1.474   4.586
 6447TIP3    H219285   2.790   1.388   4.461
 6448TIP3   OH219286   2.622   1.970   5.528
 6448TIP3    H119287   2.575   1.973   5.612
 6448TIP3    H219288   2.596   2.051   5.484
 6449TIP3   OH219289   2.491   1.841   5.051
 6449TIP3    H119290   2.400   1.821   5.073
 6449TIP3    H219291   2.501   1.810   4.961
 6450TIP3   OH219292   2.973   1.911   4.776
 6450TIP3    H119293   2.926   1.984   4.736
 6450TIP3    H219294   3.032   1.880   4.707
 6451TIP3   OH219295   3.160   2.180   5.850
 6451TIP3    H119296   3.133   2.112   5.912
 6451TIP3    H219297   3.252   2.195   5.869
 6452TIP3   OH219298   3.143   1.926   5.000
 6452TIP3    H119299   3.074   1.949   4.937
 6452TIP3    H219300   3.189   1.853   4.959
 6453TIP3   OH219301   2.457   1.974   5.750
 6453TIP3    H119302   2.497   2.028   5.818
 6453TIP3    H219303   2.438   1.890   5.793
 6454TIP3   OH219304   2.491   1.445   4.469
 6454TIP3    H119305   2.486   1.464   4.563
 6454TIP3    H219306   2.415   1.490   4.432
 6455TIP3   OH219307   1.955   1.477   4.853
 6455TIP3    H119308   2.000   1.511   4.775
 6455TIP3    H219309   1.888   1.544   4.872
 6456TIP3   OH219310   3.189   2.180   5.425
 6456TIP3    H119311   3.213   2.113   5.361
 6456TIP3    H219312   3.144   2.132   5.494
 6457TIP3   OH219313   2.837   1.661   5.106
 6457TIP3    H119314   2.764   1.646   5.166
 6457TIP3    H219315   2.913   1.623   5.150
 6458TIP3   OH219316   2.247   1.718   5.102
 6458TIP3    H119317   2.157   1.731   5.073
 6458TIP3    H219318   2.267   1.628   5.074
 6459TIP3   OH219319   2.505   1.716   4.804
 6459TIP3    H119320   2.600   1.730   4.800
 6459TIP3    H219321   2.473   1.736   4.716
 6460TIP3   OH219322   3.342   1.718   5.311
 6460TIP3    H119323   3.307   1.735   5.398
 6460TIP3    H219324   3.301   1.635   5.285
 6461TIP3   OH219325   2.402   1.733   4.552
 6461TIP3    H119326   2.336   1.689   4.498
 6461TIP3    H219327   2.453   1.784   4.489
 6462TIP3   OH219328   3.506   3.421   5.529
 6462TIP3    H119329   3.503   3.432   5.434
 6462TIP3    H219330   3.583   3.471   5.557
 6463TIP3   OH219331   2.443   2.543   5.937
 6463TIP3    H119332   2.525   2.561   5.984
 6463TIP3    H219333   2.375   2.549   6.004
 6464TIP3   OH219334   2.908   2.007   5.204
 6464TIP3    H119335   2.968   1.953   5.153
 6464TIP3    H219336   2.906   1.966   5.290
 6465TIP3   OH219337   2.457   1.429   5.053
 6465TIP3    H119338   2.531   1.373   5.076
 6465TIP3    H219339   2.458   1.432   4.958
 6466TIP3   OH219340   2.883   1.909   5.465
 6466TIP3    H119341   2.797   1.942   5.492
 6466TIP3    H219342   2.945   1.957   5.521
 6467TIP3   OH219343   2.612   2.253   4.584
 6467TIP3    H119344   2.535   2.201   4.557
 6467TIP3    H219345   2.585   2.295   4.665
 6468TIP3   OH219346   3.502   2.509   5.199
 6468TIP3    H119347   3.541   2.557   5.126
 6468TIP3    H219348   3.423   2.470   5.162
 6469TIP3   OH219349   3.079   1.574   4.489
 6469TIP3    H119350   2.985   1.554   4.488
 6469TIP3    H219351   3.083   1.669   4.503
 6470TIP3   OH219352   3.024   2.597   5.599
 6470TIP3    H119353   3.077   2.587   5.677
 6470TIP3    H219354   2.984   2.683   5.607
 6471TIP3   OH219355   3.139   1.836   4.561
 6471TIP3    H119356   3.234   1.842   4.572
 6471TIP3    H219357   3.116   1.915   4.511
 6472TIP3   OH219358   2.298   2.259   5.235
 6472TIP3    H119359   2.336   2.245   5.148
 6472TIP3    H219360   2.368   2.236   5.296
 6473TIP3   OH219361   2.768   2.414   4.428
 6473TIP3    H119362   2.720   2.497   4.425
 6473TIP3    H219363   2.713   2.356   4.481
 6474TIP3   OH219364   2.190   2.221   5.876
 6474TIP3    H119365   2.211   2.209   5.968
 6474TIP3    H219366   2.124   2.155   5.857
 6475TIP3   OH219367   2.930   2.338   5.889
 6475TIP3    H119368   2.861   2.280   5.857
 6475TIP3    H219369   3.011   2.297   5.861
 6476TIP3   OH219370   3.169   2.888   5.489
 6476TIP3    H119371   3.074   2.873   5.494
 6476TIP3    H219372   3.192   2.924   5.575
 6477TIP3   OH219373   3.553   1.925   4.377
 6477TIP3    H119374   3.498   1.879   4.314
 6477TIP3    H219375   3.558   2.015   4.345
 6478TIP3   OH219376   3.808   2.806   5.463
 6478TIP3    H119377   3.715   2.786   5.458
 6478TIP3    H219378   3.844   2.772   5.381
 6479TIP3   OH219379   3.281   2.739   4.301
 6479TIP3    H119380   3.257   2.657   4.344
 6479TIP3    H219381   3.311   2.713   4.214
 6480TIP3   OH219382   3.274   2.377   5.090
 6480TIP3    H119383   3.184   2.355   5.114
 6480TIP3    H219384   3.309   2.297   5.051
 6481TIP3   OH219385   2.438   2.617   4.901
 6481TIP3    H119386   2.441   2.693   4.843
 6481TIP3    H219387   2.346   2.609   4.925
 6482TIP3   OH219388   1.998   1.893   4.621
 6482TIP3    H119389   2.038   1.978   4.639
 6482TIP3    H219390   1.915   1.896   4.668
 6483TIP3   OH219391   2.506   2.367   4.805
 6483TIP3    H119392   2.498   2.458   4.835
 6483TIP3    H219393   2.484   2.315   4.881
 6484TIP3   OH219394   2.717   2.937   5.356
 6484TIP3    H119395   2.752   3.011   5.307
 6484TIP3    H219396   2.791   2.903   5.406
 6485TIP3   OH219397   2.348   2.841   4.752
 6485TIP3    H119398   2.262   2.845   4.792
 6485TIP3    H219399   2.381   2.931   4.757
 6486TIP3   OH219400   3.064   2.607   5.324
 6486TIP3    H119401   3.051   2.600   5.419
 6486TIP3    H219402   3.141   2.553   5.306
 6487TIP3   OH219403   3.069   2.480   4.207
 6487TIP3    H119404   3.105   2.464   4.294
 6487TIP3    H219405   2.983   2.437   4.208
 6488TIP3   OH219406   3.326   3.099   5.367
 6488TIP3    H119407   3.253   3.040   5.384
 6488TIP3    H219408   3.295   3.157   5.297
 6489TIP3   OH219409   3.383   2.954   3.992
 6489TIP3    H119410   3.449   3.022   3.983
 6489TIP3    H219411   3.309   2.997   4.035
 6490TIP3   OH219412   2.406   1.726   5.873
 6490TIP3    H119413   2.316   1.699   5.887
 6490TIP3    H219414   2.452   1.697   5.952
 6491TIP3   OH219415   3.234   2.434   4.434
 6491TIP3    H119416   3.215   2.358   4.490
 6491TIP3    H219417   3.327   2.426   4.414
 6492TIP3   OH219418   2.144   2.832   5.521
 6492TIP3    H119419   2.199   2.774   5.574
 6492TIP3    H219420   2.160   2.919   5.557
 6493TIP3   OH219421   2.407   2.447   4.216
 6493TIP3    H119422   2.416   2.356   4.187
 6493TIP3    H219423   2.395   2.441   4.311
 6494TIP3   OH219424   2.351   2.459   4.490
 6494TIP3    H119425   2.420   2.435   4.552
 6494TIP3    H219426   2.349   2.555   4.492
 6495TIP3   OH219427   2.085   2.149   4.696
 6495TIP3    H119428   2.021   2.199   4.747
 6495TIP3    H219429   2.106   2.206   4.622
 6496TIP3   OH219430   3.252   1.781   5.564
 6496TIP3    H119431   3.328   1.828   5.599
 6496TIP3    H219432   3.243   1.705   5.622
 6497TIP3   OH219433   3.142   1.523   4.756
 6497TIP3    H119434   3.121   1.542   4.665
 6497TIP3    H219435   3.184   1.603   4.788
 6498TIP3   OH219436   2.619   2.639   4.423
 6498TIP3    H119437   2.536   2.667   4.461
 6498TIP3    H219438   2.646   2.713   4.367
 6499TIP3   OH219439   2.780   1.729   4.847
 6499TIP3    H119440   2.845   1.794   4.821
 6499TIP3    H219441   2.800   1.711   4.939
 6500TIP3   OH219442   3.089   2.016   5.622
 6500TIP3    H119443   3.113   2.058   5.705
 6500TIP3    H219444   3.138   1.935   5.621
 6501TIP3   OH219445   2.963   1.414   4.935
 6501TIP3    H119446   2.980   1.468   5.012
 6501TIP3    H219447   3.024   1.446   4.869
 6502TIP3   OH219448   2.371   2.732   4.501
 6502TIP3    H119449   2.352   2.802   4.439
 6502TIP3    H219450   2.362   2.773   4.587
 6503TIP3   OH219451   2.470   1.444   4.760
 6503TIP3    H119452   2.461   1.538   4.774
 6503TIP3    H219453   2.565   1.430   4.757
 6504TIP3   OH219454   3.705   1.917   5.619
 6504TIP3    H119455   3.610   1.927   5.632
 6504TIP3    H219456   3.712   1.865   5.539
 6505TIP3   OH219457   3.367   2.120   5.000
 6505TIP3    H119458   3.291   2.064   5.014
 6505TIP3    H219459   3.435   2.082   5.056
 6506TIP3   OH219460   2.109   2.324   4.479
 6506TIP3    H119461   2.180   2.387   4.489
 6506TIP3    H219462   2.140   2.264   4.412
 6507TIP3   OH219463   2.018   1.615   4.625
 6507TIP3    H119464   2.030   1.710   4.630
 6507TIP3    H219465   1.975   1.601   4.541
 6508TIP3   OH219466   3.352   3.095   4.951
 6508TIP3    H119467   3.312   3.151   4.884
 6508TIP3    H219468   3.446   3.100   4.933
 6509TIP3   OH219469   1.934   2.597   4.871
 6509TIP3    H119470   1.892   2.634   4.949
 6509TIP3    H219471   1.891   2.640   4.798
 6510TIP3   OH219472   2.130   3.140   5.931
 6510TIP3    H119473   2.209   3.148   5.984
 6510TIP3    H219474   2.124   3.046   5.911
 6511TIP3   OH219475   2.601   3.049   5.995
 6511TIP3    H119476   2.693   3.025   6.002
 6511TIP3    H219477   2.568   2.998   5.921
 6512TIP3   OH219478   2.567   2.642   4.103
 6512TIP3    H119479   2.519   2.573   4.148
 6512TIP3    H219480   2.639   2.598   4.059
 6513TIP3   OH219481   3.223   2.982   5.742
 6513TIP3    H119482   3.239   2.912   5.805
 6513TIP3    H219483   3.297   3.042   5.753
 6514TIP3   OH219484   3.005   2.680   4.026
 6514TIP3    H119485   3.043   2.620   4.090
 6514TIP3    H219486   3.066   2.679   3.952
 6515TIP3   OH219487   2.235   2.528   6.124
 6515TIP3    H119488   2.259   2.435   6.126
 6515TIP3    H219489   2.152   2.530   6.077
 6516TIP3   OH219490   2.227   2.136   4.320
 6516TIP3    H119491   2.280   2.112   4.396
 6516TIP3    H219492   2.291   2.151   4.250
 6517TIP3   OH219493   2.858   2.615   5.912
 6517TIP3    H119494   2.816   2.638   5.829
 6517TIP3    H219495   2.896   2.528   5.896
 6518TIP3   OH219496   2.818   2.358   4.165
 6518TIP3    H119497   2.790   2.371   4.256
 6518TIP3    H219498   2.796   2.267   4.146
 6519TIP3   OH219499   3.337   2.663   5.527
 6519TIP3    H119500   3.416   2.688   5.478
 6519TIP3    H219501   3.274   2.732   5.508
 6520TIP3   OH219502   2.332   2.273   6.141
 6520TIP3    H119503   2.400   2.211   6.115
 6520TIP3    H219504   2.348   2.289   6.234
 6521TIP3   OH219505   2.401   2.077   4.532
 6521TIP3    H119506   2.386   2.047   4.621
 6521TIP3    H219507   2.452   2.007   4.491
 6522TIP3   OH219508   2.712   2.155   5.794
 6522TIP3    H119509   2.631   2.206   5.803
 6522TIP3    H219510   2.749   2.186   5.711
 6523TIP3   OH219511   2.545   1.892   4.379
 6523TIP3    H119512   2.516   1.898   4.288
 6523TIP3    H219513   2.640   1.901   4.375
 6524TIP3   OH219514   3.222   2.535   5.875
 6524TIP3    H119515   3.290   2.498   5.819
 6524TIP3    H219516   3.219   2.477   5.951
 6525TIP3   OH219517   3.341   2.183   4.063
 6525TIP3    H119518   3.324   2.144   3.977
 6525TIP3    H219519   3.321   2.276   4.052
 6526TIP3   OH219520   2.822   1.927   5.900
 6526TIP3    H119521   2.823   1.858   5.834
 6526TIP3    H219522   2.787   2.003   5.855
 6527TIP3   OH219523   2.821   1.739   5.691
 6527TIP3    H119524   2.847   1.772   5.606
 6527TIP3    H219525   2.734   1.703   5.678
 6528TIP3   OH219526   2.836   2.264   5.579
 6528TIP3    H119527   2.925   2.297   5.564
 6528TIP3    H219528   2.780   2.322   5.527
 6529TIP3   OH219529   3.429   2.215   5.946
 6529TIP3    H119530   3.467   2.127   5.952
 6529TIP3    H219531   3.504   2.272   5.928
 6530TIP3   OH219532   3.456   2.482   5.691
 6530TIP3    H119533   3.404   2.544   5.640
 6530TIP3    H219534   3.546   2.494   5.660
 6531TIP3   OH219535   2.729   2.027   6.150
 6531TIP3    H119536   2.637   2.013   6.174
 6531TIP3    H219537   2.737   1.988   6.064
 6532TIP3   OH219538   2.954   1.515   5.788
 6532TIP3    H119539   2.912   1.595   5.756
 6532TIP3    H219540   2.887   1.447   5.779
 6533TIP3   OH219541   3.077   1.969   6.006
 6533TIP3    H119542   3.065   1.960   6.101
 6533TIP3    H219543   2.991   1.948   5.969
 6534TIP3   OH219544   3.326   1.929   5.880
 6534TIP3    H119545   3.247   1.926   5.934
 6534TIP3    H219546   3.396   1.901   5.939
 6535TIP3   OH219547   3.561   1.887   6.026
 6535TIP3    H119548   3.576   1.793   6.032
 6535TIP3    H219549   3.560   1.917   6.117
 6536TIP3   OH219550   2.535   1.778   6.171
 6536TIP3    H119551   2.539   1.684   6.153
 6536TIP3    H219552   2.598   1.792   6.242
 6537TIP3   OH219553   3.032   1.498   6.047
 6537TIP3    H119554   3.096   1.428   6.043
 6537TIP3    H219555   3.000   1.507   5.957
 6538TIP3   OH219556   3.120   1.693   6.220
 6538TIP3    H119557   3.092   1.630   6.153
 6538TIP3    H219558   3.051   1.760   6.219
 6539TIP3   OH219559   2.369   2.937   4.315
 6539TIP3    H119560   2.459   2.917   4.290
 6539TIP3    H219561   2.332   2.984   4.240
 6540TIP3   OH219562   1.835   2.323   4.501
 6540TIP3    H119563   1.930   2.335   4.494
 6540TIP3    H219564   1.819   2.238   4.460
 6541TIP3   OH219565   1.737   2.909   4.961
 6541TIP3    H119566   1.673   2.855   4.914
 6541TIP3    H219567   1.782   2.847   5.019
 6542TIP3   OH219568   1.882   2.738   5.125
 6542TIP3    H119569   1.874   2.670   5.191
 6542TIP3    H219570   1.937   2.805   5.167
 6543TIP3   OH219571   3.624   3.127   4.926
 6543TIP3    H119572   3.655   3.153   5.013
 6543TIP3    H219573   3.686   3.165   4.865
 6544TIP3   OH219574   3.644   3.165   5.211
 6544TIP3    H119575   3.597   3.082   5.205
 6544TIP3    H219576   3.718   3.147   5.268
 6545TIP3   OH219577   3.698   2.877   5.792
 6545TIP3    H119578   3.625   2.888   5.852
 6545TIP3    H219579   3.743   2.962   5.793
 6546TIP3   OH219580   3.507   2.391   4.399
 6546TIP3    H119581   3.562   2.461   4.363
 6546TIP3    H219582   3.558   2.354   4.471
 6547TIP3   OH219583   3.648   2.249   4.594
 6547TIP3    H119584   3.580   2.215   4.653
 6547TIP3    H219585   3.713   2.288   4.653
 6548TIP3   OH219586   3.693   2.639   5.045
 6548TIP3    H119587   3.742   2.573   4.996
 6548TIP3    H219588   3.698   2.718   4.991
 6549TIP3   OH219589   3.495   2.930   5.223
 6549TIP3    H119590   3.429   2.981   5.271
 6549TIP3    H219591   3.446   2.892   5.150
 6550TIP3   OH219592   3.547   2.166   4.244
 6550TIP3    H119593   3.477   2.166   4.179
 6550TIP3    H219594   3.529   2.244   4.298
 6551TIP3   OH219595   3.406   1.809   4.178
 6551TIP3    H119596   3.355   1.846   4.106
 6551TIP3    H219597   3.400   1.715   4.166
 6552TIP3   OH219598   3.439   2.115   4.731
 6552TIP3    H119599   3.444   2.020   4.718
 6552TIP3    H219600   3.419   2.125   4.824
 6553TIP3   OH219601   2.059   2.176   5.509
 6553TIP3    H119602   2.052   2.143   5.420
 6553TIP3    H219603   2.153   2.171   5.529
 6554TIP3   OH219604   3.713   2.525   5.595
 6554TIP3    H119605   3.780   2.460   5.577
 6554TIP3    H219606   3.718   2.585   5.520
 6555TIP3   OH219607   3.893   2.316   5.587
 6555TIP3    H119608   3.819   2.276   5.633
 6555TIP3    H219609   3.967   2.259   5.608
 6556TIP3   OH219610   3.367   1.536   4.147
 6556TIP3    H119611   3.428   1.514   4.217
 6556TIP3    H219612   3.283   1.504   4.178
 6557TIP3   OH219613   3.429   1.834   4.617
 6557TIP3    H119614   3.476   1.751   4.630
 6557TIP3    H219615   3.471   1.873   4.540
 6558TIP3   OH219616   3.587   2.003   5.139
 6558TIP3    H119617   3.668   2.023   5.092
 6558TIP3    H219618   3.601   2.040   5.227
 6559TIP3   OH219619   3.658   2.146   5.372
 6559TIP3    H119620   3.585   2.173   5.428
 6559TIP3    H219621   3.689   2.226   5.331
 6560TIP3   OH219622   2.272   1.857   6.137
 6560TIP3    H119623   2.367   1.858   6.147
 6560TIP3    H219624   2.245   1.776   6.181
 6561TIP3   OH219625   4.112   1.756   5.904
 6561TIP3    H119626   4.179   1.697   5.869
 6561TIP3    H219627   4.077   1.800   5.826
 6562TIP3   OH219628   3.548   1.585   4.668
 6562TIP3    H119629   3.594   1.571   4.750
 6562TIP3    H219630   3.485   1.512   4.662
 6563TIP3   OH219631   2.037   1.799   5.566
 6563TIP3    H119632   2.087   1.801   5.485
 6563TIP3    H219633   2.059   1.881   5.610
 6564TIP3   OH219634   3.965   1.859   5.697
 6564TIP3    H119635   3.879   1.898   5.711
 6564TIP3    H219636   3.948   1.778   5.649
 6565TIP3   OH219637   3.591   1.495   4.309
 6565TIP3    H119638   3.640   1.435   4.253
 6565TIP3    H219639   3.644   1.574   4.312
 6566TIP3   OH219640   2.007   1.350   5.094
 6566TIP3    H119641   1.922   1.348   5.137
 6566TIP3    H219642   1.995   1.405   5.017
 6567TIP3   OH219643   3.154   3.081   4.595
 6567TIP3    H119644   3.197   3.059   4.512
 6567TIP3    H219645   3.216   3.140   4.639
 6568TIP3   OH219646   2.259   1.435   5.889
 6568TIP3    H119647   2.204   1.412   5.964
 6568TIP3    H219648   2.197   1.459   5.821
 6569TIP3   OH219649   2.269   2.866   5.935
 6569TIP3    H119650   2.178   2.840   5.943
 6569TIP3    H219651   2.301   2.875   6.025
 6570TIP3   OH219652   2.491   2.902   5.507
 6570TIP3    H119653   2.438   2.974   5.474
 6570TIP3    H219654   2.575   2.910   5.462
 6571TIP3   OH219655   2.885   3.130   5.642
 6571TIP3    H119656   2.926   3.124   5.729
 6571TIP3    H219657   2.944   3.187   5.593
 6572TIP3   OH219658   3.066   3.292   5.509
 6572TIP3    H119659   3.121   3.238   5.453
 6572TIP3    H219660   3.127   3.341   5.564
 6573TIP3   OH219661   3.884   1.607   5.603
 6573TIP3    H119662   3.795   1.596   5.570
 6573TIP3    H219663   3.922   1.519   5.600
 6574TIP3   OH219664   2.145   3.134   5.554
 6574TIP3    H119665   2.053   3.151   5.532
 6574TIP3    H219666   2.168   3.203   5.617
 6575TIP3   OH219667   2.376   3.128   5.404
 6575TIP3    H119668   2.293   3.133   5.451
 6575TIP3    H219669   2.355   3.154   5.314
 6576TIP3   OH219670   2.792   3.151   5.196
 6576TIP3    H119671   2.722   3.155   5.132
 6576TIP3    H219672   2.798   3.240   5.232
 6577TIP3   OH219673   3.059   3.095   5.249
 6577TIP3    H119674   2.967   3.109   5.226
 6577TIP3    H219675   3.107   3.157   5.194
 6578TIP3   OH219676   3.266   3.268   5.147
 6578TIP3    H119677   3.256   3.353   5.103
 6578TIP3    H219678   3.295   3.208   5.078
 6579TIP3   OH219679   2.057   2.916   5.269
 6579TIP3    H119680   2.082   2.894   5.359
 6579TIP3    H219681   2.128   2.883   5.215
 6580TIP3   OH219682   2.259   2.799   5.131
 6580TIP3    H119683   2.271   2.713   5.173
 6580TIP3    H219684   2.346   2.839   5.135
 6581TIP3   OH219685   2.527   2.883   5.158
 6581TIP3    H119686   2.547   2.791   5.142
 6581TIP3    H219687   2.584   2.908   5.230
 6582TIP3   OH219688   3.048   1.507   5.192
 6582TIP3    H119689   3.029   1.451   5.267
 6582TIP3    H219690   3.141   1.491   5.174
 6583TIP3   OH219691   3.596   1.450   5.125
 6583TIP3    H119692   3.632   1.500   5.051
 6583TIP3    H219693   3.504   1.478   5.130
 6584TIP3   OH219694   3.706   1.532   4.888
 6584TIP3    H119695   3.775   1.470   4.862
 6584TIP3    H219696   3.745   1.618   4.876
 6585TIP3   OH219697   2.158   1.179   4.917
 6585TIP3    H119698   2.214   1.202   4.842
 6585TIP3    H219699   2.069   1.182   4.882
 6586TIP3   OH219700   2.778   1.306   5.130
 6586TIP3    H119701   2.836   1.340   5.062
 6586TIP3    H219702   2.825   1.323   5.212
 6587TIP3   OH219703   3.310   1.450   5.116
 6587TIP3    H119704   3.317   1.423   5.025
 6587TIP3    H219705   3.309   1.368   5.166
 6588TIP3   OH219706   3.363   1.373   4.677
 6588TIP3    H119707   3.283   1.421   4.700
 6588TIP3    H219708   3.352   1.287   4.717
 6589TIP3   OH219709   1.815   2.720   4.656
 6589TIP3    H119710   1.733   2.687   4.619
 6589TIP3    H219711   1.821   2.810   4.625
 6590TIP3   OH219712   2.270   1.262   4.671
 6590TIP3    H119713   2.311   1.206   4.605
 6590TIP3    H219714   2.338   1.325   4.694
 6591TIP3   OH219715   2.744   1.472   4.763
 6591TIP3    H119716   2.809   1.425   4.816
 6591TIP3    H219717   2.755   1.564   4.786
 6592TIP3   OH219718   2.626   2.865   4.250
 6592TIP3    H119719   2.709   2.893   4.211
 6592TIP3    H219720   2.596   2.794   4.192
 6593TIP3   OH219721   3.277   3.009   4.363
 6593TIP3    H119722   3.287   2.915   4.350
 6593TIP3    H219723   3.266   3.045   4.275
 6594TIP3   OH219724   2.569   1.504   6.137
 6594TIP3    H119725   2.530   1.440   6.196
 6594TIP3    H219726   2.662   1.507   6.162
 6595TIP3   OH219727   2.831   1.492   6.239
 6595TIP3    H119728   2.886   1.520   6.165
 6595TIP3    H219729   2.875   1.414   6.273
 6596TIP3   OH219730   1.937   2.713   4.308
 6596TIP3    H119731   1.941   2.724   4.403
 6596TIP3    H219732   2.017   2.666   4.285
 6597TIP3   OH219733   3.626   1.616   6.030
 6597TIP3    H119734   3.642   1.588   6.120
 6597TIP3    H219735   3.711   1.612   5.988
 6598TIP3   OH219736   3.544   3.148   5.536
 6598TIP3    H119737   3.472   3.119   5.481
 6598TIP3    H219738   3.532   3.243   5.543
 6599TIP3   OH219739   4.824   2.543   4.271
 6599TIP3    H119740   4.793   2.630   4.245
 6599TIP3    H219741   4.751   2.484   4.248
 6600TIP3   OH219742   4.824   2.528   4.699
 6600TIP3    H119743   4.876   2.510   4.777
 6600TIP3    H219744   4.777   2.446   4.682
 6601TIP3   OH219745   4.118   2.389   5.044
 6601TIP3    H119746   4.158   2.337   5.114
 6601TIP3    H219747   4.192   2.416   4.989
 6602TIP3   OH219748   5.090   2.841   4.377
 6602TIP3    H119749   5.076   2.777   4.446
 6602TIP3    H219750   5.110   2.922   4.423
 6603TIP3   OH219751   4.108   2.811   4.736
 6603TIP3    H119752   4.091   2.717   4.739
 6603TIP3    H219753   4.202   2.817   4.717
 6604TIP3   OH219754   3.792   2.020   4.513
 6604TIP3    H119755   3.756   2.105   4.539
 6604TIP3    H219756   3.719   1.973   4.473
 6605TIP3   OH219757   3.875   2.338   4.737
 6605TIP3    H119758   3.926   2.260   4.761
 6605TIP3    H219759   3.940   2.405   4.716
 6606TIP3   OH219760   4.772   3.272   4.381
 6606TIP3    H119761   4.799   3.224   4.303
 6606TIP3    H219762   4.747   3.204   4.444
 6607TIP3   OH219763   4.627   2.747   4.698
 6607TIP3    H119764   4.674   2.669   4.670
 6607TIP3    H219765   4.694   2.806   4.732
 6608TIP3   OH219766   5.662   2.071   4.721
 6608TIP3    H119767   5.677   2.156   4.762
 6608TIP3    H219768   5.685   2.085   4.629
 6609TIP3   OH219769   5.033   2.237   4.739
 6609TIP3    H119770   5.064   2.151   4.767
 6609TIP3    H219771   4.996   2.222   4.652
 6610TIP3   OH219772   4.389   1.896   4.696
 6610TIP3    H119773   4.367   1.969   4.639
 6610TIP3    H219774   4.333   1.824   4.667
 6611TIP3   OH219775   5.086   1.998   4.335
 6611TIP3    H119776   5.149   1.992   4.407
 6611TIP3    H219777   5.136   2.034   4.262
 6612TIP3   OH219778   4.014   2.114   4.827
 6612TIP3    H119779   4.097   2.096   4.871
 6612TIP3    H219780   4.018   2.063   4.746
 6613TIP3   OH219781   4.432   2.313   4.643
 6613TIP3    H119782   4.526   2.297   4.649
 6613TIP3    H219783   4.397   2.230   4.609
 6614TIP3   OH219784   5.715   2.293   4.885
 6614TIP3    H119785   5.626   2.328   4.879
 6614TIP3    H219786   5.749   2.327   4.967
 6615TIP3   OH219787   4.369   1.902   5.150
 6615TIP3    H119788   4.319   1.938   5.077
 6615TIP3    H219789   4.314   1.919   5.227
 6616TIP3   OH219790   4.723   2.762   4.134
 6616TIP3    H119791   4.679   2.732   4.054
 6616TIP3    H219792   4.677   2.842   4.158
 6617TIP3   OH219793   4.459   2.677   4.908
 6617TIP3    H119794   4.407   2.749   4.943
 6617TIP3    H219795   4.507   2.715   4.834
 6618TIP3   OH219796   5.243   2.020   4.558
 6618TIP3    H119797   5.199   1.999   4.641
 6618TIP3    H219798   5.298   2.095   4.579
 6619TIP3   OH219799   4.261   2.008   4.918
 6619TIP3    H119800   4.315   2.084   4.941
 6619TIP3    H219801   4.308   1.965   4.846
 6620TIP3   OH219802   4.309   2.880   5.020
 6620TIP3    H119803   4.291   2.968   4.986
 6620TIP3    H219804   4.234   2.859   5.075
 6621TIP3   OH219805   3.667   2.577   4.265
 6621TIP3    H119806   3.637   2.584   4.175
 6621TIP3    H219807   3.679   2.668   4.294
 6622TIP3   OH219808   5.128   3.098   4.507
 6622TIP3    H119809   5.043   3.085   4.550
 6622TIP3    H219810   5.118   3.180   4.459
 6623TIP3   OH219811   5.461   1.964   4.890
 6623TIP3    H119812   5.376   1.985   4.851
 6623TIP3    H219813   5.525   1.990   4.824
 6624TIP3   OH219814   4.711   1.594   4.884
 6624TIP3    H119815   4.704   1.502   4.909
 6624TIP3    H219816   4.634   1.635   4.922
 6625TIP3   OH219817   4.861   3.146   4.144
 6625TIP3    H119818   4.907   3.062   4.138
 6625TIP3    H219819   4.928   3.211   4.125
 6626TIP3   OH219820   4.970   2.896   4.133
 6626TIP3    H119821   4.895   2.837   4.131
 6626TIP3    H219822   5.019   2.869   4.211
 6627TIP3   OH219823   5.364   2.970   4.859
 6627TIP3    H119824   5.342   2.897   4.801
 6627TIP3    H219825   5.346   3.048   4.807
 6628TIP3   OH219826   4.649   2.376   4.129
 6628TIP3    H119827   4.566   2.420   4.114
 6628TIP3    H219828   4.693   2.379   4.044
 6629TIP3   OH219829   4.610   2.190   3.814
 6629TIP3    H119830   4.676   2.237   3.866
 6629TIP3    H219831   4.660   2.120   3.771
 6630TIP3   OH219832   5.535   2.634   4.724
 6630TIP3    H119833   5.451   2.679   4.723
 6630TIP3    H219834   5.571   2.647   4.637
 6631TIP3   OH219835   5.007   2.462   4.085
 6631TIP3    H119836   4.952   2.494   4.157
 6631TIP3    H219837   5.090   2.439   4.126
 6632TIP3   OH219838   5.237   2.493   5.036
 6632TIP3    H119839   5.231   2.576   5.083
 6632TIP3    H219840   5.155   2.488   4.985
 6633TIP3   OH219841   4.234   2.447   4.489
 6633TIP3    H119842   4.198   2.386   4.425
 6633TIP3    H219843   4.308   2.399   4.528
 6634TIP3   OH219844   4.365   2.858   4.629
 6634TIP3    H119845   4.337   2.851   4.538
 6634TIP3    H219846   4.454   2.822   4.630
 6635TIP3   OH219847   4.329   2.440   4.866
 6635TIP3    H119848   4.368   2.405   4.786
 6635TIP3    H219849   4.376   2.523   4.881
 6636TIP3   OH219850   4.899   3.073   4.649
 6636TIP3    H119851   4.877   3.155   4.692
 6636TIP3    H219852   4.875   3.005   4.712
 6637TIP3   OH219853   4.503   2.975   5.193
 6637TIP3    H119854   4.442   3.034   5.237
 6637TIP3    H219855   4.449   2.926   5.131
 6638TIP3   OH219856   4.837   2.324   3.916
 6638TIP3    H119857   4.896   2.382   3.963
 6638TIP3    H219858   4.867   2.328   3.825
 6639TIP3   OH219859   4.260   2.515   5.339
 6639TIP3    H119860   4.266   2.608   5.357
 6639TIP3    H219861   4.166   2.497   5.329
 6640TIP3   OH219862   4.611   3.012   4.169
 6640TIP3    H119863   4.688   3.069   4.168
 6640TIP3    H219864   4.542   3.062   4.127
 6641TIP3   OH219865   4.296   3.138   5.274
 6641TIP3    H119866   4.273   3.149   5.182
 6641TIP3    H219867   4.212   3.123   5.318
 6642TIP3   OH219868   5.346   1.553   3.979
 6642TIP3    H119869   5.270   1.574   4.033
 6642TIP3    H219870   5.356   1.629   3.922
 6643TIP3   OH219871   4.104   2.289   4.290
 6643TIP3    H119872   4.028   2.340   4.262
 6643TIP3    H219873   4.069   2.203   4.311
 6644TIP3   OH219874   5.170   2.932   3.527
 6644TIP3    H119875   5.165   3.026   3.512
 6644TIP3    H219876   5.260   2.908   3.504
 6645TIP3   OH219877   3.894   2.688   5.234
 6645TIP3    H119878   3.825   2.672   5.170
 6645TIP3    H219879   3.928   2.601   5.256
 6646TIP3   OH219880   3.739   2.864   4.895
 6646TIP3    H119881   3.809   2.886   4.835
 6646TIP3    H219882   3.691   2.947   4.907
 6647TIP3   OH219883   5.590   3.343   4.928
 6647TIP3    H119884   5.596   3.248   4.938
 6647TIP3    H219885   5.508   3.366   4.973
 6648TIP3   OH219886   4.696   3.117   5.058
 6648TIP3    H119887   4.686   3.209   5.084
 6648TIP3    H219888   4.626   3.071   5.105
 6649TIP3   OH219889   4.472   3.207   4.007
 6649TIP3    H119890   4.422   3.191   3.927
 6649TIP3    H219891   4.443   3.292   4.038
 6650TIP3   OH219892   4.670   3.139   3.631
 6650TIP3    H119893   4.725   3.069   3.597
 6650TIP3    H219894   4.706   3.157   3.718
 6651TIP3   OH219895   4.724   3.185   3.900
 6651TIP3    H119896   4.637   3.192   3.939
 6651TIP3    H219897   4.782   3.164   3.974
 6652TIP3   OH219898   5.480   2.449   5.193
 6652TIP3    H119899   5.397   2.459   5.146
 6652TIP3    H219900   5.498   2.355   5.189
 6653TIP3   OH219901   4.103   2.864   5.200
 6653TIP3    H119902   4.152   2.849   5.281
 6653TIP3    H219903   4.027   2.806   5.206
 6654TIP3   OH219904   4.473   1.685   5.008
 6654TIP3    H119905   4.389   1.652   4.976
 6654TIP3    H219906   4.451   1.766   5.054
 6655TIP3   OH219907   5.014   1.808   5.209
 6655TIP3    H119908   5.083   1.783   5.271
 6655TIP3    H219909   4.933   1.792   5.256
 6656TIP3   OH219910   5.238   2.228   5.130
 6656TIP3    H119911   5.195   2.224   5.215
 6656TIP3    H219912   5.221   2.318   5.100
 6657TIP3   OH219913   4.913   2.289   3.650
 6657TIP3    H119914   4.871   2.298   3.564
 6657TIP3    H219915   4.995   2.339   3.641
 6658TIP3   OH219916   4.623   1.727   3.975
 6658TIP3    H119917   4.587   1.734   4.064
 6658TIP3    H219918   4.587   1.645   3.942
 6659TIP3   OH219919   4.412   2.220   5.014
 6659TIP3    H119920   4.368   2.226   5.098
 6659TIP3    H219921   4.390   2.301   4.968
 6660TIP3   OH219922   4.292   2.096   4.537
 6660TIP3    H119923   4.203   2.074   4.562
 6660TIP3    H219924   4.301   2.063   4.447
 6661TIP3   OH219925   4.771   2.171   4.265
 6661TIP3    H119926   4.725   2.245   4.226
 6661TIP3    H219927   4.829   2.139   4.196
 6662TIP3   OH219928   4.956   2.434   5.337
 6662TIP3    H119929   4.929   2.368   5.401
 6662TIP3    H219930   5.049   2.450   5.357
 6663TIP3   OH219931   4.940   2.185   4.487
 6663TIP3    H119932   4.871   2.206   4.424
 6663TIP3    H219933   4.987   2.112   4.447
 6664TIP3   OH219934   4.254   2.234   5.237
 6664TIP3    H119935   4.261   2.300   5.306
 6664TIP3    H219936   4.234   2.153   5.284
 6665TIP3   OH219937   4.289   1.706   3.952
 6665TIP3    H119938   4.281   1.711   4.047
 6665TIP3    H219939   4.211   1.751   3.919
 6666TIP3   OH219940   3.841   1.753   4.819
 6666TIP3    H119941   3.911   1.790   4.873
 6666TIP3    H219942   3.880   1.744   4.732
 6667TIP3   OH219943   3.742   1.730   4.317
 6667TIP3    H119944   3.786   1.766   4.240
 6667TIP3    H219945   3.679   1.797   4.342
 6668TIP3   OH219946   4.988   2.439   4.914
 6668TIP3    H119947   5.010   2.372   4.850
 6668TIP3    H219948   4.941   2.391   4.983
 6669TIP3   OH219949   4.657   1.885   4.587
 6669TIP3    H119950   4.578   1.885   4.642
 6669TIP3    H219951   4.729   1.877   4.649
 6670TIP3   OH219952   4.052   1.973   4.595
 6670TIP3    H119953   3.964   1.977   4.558
 6670TIP3    H219954   4.081   1.883   4.579
 6671TIP3   OH219955   4.305   1.972   4.292
 6671TIP3    H119956   4.400   1.984   4.281
 6671TIP3    H219957   4.269   1.990   4.205
 6672TIP3   OH219958   5.101   1.975   4.796
 6672TIP3    H119959   5.084   1.992   4.889
 6672TIP3    H219960   5.032   1.914   4.770
 6673TIP3   OH219961   4.193   1.994   4.043
 6673TIP3    H119962   4.129   1.947   3.990
 6673TIP3    H219963   4.245   2.043   3.980
 6674TIP3   OH219964   5.306   3.677   5.019
 6674TIP3    H119965   5.302   3.685   4.924
 6674TIP3    H219966   5.385   3.726   5.044
 6675TIP3   OH219967   4.248   2.780   5.434
 6675TIP3    H119968   4.328   2.801   5.482
 6675TIP3    H219969   4.177   2.793   5.498
 6676TIP3   OH219970   4.705   2.259   4.695
 6676TIP3    H119971   4.772   2.210   4.647
 6676TIP3    H219972   4.702   2.219   4.781
 6677TIP3   OH219973   4.194   1.724   4.582
 6677TIP3    H119974   4.166   1.649   4.634
 6677TIP3    H219975   4.214   1.687   4.496
 6678TIP3   OH219976   4.678   2.162   4.959
 6678TIP3    H119977   4.591   2.194   4.981
 6678TIP3    H219978   4.738   2.215   5.012
 6679TIP3   OH219979   4.412   2.510   4.081
 6679TIP3    H119980   4.336   2.459   4.053
 6679TIP3    H219981   4.382   2.558   4.158
 6680TIP3   OH219982   5.301   2.771   4.679
 6680TIP3    H119983   5.336   2.820   4.605
 6680TIP3    H219984   5.222   2.730   4.645
 6681TIP3   OH219985   4.876   1.832   3.976
 6681TIP3    H119986   4.783   1.810   3.974
 6681TIP3    H219987   4.878   1.926   3.991
 6682TIP3   OH219988   4.820   2.853   5.094
 6682TIP3    H119989   4.869   2.845   5.176
 6682TIP3    H219990   4.779   2.939   5.098
 6683TIP3   OH219991   4.934   2.095   4.048
 6683TIP3    H119992   5.029   2.101   4.060
 6683TIP3    H219993   4.912   2.173   3.998
 6684TIP3   OH219994   4.096   2.517   4.719
 6684TIP3    H119995   4.135   2.505   4.632
 6684TIP3    H219996   4.164   2.492   4.781
 6685TIP3   OH219997   4.562   2.671   3.918
 6685TIP3    H119998   4.515   2.755   3.915
 6685TIP3    H219999   4.507   2.615   3.973
 6686TIP3   OH220000   3.987   2.451   5.357
 6686TIP3    H120001   3.987   2.429   5.450
 6686TIP3    H220002   3.910   2.406   5.321
 6687TIP3   OH220003   4.727   2.594   5.368
 6687TIP3    H120004   4.656   2.535   5.342
 6687TIP3    H220005   4.807   2.551   5.339
 6688TIP3   OH220006   4.967   3.137   4.982
 6688TIP3    H120007   4.872   3.126   4.986
 6688TIP3    H220008   4.990   3.178   5.065
 6689TIP3   OH220009   5.349   2.181   3.864
 6689TIP3    H120010   5.293   2.135   3.801
 6689TIP3    H220011   5.354   2.270   3.830
 6690TIP3   OH220012   5.608   3.067   4.944
 6690TIP3    H120013   5.515   3.045   4.943
 6690TIP3    H220014   5.641   3.033   4.862
 6691TIP3   OH220015   5.083   2.993   3.797
 6691TIP3    H120016   5.051   2.924   3.855
 6691TIP3    H220017   5.100   2.949   3.714
 6692TIP3   OH220018   5.074   2.635   4.577
 6692TIP3    H120019   4.984   2.613   4.602
 6692TIP3    H220020   5.107   2.555   4.537
 6693TIP3   OH220021   4.207   2.876   4.394
 6693TIP3    H120022   4.201   2.950   4.334
 6693TIP3    H220023   4.121   2.873   4.436
 6694TIP3   OH220024   3.786   2.158   4.106
 6694TIP3    H120025   3.827   2.242   4.126
 6694TIP3    H220026   3.705   2.159   4.158
 6695TIP3   OH220027   4.297   2.636   4.291
 6695TIP3    H120028   4.274   2.724   4.321
 6695TIP3    H220029   4.275   2.579   4.366
 6696TIP3   OH220030   4.509   3.179   4.849
 6696TIP3    H120031   4.540   3.250   4.793
 6696TIP3    H220032   4.586   3.152   4.899
 6697TIP3   OH220033   4.120   3.087   4.234
 6697TIP3    H120034   4.026   3.091   4.217
 6697TIP3    H220035   4.148   3.178   4.241
 6698TIP3   OH220036   4.856   2.854   4.820
 6698TIP3    H120037   4.843   2.851   4.915
 6698TIP3    H220038   4.935   2.802   4.805
 6699TIP3   OH220039   4.857   2.731   3.683
 6699TIP3    H120040   4.907   2.702   3.759
 6699TIP3    H220041   4.770   2.691   3.694
 6700TIP3   OH220042   5.116   3.362   4.848
 6700TIP3    H120043   5.039   3.306   4.858
 6700TIP3    H220044   5.093   3.421   4.776
 6701TIP3   OH220045   5.181   3.207   3.494
 6701TIP3    H120046   5.229   3.281   3.458
 6701TIP3    H220047   5.104   3.246   3.536
 6702TIP3   OH220048   4.197   1.980   5.357
 6702TIP3    H120049   4.102   1.989   5.361
 6702TIP3    H220050   4.220   1.931   5.435
 6703TIP3   OH220051   5.032   2.641   3.873
 6703TIP3    H120052   5.017   2.591   3.953
 6703TIP3    H220053   5.128   2.651   3.869
 6704TIP3   OH220054   3.937   3.098   5.027
 6704TIP3    H120055   3.971   3.014   5.056
 6704TIP3    H220056   3.996   3.163   5.066
 6705TIP3   OH220057   4.212   2.698   3.702
 6705TIP3    H120058   4.222   2.606   3.679
 6705TIP3    H220059   4.194   2.697   3.796
 6706TIP3   OH220060   4.146   2.717   3.973
 6706TIP3    H120061   4.196   2.694   4.051
 6706TIP3    H220062   4.142   2.812   3.974
 6707TIP3   OH220063   3.878   2.411   4.183
 6707TIP3    H120064   3.811   2.457   4.233
 6707TIP3    H220065   3.897   2.468   4.109
 6708TIP3   OH220066   5.048   2.036   5.059
 6708TIP3    H120067   5.125   2.082   5.093
 6708TIP3    H220068   5.038   1.960   5.116
 6709TIP3   OH220069   4.936   1.781   4.245
 6709TIP3    H120070   4.916   1.801   4.154
 6709TIP3    H220071   4.979   1.861   4.277
 6710TIP3   OH220072   4.420   2.901   3.911
 6710TIP3    H120073   4.335   2.924   3.947
 6710TIP3    H220074   4.447   2.978   3.860
 6711TIP3   OH220075   4.585   1.980   4.335
 6711TIP3    H120076   4.646   2.049   4.310
 6711TIP3    H220077   4.608   1.959   4.426
 6712TIP3   OH220078   4.885   2.274   5.110
 6712TIP3    H120079   4.908   2.317   5.193
 6712TIP3    H220080   4.934   2.192   5.112
 6713TIP3   OH220081   4.750   1.676   4.422
 6713TIP3    H120082   4.726   1.754   4.474
 6713TIP3    H220083   4.819   1.707   4.364
 6714TIP3   OH220084   4.169   2.988   3.981
 6714TIP3    H120085   4.141   3.056   3.920
 6714TIP3    H220086   4.148   3.022   4.067
 6715TIP3   OH220087   4.262   1.700   4.231
 6715TIP3    H120088   4.250   1.790   4.259
 6715TIP3    H220089   4.356   1.685   4.238
 6716TIP3   OH220090   5.501   2.171   5.104
 6716TIP3    H120091   5.407   2.182   5.118
 6716TIP3    H220092   5.508   2.113   5.029
 6717TIP3   OH220093   5.165   2.375   4.487
 6717TIP3    H120094   5.087   2.321   4.499
 6717TIP3    H220095   5.231   2.335   4.544
 6718TIP3   OH220096   3.899   2.583   3.964
 6718TIP3    H120097   3.965   2.653   3.973
 6718TIP3    H220098   3.937   2.523   3.900
 6719TIP3   OH220099   3.806   1.879   4.095
 6719TIP3    H120100   3.823   1.973   4.109
 6719TIP3    H220101   3.742   1.877   4.024
 6720TIP3   OH220102   5.132   3.367   4.407
 6720TIP3    H120103   5.093   3.405   4.328
 6720TIP3    H220104   5.226   3.376   4.394
 6721TIP3   OH220105   4.211   1.599   4.966
 6721TIP3    H120106   4.181   1.567   4.881
 6721TIP3    H220107   4.202   1.524   5.025
 6722TIP3   OH220108   3.933   3.397   5.432
 6722TIP3    H120109   4.017   3.397   5.478
 6722TIP3    H220110   3.917   3.304   5.414
 6723TIP3   OH220111   4.403   3.292   5.474
 6723TIP3    H120112   4.496   3.268   5.477
 6723TIP3    H220113   4.367   3.243   5.401
 6724TIP3   OH220114   4.360   2.900   3.587
 6724TIP3    H120115   4.315   2.830   3.635
 6724TIP3    H220116   4.437   2.857   3.549
 6725TIP3   OH220117   5.022   3.240   5.232
 6725TIP3    H120118   5.039   3.170   5.295
 6725TIP3    H220119   5.095   3.301   5.243
 6726TIP3   OH220120   4.808   2.937   3.509
 6726TIP3    H120121   4.841   2.873   3.573
 6726TIP3    H220122   4.870   2.933   3.437
 6727TIP3   OH220123   4.037   2.792   5.619
 6727TIP3    H120124   4.054   2.699   5.629
 6727TIP3    H220125   3.951   2.797   5.578
 6728TIP3   OH220126   4.032   2.396   3.814
 6728TIP3    H120127   4.082   2.376   3.893
 6728TIP3    H220128   4.098   2.411   3.747
 6729TIP3   OH220129   4.656   2.868   5.395
 6729TIP3    H120130   4.610   2.893   5.315
 6729TIP3    H220131   4.691   2.781   5.377
 6730TIP3   OH220132   4.598   2.617   3.652
 6730TIP3    H120133   4.574   2.630   3.744
 6730TIP3    H220134   4.573   2.527   3.633
 6731TIP3   OH220135   5.137   2.916   5.012
 6731TIP3    H120136   5.213   2.944   4.963
 6731TIP3    H220137   5.072   2.984   4.998
 6732TIP3   OH220138   4.147   2.535   5.624
 6732TIP3    H120139   4.221   2.514   5.568
 6732TIP3    H220140   4.185   2.551   5.711
 6733TIP3   OH220141   4.201   2.338   4.027
 6733TIP3    H120142   4.179   2.309   4.116
 6733TIP3    H220143   4.249   2.264   3.989
 6734TIP3   OH220144   4.522   2.419   5.280
 6734TIP3    H120145   4.434   2.456   5.291
 6734TIP3    H220146   4.549   2.448   5.193
 6735TIP3   OH220147   4.340   2.151   3.873
 6735TIP3    H120148   4.309   2.156   3.783
 6735TIP3    H220149   4.435   2.162   3.867
 6736TIP3   OH220150   5.017   2.793   5.362
 6736TIP3    H120151   5.083   2.754   5.305
 6736TIP3    H220152   5.014   2.735   5.439
 6737TIP3   OH220153   5.130   2.435   3.556
 6737TIP3    H120154   5.120   2.397   3.469
 6737TIP3    H220155   5.109   2.528   3.545
 6738TIP3   OH220156   4.621   2.186   5.389
 6738TIP3    H120157   4.623   2.116   5.324
 6738TIP3    H220158   4.588   2.262   5.342
 6739TIP3   OH220159   4.628   1.988   5.185
 6739TIP3    H120160   4.655   2.026   5.101
 6739TIP3    H220161   4.537   1.961   5.172
 6740TIP3   OH220162   4.631   2.519   5.052
 6740TIP3    H120163   4.717   2.560   5.044
 6740TIP3    H220164   4.573   2.576   5.002
 6741TIP3   OH220165   5.226   2.467   5.433
 6741TIP3    H120166   5.266   2.381   5.442
 6741TIP3    H220167   5.300   2.526   5.415
 6742TIP3   OH220168   5.253   2.737   5.180
 6742TIP3    H120169   5.201   2.799   5.129
 6742TIP3    H220170   5.343   2.750   5.149
 6743TIP3   OH220171   4.507   2.266   5.634
 6743TIP3    H120172   4.435   2.206   5.654
 6743TIP3    H220173   4.534   2.243   5.546
 6744TIP3   OH220174   4.749   1.757   5.289
 6744TIP3    H120175   4.709   1.837   5.255
 6744TIP3    H220176   4.682   1.690   5.276
 6745TIP3   OH220177   4.874   2.226   5.498
 6745TIP3    H120178   4.861   2.214   5.592
 6745TIP3    H220179   4.789   2.205   5.459
 6746TIP3   OH220180   5.118   2.179   5.366
 6746TIP3    H120181   5.039   2.179   5.421
 6746TIP3    H220182   5.188   2.155   5.427
 6747TIP3   OH220183   5.356   2.149   5.514
 6747TIP3    H120184   5.370   2.055   5.520
 6747TIP3    H220185   5.351   2.179   5.605
 6748TIP3   OH220186   4.332   2.050   5.692
 6748TIP3    H120187   4.339   1.962   5.655
 6748TIP3    H220188   4.368   2.042   5.780
 6749TIP3   OH220189   4.817   1.735   5.554
 6749TIP3    H120190   4.885   1.668   5.547
 6749TIP3    H220191   4.787   1.747   5.464
 6750TIP3   OH220192   4.911   1.949   5.703
 6750TIP3    H120193   4.879   1.879   5.646
 6750TIP3    H220194   4.838   2.012   5.706
 6751TIP3   OH220195   4.156   3.190   3.791
 6751TIP3    H120196   4.248   3.175   3.772
 6751TIP3    H220197   4.124   3.242   3.717
 6752TIP3   OH220198   3.627   2.573   3.984
 6752TIP3    H120199   3.721   2.589   3.977
 6752TIP3    H220200   3.613   2.489   3.939
 6753TIP3   OH220201   5.409   3.400   4.420
 6753TIP3    H120202   5.429   3.428   4.509
 6753TIP3    H220203   5.461   3.459   4.365
 6754TIP3   OH220204   5.440   3.427   4.702
 6754TIP3    H120205   5.390   3.345   4.697
 6754TIP3    H220206   5.509   3.409   4.765
 6755TIP3   OH220207   5.495   3.132   5.274
 6755TIP3    H120208   5.422   3.141   5.335
 6755TIP3    H220209   5.540   3.217   5.277
 6756TIP3   OH220210   5.313   2.645   3.880
 6756TIP3    H120211   5.367   2.719   3.851
 6756TIP3    H220212   5.358   2.609   3.956
 6757TIP3   OH220213   5.442   2.504   4.083
 6757TIP3    H120214   5.373   2.468   4.139
 6757TIP3    H220215   5.505   2.542   4.143
 6758TIP3   OH220216   5.486   2.909   4.520
 6758TIP3    H120217   5.536   2.842   4.475
 6758TIP3    H220218   5.486   2.984   4.460
 6759TIP3   OH220219   5.290   3.192   4.712
 6759TIP3    H120220   5.222   3.240   4.760
 6759TIP3    H220221   5.245   3.155   4.636
 6760TIP3   OH220222   5.344   2.420   3.728
 6760TIP3    H120223   5.270   2.419   3.667
 6760TIP3    H220224   5.331   2.498   3.780
 6761TIP3   OH220225   5.199   2.065   3.665
 6761TIP3    H120226   5.149   2.103   3.593
 6761TIP3    H220227   5.193   1.971   3.652
 6762TIP3   OH220228   5.235   2.368   4.218
 6762TIP3    H120229   5.239   2.274   4.205
 6762TIP3    H220230   5.215   2.379   4.312
 6763TIP3   OH220231   3.852   2.407   5.000
 6763TIP3    H120232   3.843   2.387   4.907
 6763TIP3    H220233   3.946   2.411   5.015
 6764TIP3   OH220234   5.508   2.780   5.079
 6764TIP3    H120235   5.578   2.717   5.061
 6764TIP3    H220236   5.506   2.836   5.001
 6765TIP3   OH220237   5.692   2.572   5.071
 6765TIP3    H120238   5.617   2.531   5.115
 6765TIP3    H220239   5.766   2.516   5.093
 6766TIP3   OH220240   5.162   1.792   3.632
 6766TIP3    H120241   5.224   1.770   3.702
 6766TIP3    H220242   5.078   1.760   3.664
 6767TIP3   OH220243   5.226   2.090   4.105
 6767TIP3    H120244   5.272   2.007   4.117
 6767TIP3    H220245   5.267   2.129   4.028
 6768TIP3   OH220246   5.380   2.253   4.629
 6768TIP3    H120247   5.460   2.271   4.581
 6768TIP3    H220248   5.394   2.294   4.715
 6769TIP3   OH220249   5.454   2.404   4.856
 6769TIP3    H120250   5.381   2.432   4.912
 6769TIP3    H220251   5.484   2.484   4.813
 6770TIP3   OH220252   4.069   2.108   5.633
 6770TIP3    H120253   4.163   2.106   5.651
 6770TIP3    H220254   4.035   2.027   5.670
 6771TIP3   OH220255   5.917   1.997   5.396
 6771TIP3    H120256   5.984   1.943   5.352
 6771TIP3    H220257   5.878   2.048   5.325
 6772TIP3   OH220258   5.343   1.841   4.155
 6772TIP3    H120259   5.389   1.826   4.238
 6772TIP3    H220260   5.280   1.769   4.150
 6773TIP3   OH220261   4.050   1.826   4.987
 6773TIP3    H120262   4.104   1.747   4.991
 6773TIP3    H220263   4.112   1.896   4.968
 6774TIP3   OH220264   3.827   2.097   5.039
 6774TIP3    H120265   3.882   2.082   4.962
 6774TIP3    H220266   3.840   2.189   5.060
 6775TIP3   OH220267   5.766   2.117   5.202
 6775TIP3    H120268   5.684   2.157   5.231
 6775TIP3    H220269   5.739   2.045   5.146
 6776TIP3   OH220270   5.386   1.752   3.793
 6776TIP3    H120271   5.436   1.691   3.738
 6776TIP3    H220272   5.441   1.831   3.798
 6777TIP3   OH220273   3.815   1.594   4.542
 6777TIP3    H120274   3.730   1.585   4.586
 6777TIP3    H220275   3.797   1.650   4.467
 6778TIP3   OH220276   4.038   1.642   5.366
 6778TIP3    H120277   3.989   1.638   5.447
 6778TIP3    H220278   3.984   1.696   5.307
 6779TIP3   OH220279   4.070   3.113   5.435
 6779TIP3    H120280   3.976   3.093   5.427
 6779TIP3    H220281   4.089   3.100   5.528
 6780TIP3   OH220282   4.277   3.158   4.995
 6780TIP3    H120283   4.228   3.231   4.958
 6780TIP3    H220284   4.362   3.162   4.952
 6781TIP3   OH220285   4.678   3.383   5.136
 6781TIP3    H120286   4.717   3.379   5.223
 6781TIP3    H220287   4.736   3.439   5.085
 6782TIP3   OH220288   4.867   3.539   5.010
 6782TIP3    H120289   4.925   3.491   4.950
 6782TIP3    H220290   4.927   3.591   5.064
 6783TIP3   OH220291   5.679   1.870   5.091
 6783TIP3    H120292   5.592   1.864   5.051
 6783TIP3    H220293   5.714   1.782   5.085
 6784TIP3   OH220294   3.957   3.428   5.042
 6784TIP3    H120295   3.863   3.436   5.023
 6784TIP3    H220296   3.973   3.493   5.111
 6785TIP3   OH220297   4.175   3.386   4.885
 6785TIP3    H120298   4.095   3.402   4.935
 6785TIP3    H220299   4.150   3.406   4.794
 6786TIP3   OH220300   4.582   3.376   4.674
 6786TIP3    H120301   4.516   3.393   4.607
 6786TIP3    H220302   4.597   3.461   4.715
 6787TIP3   OH220303   4.854   3.338   4.724
 6787TIP3    H120304   4.759   3.346   4.711
 6787TIP3    H220305   4.891   3.400   4.662
 6788TIP3   OH220306   5.078   3.532   4.624
 6788TIP3    H120307   5.057   3.616   4.583
 6788TIP3    H220308   5.092   3.472   4.551
 6789TIP3   OH220309   3.850   3.205   4.786
 6789TIP3    H120310   3.881   3.182   4.874
 6789TIP3    H220311   3.911   3.161   4.727
 6790TIP3   OH220312   4.051   3.072   4.664
 6790TIP3    H120313   4.065   2.981   4.692
 6790TIP3    H220314   4.139   3.106   4.648
 6791TIP3   OH220315   4.324   3.138   4.642
 6791TIP3    H120316   4.340   3.045   4.625
 6791TIP3    H220317   4.380   3.158   4.717
 6792TIP3   OH220318   4.884   1.795   4.729
 6792TIP3    H120319   4.845   1.724   4.779
 6792TIP3    H220320   4.952   1.753   4.677
 6793TIP3   OH220321   5.386   1.712   4.615
 6793TIP3    H120322   5.422   1.762   4.541
 6793TIP3    H220323   5.293   1.735   4.616
 6794TIP3   OH220324   5.501   1.788   4.377
 6794TIP3    H120325   5.570   1.727   4.351
 6794TIP3    H220326   5.540   1.874   4.365
 6795TIP3   OH220327   4.123   1.496   4.725
 6795TIP3    H120328   4.034   1.463   4.735
 6795TIP3    H220329   4.177   1.418   4.716
 6796TIP3   OH220330   3.942   1.402   4.377
 6796TIP3    H120331   3.968   1.452   4.300
 6796TIP3    H220332   3.905   1.467   4.436
 6797TIP3   OH220333   4.608   1.534   4.622
 6797TIP3    H120334   4.655   1.582   4.554
 6797TIP3    H220335   4.647   1.564   4.704
 6798TIP3   OH220336   5.097   1.677   4.597
 6798TIP3    H120337   5.111   1.642   4.509
 6798TIP3    H220338   5.104   1.601   4.654
 6799TIP3   OH220339   5.157   1.631   4.164
 6799TIP3    H120340   5.077   1.678   4.188
 6799TIP3    H220341   5.146   1.544   4.202
 6800TIP3   OH220342   4.051   1.533   4.141
 6800TIP3    H120343   4.098   1.472   4.084
 6800TIP3    H220344   4.120   1.589   4.177
 6801TIP3   OH220345   4.538   1.728   4.239
 6801TIP3    H120346   4.597   1.676   4.293
 6801TIP3    H220347   4.552   1.818   4.267
 6802TIP3   OH220348   4.416   3.123   3.735
 6802TIP3    H120349   4.500   3.149   3.698
 6802TIP3    H220350   4.387   3.051   3.679
 6803TIP3   OH220351   5.155   3.259   3.807
 6803TIP3    H120352   5.129   3.167   3.813
 6803TIP3    H220353   5.087   3.300   3.752
 6804TIP3   OH220354   4.349   1.780   5.603
 6804TIP3    H120355   4.313   1.716   5.665
 6804TIP3    H220356   4.441   1.788   5.627
 6805TIP3   OH220357   4.598   1.785   5.722
 6805TIP3    H120358   4.677   1.763   5.673
 6805TIP3    H220359   4.590   1.715   5.788
 6806TIP3   OH220360   3.730   2.970   3.806
 6806TIP3    H120361   3.740   2.999   3.896
 6806TIP3    H220362   3.812   2.926   3.785
 6807TIP3   OH220363   5.421   1.878   5.517
 6807TIP3    H120364   5.438   1.849   5.607
 6807TIP3    H220365   5.506   1.871   5.474
 6808TIP3   OH220366   5.335   3.403   5.021
 6808TIP3    H120367   5.261   3.375   4.967
 6808TIP3    H220368   5.324   3.497   5.030
 6809TIP3   OH220369   6.620   2.790   3.765
 6809TIP3    H120370   6.591   2.877   3.737
 6809TIP3    H220371   6.549   2.732   3.737
 6810TIP3   OH220372   6.614   2.787   4.188
 6810TIP3    H120373   6.668   2.768   4.265
 6810TIP3    H220374   6.570   2.704   4.170
 6811TIP3   OH220375   5.913   2.646   4.529
 6811TIP3    H120376   5.952   2.594   4.600
 6811TIP3    H220377   5.987   2.670   4.474
 6812TIP3   OH220378   6.883   3.096   3.862
 6812TIP3    H120379   6.872   3.028   3.930
 6812TIP3    H220380   6.905   3.175   3.911
 6813TIP3   OH220381   5.908   3.076   4.215
 6813TIP3    H120382   5.888   2.983   4.223
 6813TIP3    H220383   6.003   3.080   4.205
 6814TIP3   OH220384   5.588   2.277   4.000
 6814TIP3    H120385   5.551   2.361   4.026
 6814TIP3    H220386   5.515   2.229   3.960
 6815TIP3   OH220387   5.670   2.592   4.225
 6815TIP3    H120388   5.721   2.515   4.250
 6815TIP3    H220389   5.736   2.657   4.199
 6816TIP3   OH220390   6.548   3.515   3.878
 6816TIP3    H120391   6.569   3.455   3.807
 6816TIP3    H220392   6.561   3.462   3.958
 6817TIP3   OH220393   6.423   3.008   4.189
 6817TIP3    H120394   6.469   2.927   4.163
 6817TIP3    H220395   6.492   3.066   4.219
 6818TIP3   OH220396   7.445   2.324   4.214
 6818TIP3    H120397   7.457   2.414   4.246
 6818TIP3    H220398   7.477   2.326   4.124
 6819TIP3   OH220399   6.827   2.495   4.226
 6819TIP3    H120400   6.860   2.409   4.254
 6819TIP3    H220401   6.792   2.479   4.138
 6820TIP3   OH220402   6.185   2.153   4.184
 6820TIP3    H120403   6.164   2.226   4.125
 6820TIP3    H220404   6.129   2.081   4.153
 6821TIP3   OH220405   6.881   2.256   3.822
 6821TIP3    H120406   6.945   2.250   3.893
 6821TIP3    H220407   6.932   2.289   3.747
 6822TIP3   OH220408   5.809   2.369   4.315
 6822TIP3    H120409   5.892   2.351   4.359
 6822TIP3    H220410   5.812   2.318   4.234
 6823TIP3   OH220411   6.227   2.568   4.131
 6823TIP3    H120412   6.322   2.553   4.137
 6823TIP3    H220413   6.192   2.486   4.097
 6824TIP3   OH220414   7.499   2.554   4.373
 6824TIP3    H120415   7.410   2.588   4.365
 6824TIP3    H220416   7.530   2.587   4.458
 6825TIP3   OH220417   6.165   2.159   4.637
 6825TIP3    H120418   6.115   2.194   4.563
 6825TIP3    H220419   6.109   2.176   4.713
 6826TIP3   OH220420   6.521   3.006   3.623
 6826TIP3    H120421   6.480   2.977   3.541
 6826TIP3    H220422   6.467   3.080   3.652
 6827TIP3   OH220423   6.257   2.934   4.398
 6827TIP3    H120424   6.204   3.006   4.433
 6827TIP3    H220425   6.306   2.972   4.326
 6828TIP3   OH220426   7.037   2.281   4.045
 6828TIP3    H120427   6.996   2.258   4.128
 6828TIP3    H220428   7.094   2.355   4.065
 6829TIP3   OH220429   6.057   2.265   4.405
 6829TIP3    H120430   6.112   2.340   4.428
 6829TIP3    H220431   6.104   2.222   4.333
 6830TIP3   OH220432   6.104   3.137   4.506
 6830TIP3    H120433   6.089   3.227   4.476
 6830TIP3    H220434   6.026   3.117   4.559
 6831TIP3   OH220435   5.480   2.840   3.765
 6831TIP3    H120436   5.442   2.866   3.681
 6831TIP3    H220437   5.505   2.923   3.806
 6832TIP3   OH220438   6.916   3.342   4.004
 6832TIP3    H120439   6.827   3.336   4.039
 6832TIP3    H220440   6.917   3.425   3.956
 6833TIP3   OH220441   7.243   2.221   4.377
 6833TIP3    H120442   7.159   2.240   4.335
 6833TIP3    H220443   7.308   2.246   4.312
 6834TIP3   OH220444   6.508   1.850   4.370
 6834TIP3    H120445   6.502   1.758   4.395
 6834TIP3    H220446   6.431   1.892   4.408
 6835TIP3   OH220447   6.623   3.375   3.648
 6835TIP3    H120448   6.677   3.297   3.639
 6835TIP3    H220449   6.680   3.447   3.623
 6836TIP3   OH220450   6.765   3.146   3.618
 6836TIP3    H120451   6.695   3.080   3.614
 6836TIP3    H220452   6.816   3.122   3.695
 6837TIP3   OH220453   7.153   3.229   4.346
 6837TIP3    H120454   7.133   3.155   4.288
 6837TIP3    H220455   7.140   3.307   4.291
 6838TIP3   OH220456   6.445   2.632   3.615
 6838TIP3    H120457   6.362   2.676   3.596
 6838TIP3    H220458   6.491   2.631   3.531
 6839TIP3   OH220459   6.411   2.442   3.301
 6839TIP3    H120460   6.477   2.490   3.351
 6839TIP3    H220461   6.461   2.374   3.255
 6840TIP3   OH220462   7.326   2.893   4.214
 6840TIP3    H120463   7.241   2.938   4.214
 6840TIP3    H220464   7.357   2.900   4.124
 6841TIP3   OH220465   6.803   2.722   3.573
 6841TIP3    H120466   6.750   2.750   3.647
 6841TIP3    H220467   6.887   2.697   3.611
 6842TIP3   OH220468   7.028   2.751   4.523
 6842TIP3    H120469   7.024   2.835   4.570
 6842TIP3    H220470   6.947   2.747   4.473
 6843TIP3   OH220471   6.030   2.702   3.978
 6843TIP3    H120472   5.993   2.641   3.914
 6843TIP3    H220473   6.103   2.654   4.018
 6844TIP3   OH220474   6.170   3.124   4.117
 6844TIP3    H120475   6.146   3.109   4.026
 6844TIP3    H220476   6.257   3.085   4.126
 6845TIP3   OH220477   6.126   2.697   4.355
 6845TIP3    H120478   6.165   2.660   4.275
 6845TIP3    H220479   6.174   2.778   4.369
 6846TIP3   OH220480   6.671   3.340   4.126
 6846TIP3    H120481   6.663   3.419   4.180
 6846TIP3    H220482   6.660   3.268   4.188
 6847TIP3   OH220483   6.300   3.234   4.678
 6847TIP3    H120484   6.238   3.291   4.724
 6847TIP3    H220485   6.245   3.183   4.618
 6848TIP3   OH220486   6.632   2.583   3.406
 6848TIP3    H120487   6.693   2.641   3.453
 6848TIP3    H220488   6.661   2.587   3.315
 6849TIP3   OH220489   6.053   2.775   4.827
 6849TIP3    H120490   6.057   2.869   4.842
 6849TIP3    H220491   5.959   2.756   4.818
 6850TIP3   OH220492   6.381   3.241   3.668
 6850TIP3    H120493   6.460   3.296   3.668
 6850TIP3    H220494   6.320   3.288   3.611
 6851TIP3   OH220495   6.089   3.392   4.763
 6851TIP3    H120496   6.064   3.402   4.671
 6851TIP3    H220497   6.006   3.377   4.809
 6852TIP3   OH220498   7.142   1.810   3.467
 6852TIP3    H120499   7.065   1.831   3.521
 6852TIP3    H220500   7.151   1.886   3.410
 6853TIP3   OH220501   5.902   2.544   3.778
 6853TIP3    H120502   5.825   2.592   3.749
 6853TIP3    H220503   5.870   2.456   3.796
 6854TIP3   OH220504   6.968   3.185   3.023
 6854TIP3    H120505   6.962   3.278   3.001
 6854TIP3    H220506   7.057   3.160   2.996
 6855TIP3   OH220507   5.688   2.949   4.713
 6855TIP3    H120508   5.618   2.932   4.650
 6855TIP3    H220509   5.721   2.862   4.736
 6856TIP3   OH220510   5.526   3.148   4.372
 6856TIP3    H120511   5.615   3.178   4.392
 6856TIP3    H220512   5.470   3.222   4.396
 6857TIP3   OH220513   7.382   3.594   4.413
 6857TIP3    H120514   7.388   3.499   4.425
 6857TIP3    H220515   7.303   3.619   4.460
 6858TIP3   OH220516   6.490   3.378   4.541
 6858TIP3    H120517   6.482   3.468   4.570
 6858TIP3    H220518   6.422   3.331   4.590
 6859TIP3   OH220519   6.252   3.479   3.472
 6859TIP3    H120520   6.234   3.442   3.386
 6859TIP3    H220521   6.182   3.542   3.487
 6860TIP3   OH220522   5.718   3.325   3.872
 6860TIP3    H120523   5.752   3.320   3.962
 6860TIP3    H220524   5.658   3.251   3.866
 6861TIP3   OH220525   6.472   3.408   3.120
 6861TIP3    H120526   6.524   3.336   3.086
 6861TIP3    H220527   6.508   3.424   3.208
 6862TIP3   OH220528   6.516   3.457   3.393
 6862TIP3    H120529   6.429   3.467   3.431
 6862TIP3    H220530   6.569   3.420   3.463
 6863TIP3   OH220531   7.270   2.708   4.682
 6863TIP3    H120532   7.188   2.714   4.632
 6863TIP3    H220533   7.291   2.614   4.681
 6864TIP3   OH220534   5.888   3.136   4.679
 6864TIP3    H120535   5.938   3.122   4.760
 6864TIP3    H220536   5.815   3.074   4.685
 6865TIP3   OH220537   6.270   1.941   4.494
 6865TIP3    H120538   6.186   1.907   4.462
 6865TIP3    H220539   6.247   2.022   4.540
 6866TIP3   OH220540   6.811   2.066   4.696
 6866TIP3    H120541   6.880   2.039   4.756
 6866TIP3    H220542   6.730   2.049   4.744
 6867TIP3   OH220543   7.032   2.485   4.614
 6867TIP3    H120544   6.992   2.482   4.701
 6867TIP3    H220545   7.015   2.575   4.583
 6868TIP3   OH220546   6.710   2.562   3.143
 6868TIP3    H120547   6.665   2.565   3.059
 6868TIP3    H220548   6.792   2.608   3.129
 6869TIP3   OH220549   6.419   1.984   3.463
 6869TIP3    H120550   6.382   1.991   3.551
 6869TIP3    H220551   6.384   1.902   3.428
 6870TIP3   OH220552   6.209   2.476   4.503
 6870TIP3    H120553   6.163   2.483   4.587
 6870TIP3    H220554   6.187   2.557   4.457
 6871TIP3   OH220555   6.087   2.354   4.023
 6871TIP3    H120556   5.998   2.330   4.049
 6871TIP3    H220557   6.097   2.321   3.934
 6872TIP3   OH220558   6.567   2.426   3.751
 6872TIP3    H120559   6.520   2.500   3.710
 6872TIP3    H220560   6.626   2.395   3.682
 6873TIP3   OH220561   6.751   2.693   4.823
 6873TIP3    H120562   6.725   2.625   4.886
 6873TIP3    H220563   6.843   2.710   4.842
 6874TIP3   OH220564   6.736   2.442   3.973
 6874TIP3    H120565   6.667   2.463   3.910
 6874TIP3    H220566   6.784   2.369   3.934
 6875TIP3   OH220567   6.047   2.492   4.724
 6875TIP3    H120568   6.055   2.558   4.794
 6875TIP3    H220569   6.028   2.410   4.770
 6876TIP3   OH220570   6.086   1.963   3.439
 6876TIP3    H120571   6.078   1.968   3.535
 6876TIP3    H220572   6.008   2.007   3.406
 6877TIP3   OH220573   5.636   2.008   4.304
 6877TIP3    H120574   5.708   2.045   4.356
 6877TIP3    H220575   5.675   1.993   4.218
 6878TIP3   OH220576   5.538   1.985   3.805
 6878TIP3    H120577   5.583   2.021   3.729
 6878TIP3    H220578   5.475   2.053   3.830
 6879TIP3   OH220579   6.780   2.696   4.400
 6879TIP3    H120580   6.804   2.630   4.335
 6879TIP3    H220581   6.735   2.648   4.469
 6880TIP3   OH220582   6.454   2.142   4.074
 6880TIP3    H120583   6.376   2.141   4.130
 6880TIP3    H220584   6.527   2.133   4.136
 6881TIP3   OH220585   5.848   2.229   4.083
 6881TIP3    H120586   5.760   2.233   4.045
 6881TIP3    H220587   5.877   2.139   4.067
 6882TIP3   OH220588   6.101   2.231   3.778
 6882TIP3    H120589   6.195   2.241   3.768
 6882TIP3    H220590   6.066   2.248   3.690
 6883TIP3   OH220591   6.898   2.232   4.285
 6883TIP3    H120592   6.878   2.250   4.377
 6883TIP3    H220593   6.831   2.170   4.257
 6884TIP3   OH220594   5.990   2.254   3.528
 6884TIP3    H120595   5.927   2.205   3.475
 6884TIP3    H220596   6.044   2.300   3.464
 6885TIP3   OH220597   7.099   3.937   4.504
 6885TIP3    H120598   7.094   3.953   4.409
 6885TIP3    H220599   7.177   3.984   4.532
 6886TIP3   OH220600   6.039   3.044   4.913
 6886TIP3    H120601   6.120   3.065   4.960
 6886TIP3    H220602   5.969   3.055   4.978
 6887TIP3   OH220603   6.501   2.517   4.180
 6887TIP3    H120604   6.567   2.468   4.132
 6887TIP3    H220605   6.499   2.475   4.267
 6888TIP3   OH220606   5.990   1.981   4.069
 6888TIP3    H120607   5.962   1.905   4.121
 6888TIP3    H220608   6.012   1.944   3.983
 6889TIP3   OH220609   6.474   2.417   4.444
 6889TIP3    H120610   6.387   2.449   4.468
 6889TIP3    H220611   6.534   2.469   4.497
 6890TIP3   OH220612   6.206   2.767   3.560
 6890TIP3    H120613   6.131   2.712   3.535
 6890TIP3    H220614   6.179   2.810   3.641
 6891TIP3   OH220615   7.091   3.029   4.167
 6891TIP3    H120616   7.128   3.078   4.093
 6891TIP3    H220617   7.014   2.986   4.131
 6892TIP3   OH220618   6.672   2.086   3.468
 6892TIP3    H120619   6.579   2.066   3.463
 6892TIP3    H220620   6.675   2.181   3.479
 6893TIP3   OH220621   6.616   3.112   4.575
 6893TIP3    H120622   6.668   3.102   4.654
 6893TIP3    H220623   6.576   3.198   4.583
 6894TIP3   OH220624   6.731   2.352   3.535
 6894TIP3    H120625   6.826   2.355   3.545
 6894TIP3    H220626   6.710   2.430   3.483
 6895TIP3   OH220627   5.896   2.785   4.206
 6895TIP3    H120628   5.935   2.767   4.120
 6895TIP3    H220629   5.963   2.756   4.269
 6896TIP3   OH220630   6.359   2.929   3.404
 6896TIP3    H120631   6.313   3.012   3.403
 6896TIP3    H220632   6.304   2.871   3.456
 6897TIP3   OH220633   5.778   2.711   4.841
 6897TIP3    H120634   5.777   2.683   4.933
 6897TIP3    H220635   5.703   2.666   4.802
 6898TIP3   OH220636   6.522   2.851   4.866
 6898TIP3    H120637   6.452   2.792   4.839
 6898TIP3    H220638   6.602   2.809   4.835
 6899TIP3   OH220639   6.761   3.401   4.465
 6899TIP3    H120640   6.666   3.387   4.468
 6899TIP3    H220641   6.783   3.437   4.551
 6900TIP3   OH220642   7.142   2.439   3.352
 6900TIP3    H120643   7.086   2.393   3.289
 6900TIP3    H220644   7.148   2.528   3.318
 6901TIP3   OH220645   7.397   3.315   4.437
 6901TIP3    H120646   7.303   3.300   4.434
 6901TIP3    H220647   7.429   3.284   4.352
 6902TIP3   OH220648   6.886   3.256   3.287
 6902TIP3    H120649   6.859   3.186   3.346
 6902TIP3    H220650   6.906   3.212   3.204
 6903TIP3   OH220651   6.868   2.891   4.061
 6903TIP3    H120652   6.778   2.869   4.085
 6903TIP3    H220653   6.903   2.810   4.023
 6904TIP3   OH220654   6.019   3.131   3.875
 6904TIP3    H120655   6.016   3.208   3.818
 6904TIP3    H220656   5.929   3.123   3.908
 6905TIP3   OH220657   5.583   2.413   3.589
 6905TIP3    H120658   5.625   2.496   3.611
 6905TIP3    H220659   5.502   2.413   3.639
 6906TIP3   OH220660   6.102   2.886   3.779
 6906TIP3    H120661   6.084   2.974   3.811
 6906TIP3    H220662   6.079   2.829   3.853
 6907TIP3   OH220663   6.308   3.451   4.333
 6907TIP3    H120664   6.343   3.525   4.284
 6907TIP3    H220665   6.382   3.418   4.383
 6908TIP3   OH220666   5.942   3.365   3.722
 6908TIP3    H120667   5.857   3.354   3.766
 6908TIP3    H220668   5.960   3.458   3.728
 6909TIP3   OH220669   6.655   3.118   4.300
 6909TIP3    H120670   6.643   3.113   4.395
 6909TIP3    H220671   6.732   3.063   4.284
 6910TIP3   OH220672   6.651   2.992   3.172
 6910TIP3    H120673   6.702   2.964   3.248
 6910TIP3    H220674   6.567   2.946   3.181
 6911TIP3   OH220675   6.915   3.608   4.344
 6911TIP3    H120676   6.845   3.547   4.364
 6911TIP3    H220677   6.881   3.662   4.273
 6912TIP3   OH220678   6.964   3.457   2.977
 6912TIP3    H120679   6.983   3.516   2.905
 6912TIP3    H220680   6.894   3.499   3.026
 6913TIP3   OH220681   5.990   2.239   4.841
 6913TIP3    H120682   5.895   2.248   4.845
 6913TIP3    H220683   6.012   2.185   4.918
 6914TIP3   OH220684   6.825   2.907   3.365
 6914TIP3    H120685   6.811   2.853   3.443
 6914TIP3    H220686   6.920   2.915   3.359
 6915TIP3   OH220687   5.733   3.347   4.492
 6915TIP3    H120688   5.787   3.288   4.545
 6915TIP3    H220689   5.747   3.433   4.531
 6916TIP3   OH220690   6.002   2.954   3.190
 6916TIP3    H120691   6.012   2.862   3.163
 6916TIP3    H220692   5.987   2.950   3.284
 6917TIP3   OH220693   5.943   2.979   3.461
 6917TIP3    H120694   6.002   2.953   3.531
 6917TIP3    H220695   5.942   3.074   3.463
 6918TIP3   OH220696   5.676   2.664   3.670
 6918TIP3    H120697   5.610   2.712   3.722
 6918TIP3    H220698   5.695   2.722   3.596
 6919TIP3   OH220699   6.840   2.296   4.547
 6919TIP3    H120700   6.919   2.340   4.578
 6919TIP3    H220701   6.831   2.218   4.603
 6920TIP3   OH220702   6.732   2.037   3.735
 6920TIP3    H120703   6.712   2.055   3.644
 6920TIP3    H220704   6.776   2.117   3.766
 6921TIP3   OH220705   6.218   3.161   3.400
 6921TIP3    H120706   6.132   3.186   3.433
 6921TIP3    H220707   6.238   3.226   3.332
 6922TIP3   OH220708   6.380   2.237   3.823
 6922TIP3    H120709   6.442   2.304   3.797
 6922TIP3    H220710   6.405   2.216   3.913
 6923TIP3   OH220711   6.680   2.530   4.595
 6923TIP3    H120712   6.704   2.572   4.678
 6923TIP3    H220713   6.730   2.449   4.594
 6924TIP3   OH220714   6.545   1.932   3.910
 6924TIP3    H120715   6.522   2.009   3.961
 6924TIP3    H220716   6.615   1.962   3.852
 6925TIP3   OH220717   5.969   3.254   3.472
 6925TIP3    H120718   5.949   3.327   3.413
 6925TIP3    H220719   5.957   3.290   3.560
 6926TIP3   OH220720   6.057   1.957   3.719
 6926TIP3    H120721   6.046   2.048   3.747
 6926TIP3    H220722   6.151   1.942   3.725
 6927TIP3   OH220723   7.295   2.428   4.592
 6927TIP3    H120724   7.201   2.439   4.604
 6927TIP3    H220725   7.303   2.371   4.516
 6928TIP3   OH220726   6.959   2.633   3.973
 6928TIP3    H120727   6.883   2.576   3.983
 6928TIP3    H220728   7.026   2.594   4.028
 6929TIP3   OH220729   5.700   2.839   3.453
 6929TIP3    H120730   5.770   2.904   3.461
 6929TIP3    H220731   5.732   2.777   3.388
 6930TIP3   OH220732   5.605   2.135   3.585
 6930TIP3    H120733   5.620   2.229   3.595
 6930TIP3    H220734   5.544   2.128   3.511
 6931TIP3   OH220735   6.938   3.607   3.915
 6931TIP3    H120736   6.900   3.661   3.846
 6931TIP3    H220737   7.032   3.616   3.904
 6932TIP3   OH220738   6.008   1.855   4.454
 6932TIP3    H120739   5.978   1.823   4.369
 6932TIP3    H220740   5.998   1.779   4.513
 6933TIP3   OH220741   5.537   3.105   3.859
 6933TIP3    H120742   5.492   3.143   3.934
 6933TIP3    H220743   5.492   3.141   3.783
 6934TIP3   OH220744   5.736   3.645   4.915
 6934TIP3    H120745   5.818   3.646   4.963
 6934TIP3    H220746   5.718   3.552   4.902
 6935TIP3   OH220747   6.201   3.550   4.959
 6935TIP3    H120748   6.292   3.520   4.965
 6935TIP3    H220749   6.164   3.499   4.887
 6936TIP3   OH220750   6.155   3.152   3.076
 6936TIP3    H120751   6.107   3.082   3.120
 6936TIP3    H220752   6.230   3.109   3.035
 6937TIP3   OH220753   6.815   3.498   4.717
 6937TIP3    H120754   6.831   3.427   4.779
 6937TIP3    H220755   6.890   3.557   4.728
 6938TIP3   OH220756   6.599   3.198   3.000
 6938TIP3    H120757   6.633   3.133   3.062
 6938TIP3    H220758   6.656   3.192   2.924
 6939TIP3   OH220759   5.834   3.050   5.103
 6939TIP3    H120760   5.851   2.956   5.115
 6939TIP3    H220761   5.748   3.054   5.062
 6940TIP3   OH220762   5.825   2.651   3.299
 6940TIP3    H120763   5.875   2.626   3.377
 6940TIP3    H220764   5.890   2.663   3.231
 6941TIP3   OH220765   6.455   3.128   4.880
 6941TIP3    H120766   6.410   3.149   4.798
 6941TIP3    H220767   6.490   3.040   4.866
 6942TIP3   OH220768   6.396   2.871   3.138
 6942TIP3    H120769   6.374   2.881   3.230
 6942TIP3    H220770   6.378   2.779   3.118
 6943TIP3   OH220771   6.929   3.176   4.500
 6943TIP3    H120772   7.006   3.202   4.451
 6943TIP3    H220773   6.865   3.245   4.483
 6944TIP3   OH220774   5.948   2.794   5.114
 6944TIP3    H120775   6.022   2.777   5.056
 6944TIP3    H220776   5.989   2.813   5.199
 6945TIP3   OH220777   5.996   2.592   3.511
 6945TIP3    H120778   5.975   2.562   3.600
 6945TIP3    H220779   6.045   2.519   3.472
 6946TIP3   OH220780   6.315   2.677   4.773
 6946TIP3    H120781   6.228   2.715   4.783
 6946TIP3    H220782   6.344   2.705   4.686
 6947TIP3   OH220783   6.140   2.409   3.357
 6947TIP3    H120784   6.110   2.413   3.267
 6947TIP3    H220785   6.235   2.417   3.351
 6948TIP3   OH220786   6.813   3.048   4.849
 6948TIP3    H120787   6.881   3.010   4.793
 6948TIP3    H220788   6.810   2.991   4.925
 6949TIP3   OH220789   6.929   2.696   3.038
 6949TIP3    H120790   6.917   2.656   2.952
 6949TIP3    H220791   6.906   2.788   3.025
 6950TIP3   OH220792   6.416   2.443   4.877
 6950TIP3    H120793   6.418   2.373   4.811
 6950TIP3    H220794   6.383   2.519   4.830
 6951TIP3   OH220795   6.424   2.245   4.673
 6951TIP3    H120796   6.451   2.281   4.589
 6951TIP3    H220797   6.333   2.217   4.659
 6952TIP3   OH220798   6.425   2.772   4.543
 6952TIP3    H120799   6.514   2.804   4.530
 6952TIP3    H220800   6.370   2.831   4.493
 6953TIP3   OH220801   7.020   2.730   4.919
 6953TIP3    H120802   7.055   2.641   4.921
 6953TIP3    H220803   7.096   2.785   4.904
 6954TIP3   OH220804   7.047   2.996   4.665
 6954TIP3    H120805   6.995   3.058   4.615
 6954TIP3    H220806   7.137   3.009   4.634
 6955TIP3   OH220807   6.303   2.523   5.122
 6955TIP3    H120808   6.231   2.462   5.141
 6955TIP3    H220809   6.330   2.501   5.033
 6956TIP3   OH220810   6.546   2.015   4.778
 6956TIP3    H120811   6.506   2.095   4.744
 6956TIP3    H220812   6.480   1.947   4.764
 6957TIP3   OH220813   6.672   2.481   4.980
 6957TIP3    H120814   6.660   2.468   5.074
 6957TIP3    H220815   6.586   2.460   4.943
 6958TIP3   OH220816   6.922   2.445   4.856
 6958TIP3    H120817   6.842   2.440   4.908
 6958TIP3    H220818   6.991   2.414   4.915
 6959TIP3   OH220819   7.153   2.397   5.005
 6959TIP3    H120820   7.167   2.302   5.012
 6959TIP3    H220821   7.150   2.427   5.096
 6960TIP3   OH220822   6.131   2.306   5.183
 6960TIP3    H120823   6.138   2.218   5.146
 6960TIP3    H220824   6.171   2.298   5.270
 6961TIP3   OH220825   6.611   1.989   5.043
 6961TIP3    H120826   6.680   1.922   5.037
 6961TIP3    H220827   6.582   2.001   4.953
 6962TIP3   OH220828   6.708   2.201   5.190
 6962TIP3    H120829   6.677   2.130   5.135
 6962TIP3    H220830   6.635   2.264   5.191
 6963TIP3   OH220831   5.979   3.479   3.302
 6963TIP3    H120832   6.060   3.444   3.264
 6963TIP3    H220833   5.929   3.511   3.227
 6964TIP3   OH220834   5.425   2.841   3.460
 6964TIP3    H120835   5.520   2.851   3.463
 6964TIP3    H220836   5.411   2.753   3.425
 6965TIP3   OH220837   5.375   3.401   3.883
 6965TIP3    H120838   5.292   3.363   3.854
 6965TIP3    H220839   5.396   3.355   3.965
 6966TIP3   OH220840   5.480   3.253   4.100
 6966TIP3    H120841   5.469   3.185   4.167
 6966TIP3    H220842   5.523   3.325   4.146
 6967TIP3   OH220843   7.209   3.652   3.910
 6967TIP3    H120844   7.231   3.683   3.998
 6967TIP3    H220845   7.267   3.701   3.852
 6968TIP3   OH220846   7.228   3.691   4.191
 6968TIP3    H120847   7.182   3.607   4.184
 6968TIP3    H220848   7.298   3.675   4.254
 6969TIP3   OH220849   7.279   3.388   4.762
 6969TIP3    H120850   7.209   3.396   4.827
 6969TIP3    H220851   7.320   3.475   4.760
 6970TIP3   OH220852   7.104   2.907   3.364
 6970TIP3    H120853   7.161   2.979   3.336
 6970TIP3    H220854   7.149   2.869   3.439
 6971TIP3   OH220855   7.230   2.763   3.564
 6971TIP3    H120856   7.164   2.725   3.622
 6971TIP3    H220857   7.295   2.801   3.623
 6972TIP3   OH220858   7.269   3.169   4.003
 6972TIP3    H120859   7.317   3.096   3.963
 6972TIP3    H220860   7.276   3.240   3.940
 6973TIP3   OH220861   7.088   3.450   4.195
 6973TIP3    H120862   7.021   3.496   4.246
 6973TIP3    H220863   7.040   3.410   4.123
 6974TIP3   OH220864   7.137   2.678   3.216
 6974TIP3    H120865   7.065   2.678   3.153
 6974TIP3    H220866   7.123   2.758   3.268
 6975TIP3   OH220867   6.988   2.329   3.154
 6975TIP3    H120868   6.945   2.365   3.077
 6975TIP3    H220869   6.981   2.234   3.144
 6976TIP3   OH220870   7.030   2.624   3.704
 6976TIP3    H120871   7.035   2.529   3.690
 6976TIP3    H220872   7.010   2.634   3.797
 6977TIP3   OH220873   5.649   2.682   4.482
 6977TIP3    H120874   5.639   2.653   4.391
 6977TIP3    H220875   5.743   2.680   4.498
 6978TIP3   OH220876   7.302   3.041   4.566
 6978TIP3    H120877   7.371   2.976   4.549
 6978TIP3    H220878   7.309   3.101   4.492
 6979TIP3   OH220879   7.482   2.833   4.562
 6979TIP3    H120880   7.405   2.792   4.604
 6979TIP3    H220881   7.555   2.775   4.585
 6980TIP3   OH220882   6.951   2.058   3.125
 6980TIP3    H120883   7.018   2.031   3.188
 6980TIP3    H220884   6.870   2.018   3.157
 6981TIP3   OH220885   7.022   2.346   3.592
 6981TIP3    H120886   7.068   2.263   3.604
 6981TIP3    H220887   7.063   2.385   3.514
 6982TIP3   OH220888   7.174   2.514   4.114
 6982TIP3    H120889   7.255   2.534   4.066
 6982TIP3    H220890   7.187   2.554   4.200
 6983TIP3   OH220891   7.242   2.664   4.343
 6983TIP3    H120892   7.169   2.693   4.398
 6983TIP3    H220893   7.272   2.743   4.300
 6984TIP3   OH220894   5.867   2.363   5.122
 6984TIP3    H120895   5.961   2.360   5.140
 6984TIP3    H220896   5.832   2.282   5.160
 6985TIP3   OH220897   7.711   2.258   4.881
 6985TIP3    H120898   7.770   2.197   4.836
 6985TIP3    H220899   7.669   2.307   4.811
 6986TIP3   OH220900   7.136   2.096   3.642
 6986TIP3    H120901   7.183   2.082   3.725
 6986TIP3    H220902   7.074   2.024   3.637
 6987TIP3   OH220903   5.847   2.081   4.471
 6987TIP3    H120904   5.900   2.002   4.477
 6987TIP3    H220905   5.910   2.151   4.452
 6988TIP3   OH220906   5.623   2.343   4.530
 6988TIP3    H120907   5.676   2.332   4.451
 6988TIP3    H220908   5.645   2.431   4.562
 6989TIP3   OH220909   7.549   2.360   4.686
 6989TIP3    H120910   7.463   2.400   4.698
 6989TIP3    H220911   7.532   2.282   4.633
 6990TIP3   OH220912   7.178   2.008   3.279
 6990TIP3    H120913   7.230   1.949   3.224
 6990TIP3    H220914   7.233   2.087   3.287
 6991TIP3   OH220915   5.612   1.854   4.033
 6991TIP3    H120916   5.527   1.842   4.075
 6991TIP3    H220917   5.594   1.908   3.956
 6992TIP3   OH220918   6.765   3.583   3.554
 6992TIP3    H120919   6.819   3.570   3.476
 6992TIP3    H220920   6.810   3.652   3.603
 6993TIP3   OH220921   5.839   1.908   4.858
 6993TIP3    H120922   5.788   1.903   4.939
 6993TIP3    H220923   5.784   1.958   4.798
 6994TIP3   OH220924   5.866   3.364   4.930
 6994TIP3    H120925   5.772   3.346   4.921
 6994TIP3    H220926   5.884   3.352   5.023
 6995TIP3   OH220927   6.078   3.413   4.481
 6995TIP3    H120928   6.026   3.486   4.447
 6995TIP3    H220929   6.163   3.423   4.438
 6996TIP3   OH220930   6.477   3.643   4.620
 6996TIP3    H120931   6.516   3.637   4.707
 6996TIP3    H220932   6.537   3.699   4.570
 6997TIP3   OH220933   6.663   3.802   4.490
 6997TIP3    H120934   6.723   3.749   4.438
 6997TIP3    H220935   6.721   3.856   4.544
 6998TIP3   OH220936   7.468   2.113   4.582
 6998TIP3    H120937   7.380   2.099   4.549
 6998TIP3    H220938   7.510   2.027   4.574
 6999TIP3   OH220939   5.743   3.646   4.536
 6999TIP3    H120940   5.651   3.660   4.516
 6999TIP3    H220941   5.766   3.716   4.597
 7000TIP3   OH220942   5.966   3.641   4.374
 7000TIP3    H120943   5.886   3.645   4.426
 7000TIP3    H220944   5.938   3.665   4.285
 7001TIP3   OH220945   6.381   3.664   4.170
 7001TIP3    H120946   6.307   3.675   4.111
 7001TIP3    H220947   6.392   3.750   4.210
 7002TIP3   OH220948   6.645   3.599   4.223
 7002TIP3    H120949   6.554   3.619   4.200
 7002TIP3    H220950   6.696   3.663   4.175
 7003TIP3   OH220951   6.845   3.766   4.120
 7003TIP3    H120952   6.843   3.854   4.082
 7003TIP3    H220953   6.876   3.710   4.049
 7004TIP3   OH220954   5.644   3.440   4.244
 7004TIP3    H120955   5.667   3.415   4.333
 7004TIP3    H220956   5.715   3.407   4.190
 7005TIP3   OH220957   5.852   3.322   4.113
 7005TIP3    H120958   5.860   3.236   4.154
 7005TIP3    H220959   5.939   3.360   4.120
 7006TIP3   OH220960   6.121   3.399   4.132
 7006TIP3    H120961   6.139   3.307   4.116
 7006TIP3    H220962   6.177   3.422   4.207
 7007TIP3   OH220963   6.681   2.050   4.216
 7007TIP3    H120964   6.641   1.979   4.266
 7007TIP3    H220965   6.749   2.008   4.164
 7008TIP3   OH220966   7.182   1.972   4.103
 7008TIP3    H120967   7.218   2.020   4.029
 7008TIP3    H220968   7.089   1.993   4.102
 7009TIP3   OH220969   7.295   2.044   3.863
 7009TIP3    H120970   7.364   1.982   3.841
 7009TIP3    H220971   7.333   2.130   3.844
 7010TIP3   OH220972   5.918   1.754   4.213
 7010TIP3    H120973   5.830   1.720   4.222
 7010TIP3    H220974   5.973   1.676   4.204
 7011TIP3   OH220975   5.738   1.661   3.865
 7011TIP3    H120976   5.765   1.710   3.787
 7011TIP3    H220977   5.702   1.727   3.924
 7012TIP3   OH220978   6.401   1.793   4.110
 7012TIP3    H120979   6.449   1.838   4.041
 7012TIP3    H220980   6.443   1.821   4.191
 7013TIP3   OH220981   6.894   1.931   4.085
 7013TIP3    H120982   6.911   1.895   3.998
 7013TIP3    H220983   6.902   1.856   4.144
 7014TIP3   OH220984   6.951   1.886   3.652
 7014TIP3    H120985   6.872   1.933   3.677
 7014TIP3    H220986   6.941   1.799   3.690
 7015TIP3   OH220987   5.426   3.207   3.633
 7015TIP3    H120988   5.338   3.185   3.601
 7015TIP3    H220989   5.426   3.303   3.635
 7016TIP3   OH220990   5.847   1.790   3.628
 7016TIP3    H120991   5.894   1.729   3.570
 7016TIP3    H220992   5.916   1.846   3.664
 7017TIP3   OH220993   6.332   1.985   3.726
 7017TIP3    H120994   6.392   1.932   3.779
 7017TIP3    H220995   6.348   2.075   3.755
 7018TIP3   OH220996   6.218   3.376   3.214
 7018TIP3    H120997   6.302   3.402   3.177
 7018TIP3    H220998   6.186   3.306   3.157
 7019TIP3   OH220999   6.914   3.526   3.325
 7019TIP3    H121000   6.909   3.431   3.318
 7019TIP3    H221001   6.874   3.559   3.245
 7020TIP3   OH221002   6.150   2.036   5.094
 7020TIP3    H121003   6.116   1.969   5.154
 7020TIP3    H221004   6.242   2.045   5.118
 7021TIP3   OH221005   6.397   2.044   5.219
 7021TIP3    H121006   6.473   2.020   5.166
 7021TIP3    H221007   6.391   1.974   5.285
 7022TIP3   OH221008   5.519   3.224   3.273
 7022TIP3    H121009   5.508   3.239   3.366
 7022TIP3    H221010   5.602   3.177   3.266
 7023TIP3   OH221011   7.218   2.126   5.008
 7023TIP3    H121012   7.237   2.091   5.095
 7023TIP3    H221013   7.302   2.124   4.962
 7024TIP3   OH221014   7.134   3.663   4.512
 7024TIP3    H121015   7.060   3.634   4.458
 7024TIP3    H221016   7.123   3.758   4.518
 7025TIP3   OH221017   7.666   2.871   4.039
 7025TIP3    H121018   7.706   2.842   4.121
 7025TIP3    H221019   7.741   2.898   3.985
 7026TIP3   OH221020   7.653   3.335   3.731
 7026TIP3    H121021   7.641   3.240   3.729
 7026TIP3    H221022   7.745   3.348   3.708
 7027TIP3   OH221023   7.380   2.538   3.482
 7027TIP3    H121024   7.341   2.622   3.507
 7027TIP3    H221025   7.308   2.488   3.444
 7028TIP3   OH221026   7.452   2.851   3.706
 7028TIP3    H121027   7.502   2.773   3.727
 7028TIP3    H221028   7.518   2.918   3.689
 7029TIP3   OH221029   8.425   3.821   3.386
 7029TIP3    H121030   8.496   3.760   3.405
 7029TIP3    H221031   8.346   3.776   3.416
 7030TIP3   OH221032   8.298   3.118   3.606
 7030TIP3    H121033   8.293   3.157   3.518
 7030TIP3    H221034   8.358   3.175   3.654
 7031TIP3   OH221035   7.980   2.309   3.660
 7031TIP3    H121036   7.952   2.391   3.700
 7031TIP3    H221037   7.902   2.277   3.615
 7032TIP3   OH221038   7.585   2.625   3.788
 7032TIP3    H121039   7.657   2.602   3.847
 7032TIP3    H221040   7.601   2.572   3.710
 7033TIP3   OH221041   7.962   2.832   3.540
 7033TIP3    H121042   8.027   2.826   3.610
 7033TIP3    H221043   7.940   2.741   3.520
 7034TIP3   OH221044   7.922   2.382   4.148
 7034TIP3    H121045   7.879   2.429   4.077
 7034TIP3    H221046   7.864   2.392   4.223
 7035TIP3   OH221047   8.003   3.185   3.907
 7035TIP3    H121048   7.945   3.254   3.940
 7035TIP3    H221049   8.011   3.203   3.813
 7036TIP3   OH221050   7.791   2.530   3.958
 7036TIP3    H121051   7.831   2.604   4.005
 7036TIP3    H221052   7.839   2.526   3.875
 7037TIP3   OH221053   7.848   3.389   3.996
 7037TIP3    H121054   7.843   3.478   3.963
 7037TIP3    H221055   7.768   3.378   4.047
 7038TIP3   OH221056   7.270   3.100   3.248
 7038TIP3    H121057   7.234   3.122   3.162
 7038TIP3    H221058   7.294   3.185   3.286
 7039TIP3   OH221059   7.747   2.969   3.452
 7039TIP3    H121060   7.710   2.911   3.385
 7039TIP3    H221061   7.823   2.921   3.485
 7040TIP3   OH221062   7.889   3.412   3.602
 7040TIP3    H121063   7.858   3.398   3.512
 7040TIP3    H221064   7.955   3.344   3.615
 7041TIP3   OH221065   7.882   2.940   3.871
 7041TIP3    H121066   7.945   2.914   3.805
 7041TIP3    H221067   7.911   3.027   3.899
 7042TIP3   OH221068   8.052   3.451   4.165
 7042TIP3    H121069   8.009   3.522   4.212
 7042TIP3    H221070   7.985   3.417   4.106
 7043TIP3   OH221071   7.826   3.068   4.280
 7043TIP3    H121072   7.825   3.157   4.315
 7043TIP3    H221073   7.736   3.037   4.293
 7044TIP3   OH221074   8.018   3.528   3.182
 7044TIP3    H121075   8.105   3.566   3.191
 7044TIP3    H221076   7.966   3.595   3.137
 7045TIP3   OH221077   7.874   3.642   4.253
 7045TIP3    H121078   7.846   3.656   4.162
 7045TIP3    H221079   7.793   3.634   4.302
 7046TIP3   OH221080   7.667   2.787   3.255
 7046TIP3    H121081   7.589   2.832   3.222
 7046TIP3    H221082   7.636   2.699   3.277
 7047TIP3   OH221083   7.468   3.206   4.198
 7047TIP3    H121084   7.399   3.187   4.134
 7047TIP3    H221085   7.502   3.119   4.222
 7048TIP3   OH221086   7.332   3.391   3.843
 7048TIP3    H121087   7.427   3.403   3.842
 7048TIP3    H221088   7.299   3.472   3.884
 7049TIP3   OH221089   8.223   3.604   4.001
 7049TIP3    H121090   8.206   3.682   4.054
 7049TIP3    H221091   8.168   3.536   4.039
 7050TIP3   OH221092   7.949   3.728   2.998
 7050TIP3    H121093   7.875   3.745   2.939
 7050TIP3    H221094   7.986   3.814   3.016
 7051TIP3   OH221095   7.493   3.583   3.355
 7051TIP3    H121096   7.535   3.578   3.441
 7051TIP3    H221097   7.442   3.503   3.348
 7052TIP3   OH221098   8.447   3.713   2.982
 7052TIP3    H121099   8.366   3.764   2.976
 7052TIP3    H221100   8.438   3.664   3.064
 7053TIP3   OH221101   7.639   3.416   4.172
 7053TIP3    H121102   7.693   3.403   4.250
 7053TIP3    H221103   7.574   3.346   4.175
 7054TIP3   OH221104   8.016   2.173   4.003
 7054TIP3    H121105   7.933   2.146   3.964
 7054TIP3    H221106   7.994   2.250   4.056
 7055TIP3   OH221107   7.960   2.731   4.045
 7055TIP3    H121108   7.915   2.751   4.127
 7055TIP3    H221109   7.941   2.805   3.988
 7056TIP3   OH221110   7.875   2.583   3.475
 7056TIP3    H121111   7.788   2.550   3.495
 7056TIP3    H221112   7.899   2.539   3.393
 7057TIP3   OH221113   7.791   2.746   4.262
 7057TIP3    H121114   7.805   2.797   4.341
 7057TIP3    H221115   7.774   2.657   4.293
 7058TIP3   OH221116   7.855   2.205   2.929
 7058TIP3    H121117   7.784   2.268   2.935
 7058TIP3    H221118   7.866   2.190   2.835
 7059TIP3   OH221119   7.425   2.264   3.777
 7059TIP3    H121120   7.483   2.299   3.844
 7059TIP3    H221121   7.481   2.250   3.701
 7060TIP3   OH221122   7.331   2.240   3.301
 7060TIP3    H121123   7.378   2.277   3.226
 7060TIP3    H221124   7.268   2.308   3.325
 7061TIP3   OH221125   7.637   2.474   3.560
 7061TIP3    H121126   7.548   2.484   3.526
 7061TIP3    H221127   7.661   2.384   3.541
 7062TIP3   OH221128   7.928   2.463   3.233
 7062TIP3    H121129   8.014   2.482   3.195
 7062TIP3    H221130   7.866   2.483   3.163
 7063TIP3   OH221131   7.762   2.510   3.022
 7063TIP3    H121132   7.691   2.463   2.979
 7063TIP3    H221133   7.813   2.548   2.950
 7064TIP3   OH221134   7.797   3.327   4.391
 7064TIP3    H121135   7.874   3.365   4.432
 7064TIP3    H221136   7.735   3.316   4.463
 7065TIP3   OH221137   7.751   2.224   3.519
 7065TIP3    H121138   7.731   2.145   3.571
 7065TIP3    H221139   7.777   2.190   3.433
 7066TIP3   OH221140   8.229   2.680   4.071
 7066TIP3    H121141   8.137   2.704   4.064
 7066TIP3    H221142   8.255   2.658   3.982
 7067TIP3   OH221143   7.990   2.976   3.069
 7067TIP3    H121144   7.908   2.932   3.046
 7067TIP3    H221145   7.976   3.007   3.158
 7068TIP3   OH221146   8.466   3.350   3.982
 7068TIP3    H121147   8.499   3.274   4.030
 7068TIP3    H221148   8.416   3.400   4.046
 7069TIP3   OH221149   7.664   3.046   3.705
 7069TIP3    H121150   7.691   3.035   3.614
 7069TIP3    H221151   7.736   3.009   3.756
 7070TIP3   OH221152   8.104   3.065   2.838
 7070TIP3    H121153   8.122   3.157   2.859
 7070TIP3    H221154   8.055   3.033   2.914
 7071TIP3   OH221155   7.565   2.978   4.334
 7071TIP3    H121156   7.571   2.949   4.425
 7071TIP3    H221157   7.492   2.928   4.297
 7072TIP3   OH221158   8.269   3.053   4.353
 7072TIP3    H121159   8.187   3.008   4.333
 7072TIP3    H221160   8.336   2.985   4.346
 7073TIP3   OH221161   7.783   3.374   3.354
 7073TIP3    H121162   7.792   3.449   3.295
 7073TIP3    H221163   7.696   3.339   3.335
 7074TIP3   OH221164   7.375   2.664   3.077
 7074TIP3    H121165   7.411   2.751   3.094
 7074TIP3    H221166   7.293   2.662   3.128
 7075TIP3   OH221167   7.955   3.107   3.332
 7075TIP3    H121168   7.931   3.184   3.280
 7075TIP3    H221169   7.872   3.075   3.367
 7076TIP3   OH221170   8.064   3.722   3.813
 7076TIP3    H121171   8.104   3.806   3.791
 7076TIP3    H221172   8.134   3.671   3.853
 7077TIP3   OH221173   7.710   3.600   3.193
 7077TIP3    H121174   7.631   3.600   3.247
 7077TIP3    H221175   7.739   3.691   3.193
 7078TIP3   OH221176   7.758   2.455   4.361
 7078TIP3    H121177   7.667   2.484   4.358
 7078TIP3    H221178   7.755   2.371   4.407
 7079TIP3   OH221179   7.518   3.610   3.990
 7079TIP3    H121180   7.561   3.549   4.049
 7079TIP3    H221181   7.529   3.696   4.032
 7080TIP3   OH221182   7.779   3.219   2.686
 7080TIP3    H121183   7.795   3.128   2.662
 7080TIP3    H221184   7.767   3.217   2.781
 7081TIP3   OH221185   7.723   3.247   2.956
 7081TIP3    H121186   7.799   3.250   3.015
 7081TIP3    H221187   7.693   3.338   2.953
 7082TIP3   OH221188   7.455   2.920   3.147
 7082TIP3    H121189   7.393   2.970   3.200
 7082TIP3    H221190   7.478   2.979   3.075
 7083TIP3   OH221191   8.135   3.330   2.897
 7083TIP3    H121192   8.057   3.384   2.882
 7083TIP3    H221193   8.206   3.394   2.910
 7084TIP3   OH221194   7.647   3.511   2.943
 7084TIP3    H121195   7.648   3.591   2.889
 7084TIP3    H221196   7.662   3.542   3.032
 7085TIP3   OH221197   7.843   2.196   3.220
 7085TIP3    H121198   7.871   2.285   3.243
 7085TIP3    H221199   7.881   2.181   3.133
 7086TIP3   OH221200   7.493   3.097   2.937
 7086TIP3    H121201   7.564   3.159   2.951
 7086TIP3    H221202   7.527   3.037   2.870
 7087TIP3   OH221203   7.404   2.388   3.085
 7087TIP3    H121204   7.412   2.484   3.089
 7087TIP3    H221205   7.367   2.371   2.999
 7088TIP3   OH221206   7.757   2.101   3.941
 7088TIP3    H121207   7.742   2.072   3.852
 7088TIP3    H221208   7.764   2.020   3.992
 7089TIP3   OH221209   7.320   3.365   3.335
 7089TIP3    H121210   7.277   3.400   3.413
 7089TIP3    H221211   7.276   3.408   3.262
 7090TIP3   OH221212   7.527   3.907   4.409
 7090TIP3    H121213   7.607   3.913   4.461
 7090TIP3    H221214   7.514   3.813   4.396
 7091TIP3   OH221215   7.977   3.825   4.432
 7091TIP3    H121216   8.059   3.782   4.458
 7091TIP3    H221217   7.944   3.772   4.360
 7092TIP3   OH221218   7.934   3.405   2.555
 7092TIP3    H121219   7.878   3.345   2.603
 7092TIP3    H221220   8.023   3.373   2.571
 7093TIP3   OH221221   7.621   3.288   4.600
 7093TIP3    H121222   7.643   3.194   4.603
 7093TIP3    H221223   7.535   3.291   4.559
 7094TIP3   OH221224   7.617   2.913   2.778
 7094TIP3    H121225   7.662   2.881   2.856
 7094TIP3    H221226   7.688   2.926   2.714
 7095TIP3   OH221227   8.115   3.278   4.377
 7095TIP3    H121228   8.091   3.315   4.291
 7095TIP3    H221229   8.169   3.203   4.356
 7096TIP3   OH221230   8.083   3.023   2.558
 7096TIP3    H121231   8.114   3.038   2.647
 7096TIP3    H221232   7.989   3.008   2.567
 7097TIP3   OH221233   7.749   3.032   4.591
 7097TIP3    H121234   7.812   2.966   4.563
 7097TIP3    H221235   7.780   3.059   4.678
 7098TIP3   OH221236   7.769   2.828   2.994
 7098TIP3    H121237   7.741   2.796   3.080
 7098TIP3    H221238   7.816   2.755   2.955
 7099TIP3   OH221239   8.052   2.918   4.263
 7099TIP3    H121240   7.971   2.968   4.270
 7099TIP3    H221241   8.081   2.930   4.173
 7100TIP3   OH221242   7.912   2.645   2.838
 7100TIP3    H121243   7.890   2.655   2.745
 7100TIP3    H221244   8.008   2.640   2.839
 7101TIP3   OH221245   8.199   2.746   4.418
 7101TIP3    H121246   8.155   2.662   4.412
 7101TIP3    H221247   8.156   2.800   4.352
 7102TIP3   OH221248   8.202   2.444   4.211
 7102TIP3    H121249   8.217   2.521   4.156
 7102TIP3    H221250   8.146   2.387   4.158
 7103TIP3   OH221251   8.161   2.992   4.025
 7103TIP3    H121252   8.248   3.029   4.036
 7103TIP3    H221253   8.111   3.061   3.980
 7104TIP3   OH221254   7.925   2.797   4.532
 7104TIP3    H121255   7.916   2.715   4.580
 7104TIP3    H221256   7.980   2.775   4.458
 7105TIP3   OH221257   7.899   2.562   4.678
 7105TIP3    H121258   7.907   2.478   4.632
 7105TIP3    H221259   7.948   2.550   4.760
 7106TIP3   OH221260   7.774   3.721   2.780
 7106TIP3    H121261   7.857   3.701   2.738
 7106TIP3    H221262   7.720   3.758   2.710
 7107TIP3   OH221263   7.220   3.097   2.950
 7107TIP3    H121264   7.315   3.107   2.949
 7107TIP3    H221265   7.204   3.009   2.914
 7108TIP3   OH221266   7.125   3.675   3.417
 7108TIP3    H121267   7.058   3.623   3.373
 7108TIP3    H221268   7.169   3.613   3.476
 7109TIP3   OH221269   7.267   3.506   3.585
 7109TIP3    H121270   7.260   3.437   3.650
 7109TIP3    H221271   7.316   3.576   3.630
 7110TIP3   OH221272   7.419   2.943   3.961
 7110TIP3    H121273   7.412   2.912   3.871
 7110TIP3    H221274   7.511   2.928   3.984
 7111TIP3   OH221275   7.637   2.613   4.615
 7111TIP3    H121276   7.731   2.609   4.635
 7111TIP3    H221277   7.602   2.531   4.650
 7112TIP3   OH221278   7.603   2.326   3.981
 7112TIP3    H121279   7.657   2.247   3.974
 7112TIP3    H221280   7.664   2.398   3.976
 7113TIP3   OH221281   7.416   2.610   4.016
 7113TIP3    H121282   7.455   2.598   3.929
 7113TIP3    H221283   7.459   2.687   4.052
 7114TIP3   OH221284   7.403   2.076   3.508
 7114TIP3    H121285   7.321   2.077   3.558
 7114TIP3    H221286   7.389   2.142   3.439
 7115TIP3   OH221287   7.635   2.190   4.367
 7115TIP3    H121288   7.578   2.162   4.439
 7115TIP3    H221289   7.574   2.226   4.302
 7116TIP3   OH221290   7.655   3.628   4.426
 7116TIP3    H121291   7.563   3.606   4.411
 7116TIP3    H221292   7.667   3.622   4.521
 7117TIP3   OH221293   7.849   3.663   3.972
 7117TIP3    H121294   7.788   3.727   3.937
 7117TIP3    H221295   7.931   3.677   3.924
 7118TIP3   OH221296   8.209   3.841   4.138
 7118TIP3    H121297   8.276   3.798   4.191
 7118TIP3    H221298   8.257   3.889   4.071
 7119TIP3   OH221299   0.058   4.096   4.012
 7119TIP3    H121300   0.093   4.138   3.934
 7119TIP3    H221301   0.093   4.148   4.085
 7120TIP3   OH221302   7.518   3.901   4.030
 7120TIP3    H121303   7.428   3.923   4.005
 7120TIP3    H221304   7.544   3.971   4.090
 7121TIP3   OH221305   7.726   3.877   3.856
 7121TIP3    H121306   7.645   3.884   3.907
 7121TIP3    H221307   7.701   3.907   3.768
 7122TIP3   OH221308   8.129   3.977   3.722
 7122TIP3    H121309   8.109   3.987   3.629
 7122TIP3    H221310   8.053   4.012   3.767
 7123TIP3   OH221311   8.377   3.815   3.686
 7123TIP3    H121312   8.326   3.877   3.740
 7123TIP3    H221313   8.460   3.860   3.671
 7124TIP3   OH221314   7.432   3.693   3.740
 7124TIP3    H121315   7.461   3.670   3.828
 7124TIP3    H221316   7.500   3.660   3.682
 7125TIP3   OH221317   7.624   3.576   3.595
 7125TIP3    H121318   7.634   3.491   3.639
 7125TIP3    H221319   7.711   3.615   3.598
 7126TIP3   OH221320   7.883   3.684   3.611
 7126TIP3    H121321   7.900   3.591   3.596
 7126TIP3    H221322   7.939   3.707   3.684
 7127TIP3   OH221323   7.701   2.007   3.686
 7127TIP3    H121324   7.614   1.968   3.701
 7127TIP3    H221325   7.761   1.933   3.692
 7128TIP3   OH221326   7.542   1.904   3.336
 7128TIP3    H121327   7.563   1.966   3.266
 7128TIP3    H221328   7.499   1.957   3.403
 7129TIP3   OH221329   7.204   3.488   3.119
 7129TIP3    H121330   7.122   3.455   3.083
 7129TIP3    H221331   7.210   3.578   3.087
 7130TIP3   OH221332   7.626   2.054   3.117
 7130TIP3    H121333   7.673   1.997   3.057
 7130TIP3    H221334   7.694   2.109   3.156
 7131TIP3   OH221335   8.018   3.649   2.652
 7131TIP3    H121336   8.082   3.616   2.715
 7131TIP3    H221337   7.977   3.570   2.616
 7132TIP3   OH221338   7.914   2.280   4.584
 7132TIP3    H121339   7.880   2.209   4.638
 7132TIP3    H221340   8.005   2.290   4.612
 7133TIP3   OH221341   8.149   2.286   4.724
 7133TIP3    H121342   8.243   2.293   4.707
 7133TIP3    H221343   8.142   2.215   4.788
 7134TIP3   OH221344   7.326   3.484   2.774
 7134TIP3    H121345   7.331   3.491   2.869
 7134TIP3    H221346   7.407   3.438   2.749
 7135TIP3   OH221347   0.886   3.855   4.938
 7135TIP3    H121348   0.840   3.933   4.907
 7135TIP3    H221349   0.819   3.788   4.942
 7136TIP3   OH221350   0.171   3.811   5.628
 7136TIP3    H121351   0.122   3.735   5.660
 7136TIP3    H221352   0.261   3.796   5.659
 7137TIP3   OH221353   1.118   4.194   5.075
 7137TIP3    H121354   1.100   4.152   4.991
 7137TIP3    H221355   1.110   4.123   5.139
 7138TIP3   OH221356   0.148   4.139   5.295
 7138TIP3    H121357   0.132   4.045   5.306
 7138TIP3    H221358   0.201   4.163   5.370
 7139TIP3   OH221359   8.428   3.597   5.413
 7139TIP3    H121360   8.484   3.526   5.445
 7139TIP3    H221361   8.435   3.592   5.318
 7140TIP3   OH221362   0.768   4.556   5.038
 7140TIP3    H121363   0.830   4.494   4.999
 7140TIP3    H221364   0.692   4.502   5.061
 7141TIP3   OH221365   0.738   4.077   5.394
 7141TIP3    H121366   0.782   3.995   5.414
 7141TIP3    H221367   0.808   4.142   5.392
 7142TIP3   OH221368   1.699   3.354   5.376
 7142TIP3    H121369   1.709   3.438   5.421
 7142TIP3    H221370   1.726   3.372   5.286
 7143TIP3   OH221371   0.446   3.195   5.343
 7143TIP3    H121372   0.422   3.269   5.288
 7143TIP3    H221373   0.390   3.123   5.313
 7144TIP3   OH221374   1.142   3.278   4.995
 7144TIP3    H121375   1.201   3.279   5.070
 7144TIP3    H221376   1.192   3.319   4.924
 7145TIP3   OH221377   0.093   3.408   5.516
 7145TIP3    H121378   0.141   3.359   5.582
 7145TIP3    H221379   0.160   3.460   5.471
 7146TIP3   OH221380   0.545   3.611   5.241
 7146TIP3    H121381   0.638   3.588   5.248
 7146TIP3    H221382   0.500   3.527   5.227
 7147TIP3   OH221383   1.735   3.570   5.552
 7147TIP3    H121384   1.665   3.631   5.529
 7147TIP3    H221385   1.703   3.525   5.630
 7148TIP3   OH221386   0.454   3.176   5.802
 7148TIP3    H121387   0.415   3.229   5.732
 7148TIP3    H221388   0.409   3.204   5.882
 7149TIP3   OH221389   0.770   4.060   4.801
 7149TIP3    H121390   0.733   4.027   4.719
 7149TIP3    H221391   0.730   4.146   4.811
 7150TIP3   OH221392   0.557   3.981   5.575
 7150TIP3    H121393   0.514   4.045   5.632
 7150TIP3    H221394   0.618   4.032   5.522
 7151TIP3   OH221395   1.302   3.322   5.214
 7151TIP3    H121396   1.265   3.304   5.301
 7151TIP3    H221397   1.355   3.401   5.227
 7152TIP3   OH221398   0.352   3.293   5.579
 7152TIP3    H121399   0.391   3.379   5.591
 7152TIP3    H221400   0.395   3.258   5.501
 7153TIP3   OH221401   0.401   4.165   5.712
 7153TIP3    H121402   0.374   4.187   5.623
 7153TIP3    H221403   0.327   4.117   5.748
 7154TIP3   OH221404   1.481   3.248   5.540
 7154TIP3    H121405   1.393   3.261   5.506
 7154TIP3    H221406   1.539   3.274   5.468
 7155TIP3   OH221407   0.771   2.877   5.538
 7155TIP3    H121408   0.764   2.785   5.565
 7155TIP3    H221409   0.695   2.919   5.578
 7156TIP3   OH221410   0.983   4.412   4.922
 7156TIP3    H121411   0.981   4.331   4.871
 7156TIP3    H221412   1.002   4.480   4.857
 7157TIP3   OH221413   1.021   4.165   4.803
 7157TIP3    H121414   1.059   4.129   4.723
 7157TIP3    H221415   0.935   4.125   4.809
 7158TIP3   OH221416   1.398   4.289   5.518
 7158TIP3    H121417   1.379   4.208   5.471
 7158TIP3    H221418   1.367   4.358   5.459
 7159TIP3   OH221419   0.706   3.682   4.792
 7159TIP3    H121420   0.632   3.740   4.774
 7159TIP3    H221421   0.753   3.676   4.709
 7160TIP3   OH221422   0.678   3.476   4.476
 7160TIP3    H121423   0.741   3.527   4.527
 7160TIP3    H221424   0.732   3.409   4.433
 7161TIP3   OH221425   1.597   3.938   5.376
 7161TIP3    H121426   1.512   3.982   5.379
 7161TIP3    H221427   1.623   3.944   5.285
 7162TIP3   OH221428   1.057   3.783   4.740
 7162TIP3    H121429   1.002   3.808   4.814
 7162TIP3    H221430   1.135   3.745   4.779
 7163TIP3   OH221431   1.273   3.804   5.667
 7163TIP3    H121432   1.276   3.878   5.728
 7163TIP3    H221433   1.191   3.815   5.620
 7164TIP3   OH221434   0.322   3.752   5.166
 7164TIP3    H121435   0.286   3.699   5.095
 7164TIP3    H221436   0.405   3.708   5.188
 7165TIP3   OH221437   0.504   4.063   5.258
 7165TIP3    H121438   0.469   3.981   5.292
 7165TIP3    H221439   0.592   4.069   5.295
 7166TIP3   OH221440   0.447   3.756   5.466
 7166TIP3    H121441   0.514   3.732   5.403
 7166TIP3    H221442   0.484   3.831   5.513
 7167TIP3   OH221443   1.049   4.397   5.274
 7167TIP3    H121444   1.002   4.471   5.312
 7167TIP3    H221445   1.030   4.324   5.332
 7168TIP3   OH221446   0.593   4.290   5.859
 7168TIP3    H121447   0.555   4.378   5.856
 7168TIP3    H221448   0.526   4.234   5.819
 7169TIP3   OH221449   0.889   3.629   4.584
 7169TIP3    H121450   0.949   3.688   4.630
 7169TIP3    H221451   0.915   3.635   4.492
 7170TIP3   OH221452   0.272   3.864   5.975
 7170TIP3    H121453   0.310   3.946   6.007
 7170TIP3    H221454   0.178   3.880   5.974
 7171TIP3   OH221455   0.684   4.319   4.800
 7171TIP3    H121456   0.627   4.350   4.870
 7171TIP3    H221457   0.628   4.314   4.723
 7172TIP3   OH221458   0.310   4.574   5.967
 7172TIP3    H121459   0.298   4.522   5.888
 7172TIP3    H221460   0.284   4.516   6.039
 7173TIP3   OH221461   1.394   2.853   4.642
 7173TIP3    H121462   1.318   2.875   4.696
 7173TIP3    H221463   1.405   2.929   4.585
 7174TIP3   OH221464   0.193   3.626   4.958
 7174TIP3    H121465   0.133   3.699   4.949
 7174TIP3    H221466   0.137   3.548   4.955
 7175TIP3   OH221467   1.223   4.222   4.194
 7175TIP3    H121468   1.218   4.311   4.161
 7175TIP3    H221469   1.312   4.193   4.173
 7176TIP3   OH221470   1.630   4.630   5.585
 7176TIP3    H121471   1.635   4.536   5.603
 7176TIP3    H221472   1.554   4.660   5.634
 7177TIP3   OH221473   0.769   4.404   5.681
 7177TIP3    H121474   0.775   4.496   5.709
 7177TIP3    H221475   0.706   4.365   5.742
 7178TIP3   OH221476   0.507   4.512   4.639
 7178TIP3    H121477   0.469   4.515   4.551
 7178TIP3    H221478   0.503   4.603   4.669
 7179TIP3   OH221479   0.739   4.447   4.305
 7179TIP3    H121480   0.786   4.372   4.269
 7179TIP3    H221481   0.770   4.453   4.395
 7180TIP3   OH221482   0.777   4.481   4.580
 7180TIP3    H121483   0.685   4.491   4.603
 7180TIP3    H221484   0.812   4.420   4.645
 7181TIP3   OH221485   1.542   3.748   5.864
 7181TIP3    H121486   1.456   3.742   5.822
 7181TIP3    H221487   1.559   3.659   5.896
 7182TIP3   OH221488   0.538   2.960   5.658
 7182TIP3    H121489   0.452   2.930   5.628
 7182TIP3    H221490   0.519   3.043   5.702
 7183TIP3   OH221491   1.070   3.105   5.863
 7183TIP3    H121492   1.140   3.087   5.925
 7183TIP3    H221493   0.989   3.086   5.911
 7184TIP3   OH221494   1.327   3.567   5.806
 7184TIP3    H121495   1.267   3.544   5.876
 7184TIP3    H221496   1.279   3.633   5.755
 7185TIP3   OH221497   0.964   3.631   4.324
 7185TIP3    H121498   0.919   3.622   4.240
 7185TIP3    H221499   1.049   3.669   4.302
 7186TIP3   OH221500   0.671   3.028   4.643
 7186TIP3    H121501   0.637   3.031   4.732
 7186TIP3    H221502   0.640   2.944   4.609
 7187TIP3   OH221503   0.474   3.529   5.632
 7187TIP3    H121504   0.441   3.537   5.722
 7187TIP3    H221505   0.464   3.616   5.595
 7188TIP3   OH221506   0.359   3.400   5.180
 7188TIP3    H121507   0.272   3.377   5.213
 7188TIP3    H221508   0.361   3.364   5.091
 7189TIP3   OH221509   0.813   3.469   4.922
 7189TIP3    H121510   0.770   3.545   4.883
 7189TIP3    H221511   0.873   3.437   4.854
 7190TIP3   OH221512   1.034   3.738   5.994
 7190TIP3    H121513   1.000   3.669   6.051
 7190TIP3    H221514   1.125   3.749   6.021
 7191TIP3   OH221515   1.030   3.514   5.095
 7191TIP3    H121516   0.942   3.517   5.057
 7191TIP3    H221517   1.060   3.424   5.080
 7192TIP3   OH221518   0.366   3.504   5.889
 7192TIP3    H121519   0.355   3.577   5.951
 7192TIP3    H221520   0.378   3.427   5.944
 7193TIP3   OH221521   0.351   3.004   4.620
 7193TIP3    H121522   0.338   3.008   4.715
 7193TIP3    H221523   0.277   3.052   4.583
 7194TIP3   OH221524   8.415   3.033   5.444
 7194TIP3    H121525   8.496   3.055   5.489
 7194TIP3    H221526   8.443   2.979   5.370
 7195TIP3   OH221527   8.396   3.186   5.104
 7195TIP3    H121528   8.439   3.164   5.021
 7195TIP3    H221529   8.311   3.220   5.078
 7196TIP3   OH221530   0.703   3.189   5.238
 7196TIP3    H121531   0.625   3.189   5.293
 7196TIP3    H221532   0.776   3.176   5.299
 7197TIP3   OH221533   0.130   3.254   5.237
 7197TIP3    H121534   0.047   3.239   5.192
 7197TIP3    H221535   0.172   3.168   5.239
 7198TIP3   OH221536   0.352   3.267   4.936
 7198TIP3    H121537   0.446   3.282   4.928
 7198TIP3    H221538   0.315   3.295   4.852
 7199TIP3   OH221539   1.206   3.269   5.472
 7199TIP3    H121540   1.177   3.310   5.554
 7199TIP3    H221541   1.129   3.221   5.442
 7200TIP3   OH221542   0.228   3.312   4.688
 7200TIP3    H121543   0.185   3.249   4.630
 7200TIP3    H221544   0.297   3.351   4.633
 7201TIP3   OH221545   1.354   4.988   5.684
 7201TIP3    H121546   1.349   4.997   5.589
 7201TIP3    H221547   1.433   5.035   5.709
 7202TIP3   OH221548   0.311   4.122   6.061
 7202TIP3    H121549   0.396   4.139   6.101
 7202TIP3    H221550   0.253   4.103   6.135
 7203TIP3   OH221551   0.267   3.008   5.238
 7203TIP3    H121552   0.234   2.934   5.288
 7203TIP3    H221553   0.302   2.969   5.158
 7204TIP3   OH221554   0.725   3.408   5.652
 7204TIP3    H121555   0.647   3.461   5.633
 7204TIP3    H221556   0.788   3.470   5.688
 7205TIP3   OH221557   0.501   3.861   4.733
 7205TIP3    H121558   0.445   3.784   4.722
 7205TIP3    H221559   0.472   3.899   4.817
 7206TIP3   OH221560   1.354   4.068   5.359
 7206TIP3    H121561   1.383   4.110   5.278
 7206TIP3    H221562   1.274   4.023   5.335
 7207TIP3   OH221563   0.922   3.132   4.641
 7207TIP3    H121564   0.829   3.112   4.639
 7207TIP3    H221565   0.926   3.227   4.654
 7208TIP3   OH221566   0.931   4.181   5.695
 7208TIP3    H121567   0.906   4.109   5.753
 7208TIP3    H221568   0.864   4.247   5.707
 7209TIP3   OH221569   0.982   3.395   4.711
 7209TIP3    H121570   1.077   3.397   4.723
 7209TIP3    H221571   0.964   3.473   4.658
 7210TIP3   OH221572   0.143   3.877   5.361
 7210TIP3    H121573   0.203   3.827   5.306
 7210TIP3    H221574   0.164   3.850   5.451
 7211TIP3   OH221575   0.661   3.979   4.550
 7211TIP3    H121576   0.627   4.069   4.541
 7211TIP3    H221577   0.597   3.936   4.607
 7212TIP3   OH221578   0.825   3.918   6.030
 7212TIP3    H121579   0.755   3.856   6.013
 7212TIP3    H221580   0.905   3.873   6.003
 7213TIP3   OH221581   1.034   4.470   5.604
 7213TIP3    H121582   0.948   4.428   5.608
 7213TIP3    H221583   1.059   4.483   5.695
 7214TIP3   OH221584   1.393   3.489   4.525
 7214TIP3    H121585   1.333   3.444   4.465
 7214TIP3    H221586   1.403   3.576   4.487
 7215TIP3   OH221587   1.645   4.352   5.612
 7215TIP3    H121588   1.551   4.340   5.606
 7215TIP3    H221589   1.679   4.323   5.528
 7216TIP3   OH221590   1.139   4.274   4.454
 7216TIP3    H121591   1.112   4.191   4.492
 7216TIP3    H221592   1.165   4.252   4.364
 7217TIP3   OH221593   1.131   3.936   5.265
 7217TIP3    H121594   1.066   3.904   5.328
 7217TIP3    H221595   1.160   3.858   5.219
 7218TIP3   OH221596   0.196   4.130   4.994
 7218TIP3    H121597   0.209   4.214   4.950
 7218TIP3    H221598   0.108   4.136   5.032
 7219TIP3   OH221599   8.327   3.491   4.725
 7219TIP3    H121600   8.310   3.575   4.769
 7219TIP3    H221601   8.254   3.435   4.752
 7220TIP3   OH221602   0.390   3.946   4.969
 7220TIP3    H121603   0.331   4.014   5.000
 7220TIP3    H221604   0.390   3.880   5.038
 7221TIP3   OH221605   0.596   4.454   5.461
 7221TIP3    H121606   0.638   4.536   5.434
 7221TIP3    H221607   0.651   4.420   5.532
 7222TIP3   OH221608   0.214   4.387   4.877
 7222TIP3    H121609   0.120   4.380   4.891
 7222TIP3    H221610   0.233   4.481   4.888
 7223TIP3   OH221611   0.998   4.174   5.428
 7223TIP3    H121612   0.979   4.176   5.522
 7223TIP3    H221613   1.016   4.082   5.409
 7224TIP3   OH221614   0.912   4.027   4.356
 7224TIP3    H121615   0.963   4.018   4.436
 7224TIP3    H221616   0.825   3.993   4.379
 7225TIP3   OH221617   1.163   4.695   5.522
 7225TIP3    H121618   1.104   4.621   5.540
 7225TIP3    H221619   1.133   4.729   5.438
 7226TIP3   OH221620   1.220   4.491   4.133
 7226TIP3    H121621   1.222   4.543   4.053
 7226TIP3    H221622   1.156   4.536   4.189
 7227TIP3   OH221623   0.338   3.264   6.036
 7227TIP3    H121624   0.256   3.226   6.005
 7227TIP3    H221625   0.365   3.209   6.109
 7228TIP3   OH221626   1.088   4.006   4.575
 7228TIP3    H121627   1.063   3.930   4.628
 7228TIP3    H221628   1.180   3.992   4.555
 7229TIP3   OH221629   0.302   3.986   4.363
 7229TIP3    H121630   0.335   3.907   4.321
 7229TIP3    H221631   0.234   3.955   4.424
 7230TIP3   OH221632   0.142   4.011   4.621
 7230TIP3    H121633   0.211   3.949   4.647
 7230TIP3    H221634   0.185   4.097   4.622
 7231TIP3   OH221635   8.341   3.719   4.875
 7231TIP3    H121636   8.297   3.740   4.957
 7231TIP3    H221637   8.425   3.766   4.879
 7232TIP3   OH221638   1.123   3.344   5.732
 7232TIP3    H121639   1.177   3.382   5.801
 7232TIP3    H221640   1.092   3.261   5.769
 7233TIP3   OH221641   0.981   3.073   4.906
 7233TIP3    H121642   0.961   3.095   4.815
 7233TIP3    H221643   1.028   3.150   4.940
 7234TIP3   OH221644   0.557   4.230   4.551
 7234TIP3    H121645   0.491   4.207   4.616
 7234TIP3    H221646   0.521   4.307   4.506
 7235TIP3   OH221647   0.627   3.282   4.991
 7235TIP3    H121648   0.690   3.349   4.965
 7235TIP3    H221649   0.652   3.259   5.080
 7236TIP3   OH221650   0.914   3.538   5.805
 7236TIP3    H121651   0.955   3.615   5.844
 7236TIP3    H221652   0.987   3.483   5.777
 7237TIP3   OH221653   0.800   2.972   5.086
 7237TIP3    H121654   0.782   3.049   5.141
 7237TIP3    H221655   0.869   3.001   5.026
 7238TIP3   OH221656   0.182   4.282   4.614
 7238TIP3    H121657   0.196   4.349   4.547
 7238TIP3    H221658   0.169   4.333   4.695
 7239TIP3   OH221659   0.319   2.991   4.898
 7239TIP3    H121660   0.301   3.081   4.925
 7239TIP3    H221661   0.414   2.983   4.905
 7240TIP3   OH221662   1.557   3.440   5.727
 7240TIP3    H121663   1.477   3.484   5.757
 7240TIP3    H221664   1.526   3.373   5.666
 7241TIP3   OH221665   1.225   3.696   5.153
 7241TIP3    H121666   1.149   3.638   5.150
 7241TIP3    H221667   1.290   3.647   5.205
 7242TIP3   OH221668   8.388   4.013   4.722
 7242TIP3    H121669   8.468   4.022   4.671
 7242TIP3    H221670   8.320   4.055   4.668
 7243TIP3   OH221671   0.009   3.138   4.859
 7243TIP3    H121672   0.051   3.224   4.859
 7243TIP3    H221673  -0.042   3.136   4.778
 7244TIP3   OH221674   1.188   4.560   5.060
 7244TIP3    H121675   1.140   4.632   5.019
 7244TIP3    H221676   1.277   4.595   5.073
 7245TIP3   OH221677   0.281   2.875   5.607
 7245TIP3    H121678   0.249   2.840   5.524
 7245TIP3    H221679   0.269   2.804   5.670
 7246TIP3   OH221680   0.545   4.688   6.035
 7246TIP3    H121681   0.605   4.618   6.061
 7246TIP3    H221682   0.468   4.642   6.002
 7247TIP3   OH221683   0.408   4.207   4.253
 7247TIP3    H121684   0.377   4.131   4.301
 7247TIP3    H221685   0.490   4.178   4.213
 7248TIP3   OH221686   1.088   4.533   5.863
 7248TIP3    H121687   1.089   4.462   5.927
 7248TIP3    H221688   1.159   4.591   5.891
 7249TIP3   OH221689   0.856   4.234   4.180
 7249TIP3    H121690   0.893   4.167   4.236
 7249TIP3    H221691   0.911   4.232   4.101
 7250TIP3   OH221692   0.141   3.759   4.456
 7250TIP3    H121693   0.149   3.689   4.521
 7250TIP3    H221694   0.209   3.740   4.392
 7251TIP3   OH221695   0.746   4.191   6.066
 7251TIP3    H121696   0.702   4.207   5.983
 7251TIP3    H221697   0.788   4.105   6.055
 7252TIP3   OH221698   0.626   3.907   4.286
 7252TIP3    H121699   0.625   3.916   4.382
 7252TIP3    H221700   0.621   3.813   4.271
 7253TIP3   OH221701   1.205   4.193   5.708
 7253TIP3    H121702   1.245   4.249   5.641
 7253TIP3    H221703   1.110   4.202   5.693
 7254TIP3   OH221704   0.332   3.785   6.287
 7254TIP3    H121705   0.250   3.781   6.238
 7254TIP3    H221706   0.312   3.841   6.362
 7255TIP3   OH221707   0.354   3.641   4.730
 7255TIP3    H121708   0.300   3.617   4.806
 7255TIP3    H221709   0.353   3.563   4.675
 7256TIP3   OH221710   0.612   3.717   5.951
 7256TIP3    H121711   0.579   3.792   6.000
 7256TIP3    H221712   0.655   3.755   5.874
 7257TIP3   OH221713   0.406   3.445   4.531
 7257TIP3    H121714   0.382   3.453   4.439
 7257TIP3    H221715   0.502   3.453   4.531
 7258TIP3   OH221716   1.089   4.097   6.045
 7258TIP3    H121717   1.144   4.051   5.983
 7258TIP3    H221718   1.082   4.038   6.120
 7259TIP3   OH221719   1.190   3.744   4.211
 7259TIP3    H121720   1.179   3.695   4.130
 7259TIP3    H221721   1.165   3.833   4.189
 7260TIP3   OH221722   0.691   3.479   6.062
 7260TIP3    H121723   0.699   3.405   6.001
 7260TIP3    H221724   0.668   3.554   6.006
 7261TIP3   OH221725   0.699   3.264   5.881
 7261TIP3    H121726   0.729   3.311   5.803
 7261TIP3    H221727   0.613   3.230   5.857
 7262TIP3   OH221728   0.714   3.808   5.719
 7262TIP3    H121729   0.792   3.798   5.664
 7262TIP3    H221730   0.655   3.864   5.668
 7263TIP3   OH221731   1.289   3.760   6.115
 7263TIP3    H121732   1.331   3.680   6.147
 7263TIP3    H221733   1.362   3.817   6.090
 7264TIP3   OH221734   1.326   4.013   5.858
 7264TIP3    H121735   1.275   4.079   5.812
 7264TIP3    H221736   1.416   4.025   5.826
 7265TIP3   OH221737   0.579   3.566   6.299
 7265TIP3    H121738   0.524   3.489   6.314
 7265TIP3    H221739   0.612   3.556   6.210
 7266TIP3   OH221740   0.819   3.031   5.953
 7266TIP3    H121741   0.777   3.114   5.929
 7266TIP3    H221742   0.752   2.964   5.935
 7267TIP3   OH221743   0.947   3.533   6.156
 7267TIP3    H121744   0.939   3.524   6.251
 7267TIP3    H221745   0.861   3.508   6.123
 7268TIP3   OH221746   1.174   3.459   6.004
 7268TIP3    H121747   1.097   3.472   6.059
 7268TIP3    H221748   1.246   3.446   6.067
 7269TIP3   OH221749   1.410   3.446   6.161
 7269TIP3    H121750   1.422   3.352   6.174
 7269TIP3    H221751   1.401   3.482   6.249
 7270TIP3   OH221752   0.432   3.339   6.356
 7270TIP3    H121753   0.420   3.256   6.310
 7270TIP3    H221754   0.469   3.314   6.440
 7271TIP3   OH221755   0.877   3.028   6.218
 7271TIP3    H121756   0.947   2.962   6.215
 7271TIP3    H221757   0.848   3.035   6.127
 7272TIP3   OH221758   0.974   3.253   6.346
 7272TIP3    H121759   0.940   3.181   6.293
 7272TIP3    H221760   0.901   3.315   6.353
 7273TIP3   OH221761   0.204   4.480   4.429
 7273TIP3    H121762   0.292   4.490   4.391
 7273TIP3    H221763   0.146   4.524   4.367
 7274TIP3   OH221764   1.424   4.700   5.084
 7274TIP3    H121765   1.453   4.721   5.173
 7274TIP3    H221766   1.494   4.733   5.028
 7275TIP3   OH221767   1.470   4.721   5.363
 7275TIP3    H121768   1.416   4.641   5.357
 7275TIP3    H221769   1.539   4.698   5.425
 7276TIP3   OH221770   1.528   4.440   5.933
 7276TIP3    H121771   1.456   4.444   5.996
 7276TIP3    H221772   1.574   4.523   5.945
 7277TIP3   OH221773   1.355   3.953   4.547
 7277TIP3    H121774   1.418   4.019   4.515
 7277TIP3    H221775   1.398   3.914   4.622
 7278TIP3   OH221776   1.468   3.814   4.759
 7278TIP3    H121777   1.398   3.767   4.805
 7278TIP3    H221778   1.528   3.842   4.828
 7279TIP3   OH221779   1.528   4.193   5.179
 7279TIP3    H121780   1.587   4.126   5.145
 7279TIP3    H221781   1.529   4.262   5.113
 7280TIP3   OH221782   1.296   4.500   5.372
 7280TIP3    H121783   1.256   4.554   5.440
 7280TIP3    H221784   1.221   4.464   5.323
 7281TIP3   OH221785   1.400   3.730   4.389
 7281TIP3    H121786   1.331   3.726   4.323
 7281TIP3    H221787   1.378   3.807   4.441
 7282TIP3   OH221788   1.233   3.379   4.335
 7282TIP3    H121789   1.190   3.410   4.255
 7282TIP3    H221790   1.228   3.283   4.328
 7283TIP3   OH221791   1.268   3.666   4.879
 7283TIP3    H121792   1.269   3.571   4.869
 7283TIP3    H221793   1.252   3.679   4.973
 7284TIP3   OH221794   1.572   4.082   5.751
 7284TIP3    H121795   1.639   4.015   5.733
 7284TIP3    H221796   1.582   4.145   5.680
 7285TIP3   OH221797   1.749   3.874   5.736
 7285TIP3    H121798   1.674   3.828   5.774
 7285TIP3    H221799   1.825   3.824   5.767
 7286TIP3   OH221800   1.204   3.109   4.310
 7286TIP3    H121801   1.272   3.077   4.369
 7286TIP3    H221802   1.124   3.063   4.338
 7287TIP3   OH221803   1.271   3.390   4.764
 7287TIP3    H121804   1.317   3.308   4.776
 7287TIP3    H221805   1.312   3.430   4.688
 7288TIP3   OH221806   1.433   3.559   5.284
 7288TIP3    H121807   1.517   3.578   5.241
 7288TIP3    H221808   1.442   3.597   5.371
 7289TIP3   OH221809   1.499   3.714   5.510
 7289TIP3    H121810   1.424   3.740   5.564
 7289TIP3    H221811   1.529   3.796   5.470
 7290TIP3   OH221812   0.023   3.436   6.370
 7290TIP3    H121813   0.099   3.487   6.341
 7290TIP3    H221814   0.041   3.416   6.462
 7291TIP3   OH221815   1.951   3.315   6.047
 7291TIP3    H121816   2.016   3.252   6.016
 7291TIP3    H221817   1.924   3.361   5.968
 7292TIP3   OH221818   1.389   3.143   4.817
 7292TIP3    H121819   1.433   3.129   4.901
 7292TIP3    H221820   1.326   3.071   4.811
 7293TIP3   OH221821   0.147   3.106   5.571
 7293TIP3    H121822   0.197   3.025   5.584
 7293TIP3    H221823   0.214   3.173   5.559
 7294TIP3   OH221824   1.815   3.452   5.852
 7294TIP3    H121825   1.752   3.485   5.916
 7294TIP3    H221826   1.765   3.389   5.799
 7295TIP3   OH221827   1.435   3.052   4.457
 7295TIP3    H121828   1.483   2.992   4.401
 7295TIP3    H221829   1.489   3.131   4.460
 7296TIP3   OH221830   8.406   2.846   5.242
 7296TIP3    H121831   8.336   2.782   5.256
 7296TIP3    H221832   8.395   2.874   5.151
 7297TIP3   OH221833   1.049   4.603   4.734
 7297TIP3    H121834   1.089   4.574   4.652
 7297TIP3    H221835   1.069   4.697   4.739
 7298TIP3   OH221836   8.477   3.006   6.149
 7298TIP3    H121837   8.389   2.998   6.185
 7298TIP3    H221838   8.465   3.010   6.055
 7299TIP3   OH221839   0.266   4.418   5.741
 7299TIP3    H121840   0.288   4.486   5.677
 7299TIP3    H221841   0.327   4.347   5.721
 7300TIP3   OH221842   0.787   4.667   5.773
 7300TIP3    H121843   0.819   4.661   5.863
 7300TIP3    H221844   0.855   4.717   5.727
 7301TIP3   OH221845   0.966   4.843   5.656
 7301TIP3    H121846   1.042   4.799   5.619
 7301TIP3    H221847   1.003   4.906   5.719
 7302TIP3   OH221848   1.725   3.170   5.759
 7302TIP3    H121849   1.636   3.163   5.724
 7302TIP3    H221850   1.762   3.082   5.751
 7303TIP3   OH221851   0.327   4.614   5.553
 7303TIP3    H121852   0.238   4.647   5.565
 7303TIP3    H221853   0.332   4.591   5.460
 7304TIP3   OH221854   0.674   4.699   5.352
 7304TIP3    H121855   0.644   4.732   5.267
 7304TIP3    H221856   0.683   4.778   5.406
 7305TIP3   OH221857   0.939   4.634   5.343
 7305TIP3    H121858   0.845   4.651   5.347
 7305TIP3    H221859   0.976   4.714   5.306
 7306TIP3   OH221860   1.112   4.837   5.260
 7306TIP3    H121861   1.102   4.932   5.247
 7306TIP3    H221862   1.123   4.803   5.171
 7307TIP3   OH221863   0.096   4.389   5.193
 7307TIP3    H121864   0.072   4.302   5.226
 7307TIP3    H221865   0.190   4.384   5.177
 7308TIP3   OH221866   0.397   4.526   5.295
 7308TIP3    H121867   0.381   4.448   5.242
 7308TIP3    H221868   0.472   4.504   5.349
 7309TIP3   OH221869   0.910   3.078   5.380
 7309TIP3    H121870   0.880   3.006   5.435
 7309TIP3    H221871   0.991   3.047   5.340
 7310TIP3   OH221872   1.434   3.008   5.276
 7310TIP3    H121873   1.470   3.060   5.204
 7310TIP3    H221874   1.343   3.037   5.284
 7311TIP3   OH221875   1.545   3.093   5.040
 7311TIP3    H121876   1.615   3.031   5.015
 7311TIP3    H221877   1.584   3.179   5.028
 7312TIP3   OH221878   0.179   2.779   5.369
 7312TIP3    H121879   0.089   2.746   5.376
 7312TIP3    H221880   0.233   2.700   5.369
 7313TIP3   OH221881   0.066   2.658   5.039
 7313TIP3    H121882   0.081   2.713   4.962
 7313TIP3    H221883   0.060   2.720   5.111
 7314TIP3   OH221884   0.648   2.838   5.283
 7314TIP3    H121885   0.697   2.885   5.216
 7314TIP3    H221886   0.690   2.863   5.365
 7315TIP3   OH221887   1.146   2.987   5.268
 7315TIP3    H121888   1.157   2.955   5.179
 7315TIP3    H221889   1.151   2.908   5.322
 7316TIP3   OH221890   1.205   2.930   4.825
 7316TIP3    H121891   1.124   2.977   4.849
 7316TIP3    H221892   1.195   2.844   4.864
 7317TIP3   OH221893   0.134   2.803   4.808
 7317TIP3    H121894   0.183   2.744   4.750
 7317TIP3    H221895   0.200   2.866   4.838
 7318TIP3   OH221896   0.590   3.025   4.908
 7318TIP3    H121897   0.653   2.978   4.963
 7318TIP3    H221898   0.601   3.117   4.932
 7319TIP3   OH221899   0.471   4.446   4.369
 7319TIP3    H121900   0.560   4.466   4.338
 7319TIP3    H221901   0.445   4.369   4.319
 7320TIP3   OH221902   1.179   4.543   4.496
 7320TIP3    H121903   1.169   4.448   4.485
 7320TIP3    H221904   1.141   4.580   4.416
 7321TIP3   OH221905   0.445   3.075   6.245
 7321TIP3    H121906   0.399   3.022   6.310
 7321TIP3    H221907   0.535   3.080   6.277
 7322TIP3   OH221908   0.677   3.075   6.401
 7322TIP3    H121909   0.752   3.059   6.343
 7322TIP3    H221910   0.678   3.001   6.462
 7323TIP3   OH221911   1.470   3.175   6.183
 7323TIP3    H121912   1.484   3.150   6.274
 7323TIP3    H221913   1.556   3.169   6.143
 7324TIP3   OH221914   1.389   4.715   5.689
 7324TIP3    H121915   1.311   4.692   5.637
 7324TIP3    H221916   1.381   4.809   5.703
 7325TIP3   OH221917   1.971   3.982   5.213
 7325TIP3    H121918   1.996   3.899   5.254
 7325TIP3    H221919   2.010   4.049   5.269
 7326TIP3   OH221920   1.968   4.400   4.911
 7326TIP3    H121921   1.991   4.402   5.004
 7326TIP3    H221922   2.048   4.368   4.868
 7327TIP3   OH221923   1.616   3.588   4.672
 7327TIP3    H121924   1.572   3.669   4.698
 7327TIP3    H221925   1.549   3.537   4.625
 7328TIP3   OH221926   1.720   3.878   4.876
 7328TIP3    H121927   1.764   3.801   4.911
 7328TIP3    H221928   1.746   3.879   4.784
 7329TIP3   OH221929   2.617   4.792   4.524
 7329TIP3    H121930   2.640   4.733   4.451
 7329TIP3    H221931   2.635   4.741   4.602
 7330TIP3   OH221932   3.507   3.620   4.866
 7330TIP3    H121933   3.530   3.701   4.910
 7330TIP3    H221934   3.553   3.624   4.782
 7331TIP3   OH221935   2.178   3.471   4.850
 7331TIP3    H121936   2.166   3.531   4.776
 7331TIP3    H221937   2.141   3.388   4.820
 7332TIP3   OH221938   2.928   3.532   4.470
 7332TIP3    H121939   2.979   3.545   4.550
 7332TIP3    H221940   2.976   3.581   4.403
 7333TIP3   OH221941   1.855   3.663   4.976
 7333TIP3    H121942   1.937   3.643   5.020
 7333TIP3    H221943   1.853   3.603   4.901
 7334TIP3   OH221944   3.563   3.843   5.028
 7334TIP3    H121945   3.474   3.879   5.024
 7334TIP3    H221946   3.596   3.871   5.113
 7335TIP3   OH221947   2.196   3.455   5.308
 7335TIP3    H121948   2.157   3.501   5.234
 7335TIP3    H221949   2.134   3.467   5.379
 7336TIP3   OH221950   2.484   4.272   4.330
 7336TIP3    H121951   2.579   4.283   4.321
 7336TIP3    H221952   2.449   4.361   4.330
 7337TIP3   OH221953   2.305   4.234   5.104
 7337TIP3    H121954   2.240   4.302   5.120
 7337TIP3    H221955   2.311   4.227   5.009
 7338TIP3   OH221956   3.077   3.576   4.699
 7338TIP3    H121957   3.048   3.550   4.787
 7338TIP3    H221958   3.130   3.654   4.713
 7339TIP3   OH221959   2.099   3.582   5.083
 7339TIP3    H121960   2.154   3.660   5.092
 7339TIP3    H221961   2.134   3.537   5.006
 7340TIP3   OH221962   2.119   4.438   5.159
 7340TIP3    H121963   2.120   4.532   5.143
 7340TIP3    H221964   2.051   4.426   5.226
 7341TIP3   OH221965   1.528   4.136   4.427
 7341TIP3    H121966   1.497   4.142   4.336
 7341TIP3    H221967   1.545   4.226   4.453
 7342TIP3   OH221968   2.981   4.610   4.695
 7342TIP3    H121969   2.888   4.605   4.717
 7342TIP3    H221970   2.988   4.683   4.633
 7343TIP3   OH221971   3.287   3.529   5.034
 7343TIP3    H121972   3.200   3.535   4.994
 7343TIP3    H221973   3.348   3.550   4.962
 7344TIP3   OH221974   2.552   3.145   5.036
 7344TIP3    H121975   2.542   3.053   5.060
 7344TIP3    H221976   2.475   3.188   5.074
 7345TIP3   OH221977   2.700   4.641   4.298
 7345TIP3    H121978   2.763   4.572   4.275
 7345TIP3    H221979   2.745   4.723   4.275
 7346TIP3   OH221980   3.200   4.538   5.008
 7346TIP3    H121981   3.188   4.476   4.935
 7346TIP3    H221982   3.180   4.624   4.970
 7347TIP3   OH221983   2.458   3.989   4.263
 7347TIP3    H121984   2.490   4.073   4.295
 7347TIP3    H221985   2.519   3.966   4.193
 7348TIP3   OH221986   2.462   3.736   3.959
 7348TIP3    H121987   2.522   3.784   4.017
 7348TIP3    H221988   2.516   3.669   3.919
 7349TIP3   OH221989   3.362   4.203   4.852
 7349TIP3    H121990   3.290   4.266   4.850
 7349TIP3    H221991   3.376   4.180   4.760
 7350TIP3   OH221992   2.793   4.030   4.269
 7350TIP3    H121993   2.804   4.125   4.259
 7350TIP3    H221994   2.808   4.014   4.362
 7351TIP3   OH221995   3.089   4.054   5.201
 7351TIP3    H121996   3.094   4.131   5.258
 7351TIP3    H221997   3.018   4.074   5.140
 7352TIP3   OH221998   2.198   4.320   4.779
 7352TIP3    H121999   2.164   4.369   4.704
 7352TIP3    H222000   2.293   4.322   4.767
 7353TIP3   OH222001   2.717   4.624   4.775
 7353TIP3    H122002   2.703   4.706   4.822
 7353TIP3    H222003   2.700   4.556   4.840
 7354TIP3   OH222004   2.338   4.531   5.334
 7354TIP3    H122005   2.275   4.586   5.380
 7354TIP3    H222006   2.285   4.474   5.278
 7355TIP3   OH222007   2.662   3.883   4.085
 7355TIP3    H122008   2.717   3.939   4.140
 7355TIP3    H222009   2.696   3.897   3.996
 7356TIP3   OH222010   2.074   4.115   5.443
 7356TIP3    H122011   2.084   4.201   5.483
 7356TIP3    H222012   1.991   4.082   5.476
 7357TIP3   OH222013   2.437   4.551   4.335
 7357TIP3    H122014   2.527   4.580   4.325
 7357TIP3    H222015   2.385   4.610   4.281
 7358TIP3   OH222016   2.132   4.691   5.426
 7358TIP3    H122017   2.107   4.707   5.335
 7358TIP3    H222018   2.049   4.679   5.472
 7359TIP3   OH222019   3.187   3.110   4.117
 7359TIP3    H122020   3.111   3.131   4.171
 7359TIP3    H222021   3.202   3.188   4.063
 7360TIP3   OH222022   1.918   3.906   4.588
 7360TIP3    H122023   1.865   3.933   4.514
 7360TIP3    H222024   1.942   3.815   4.569
 7361TIP3   OH222025   3.069   4.495   3.711
 7361TIP3    H122026   3.042   4.510   3.801
 7361TIP3    H222027   3.066   4.581   3.669
 7362TIP3   OH222028   1.731   4.245   5.376
 7362TIP3    H122029   1.659   4.221   5.318
 7362TIP3    H222030   1.764   4.161   5.410
 7363TIP3   OH222031   3.436   4.904   5.075
 7363TIP3    H122032   3.440   4.809   5.079
 7363TIP3    H222033   3.351   4.926   5.112
 7364TIP3   OH222034   2.534   4.678   5.205
 7364TIP3    H122035   2.524   4.770   5.232
 7364TIP3    H222036   2.463   4.632   5.250
 7365TIP3   OH222037   2.326   4.779   4.157
 7365TIP3    H122038   2.279   4.758   4.076
 7365TIP3    H222039   2.288   4.862   4.186
 7366TIP3   OH222040   1.745   4.637   4.532
 7366TIP3    H122041   1.786   4.627   4.617
 7366TIP3    H222042   1.696   4.555   4.520
 7367TIP3   OH222043   2.510   4.722   3.776
 7367TIP3    H122044   2.557   4.645   3.744
 7367TIP3    H222045   2.545   4.737   3.864
 7368TIP3   OH222046   2.576   4.746   4.045
 7368TIP3    H122047   2.491   4.752   4.090
 7368TIP3    H222048   2.637   4.721   4.113
 7369TIP3   OH222049   3.323   3.997   5.352
 7369TIP3    H122050   3.244   3.992   5.297
 7369TIP3    H222051   3.346   3.905   5.368
 7370TIP3   OH222052   1.924   4.442   5.350
 7370TIP3    H122053   1.974   4.430   5.431
 7370TIP3    H222054   1.854   4.377   5.356
 7371TIP3   OH222055   2.312   3.241   5.161
 7371TIP3    H122056   2.229   3.207   5.127
 7371TIP3    H222057   2.288   3.322   5.206
 7372TIP3   OH222058   2.850   3.382   5.348
 7372TIP3    H122059   2.921   3.355   5.406
 7372TIP3    H222060   2.770   3.357   5.395
 7373TIP3   OH222061   3.076   3.786   5.287
 7373TIP3    H122062   3.041   3.783   5.376
 7373TIP3    H222063   3.063   3.877   5.259
 7374TIP3   OH222064   2.749   3.891   3.826
 7374TIP3    H122065   2.702   3.876   3.744
 7374TIP3    H222066   2.837   3.915   3.798
 7375TIP3   OH222067   2.462   3.281   4.128
 7375TIP3    H122068   2.428   3.280   4.217
 7375TIP3    H222069   2.429   3.201   4.088
 7376TIP3   OH222070   2.249   3.816   5.131
 7376TIP3    H122071   2.194   3.808   5.209
 7376TIP3    H222072   2.298   3.897   5.145
 7377TIP3   OH222073   2.081   3.649   4.651
 7377TIP3    H122074   2.004   3.605   4.684
 7377TIP3    H222075   2.103   3.602   4.570
 7378TIP3   OH222076   2.565   3.722   4.368
 7378TIP3    H122077   2.546   3.811   4.340
 7378TIP3    H222078   2.644   3.698   4.318
 7379TIP3   OH222079   2.797   3.998   5.469
 7379TIP3    H122080   2.770   3.929   5.528
 7379TIP3    H222081   2.888   4.016   5.492
 7380TIP3   OH222082   2.087   3.771   5.357
 7380TIP3    H122083   2.147   3.816   5.416
 7380TIP3    H222084   2.057   3.694   5.407
 7381TIP3   OH222085   2.131   3.265   4.103
 7381TIP3    H122086   2.119   3.259   4.198
 7381TIP3    H222087   2.052   3.308   4.071
 7382TIP3   OH222088   1.682   3.312   4.965
 7382TIP3    H122089   1.757   3.345   5.014
 7382TIP3    H222090   1.719   3.285   4.881
 7383TIP3   OH222091   1.581   3.290   4.469
 7383TIP3    H122092   1.626   3.324   4.391
 7383TIP3    H222093   1.517   3.357   4.491
 7384TIP3   OH222094   1.870   3.509   4.749
 7384TIP3    H122095   1.781   3.517   4.715
 7384TIP3    H222096   1.895   3.419   4.731
 7385TIP3   OH222097   2.141   3.514   4.423
 7385TIP3    H122098   2.237   3.522   4.415
 7385TIP3    H222099   2.108   3.540   4.336
 7386TIP3   OH222100   3.003   3.512   4.960
 7386TIP3    H122101   2.953   3.554   5.030
 7386TIP3    H222102   2.948   3.440   4.931
 7387TIP3   OH222103   2.028   3.576   4.179
 7387TIP3    H122104   1.969   3.517   4.131
 7387TIP3    H222105   2.087   3.610   4.113
 7388TIP3   OH222106   3.137   5.234   5.168
 7388TIP3    H122107   3.130   5.251   5.074
 7388TIP3    H222108   3.218   5.279   5.194
 7389TIP3   OH222109   2.083   4.362   5.576
 7389TIP3    H122110   2.164   4.374   5.624
 7389TIP3    H222111   2.015   4.361   5.643
 7390TIP3   OH222112   2.024   3.270   4.723
 7390TIP3    H122113   2.001   3.195   4.777
 7390TIP3    H222114   2.054   3.232   4.641
 7391TIP3   OH222115   2.501   3.691   5.170
 7391TIP3    H122116   2.425   3.738   5.137
 7391TIP3    H222117   2.570   3.757   5.175
 7392TIP3   OH222118   2.198   4.094   4.249
 7392TIP3    H122119   2.144   4.021   4.218
 7392TIP3    H222120   2.285   4.056   4.261
 7393TIP3   OH222121   3.148   4.389   4.784
 7393TIP3    H122122   3.162   4.329   4.711
 7393TIP3    H222123   3.096   4.460   4.747
 7394TIP3   OH222124   2.714   3.385   4.114
 7394TIP3    H122125   2.621   3.365   4.118
 7394TIP3    H222126   2.719   3.479   4.133
 7395TIP3   OH222127   2.653   4.410   5.239
 7395TIP3    H122128   2.703   4.405   5.320
 7395TIP3    H222129   2.612   4.497   5.242
 7396TIP3   OH222130   2.774   3.644   4.191
 7396TIP3    H122131   2.869   3.638   4.204
 7396TIP3    H222132   2.762   3.726   4.144
 7397TIP3   OH222133   2.364   4.222   4.032
 7397TIP3    H122134   2.342   4.315   4.042
 7397TIP3    H222135   2.336   4.182   4.114
 7398TIP3   OH222136   1.823   4.018   5.512
 7398TIP3    H122137   1.825   3.981   5.600
 7398TIP3    H222138   1.751   3.971   5.468
 7399TIP3   OH222139   2.576   4.162   5.517
 7399TIP3    H122140   2.505   4.106   5.487
 7399TIP3    H222141   2.656   4.117   5.491
 7400TIP3   OH222142   2.817   4.667   5.159
 7400TIP3    H122143   2.721   4.673   5.162
 7400TIP3    H222144   2.846   4.758   5.156
 7401TIP3   OH222145   3.183   3.709   3.991
 7401TIP3    H122146   3.123   3.677   3.924
 7401TIP3    H222147   3.206   3.797   3.963
 7402TIP3   OH222148   3.451   4.618   5.086
 7402TIP3    H122149   3.357   4.600   5.079
 7402TIP3    H222150   3.487   4.587   5.003
 7403TIP3   OH222151   2.936   4.540   3.955
 7403TIP3    H122152   2.944   4.524   4.049
 7403TIP3    H222153   2.843   4.523   3.936
 7404TIP3   OH222154   2.083   4.468   4.574
 7404TIP3    H122155   2.073   4.538   4.510
 7404TIP3    H222156   2.023   4.400   4.546
 7405TIP3   OH222157   1.651   3.721   4.269
 7405TIP3    H122158   1.694   3.801   4.300
 7405TIP3    H222159   1.565   3.721   4.310
 7406TIP3   OH222160   2.177   4.172   4.514
 7406TIP3    H122161   2.248   4.234   4.501
 7406TIP3    H222162   2.158   4.138   4.427
 7407TIP3   OH222163   2.348   4.732   4.977
 7407TIP3    H122164   2.379   4.812   4.933
 7407TIP3    H222165   2.424   4.702   5.027
 7408TIP3   OH222166   1.984   4.657   4.393
 7408TIP3    H122167   1.895   4.663   4.427
 7408TIP3    H222168   2.017   4.747   4.394
 7409TIP3   OH222169   2.690   4.420   4.963
 7409TIP3    H122170   2.681   4.422   5.058
 7409TIP3    H222171   2.700   4.328   4.941
 7410TIP3   OH222172   2.711   4.285   3.841
 7410TIP3    H122173   2.721   4.283   3.936
 7410TIP3    H222174   2.629   4.238   3.824
 7411TIP3   OH222175   2.924   4.921   5.011
 7411TIP3    H122176   2.842   4.879   4.983
 7411TIP3    H222177   2.941   4.988   4.945
 7412TIP3   OH222178   3.032   4.762   3.650
 7412TIP3    H122179   3.080   4.833   3.607
 7412TIP3    H222180   2.951   4.802   3.681
 7413TIP3   OH222181   2.015   3.543   5.508
 7413TIP3    H122182   1.921   3.554   5.522
 7413TIP3    H222183   2.045   3.494   5.584
 7414TIP3   OH222184   1.776   4.665   5.169
 7414TIP3    H122185   1.819   4.606   5.231
 7414TIP3    H222186   1.792   4.752   5.205
 7415TIP3   OH222187   2.046   4.256   3.849
 7415TIP3    H122188   2.056   4.166   3.820
 7415TIP3    H222189   2.032   4.251   3.943
 7416TIP3   OH222190   1.998   4.267   4.123
 7416TIP3    H122191   2.074   4.233   4.170
 7416TIP3    H222192   2.004   4.362   4.132
 7417TIP3   OH222193   1.747   3.972   4.366
 7417TIP3    H122194   1.671   4.019   4.402
 7417TIP3    H222195   1.768   4.020   4.286
 7418TIP3   OH222196   2.876   3.617   5.194
 7418TIP3    H122197   2.958   3.654   5.228
 7418TIP3    H222198   2.863   3.538   5.247
 7419TIP3   OH222199   2.769   3.330   4.382
 7419TIP3    H122200   2.755   3.349   4.289
 7419TIP3    H222201   2.820   3.404   4.415
 7420TIP3   OH222202   2.273   4.475   4.067
 7420TIP3    H122203   2.187   4.494   4.105
 7420TIP3    H222204   2.289   4.547   4.006
 7421TIP3   OH222205   2.421   3.516   4.463
 7421TIP3    H122206   2.466   3.588   4.420
 7421TIP3    H222207   2.477   3.493   4.537
 7422TIP3   OH222208   2.721   3.861   5.218
 7422TIP3    H122209   2.750   3.898   5.301
 7422TIP3    H222210   2.771   3.780   5.209
 7423TIP3   OH222211   2.596   3.222   4.564
 7423TIP3    H122212   2.631   3.255   4.647
 7423TIP3    H222213   2.656   3.256   4.498
 7424TIP3   OH222214   2.017   4.543   4.143
 7424TIP3    H122215   1.993   4.611   4.079
 7424TIP3    H222216   2.004   4.584   4.228
 7425TIP3   OH222217   2.099   3.242   4.381
 7425TIP3    H122218   2.094   3.334   4.407
 7425TIP3    H222219   2.192   3.220   4.388
 7426TIP3   OH222220   3.337   3.714   5.246
 7426TIP3    H122221   3.244   3.729   5.265
 7426TIP3    H222222   3.337   3.653   5.172
 7427TIP3   OH222223   1.752   4.134   4.132
 7427TIP3    H122224   1.821   4.201   4.134
 7427TIP3    H222225   1.781   4.072   4.065
 7428TIP3   OH222226   1.653   3.440   4.251
 7428TIP3    H122227   1.672   3.533   4.266
 7428TIP3    H222228   1.609   3.439   4.166
 7429TIP3   OH222229   2.984   4.873   4.588
 7429TIP3    H122230   2.933   4.912   4.517
 7429TIP3    H222231   3.073   4.904   4.574
 7430TIP3   OH222232   2.050   3.154   5.118
 7430TIP3    H122233   2.022   3.121   5.032
 7430TIP3    H222234   2.043   3.079   5.176
 7431TIP3   OH222235   1.563   4.412   4.490
 7431TIP3    H122236   1.506   4.453   4.556
 7431TIP3    H222237   1.534   4.450   4.407
 7432TIP3   OH222238   1.780   4.952   5.580
 7432TIP3    H122239   1.862   4.956   5.630
 7432TIP3    H222240   1.767   4.858   5.564
 7433TIP3   OH222241   2.240   4.854   5.622
 7433TIP3    H122242   2.331   4.825   5.632
 7433TIP3    H222243   2.206   4.800   5.550
 7434TIP3   OH222244   2.197   4.464   3.747
 7434TIP3    H122245   2.148   4.393   3.789
 7434TIP3    H222246   2.268   4.419   3.701
 7435TIP3   OH222247   2.635   4.499   3.676
 7435TIP3    H122248   2.675   4.432   3.731
 7435TIP3    H222249   2.686   4.499   3.595
 7436TIP3   OH222250   1.879   4.348   5.764
 7436TIP3    H122251   1.903   4.256   5.773
 7436TIP3    H222252   1.790   4.345   5.728
 7437TIP3   OH222253   1.875   3.951   3.972
 7437TIP3    H122254   1.931   3.923   4.044
 7437TIP3    H222255   1.935   3.964   3.899
 7438TIP3   OH222256   2.500   4.435   5.539
 7438TIP3    H122257   2.452   4.454   5.458
 7438TIP3    H222258   2.536   4.347   5.526
 7439TIP3   OH222259   2.469   4.164   3.789
 7439TIP3    H122260   2.426   4.179   3.873
 7439TIP3    H222261   2.447   4.073   3.767
 7440TIP3   OH222262   2.985   4.445   5.161
 7440TIP3    H122263   3.055   4.481   5.105
 7440TIP3    H222264   2.916   4.511   5.158
 7441TIP3   OH222265   2.009   4.100   5.769
 7441TIP3    H122266   2.073   4.036   5.740
 7441TIP3    H222267   2.032   4.118   5.861
 7442TIP3   OH222268   2.053   3.870   4.174
 7442TIP3    H122269   2.011   3.799   4.223
 7442TIP3    H222270   2.113   3.827   4.115
 7443TIP3   OH222271   2.293   3.946   5.433
 7443TIP3    H122272   2.224   4.012   5.443
 7443TIP3    H222273   2.343   3.974   5.356
 7444TIP3   OH222274   2.193   3.711   4.005
 7444TIP3    H122275   2.164   3.713   3.913
 7444TIP3    H222276   2.288   3.714   4.000
 7445TIP3   OH222277   2.882   4.365   5.523
 7445TIP3    H122278   2.936   4.317   5.460
 7445TIP3    H222279   2.868   4.304   5.595
 7446TIP3   OH222280   2.977   3.996   3.704
 7446TIP3    H122281   2.972   3.947   3.622
 7446TIP3    H222282   2.944   4.083   3.683
 7447TIP3   OH222283   2.457   3.751   5.544
 7447TIP3    H122284   2.456   3.669   5.495
 7447TIP3    H222285   2.401   3.810   5.493
 7448TIP3   OH222286   2.451   3.526   5.379
 7448TIP3    H122287   2.480   3.573   5.300
 7448TIP3    H222288   2.362   3.497   5.358
 7449TIP3   OH222289   2.433   4.018   5.212
 7449TIP3    H122290   2.526   4.019   5.192
 7449TIP3    H222291   2.399   4.099   5.174
 7450TIP3   OH222292   3.069   4.025   5.574
 7450TIP3    H122293   3.055   3.930   5.576
 7450TIP3    H222294   3.162   4.035   5.554
 7451TIP3   OH222295   3.115   4.298   5.344
 7451TIP3    H122296   3.061   4.351   5.285
 7451TIP3    H222297   3.204   4.309   5.310
 7452TIP3   OH222298   2.347   3.838   5.785
 7452TIP3    H122299   2.279   3.774   5.807
 7452TIP3    H222300   2.376   3.814   5.698
 7453TIP3   OH222301   2.596   3.302   5.440
 7453TIP3    H122302   2.548   3.382   5.419
 7453TIP3    H222303   2.533   3.232   5.426
 7454TIP3   OH222304   2.715   3.795   5.636
 7454TIP3    H122305   2.706   3.779   5.730
 7454TIP3    H222306   2.629   3.773   5.600
 7455TIP3   OH222307   2.979   3.768   5.540
 7455TIP3    H122308   2.896   3.750   5.583
 7455TIP3    H222309   3.044   3.720   5.591
 7456TIP3   OH222310   3.204   3.688   5.676
 7456TIP3    H122311   3.219   3.593   5.681
 7456TIP3    H222312   3.201   3.716   5.767
 7457TIP3   OH222313   2.195   3.608   5.834
 7457TIP3    H122314   2.193   3.520   5.796
 7457TIP3    H222315   2.237   3.596   5.919
 7458TIP3   OH222316   2.663   3.288   5.705
 7458TIP3    H122317   2.732   3.222   5.700
 7458TIP3    H222318   2.633   3.297   5.614
 7459TIP3   OH222319   2.753   3.507   5.847
 7459TIP3    H122320   2.724   3.433   5.794
 7459TIP3    H222321   2.680   3.569   5.846
 7460TIP3   OH222322   2.002   4.754   3.959
 7460TIP3    H122323   2.093   4.739   3.932
 7460TIP3    H222324   1.962   4.798   3.884
 7461TIP3   OH222325   1.478   4.124   4.144
 7461TIP3    H122326   1.572   4.137   4.138
 7461TIP3    H222327   1.462   4.039   4.103
 7462TIP3   OH222328   1.367   4.721   4.590
 7462TIP3    H122329   1.308   4.661   4.544
 7462TIP3    H222330   1.419   4.665   4.647
 7463TIP3   OH222331   1.522   4.560   4.750
 7463TIP3    H122332   1.550   4.476   4.785
 7463TIP3    H222333   1.560   4.625   4.810
 7464TIP3   OH222334   3.231   4.988   4.566
 7464TIP3    H122335   3.259   5.024   4.651
 7464TIP3    H222336   3.228   5.064   4.508
 7465TIP3   OH222337   3.264   5.012   4.848
 7465TIP3    H122338   3.223   4.926   4.849
 7465TIP3    H222339   3.343   5.001   4.901
 7466TIP3   OH222340   3.124   4.768   4.879
 7466TIP3    H122341   3.051   4.811   4.923
 7466TIP3    H222342   3.085   4.724   4.803
 7467TIP3   OH222343   3.175   3.974   3.896
 7467TIP3    H122344   3.108   3.969   3.827
 7467TIP3    H222345   3.130   4.013   3.971
 7468TIP3   OH222346   3.010   3.638   3.789
 7468TIP3    H122347   2.969   3.649   3.703
 7468TIP3    H222348   3.018   3.543   3.799
 7469TIP3   OH222349   1.711   3.999   5.124
 7469TIP3    H122350   1.709   3.959   5.037
 7469TIP3    H222351   1.803   3.997   5.150
 7470TIP3   OH222352   3.366   4.347   5.238
 7470TIP3    H122353   3.428   4.275   5.229
 7470TIP3    H222354   3.372   4.394   5.154
 7471TIP3   OH222355   3.530   4.129   5.234
 7471TIP3    H122356   3.457   4.080   5.273
 7471TIP3    H222357   3.606   4.073   5.248
 7472TIP3   OH222358   3.002   3.365   3.784
 7472TIP3    H122359   3.073   3.339   3.844
 7472TIP3    H222360   2.926   3.317   3.816
 7473TIP3   OH222361   3.055   3.617   4.224
 7473TIP3    H122362   3.104   3.539   4.249
 7473TIP3    H222363   3.103   3.653   4.150
 7474TIP3   OH222364   3.228   3.791   4.787
 7474TIP3    H122365   3.298   3.798   4.722
 7474TIP3    H222366   3.258   3.843   4.861
 7475TIP3   OH222367   3.314   3.967   4.994
 7475TIP3    H122368   3.244   3.987   5.055
 7475TIP3    H222369   3.332   4.050   4.950
 7476TIP3   OH222370   1.940   3.705   5.835
 7476TIP3    H122371   2.033   3.681   5.834
 7476TIP3    H222372   1.894   3.621   5.839
 7477TIP3   OH222373   3.748   3.570   5.538
 7477TIP3    H122374   3.814   3.510   5.504
 7477TIP3    H222375   3.712   3.611   5.460
 7478TIP3   OH222376   3.189   3.387   4.309
 7478TIP3    H122377   3.222   3.377   4.399
 7478TIP3    H222378   3.126   3.316   4.299
 7479TIP3   OH222379   1.894   3.383   5.133
 7479TIP3    H122380   1.946   3.302   5.139
 7479TIP3    H222381   1.959   3.453   5.126
 7480TIP3   OH222382   1.683   3.640   5.200
 7480TIP3    H122383   1.728   3.635   5.116
 7480TIP3    H222384   1.741   3.694   5.255
 7481TIP3   OH222385   3.597   3.665   5.328
 7481TIP3    H122386   3.507   3.697   5.324
 7481TIP3    H222387   3.594   3.581   5.281
 7482TIP3   OH222388   3.231   3.319   3.941
 7482TIP3    H122389   3.271   3.254   3.883
 7482TIP3    H222390   3.302   3.381   3.960
 7483TIP3   OH222391   1.660   3.167   4.700
 7483TIP3    H122392   1.574   3.149   4.740
 7483TIP3    H222393   1.640   3.216   4.621
 7484TIP3   OH222394   2.802   4.871   4.202
 7484TIP3    H122395   2.868   4.868   4.132
 7484TIP3    H222396   2.837   4.934   4.265
 7485TIP3   OH222397   1.880   3.202   5.523
 7485TIP3    H122398   1.834   3.204   5.607
 7485TIP3    H222399   1.822   3.247   5.462
 7486TIP3   OH222400   1.904   4.672   5.590
 7486TIP3    H122401   1.812   4.647   5.580
 7486TIP3    H222402   1.924   4.654   5.681
 7487TIP3   OH222403   2.127   4.713   5.141
 7487TIP3    H122404   2.076   4.789   5.112
 7487TIP3    H222405   2.208   4.717   5.090
 7488TIP3   OH222406   2.531   4.944   5.289
 7488TIP3    H122407   2.575   4.930   5.372
 7488TIP3    H222408   2.590   5.001   5.239
 7489TIP3   OH222409   2.716   5.102   5.157
 7489TIP3    H122410   2.780   5.063   5.098
 7489TIP3    H222411   2.769   5.157   5.215
 7490TIP3   OH222412   3.519   3.407   5.243
 7490TIP3    H122413   3.431   3.391   5.211
 7490TIP3    H222414   3.563   3.322   5.236
 7491TIP3   OH222415   1.788   4.955   5.198
 7491TIP3    H122416   1.697   4.973   5.174
 7491TIP3    H222417   1.810   5.024   5.261
 7492TIP3   OH222418   2.016   4.946   5.042
 7492TIP3    H122419   1.934   4.950   5.090
 7492TIP3    H222420   1.994   4.969   4.952
 7493TIP3   OH222421   2.424   4.960   4.837
 7493TIP3    H122422   2.357   4.976   4.772
 7493TIP3    H222423   2.440   5.046   4.877
 7494TIP3   OH222424   2.688   4.881   4.875
 7494TIP3    H122425   2.596   4.904   4.858
 7494TIP3    H222426   2.738   4.945   4.824
 7495TIP3   OH222427   2.884   5.057   4.777
 7495TIP3    H122428   2.891   5.148   4.748
 7495TIP3    H222429   2.919   5.006   4.704
 7496TIP3   OH222430   1.674   4.725   4.920
 7496TIP3    H122431   1.702   4.706   5.010
 7496TIP3    H222432   1.748   4.697   4.866
 7497TIP3   OH222433   1.884   4.626   4.776
 7497TIP3    H122434   1.905   4.543   4.819
 7497TIP3    H222435   1.968   4.670   4.765
 7498TIP3   OH222436   2.156   4.716   4.762
 7498TIP3    H122437   2.181   4.642   4.705
 7498TIP3    H222438   2.216   4.709   4.836
 7499TIP3   OH222439   2.687   3.289   4.813
 7499TIP3    H122440   2.665   3.248   4.896
 7499TIP3    H222441   2.781   3.274   4.803
 7500TIP3   OH222442   3.238   3.283   4.787
 7500TIP3    H122443   3.273   3.325   4.709
 7500TIP3    H222444   3.144   3.301   4.784
 7501TIP3   OH222445   3.341   3.345   4.541
 7501TIP3    H122446   3.408   3.289   4.501
 7501TIP3    H222447   3.376   3.434   4.531
 7502TIP3   OH222448   1.964   3.048   4.877
 7502TIP3    H122449   1.876   3.013   4.889
 7502TIP3    H222450   2.019   2.970   4.869
 7503TIP3   OH222451   1.789   2.967   4.537
 7503TIP3    H122452   1.812   3.011   4.456
 7503TIP3    H222453   1.753   3.036   4.593
 7504TIP3   OH222454   2.435   3.100   4.770
 7504TIP3    H122455   2.480   3.144   4.699
 7504TIP3    H222456   2.479   3.129   4.849
 7505TIP3   OH222457   2.954   3.229   4.771
 7505TIP3    H122458   2.986   3.199   4.686
 7505TIP3    H222459   2.959   3.151   4.827
 7506TIP3   OH222460   2.997   3.185   4.304
 7506TIP3    H122461   2.917   3.230   4.329
 7506TIP3    H222462   2.990   3.098   4.345
 7507TIP3   OH222463   1.463   4.530   4.264
 7507TIP3    H122464   1.382   4.500   4.223
 7507TIP3    H222465   1.467   4.623   4.245
 7508TIP3   OH222466   1.887   3.083   4.291
 7508TIP3    H122467   1.931   3.021   4.233
 7508TIP3    H222468   1.958   3.137   4.327
 7509TIP3   OH222469   2.374   3.259   4.391
 7509TIP3    H122470   2.438   3.211   4.443
 7509TIP3    H222471   2.388   3.351   4.413
 7510TIP3   OH222472   2.260   4.689   3.888
 7510TIP3    H122473   2.339   4.721   3.844
 7510TIP3    H222474   2.228   4.618   3.832
 7511TIP3   OH222475   2.970   4.823   3.982
 7511TIP3    H122476   2.967   4.727   3.973
 7511TIP3    H222477   2.927   4.856   3.903
 7512TIP3   OH222478   2.195   3.338   5.749
 7512TIP3    H122479   2.156   3.276   5.810
 7512TIP3    H222480   2.287   3.343   5.775
 7513TIP3   OH222481   2.444   3.341   5.869
 7513TIP3    H122482   2.523   3.317   5.820
 7513TIP3    H222483   2.433   3.270   5.932
 7514TIP3   OH222484   1.560   4.511   3.934
 7514TIP3    H122485   1.563   4.524   4.029
 7514TIP3    H222486   1.642   4.467   3.913
 7515TIP3   OH222487   3.263   3.418   5.665
 7515TIP3    H122488   3.281   3.390   5.755
 7515TIP3    H222489   3.348   3.416   5.622
 7516TIP3   OH222490   3.175   4.959   5.154
 7516TIP3    H122491   3.092   4.934   5.114
 7516TIP3    H222492   3.166   5.053   5.171
 7517TIP3   OH222493   4.400   5.071   4.034
 7517TIP3    H122494   4.417   5.008   3.964
 7517TIP3    H222495   4.425   5.025   4.114
 7518TIP3   OH222496   5.328   3.892   4.372
 7518TIP3    H122497   5.332   3.980   4.410
 7518TIP3    H222498   5.362   3.903   4.283
 7519TIP3   OH222499   4.005   3.742   4.330
 7519TIP3    H122500   3.971   3.810   4.272
 7519TIP3    H222501   3.967   3.660   4.297
 7520TIP3   OH222502   4.732   3.778   3.975
 7520TIP3    H122503   4.797   3.725   4.022
 7520TIP3    H222504   4.784   3.841   3.925
 7521TIP3   OH222505   5.354   4.132   4.508
 7521TIP3    H122506   5.271   4.169   4.478
 7521TIP3    H222507   5.370   4.173   4.593
 7522TIP3   OH222508   4.005   3.708   4.786
 7522TIP3    H122509   3.963   3.747   4.709
 7522TIP3    H222510   3.945   3.728   4.859
 7523TIP3   OH222511   4.361   4.588   3.739
 7523TIP3    H122512   4.311   4.543   3.671
 7523TIP3    H222513   4.300   4.653   3.775
 7524TIP3   OH222514   4.956   3.849   4.291
 7524TIP3    H122515   4.943   3.763   4.251
 7524TIP3    H222516   4.988   3.905   4.220
 7525TIP3   OH222517   3.887   3.819   4.566
 7525TIP3    H122518   3.928   3.905   4.576
 7525TIP3    H222519   3.923   3.784   4.485
 7526TIP3   OH222520   3.925   4.692   4.673
 7526TIP3    H122521   3.919   4.778   4.631
 7526TIP3    H222522   3.847   4.688   4.729
 7527TIP3   OH222523   4.772   4.921   4.172
 7527TIP3    H122524   4.681   4.900   4.192
 7527TIP3    H222525   4.768   5.002   4.121
 7528TIP3   OH222526   5.104   3.803   4.518
 7528TIP3    H122527   5.038   3.809   4.450
 7528TIP3    H222528   5.186   3.823   4.473
 7529TIP3   OH222529   4.332   3.396   4.517
 7529TIP3    H122530   4.327   3.304   4.544
 7529TIP3    H222531   4.256   3.437   4.558
 7530TIP3   OH222532   4.465   4.932   3.800
 7530TIP3    H122533   4.519   4.854   3.786
 7530TIP3    H222534   4.521   5.005   3.772
 7531TIP3   OH222535   4.606   4.703   3.746
 7531TIP3    H122536   4.524   4.655   3.732
 7531TIP3    H222537   4.652   4.653   3.813
 7532TIP3   OH222538   5.025   4.790   4.511
 7532TIP3    H122539   4.985   4.726   4.453
 7532TIP3    H222540   5.000   4.875   4.474
 7533TIP3   OH222541   4.314   4.233   3.765
 7533TIP3    H122542   4.226   4.272   3.763
 7533TIP3    H222543   4.330   4.208   3.674
 7534TIP3   OH222544   4.254   4.009   3.449
 7534TIP3    H122545   4.323   4.049   3.502
 7534TIP3    H222546   4.298   3.939   3.402
 7535TIP3   OH222547   4.590   4.306   3.761
 7535TIP3    H122548   4.497   4.315   3.782
 7535TIP3    H222549   4.629   4.271   3.841
 7536TIP3   OH222550   4.508   4.899   4.250
 7536TIP3    H122551   4.503   4.975   4.308
 7536TIP3    H222552   4.485   4.824   4.306
 7537TIP3   OH222553   4.139   4.784   4.823
 7537TIP3    H122554   4.079   4.844   4.867
 7537TIP3    H222555   4.083   4.730   4.766
 7538TIP3   OH222556   4.485   4.131   3.557
 7538TIP3    H122557   4.536   4.197   3.605
 7538TIP3    H222558   4.513   4.140   3.466
 7539TIP3   OH222559   3.900   4.357   4.969
 7539TIP3    H122560   3.892   4.451   4.989
 7539TIP3    H222561   3.809   4.327   4.961
 7540TIP3   OH222562   4.214   4.816   3.809
 7540TIP3    H122563   4.297   4.862   3.818
 7540TIP3    H222564   4.157   4.878   3.764
 7541TIP3   OH222565   3.934   4.948   4.909
 7541TIP3    H122566   3.909   4.960   4.817
 7541TIP3    H222567   3.851   4.932   4.954
 7542TIP3   OH222568   4.981   3.364   3.614
 7542TIP3    H122569   4.901   3.380   3.665
 7542TIP3    H222570   4.991   3.443   3.560
 7543TIP3   OH222571   3.772   4.158   3.927
 7543TIP3    H122572   3.678   4.153   3.908
 7543TIP3    H222573   3.787   4.091   3.994
 7544TIP3   OH222574   4.810   4.757   3.168
 7544TIP3    H122575   4.809   4.850   3.144
 7544TIP3    H222576   4.899   4.728   3.146
 7545TIP3   OH222577   3.535   4.497   4.855
 7545TIP3    H122578   3.485   4.468   4.778
 7545TIP3    H222579   3.567   4.416   4.895
 7546TIP3   OH222580   3.357   4.744   4.528
 7546TIP3    H122581   3.441   4.768   4.567
 7546TIP3    H222582   3.302   4.822   4.540
 7547TIP3   OH222583   5.235   5.177   4.563
 7547TIP3    H122584   5.243   5.082   4.568
 7547TIP3    H222585   5.153   5.197   4.609
 7548TIP3   OH222586   4.329   4.930   4.686
 7548TIP3    H122587   4.319   5.020   4.716
 7548TIP3    H222588   4.262   4.881   4.735
 7549TIP3   OH222589   4.109   5.034   3.642
 7549TIP3    H122590   4.058   5.015   3.563
 7549TIP3    H222591   4.073   5.116   3.675
 7550TIP3   OH222592   3.565   4.918   4.043
 7550TIP3    H122593   3.610   4.910   4.128
 7550TIP3    H222594   3.516   4.836   4.035
 7551TIP3   OH222595   4.311   4.969   3.264
 7551TIP3    H122596   4.362   4.893   3.234
 7551TIP3    H222597   4.343   4.985   3.353
 7552TIP3   OH222598   4.361   5.019   3.532
 7552TIP3    H122599   4.275   5.019   3.575
 7552TIP3    H222600   4.421   4.985   3.599
 7553TIP3   OH222601   5.102   4.255   4.838
 7553TIP3    H122602   5.011   4.281   4.828
 7553TIP3    H222603   5.104   4.163   4.813
 7554TIP3   OH222604   3.709   4.711   4.840
 7554TIP3    H122605   3.758   4.702   4.922
 7554TIP3    H222606   3.646   4.639   4.842
 7555TIP3   OH222607   4.099   3.489   4.641
 7555TIP3    H122608   4.014   3.459   4.608
 7555TIP3    H222609   4.079   3.571   4.686
 7556TIP3   OH222610   4.649   3.585   4.833
 7556TIP3    H122611   4.716   3.585   4.901
 7556TIP3    H222612   4.566   3.588   4.881
 7557TIP3   OH222613   4.555   4.142   3.295
 7557TIP3    H122614   4.512   4.133   3.210
 7557TIP3    H222615   4.638   4.186   3.275
 7558TIP3   OH222616   4.272   3.535   3.626
 7558TIP3    H122617   4.241   3.540   3.716
 7558TIP3    H222618   4.230   3.456   3.591
 7559TIP3   OH222619   4.034   4.049   4.609
 7559TIP3    H122620   3.988   4.071   4.689
 7559TIP3    H222621   4.038   4.131   4.560
 7560TIP3   OH222622   3.875   3.911   4.148
 7560TIP3    H122623   3.795   3.868   4.179
 7560TIP3    H222624   3.898   3.864   4.067
 7561TIP3   OH222625   4.382   3.987   3.882
 7561TIP3    H122626   4.365   4.075   3.850
 7561TIP3    H222627   4.453   3.954   3.827
 7562TIP3   OH222628   4.578   4.283   4.997
 7562TIP3    H122629   4.563   4.195   5.030
 7562TIP3    H222630   4.673   4.291   4.991
 7563TIP3   OH222631   3.897   4.047   4.854
 7563TIP3    H122632   3.952   4.095   4.916
 7563TIP3    H222633   3.880   3.964   4.897
 7564TIP3   OH222634   3.929   3.523   3.587
 7564TIP3    H122635   3.923   3.519   3.682
 7564TIP3    H222636   3.849   3.568   3.560
 7565TIP3   OH222637   3.462   3.581   4.480
 7565TIP3    H122638   3.545   3.609   4.520
 7565TIP3    H222639   3.487   3.551   4.393
 7566TIP3   OH222640   3.406   3.538   3.987
 7566TIP3    H122641   3.447   3.572   3.907
 7566TIP3    H222642   3.331   3.595   4.001
 7567TIP3   OH222643   4.268   3.792   4.244
 7567TIP3    H122644   4.186   3.774   4.291
 7567TIP3    H222645   4.328   3.723   4.273
 7568TIP3   OH222646   3.682   3.724   4.210
 7568TIP3    H122647   3.602   3.682   4.178
 7568TIP3    H222648   3.746   3.653   4.214
 7569TIP3   OH222649   3.933   3.774   3.920
 7569TIP3    H122650   4.027   3.791   3.918
 7569TIP3    H222651   3.902   3.797   3.833
 7570TIP3   OH222652   3.827   3.820   3.671
 7570TIP3    H122653   3.768   3.767   3.618
 7570TIP3    H222654   3.883   3.865   3.607
 7571TIP3   OH222655   4.940   5.502   4.657
 7571TIP3    H122656   4.936   5.516   4.562
 7571TIP3    H222657   5.019   5.548   4.685
 7572TIP3   OH222658   3.864   4.616   5.074
 7572TIP3    H122659   3.951   4.631   5.111
 7572TIP3    H222660   3.803   4.635   5.145
 7573TIP3   OH222661   3.871   3.519   4.225
 7573TIP3    H122662   3.832   3.450   4.278
 7573TIP3    H222663   3.918   3.473   4.156
 7574TIP3   OH222664   4.291   3.952   4.655
 7574TIP3    H122665   4.204   3.983   4.629
 7574TIP3    H222666   4.352   4.009   4.607
 7575TIP3   OH222667   4.048   4.341   3.739
 7575TIP3    H122668   3.979   4.283   3.707
 7575TIP3    H222669   4.022   4.361   3.829
 7576TIP3   OH222670   4.470   3.689   3.523
 7576TIP3    H122671   4.399   3.641   3.565
 7576TIP3    H222672   4.499   3.753   3.588
 7577TIP3   OH222673   4.473   4.678   4.694
 7577TIP3    H122674   4.496   4.656   4.785
 7577TIP3    H222675   4.429   4.763   4.700
 7578TIP3   OH222676   4.567   3.892   3.687
 7578TIP3    H122677   4.661   3.893   3.707
 7578TIP3    H222678   4.553   3.973   3.636
 7579TIP3   OH222679   4.185   4.480   3.548
 7579TIP3    H122680   4.141   4.564   3.545
 7579TIP3    H222681   4.135   4.429   3.613
 7580TIP3   OH222682   3.625   4.282   5.001
 7580TIP3    H122683   3.646   4.269   5.093
 7580TIP3    H222684   3.568   4.209   4.978
 7581TIP3   OH222685   4.343   4.417   5.019
 7581TIP3    H122686   4.278   4.355   4.986
 7581TIP3    H222687   4.427   4.378   4.998
 7582TIP3   OH222688   4.593   4.998   4.609
 7582TIP3    H122689   4.504   4.963   4.611
 7582TIP3    H222690   4.616   5.009   4.701
 7583TIP3   OH222691   4.972   3.988   3.493
 7583TIP3    H122692   4.921   3.948   3.422
 7583TIP3    H222693   4.987   4.078   3.463
 7584TIP3   OH222694   5.266   4.902   4.579
 7584TIP3    H122695   5.175   4.873   4.589
 7584TIP3    H222696   5.297   4.858   4.500
 7585TIP3   OH222697   4.718   4.827   3.430
 7585TIP3    H122698   4.689   4.757   3.489
 7585TIP3    H222699   4.743   4.781   3.350
 7586TIP3   OH222700   3.798   4.645   4.029
 7586TIP3    H122701   3.825   4.723   3.980
 7586TIP3    H222702   3.702   4.646   4.026
 7587TIP3   OH222703   3.409   3.972   3.747
 7587TIP3    H122704   3.457   4.050   3.774
 7587TIP3    H222705   3.334   3.969   3.807
 7588TIP3   OH222706   3.930   4.393   3.988
 7588TIP3    H122707   3.883   4.475   3.999
 7588TIP3    H222708   3.862   4.327   3.978
 7589TIP3   OH222709   4.147   5.000   4.473
 7589TIP3    H122710   4.181   5.078   4.431
 7589TIP3    H222711   4.220   4.965   4.523
 7590TIP3   OH222712   3.786   4.901   3.883
 7590TIP3    H122713   3.703   4.916   3.929
 7590TIP3    H222714   3.830   4.986   3.884
 7591TIP3   OH222715   4.447   4.679   4.415
 7591TIP3    H122716   4.460   4.673   4.509
 7591TIP3    H222717   4.419   4.591   4.388
 7592TIP3   OH222718   4.495   4.544   3.326
 7592TIP3    H122719   4.542   4.511   3.402
 7592TIP3    H222720   4.411   4.499   3.328
 7593TIP3   OH222721   4.757   5.184   4.496
 7593TIP3    H122722   4.690   5.120   4.521
 7593TIP3    H222723   4.718   5.231   4.423
 7594TIP3   OH222724   4.818   5.035   3.126
 7594TIP3    H122725   4.870   5.111   3.100
 7594TIP3    H222726   4.738   5.072   3.163
 7595TIP3   OH222727   3.837   3.795   4.989
 7595TIP3    H122728   3.742   3.806   4.991
 7595TIP3    H222729   3.854   3.727   5.055
 7596TIP3   OH222730   4.660   4.445   3.525
 7596TIP3    H122731   4.639   4.408   3.610
 7596TIP3    H222732   4.755   4.452   3.524
 7597TIP3   OH222733   3.566   4.899   4.649
 7597TIP3    H122734   3.623   4.849   4.707
 7597TIP3    H222735   3.580   4.991   4.673
 7598TIP3   OH222736   3.843   4.511   3.333
 7598TIP3    H122737   3.855   4.420   3.307
 7598TIP3    H222738   3.825   4.507   3.427
 7599TIP3   OH222739   3.781   4.531   3.603
 7599TIP3    H122740   3.854   4.502   3.658
 7599TIP3    H222741   3.780   4.626   3.612
 7600TIP3   OH222742   3.505   4.225   3.823
 7600TIP3    H122743   3.481   4.287   3.892
 7600TIP3    H222744   3.516   4.279   3.745
 7601TIP3   OH222745   4.560   3.596   3.872
 7601TIP3    H122746   4.526   3.646   3.798
 7601TIP3    H222747   4.616   3.658   3.919
 7602TIP3   OH222748   4.051   4.714   3.544
 7602TIP3    H122749   3.968   4.740   3.584
 7602TIP3    H222750   4.078   4.790   3.493
 7603TIP3   OH222751   4.207   3.801   3.974
 7603TIP3    H122752   4.267   3.866   3.939
 7603TIP3    H222753   4.225   3.800   4.068
 7604TIP3   OH222754   4.399   3.473   4.061
 7604TIP3    H122755   4.419   3.518   4.143
 7604TIP3    H222756   4.459   3.510   3.997
 7605TIP3   OH222757   3.804   4.803   3.627
 7605TIP3    H122758   3.784   4.876   3.568
 7605TIP3    H222759   3.794   4.840   3.714
 7606TIP3   OH222760   3.911   3.503   3.861
 7606TIP3    H122761   3.896   3.591   3.896
 7606TIP3    H222762   4.004   3.486   3.876
 7607TIP3   OH222763   5.086   3.989   4.738
 7607TIP3    H122764   5.030   3.940   4.799
 7607TIP3    H222765   5.097   3.929   4.664
 7608TIP3   OH222766   3.534   4.392   3.603
 7608TIP3    H122767   3.602   4.459   3.611
 7608TIP3    H222768   3.566   4.332   3.537
 7609TIP3   OH222769   3.439   3.685   3.754
 7609TIP3    H122770   3.447   3.780   3.745
 7609TIP3    H222771   3.379   3.660   3.684
 7610TIP3   OH222772   4.781   5.178   4.064
 7610TIP3    H122773   4.742   5.227   3.991
 7610TIP3    H222774   4.876   5.187   4.050
 7611TIP3   OH222775   3.831   3.413   4.599
 7611TIP3    H122776   3.804   3.371   4.517
 7611TIP3    H222777   3.829   3.342   4.664
 7612TIP3   OH222778   3.422   4.688   4.011
 7612TIP3    H122779   3.367   4.707   4.087
 7612TIP3    H222780   3.367   4.710   3.936
 7613TIP3   OH222781   3.568   5.204   5.061
 7613TIP3    H122782   3.651   5.206   5.109
 7613TIP3    H222783   3.548   5.111   5.050
 7614TIP3   OH222784   4.035   5.111   5.107
 7614TIP3    H122785   4.128   5.089   5.117
 7614TIP3    H222786   4.005   5.058   5.033
 7615TIP3   OH222787   3.998   4.712   3.225
 7615TIP3    H122788   3.951   4.643   3.271
 7615TIP3    H222789   4.073   4.667   3.185
 7616TIP3   OH222790   4.654   5.050   4.873
 7616TIP3    H122791   4.671   4.980   4.936
 7616TIP3    H222792   4.729   5.110   4.883
 7617TIP3   OH222793   4.442   4.753   3.156
 7617TIP3    H122794   4.472   4.689   3.220
 7617TIP3    H222795   4.499   4.741   3.080
 7618TIP3   OH222796   3.649   4.595   5.277
 7618TIP3    H122797   3.688   4.508   5.264
 7618TIP3    H222798   3.582   4.602   5.209
 7619TIP3   OH222799   3.667   4.215   3.443
 7619TIP3    H122800   3.718   4.194   3.521
 7619TIP3    H222801   3.733   4.224   3.374
 7620TIP3   OH222802   4.290   4.691   5.033
 7620TIP3    H122803   4.246   4.711   4.950
 7620TIP3    H222804   4.320   4.601   5.022
 7621TIP3   OH222805   4.240   4.428   3.285
 7621TIP3    H122806   4.212   4.438   3.376
 7621TIP3    H222807   4.221   4.337   3.264
 7622TIP3   OH222808   3.786   4.356   5.248
 7622TIP3    H122809   3.861   4.342   5.191
 7622TIP3    H222810   3.822   4.365   5.336
 7623TIP3   OH222811   3.848   4.167   3.654
 7623TIP3    H122812   3.825   4.140   3.743
 7623TIP3    H222813   3.892   4.090   3.616
 7624TIP3   OH222814   4.145   4.237   4.911
 7624TIP3    H122815   4.064   4.287   4.922
 7624TIP3    H222816   4.176   4.260   4.823
 7625TIP3   OH222817   3.981   3.974   3.502
 7625TIP3    H122818   3.953   3.974   3.411
 7625TIP3    H222819   4.077   3.981   3.498
 7626TIP3   OH222820   4.665   4.603   5.015
 7626TIP3    H122821   4.736   4.564   4.965
 7626TIP3    H222822   4.651   4.543   5.089
 7627TIP3   OH222823   4.781   4.265   3.189
 7627TIP3    H122824   4.766   4.221   3.105
 7627TIP3    H222825   4.756   4.356   3.172
 7628TIP3   OH222826   4.254   4.014   5.036
 7628TIP3    H122827   4.253   3.935   4.981
 7628TIP3    H222828   4.224   4.084   4.977
 7629TIP3   OH222829   4.252   3.791   4.868
 7629TIP3    H122830   4.282   3.841   4.791
 7629TIP3    H222831   4.166   3.757   4.842
 7630TIP3   OH222832   4.251   4.309   4.669
 7630TIP3    H122833   4.340   4.336   4.648
 7630TIP3    H222834   4.205   4.310   4.585
 7631TIP3   OH222835   4.857   4.308   5.073
 7631TIP3    H122836   4.850   4.215   5.053
 7631TIP3    H222837   4.951   4.325   5.071
 7632TIP3   OH222838   4.896   4.578   4.842
 7632TIP3    H122839   4.841   4.639   4.793
 7632TIP3    H222840   4.980   4.579   4.797
 7633TIP3   OH222841   4.136   4.084   5.276
 7633TIP3    H122842   4.075   4.012   5.289
 7633TIP3    H222843   4.169   4.071   5.187
 7634TIP3   OH222844   4.388   3.561   4.933
 7634TIP3    H122845   4.345   3.644   4.909
 7634TIP3    H222846   4.323   3.494   4.912
 7635TIP3   OH222847   4.526   4.035   5.114
 7635TIP3    H122848   4.515   4.023   5.208
 7635TIP3    H222849   4.439   4.019   5.077
 7636TIP3   OH222850   4.800   4.050   5.015
 7636TIP3    H122851   4.713   4.020   5.042
 7636TIP3    H222852   4.861   3.994   5.063
 7637TIP3   OH222853   5.019   3.946   5.156
 7637TIP3    H122854   5.022   3.851   5.167
 7637TIP3    H222855   5.005   3.979   5.245
 7638TIP3   OH222856   3.968   3.873   5.346
 7638TIP3    H122857   3.971   3.788   5.301
 7638TIP3    H222858   4.009   3.857   5.431
 7639TIP3   OH222859   4.452   3.541   5.197
 7639TIP3    H122860   4.521   3.474   5.190
 7639TIP3    H222861   4.422   3.553   5.107
 7640TIP3   OH222862   4.547   3.757   5.339
 7640TIP3    H122863   4.517   3.686   5.283
 7640TIP3    H222864   4.477   3.822   5.334
 7641TIP3   OH222865   3.804   5.012   3.441
 7641TIP3    H122866   3.892   4.988   3.412
 7641TIP3    H222867   3.767   5.061   3.368
 7642TIP3   OH222868   3.179   4.977   4.078
 7642TIP3    H122869   3.111   4.924   4.036
 7642TIP3    H222870   3.222   4.917   4.139
 7643TIP3   OH222871   3.321   4.811   4.250
 7643TIP3    H122872   3.312   4.750   4.323
 7643TIP3    H222873   3.373   4.883   4.285
 7644TIP3   OH222874   5.055   5.213   4.057
 7644TIP3    H122875   5.074   5.242   4.147
 7644TIP3    H222876   5.116   5.263   4.003
 7645TIP3   OH222877   5.074   5.253   4.337
 7645TIP3    H122878   5.026   5.170   4.341
 7645TIP3    H222879   5.146   5.242   4.399
 7646TIP3   OH222880   5.133   4.947   4.906
 7646TIP3    H122881   5.060   4.955   4.968
 7646TIP3    H222882   5.177   5.032   4.911
 7647TIP3   OH222883   4.945   4.469   3.528
 7647TIP3    H122884   4.990   4.533   3.473
 7647TIP3    H222885   4.993   4.472   3.611
 7648TIP3   OH222886   5.154   4.709   4.168
 7648TIP3    H122887   5.160   4.626   4.121
 7648TIP3    H222888   5.138   4.775   4.100
 7649TIP3   OH222889   4.936   5.014   4.371
 7649TIP3    H122890   4.868   5.063   4.418
 7649TIP3    H222891   4.890   4.974   4.297
 7650TIP3   OH222892   4.984   4.241   3.372
 7650TIP3    H122893   4.914   4.241   3.307
 7650TIP3    H222894   4.967   4.317   3.427
 7651TIP3   OH222895   4.837   3.879   3.279
 7651TIP3    H122896   4.780   3.903   3.207
 7651TIP3    H222897   4.837   3.783   3.280
 7652TIP3   OH222898   5.138   4.598   4.709
 7652TIP3    H122899   5.199   4.530   4.682
 7652TIP3    H222900   5.127   4.652   4.631
 7653TIP3   OH222901   5.310   4.372   4.701
 7653TIP3    H122902   5.236   4.334   4.748
 7653TIP3    H222903   5.386   4.326   4.735
 7654TIP3   OH222904   4.806   3.603   3.261
 7654TIP3    H122905   4.862   3.583   3.336
 7654TIP3    H222906   4.720   3.568   3.284
 7655TIP3   OH222907   4.847   3.894   3.726
 7655TIP3    H122908   4.895   3.812   3.741
 7655TIP3    H222909   4.892   3.935   3.652
 7656TIP3   OH222910   5.103   4.221   4.425
 7656TIP3    H122911   5.028   4.182   4.469
 7656TIP3    H222912   5.069   4.253   4.342
 7657TIP3   OH222913   3.700   3.915   5.271
 7657TIP3    H122914   3.793   3.917   5.293
 7657TIP3    H222915   3.669   3.831   5.305
 7658TIP3   OH222916   5.555   3.815   5.027
 7658TIP3    H122917   5.621   3.760   4.985
 7658TIP3    H222918   5.517   3.866   4.956
 7659TIP3   OH222919   3.683   3.644   4.642
 7659TIP3    H122920   3.734   3.563   4.634
 7659TIP3    H222921   3.744   3.713   4.615
 7660TIP3   OH222922   5.398   3.943   4.839
 7660TIP3    H122923   5.334   3.979   4.899
 7660TIP3    H222924   5.348   3.882   4.785
 7661TIP3   OH222925   5.022   3.573   3.436
 7661TIP3    H122926   5.068   3.511   3.380
 7661TIP3    H222927   5.082   3.647   3.446
 7662TIP3   OH222928   3.467   3.435   4.240
 7662TIP3    H122929   3.376   3.408   4.255
 7662TIP3    H222930   3.470   3.455   4.146
 7663TIP3   OH222931   4.604   5.136   3.692
 7663TIP3    H122932   4.663   5.130   3.617
 7663TIP3    H222933   4.644   5.202   3.749
 7664TIP3   OH222934   3.689   3.495   5.035
 7664TIP3    H122935   3.631   3.459   5.102
 7664TIP3    H222936   3.631   3.524   4.965
 7665TIP3   OH222937   3.714   4.918   5.082
 7665TIP3    H122938   3.619   4.907   5.077
 7665TIP3    H222939   3.731   4.942   5.173
 7666TIP3   OH222940   3.917   4.969   4.626
 7666TIP3    H122941   3.868   5.045   4.595
 7666TIP3    H222942   4.001   4.974   4.580
 7667TIP3   OH222943   4.312   5.198   4.766
 7667TIP3    H122944   4.349   5.192   4.855
 7667TIP3    H222945   4.376   5.250   4.717
 7668TIP3   OH222946   4.507   5.354   4.646
 7668TIP3    H122947   4.570   5.298   4.600
 7668TIP3    H222948   4.561   5.414   4.697
 7669TIP3   OH222949   5.308   3.668   4.738
 7669TIP3    H122950   5.222   3.648   4.701
 7669TIP3    H222951   5.357   3.586   4.731
 7670TIP3   OH222952   3.566   5.196   4.675
 7670TIP3    H122953   3.478   5.217   4.643
 7670TIP3    H222954   3.587   5.266   4.736
 7671TIP3   OH222955   3.804   5.201   4.527
 7671TIP3    H122956   3.718   5.201   4.569
 7671TIP3    H222957   3.787   5.232   4.438
 7672TIP3   OH222958   4.218   5.225   4.325
 7672TIP3    H122959   4.151   5.244   4.260
 7672TIP3    H222960   4.232   5.308   4.370
 7673TIP3   OH222961   4.485   5.156   4.349
 7673TIP3    H122962   4.393   5.180   4.334
 7673TIP3    H222963   4.534   5.229   4.311
 7674TIP3   OH222964   4.688   5.336   4.268
 7674TIP3    H122965   4.688   5.424   4.229
 7674TIP3    H222966   4.718   5.278   4.199
 7675TIP3   OH222967   3.492   4.990   4.382
 7675TIP3    H122968   3.495   4.969   4.475
 7675TIP3    H222969   3.575   4.957   4.347
 7676TIP3   OH222970   3.720   4.888   4.274
 7676TIP3    H122971   3.752   4.804   4.306
 7676TIP3    H222972   3.799   4.941   4.264
 7677TIP3   OH222973   3.980   4.987   4.250
 7677TIP3    H122974   4.022   4.917   4.200
 7677TIP3    H222975   4.027   4.988   4.333
 7678TIP3   OH222976   4.429   3.577   4.319
 7678TIP3    H122977   4.407   3.523   4.395
 7678TIP3    H222978   4.524   3.567   4.309
 7679TIP3   OH222979   3.738   3.311   4.354
 7679TIP3    H122980   3.651   3.324   4.315
 7679TIP3    H222981   3.775   3.236   4.307
 7680TIP3   OH222982   3.554   3.178   3.973
 7680TIP3    H122983   3.595   3.238   3.911
 7680TIP3    H222984   3.624   3.157   4.035
 7681TIP3   OH222985   4.215   3.349   4.249
 7681TIP3    H122986   4.268   3.393   4.182
 7681TIP3    H222987   4.253   3.376   4.332
 7682TIP3   OH222988   4.689   3.515   4.278
 7682TIP3    H122989   4.762   3.545   4.223
 7682TIP3    H222990   4.720   3.434   4.317
 7683TIP3   OH222991   4.759   3.423   3.763
 7683TIP3    H122992   4.698   3.485   3.804
 7683TIP3    H222993   4.755   3.345   3.818
 7684TIP3   OH222994   3.270   4.780   3.799
 7684TIP3    H122995   3.183   4.752   3.768
 7684TIP3    H222996   3.281   4.867   3.762
 7685TIP3   OH222997   3.696   3.341   3.773
 7685TIP3    H122998   3.744   3.276   3.722
 7685TIP3    H222999   3.764   3.392   3.818
 7686TIP3   OH223000   4.187   3.541   3.889
 7686TIP3    H123001   4.249   3.496   3.947
 7686TIP3    H223002   4.191   3.632   3.917
 7687TIP3   OH223003   4.057   4.936   3.369
 7687TIP3    H123004   4.140   4.964   3.331
 7687TIP3    H223005   4.029   4.863   3.313
 7688TIP3   OH223006   4.756   5.095   3.460
 7688TIP3    H123007   4.748   5.000   3.455
 7688TIP3    H223008   4.711   5.127   3.381
 7689TIP3   OH223009   3.986   3.608   5.257
 7689TIP3    H123010   3.953   3.537   5.312
 7689TIP3    H223011   4.080   3.612   5.279
 7690TIP3   OH223012   4.239   3.603   5.369
 7690TIP3    H123013   4.314   3.580   5.314
 7690TIP3    H223014   4.231   3.530   5.431
 7691TIP3   OH223015   3.369   4.787   3.426
 7691TIP3    H123016   3.370   4.809   3.519
 7691TIP3    H223017   3.451   4.740   3.411
 7692TIP3   OH223018   5.064   3.673   5.157
 7692TIP3    H123019   5.081   3.646   5.247
 7692TIP3    H223020   5.150   3.671   5.115
 7693TIP3   OH223021   4.980   5.229   4.660
 7693TIP3    H123022   4.905   5.200   4.608
 7693TIP3    H223023   4.966   5.323   4.671
 7694TIP3   OH223024   6.515   4.892   3.543
 7694TIP3    H123025   6.423   4.896   3.568
 7694TIP3    H223026   6.548   4.981   3.559
 7695TIP3   OH223027   5.531   4.875   3.804
 7695TIP3    H123028   5.491   4.799   3.761
 7695TIP3    H223029   5.608   4.895   3.751
 7696TIP3   OH223030   6.180   5.341   3.510
 7696TIP3    H123031   6.208   5.277   3.445
 7696TIP3    H223032   6.162   5.289   3.589
 7697TIP3   OH223033   7.088   4.142   3.845
 7697TIP3    H123034   7.104   4.227   3.886
 7697TIP3    H223035   7.106   4.157   3.752
 7698TIP3   OH223036   5.753   4.001   3.800
 7698TIP3    H123037   5.721   4.069   3.742
 7698TIP3    H223038   5.724   3.919   3.760
 7699TIP3   OH223039   6.531   4.040   3.443
 7699TIP3    H123040   6.581   4.058   3.523
 7699TIP3    H223041   6.571   4.095   3.376
 7700TIP3   OH223042   7.146   4.365   4.009
 7700TIP3    H123043   7.057   4.398   4.000
 7700TIP3    H223044   7.175   4.398   4.094
 7701TIP3   OH223045   5.805   3.961   4.293
 7701TIP3    H123046   5.769   4.002   4.215
 7701TIP3    H223047   5.744   3.983   4.363
 7702TIP3   OH223048   6.214   4.812   3.234
 7702TIP3    H123049   6.175   4.724   3.233
 7702TIP3    H223050   6.142   4.870   3.259
 7703TIP3   OH223051   5.896   4.754   4.064
 7703TIP3    H123052   5.837   4.825   4.091
 7703TIP3    H223053   5.930   4.783   3.980
 7704TIP3   OH223054   6.686   4.096   3.670
 7704TIP3    H123055   6.656   4.082   3.760
 7704TIP3    H223056   6.740   4.175   3.675
 7705TIP3   OH223057   5.715   4.071   4.063
 7705TIP3    H123058   5.760   4.155   4.069
 7705TIP3    H223059   5.729   4.044   3.972
 7706TIP3   OH223060   5.734   4.958   4.150
 7706TIP3    H123061   5.722   5.047   4.117
 7706TIP3    H223062   5.655   4.940   4.200
 7707TIP3   OH223063   5.109   4.648   3.394
 7707TIP3    H123064   5.086   4.669   3.304
 7707TIP3    H223065   5.133   4.732   3.433
 7708TIP3   OH223066   6.564   5.159   3.621
 7708TIP3    H123067   6.480   5.152   3.668
 7708TIP3    H223068   6.560   5.244   3.578
 7709TIP3   OH223069   6.886   4.029   4.016
 7709TIP3    H123070   6.797   4.041   3.982
 7709TIP3    H223071   6.943   4.059   3.945
 7710TIP3   OH223072   6.131   3.657   4.016
 7710TIP3    H123073   6.129   3.566   4.045
 7710TIP3    H223074   6.057   3.698   4.060
 7711TIP3   OH223075   6.270   5.195   3.290
 7711TIP3    H123076   6.324   5.116   3.290
 7711TIP3    H223077   6.328   5.264   3.258
 7712TIP3   OH223078   6.425   4.969   3.283
 7712TIP3    H123079   6.353   4.910   3.263
 7712TIP3    H223080   6.473   4.926   3.353
 7713TIP3   OH223081   6.787   5.049   3.979
 7713TIP3    H123082   6.772   4.974   3.922
 7713TIP3    H223083   6.771   5.125   3.923
 7714TIP3   OH223084   6.103   4.563   3.208
 7714TIP3    H123085   6.008   4.565   3.217
 7714TIP3    H223086   6.121   4.486   3.154
 7715TIP3   OH223087   6.050   4.253   2.949
 7715TIP3    H123088   6.117   4.304   2.994
 7715TIP3    H223089   6.099   4.187   2.900
 7716TIP3   OH223090   6.973   4.710   3.843
 7716TIP3    H123091   6.888   4.756   3.842
 7716TIP3    H223092   7.006   4.721   3.754
 7717TIP3   OH223093   6.676   4.559   4.151
 7717TIP3    H123094   6.662   4.642   4.197
 7717TIP3    H223095   6.601   4.551   4.092
 7718TIP3   OH223096   6.342   5.138   3.773
 7718TIP3    H123097   6.316   5.216   3.821
 7718TIP3    H223098   6.328   5.065   3.834
 7719TIP3   OH223099   5.940   5.048   4.313
 7719TIP3    H123100   5.880   5.107   4.359
 7719TIP3    H223101   5.884   4.997   4.255
 7720TIP3   OH223102   6.277   4.409   3.028
 7720TIP3    H123103   6.307   4.496   3.054
 7720TIP3    H223104   6.308   4.399   2.937
 7721TIP3   OH223105   5.700   4.597   4.445
 7721TIP3    H123106   5.705   4.691   4.463
 7721TIP3    H223107   5.606   4.578   4.443
 7722TIP3   OH223108   6.046   5.022   3.302
 7722TIP3    H123109   6.106   5.098   3.301
 7722TIP3    H223110   5.964   5.056   3.267
 7723TIP3   OH223111   5.732   5.209   4.397
 7723TIP3    H123112   5.706   5.221   4.306
 7723TIP3    H223113   5.650   5.192   4.444
 7724TIP3   OH223114   6.782   3.622   3.100
 7724TIP3    H123115   6.707   3.643   3.155
 7724TIP3    H223116   6.794   3.699   3.044
 7725TIP3   OH223117   5.541   4.311   3.404
 7725TIP3    H123118   5.476   4.381   3.400
 7725TIP3    H223119   5.491   4.232   3.384
 7726TIP3   OH223120   5.340   4.752   4.363
 7726TIP3    H123121   5.274   4.734   4.297
 7726TIP3    H223122   5.365   4.665   4.396
 7727TIP3   OH223123   5.157   4.953   3.997
 7727TIP3    H123124   5.248   4.972   4.019
 7727TIP3    H223125   5.108   5.028   4.030
 7728TIP3   OH223126   7.016   5.394   4.055
 7728TIP3    H123127   7.020   5.300   4.073
 7728TIP3    H223128   6.938   5.424   4.102
 7729TIP3   OH223129   6.121   5.197   4.169
 7729TIP3    H123130   6.112   5.288   4.197
 7729TIP3    H223131   6.054   5.150   4.219
 7730TIP3   OH223132   5.906   5.315   3.114
 7730TIP3    H123133   5.842   5.281   3.051
 7730TIP3    H223134   5.864   5.392   3.151
 7731TIP3   OH223135   5.346   5.140   3.507
 7731TIP3    H123136   5.401   5.136   3.585
 7731TIP3    H223137   5.318   5.049   3.493
 7732TIP3   OH223138   6.124   5.188   2.763
 7732TIP3    H123139   6.171   5.106   2.750
 7732TIP3    H223140   6.150   5.217   2.851
 7733TIP3   OH223141   6.159   5.265   3.028
 7733TIP3    H123142   6.070   5.276   3.061
 7733TIP3    H223143   6.206   5.221   3.099
 7734TIP3   OH223144   6.916   4.518   4.312
 7734TIP3    H123145   6.833   4.528   4.264
 7734TIP3    H223146   6.933   4.424   4.311
 7735TIP3   OH223147   5.516   4.957   4.317
 7735TIP3    H123148   5.567   4.951   4.398
 7735TIP3    H223149   5.451   4.887   4.324
 7736TIP3   OH223150   5.893   3.752   4.130
 7736TIP3    H123151   5.805   3.725   4.103
 7736TIP3    H223152   5.879   3.831   4.182
 7737TIP3   OH223153   6.446   3.884   4.329
 7737TIP3    H123154   6.517   3.860   4.389
 7737TIP3    H223155   6.366   3.864   4.377
 7738TIP3   OH223156   6.669   4.297   4.251
 7738TIP3    H123157   6.630   4.296   4.338
 7738TIP3    H223158   6.655   4.386   4.220
 7739TIP3   OH223159   6.360   4.381   2.766
 7739TIP3    H123160   6.319   4.381   2.679
 7739TIP3    H223161   6.428   4.449   2.759
 7740TIP3   OH223162   6.072   3.778   3.113
 7740TIP3    H123163   6.087   3.744   3.201
 7740TIP3    H223164   6.016   3.713   3.071
 7741TIP3   OH223165   5.855   4.304   4.117
 7741TIP3    H123166   5.801   4.312   4.195
 7741TIP3    H223167   5.891   4.392   4.104
 7742TIP3   OH223168   5.679   4.205   3.636
 7742TIP3    H123169   5.696   4.279   3.694
 7742TIP3    H223170   5.639   4.244   3.558
 7743TIP3   OH223171   6.387   4.507   4.452
 7743TIP3    H123172   6.362   4.437   4.513
 7743TIP3    H223173   6.479   4.525   4.474
 7744TIP3   OH223174   5.690   4.301   4.335
 7744TIP3    H123175   5.680   4.373   4.397
 7744TIP3    H223176   5.668   4.223   4.386
 7745TIP3   OH223177   5.726   3.771   3.072
 7745TIP3    H123178   5.718   3.780   3.167
 7745TIP3    H223179   5.648   3.814   3.037
 7746TIP3   OH223180   5.180   3.804   3.466
 7746TIP3    H123181   5.221   3.840   3.387
 7746TIP3    H223182   5.114   3.869   3.490
 7747TIP3   OH223183   6.452   4.500   3.980
 7747TIP3    H123184   6.418   4.458   3.900
 7747TIP3    H223185   6.403   4.459   4.051
 7748TIP3   OH223186   6.023   3.986   3.760
 7748TIP3    H123187   5.938   4.017   3.794
 7748TIP3    H223188   6.088   4.030   3.814
 7749TIP3   OH223189   6.610   4.032   3.933
 7749TIP3    H123190   6.562   4.073   4.005
 7749TIP3    H223191   6.549   3.969   3.896
 7750TIP3   OH223192   5.616   4.033   3.190
 7750TIP3    H123193   5.557   3.999   3.122
 7750TIP3    H223194   5.677   4.089   3.142
 7751TIP3   OH223195   6.737   5.752   4.143
 7751TIP3    H123196   6.736   5.767   4.049
 7751TIP3    H223197   6.816   5.796   4.174
 7752TIP3   OH223198   5.679   4.859   4.551
 7752TIP3    H123199   5.760   4.881   4.597
 7752TIP3    H223200   5.610   4.873   4.615
 7753TIP3   OH223201   5.745   3.748   3.674
 7753TIP3    H123202   5.668   3.705   3.711
 7753TIP3    H223203   5.817   3.688   3.692
 7754TIP3   OH223204   6.111   4.197   4.135
 7754TIP3    H123205   6.028   4.240   4.115
 7754TIP3    H223206   6.175   4.268   4.137
 7755TIP3   OH223207   5.828   4.612   3.226
 7755TIP3    H123208   5.756   4.552   3.204
 7755TIP3    H223209   5.798   4.658   3.305
 7756TIP3   OH223210   6.738   4.849   3.795
 7756TIP3    H123211   6.774   4.900   3.723
 7756TIP3    H223212   6.654   4.817   3.762
 7757TIP3   OH223213   6.314   3.900   3.066
 7757TIP3    H123214   6.220   3.884   3.077
 7757TIP3    H223215   6.324   3.994   3.080
 7758TIP3   OH223216   6.256   4.943   4.204
 7758TIP3    H123217   6.291   4.930   4.292
 7758TIP3    H223218   6.206   5.025   4.210
 7759TIP3   OH223219   6.374   4.157   3.129
 7759TIP3    H123220   6.465   4.163   3.158
 7759TIP3    H223221   6.350   4.248   3.110
 7760TIP3   OH223222   5.955   4.745   3.001
 7760TIP3    H123223   5.926   4.835   3.018
 7760TIP3    H223224   5.926   4.696   3.077
 7761TIP3   OH223225   5.437   4.537   4.517
 7761TIP3    H123226   5.481   4.565   4.597
 7761TIP3    H223227   5.382   4.463   4.544
 7762TIP3   OH223228   6.159   4.665   4.510
 7762TIP3    H123229   6.088   4.608   4.481
 7762TIP3    H223230   6.238   4.624   4.475
 7763TIP3   OH223231   6.398   5.216   4.101
 7763TIP3    H123232   6.303   5.203   4.104
 7763TIP3    H223233   6.419   5.249   4.189
 7764TIP3   OH223234   6.786   4.262   2.974
 7764TIP3    H123235   6.730   4.213   2.914
 7764TIP3    H223236   6.784   4.352   2.941
 7765TIP3   OH223237   7.033   5.113   4.075
 7765TIP3    H123238   6.939   5.103   4.063
 7765TIP3    H223239   7.071   5.090   3.990
 7766TIP3   OH223240   6.538   5.058   2.833
 7766TIP3    H123241   6.492   4.984   2.872
 7766TIP3    H223242   6.563   5.026   2.746
 7767TIP3   OH223243   6.483   4.693   3.785
 7767TIP3    H123244   6.404   4.748   3.795
 7767TIP3    H223245   6.483   4.638   3.863
 7768TIP3   OH223246   5.223   4.224   3.233
 7768TIP3    H123247   5.266   4.308   3.252
 7768TIP3    H223248   5.142   4.226   3.284
 7769TIP3   OH223249   5.941   5.240   3.947
 7769TIP3    H123250   5.972   5.318   3.901
 7769TIP3    H223251   6.014   5.214   4.003
 7770TIP3   OH223252   5.510   5.228   3.300
 7770TIP3    H123253   5.458   5.196   3.374
 7770TIP3    H223254   5.557   5.304   3.335
 7771TIP3   OH223255   6.342   4.908   3.943
 7771TIP3    H123256   6.290   4.915   4.023
 7771TIP3    H223257   6.430   4.885   3.974
 7772TIP3   OH223258   6.201   4.815   2.857
 7772TIP3    H123259   6.279   4.772   2.894
 7772TIP3    H223260   6.130   4.790   2.916
 7773TIP3   OH223261   6.549   5.422   3.982
 7773TIP3    H123262   6.483   5.357   4.006
 7773TIP3    H223263   6.510   5.472   3.912
 7774TIP3   OH223264   6.621   5.303   2.610
 7774TIP3    H123265   6.598   5.349   2.529
 7774TIP3    H223266   6.545   5.315   2.667
 7775TIP3   OH223267   5.625   4.059   4.481
 7775TIP3    H123268   5.531   4.078   4.485
 7775TIP3    H223269   5.641   4.005   4.559
 7776TIP3   OH223270   6.422   4.699   3.016
 7776TIP3    H123271   6.398   4.753   3.091
 7776TIP3    H223272   6.518   4.703   3.013
 7777TIP3   OH223273   5.369   5.155   4.133
 7777TIP3    H123274   5.419   5.094   4.188
 7777TIP3    H223275   5.385   5.240   4.173
 7778TIP3   OH223276   5.630   4.775   2.834
 7778TIP3    H123277   5.652   4.686   2.808
 7778TIP3    H223278   5.621   4.772   2.929
 7779TIP3   OH223279   5.569   4.805   3.109
 7779TIP3    H123280   5.620   4.789   3.189
 7779TIP3    H223281   5.568   4.900   3.100
 7780TIP3   OH223282   5.319   4.474   3.311
 7780TIP3    H123283   5.257   4.523   3.365
 7780TIP3    H223284   5.342   4.534   3.240
 7781TIP3   OH223285   6.480   4.113   4.170
 7781TIP3    H123286   6.556   4.158   4.206
 7781TIP3    H223287   6.467   4.038   4.227
 7782TIP3   OH223288   6.365   3.852   3.336
 7782TIP3    H123289   6.357   3.874   3.243
 7782TIP3    H223290   6.419   3.923   3.373
 7783TIP3   OH223291   5.849   4.993   3.045
 7783TIP3    H123292   5.759   5.012   3.072
 7783TIP3    H223293   5.869   5.060   2.979
 7784TIP3   OH223294   6.337   4.368   4.196
 7784TIP3    H123295   6.350   4.407   4.282
 7784TIP3    H223296   6.378   4.282   4.201
 7785TIP3   OH223297   6.174   3.818   3.530
 7785TIP3    H123298   6.234   3.805   3.604
 7785TIP3    H223299   6.231   3.831   3.455
 7786TIP3   OH223300   5.589   5.077   3.089
 7786TIP3    H123301   5.580   5.145   3.021
 7786TIP3    H223302   5.562   5.121   3.170
 7787TIP3   OH223303   5.651   3.795   3.340
 7787TIP3    H123304   5.632   3.885   3.314
 7787TIP3    H223305   5.652   3.797   3.435
 7788TIP3   OH223306   6.931   4.239   4.221
 7788TIP3    H123307   6.838   4.250   4.236
 7788TIP3    H223308   6.937   4.178   4.148
 7789TIP3   OH223309   5.335   4.656   3.093
 7789TIP3    H123310   5.405   4.721   3.103
 7789TIP3    H223311   5.370   4.592   3.031
 7790TIP3   OH223312   5.237   3.944   3.234
 7790TIP3    H123313   5.251   4.039   3.237
 7790TIP3    H223314   5.165   3.933   3.172
 7791TIP3   OH223315   6.587   5.429   3.550
 7791TIP3    H123316   6.540   5.481   3.484
 7791TIP3    H223317   6.679   5.447   3.533
 7792TIP3   OH223318   5.627   3.681   4.090
 7792TIP3    H123319   5.604   3.650   4.002
 7792TIP3    H223320   5.615   3.605   4.147
 7793TIP3   OH223321   5.158   4.909   3.489
 7793TIP3    H123322   5.132   4.958   3.566
 7793TIP3    H223323   5.124   4.960   3.415
 7794TIP3   OH223324   5.364   5.456   4.549
 7794TIP3    H123325   5.448   5.454   4.596
 7794TIP3    H223326   5.336   5.364   4.547
 7795TIP3   OH223327   5.836   5.367   4.597
 7795TIP3    H123328   5.928   5.341   4.604
 7795TIP3    H223329   5.802   5.316   4.524
 7796TIP3   OH223330   5.805   4.952   2.706
 7796TIP3    H123331   5.753   4.887   2.754
 7796TIP3    H223332   5.884   4.904   2.680
 7797TIP3   OH223333   6.455   5.309   4.353
 7797TIP3    H123334   6.470   5.239   4.417
 7797TIP3    H223335   6.528   5.369   4.366
 7798TIP3   OH223336   5.480   4.870   4.747
 7798TIP3    H123337   5.488   4.775   4.760
 7798TIP3    H223338   5.397   4.881   4.701
 7799TIP3   OH223339   5.461   4.463   2.947
 7799TIP3    H123340   5.513   4.439   3.023
 7799TIP3    H223341   5.524   4.477   2.877
 7800TIP3   OH223342   6.093   4.942   4.518
 7800TIP3    H123343   6.048   4.963   4.436
 7800TIP3    H223344   6.126   4.853   4.505
 7801TIP3   OH223345   5.923   4.667   2.739
 7801TIP3    H123346   5.933   4.689   2.831
 7801TIP3    H223347   5.942   4.573   2.734
 7802TIP3   OH223348   6.567   4.981   4.132
 7802TIP3    H123349   6.645   5.016   4.088
 7802TIP3    H223350   6.501   5.050   4.123
 7803TIP3   OH223351   5.593   4.605   4.737
 7803TIP3    H123352   5.676   4.597   4.690
 7803TIP3    H223353   5.619   4.625   4.827
 7804TIP3   OH223354   5.642   4.404   3.158
 7804TIP3    H123355   5.618   4.367   3.243
 7804TIP3    H223356   5.692   4.335   3.115
 7805TIP3   OH223357   5.958   4.495   4.412
 7805TIP3    H123358   5.870   4.530   4.420
 7805TIP3    H223359   5.980   4.507   4.319
 7806TIP3   OH223360   5.776   4.204   3.017
 7806TIP3    H123361   5.743   4.208   2.927
 7806TIP3    H223362   5.871   4.215   3.008
 7807TIP3   OH223363   6.453   4.862   4.498
 7807TIP3    H123364   6.514   4.817   4.438
 7807TIP3    H223365   6.447   4.804   4.574
 7808TIP3   OH223366   6.553   4.573   2.678
 7808TIP3    H123367   6.537   4.534   2.592
 7808TIP3    H223368   6.556   4.667   2.661
 7809TIP3   OH223369   6.054   4.263   4.528
 7809TIP3    H123370   6.052   4.187   4.470
 7809TIP3    H223371   6.021   4.335   4.474
 7810TIP3   OH223372   6.058   4.044   4.353
 7810TIP3    H123373   6.086   4.089   4.273
 7810TIP3    H223374   5.969   4.015   4.334
 7811TIP3   OH223375   6.024   4.533   4.149
 7811TIP3    H123376   6.105   4.531   4.097
 7811TIP3    H223377   5.979   4.612   4.121
 7812TIP3   OH223378   6.653   4.551   4.557
 7812TIP3    H123379   6.692   4.464   4.556
 7812TIP3    H223380   6.727   4.611   4.548
 7813TIP3   OH223381   6.690   4.805   4.300
 7813TIP3    H123382   6.638   4.867   4.251
 7813TIP3    H223383   6.780   4.819   4.269
 7814TIP3   OH223384   5.936   4.338   4.768
 7814TIP3    H123385   5.865   4.276   4.783
 7814TIP3    H223386   5.964   4.320   4.678
 7815TIP3   OH223387   6.188   3.811   4.417
 7815TIP3    H123388   6.145   3.894   4.395
 7815TIP3    H223389   6.121   3.744   4.401
 7816TIP3   OH223390   6.313   4.299   4.620
 7816TIP3    H123391   6.302   4.286   4.714
 7816TIP3    H223392   6.226   4.280   4.583
 7817TIP3   OH223393   6.561   4.264   4.494
 7817TIP3    H123394   6.482   4.258   4.548
 7817TIP3    H223395   6.630   4.231   4.551
 7818TIP3   OH223396   6.797   4.211   4.632
 7818TIP3    H123397   6.810   4.117   4.642
 7818TIP3    H223398   6.791   4.245   4.722
 7819TIP3   OH223399   5.767   4.119   4.824
 7819TIP3    H123400   5.773   4.032   4.784
 7819TIP3    H223401   5.808   4.109   4.910
 7820TIP3   OH223402   6.251   3.800   4.684
 7820TIP3    H123403   6.320   3.734   4.679
 7820TIP3    H223404   6.220   3.810   4.593
 7821TIP3   OH223405   6.345   4.016   4.829
 7821TIP3    H123406   6.317   3.944   4.772
 7821TIP3    H223407   6.274   4.079   4.825
 7822TIP3   OH223408   5.614   5.285   2.908
 7822TIP3    H123409   5.700   5.254   2.879
 7822TIP3    H223410   5.577   5.328   2.831
 7823TIP3   OH223411   5.062   4.656   3.106
 7823TIP3    H123412   5.157   4.665   3.103
 7823TIP3    H223413   5.045   4.570   3.066
 7824TIP3   OH223414   4.968   5.234   3.566
 7824TIP3    H123415   4.901   5.182   3.522
 7824TIP3    H223416   5.011   5.172   3.625
 7825TIP3   OH223417   5.113   5.066   3.733
 7825TIP3    H123418   5.105   5.000   3.802
 7825TIP3    H223419   5.170   5.133   3.771
 7826TIP3   OH223420   6.861   5.497   3.556
 7826TIP3    H123421   6.872   5.490   3.651
 7826TIP3    H223422   6.871   5.590   3.537
 7827TIP3   OH223423   6.870   5.494   3.833
 7827TIP3    H123424   6.818   5.414   3.830
 7827TIP3    H223425   6.936   5.477   3.900
 7828TIP3   OH223426   6.923   5.206   4.395
 7828TIP3    H123427   6.852   5.214   4.458
 7828TIP3    H223428   6.970   5.289   4.400
 7829TIP3   OH223429   6.721   4.705   3.037
 7829TIP3    H123430   6.778   4.776   3.008
 7829TIP3    H223431   6.769   4.662   3.107
 7830TIP3   OH223432   6.874   4.570   3.230
 7830TIP3    H123433   6.826   4.533   3.304
 7830TIP3    H223434   6.949   4.614   3.268
 7831TIP3   OH223435   6.920   4.991   3.638
 7831TIP3    H123436   6.972   4.924   3.595
 7831TIP3    H223437   6.924   5.066   3.579
 7832TIP3   OH223438   6.719   5.265   3.826
 7832TIP3    H123439   6.650   5.308   3.876
 7832TIP3    H223440   6.674   5.225   3.751
 7833TIP3   OH223441   6.763   4.509   2.846
 7833TIP3    H123442   6.693   4.522   2.782
 7833TIP3    H223443   6.749   4.579   2.911
 7834TIP3   OH223444   6.637   4.137   2.783
 7834TIP3    H123445   6.581   4.177   2.717
 7834TIP3    H223446   6.628   4.043   2.769
 7835TIP3   OH223447   6.949   4.855   4.207
 7835TIP3    H123448   7.015   4.788   4.192
 7835TIP3    H223449   6.972   4.927   4.148
 7836TIP3   OH223450   7.128   4.646   4.197
 7836TIP3    H123451   7.053   4.603   4.238
 7836TIP3    H223452   7.202   4.590   4.218
 7837TIP3   OH223453   6.598   3.864   2.752
 7837TIP3    H123454   6.657   3.843   2.824
 7837TIP3    H223455   6.514   3.827   2.778
 7838TIP3   OH223456   6.651   4.144   3.205
 7838TIP3    H123457   6.703   4.065   3.221
 7838TIP3    H223458   6.700   4.191   3.138
 7839TIP3   OH223459   6.830   4.323   3.742
 7839TIP3    H123460   6.910   4.349   3.697
 7839TIP3    H223461   6.837   4.363   3.829
 7840TIP3   OH223462   6.893   4.477   3.974
 7840TIP3    H123463   6.820   4.503   4.031
 7840TIP3    H223464   6.920   4.559   3.932
 7841TIP3   OH223465   5.505   4.189   4.767
 7841TIP3    H123466   5.599   4.179   4.781
 7841TIP3    H223467   5.467   4.105   4.795
 7842TIP3   OH223468   7.345   4.080   4.516
 7842TIP3    H123469   7.410   4.020   4.480
 7842TIP3    H223470   7.309   4.126   4.440
 7843TIP3   OH223471   6.787   3.904   3.271
 7843TIP3    H123472   6.825   3.897   3.359
 7843TIP3    H223473   6.720   3.836   3.269
 7844TIP3   OH223474   5.486   3.926   4.135
 7844TIP3    H123475   5.521   3.838   4.123
 7844TIP3    H223476   5.561   3.984   4.120
 7845TIP3   OH223477   7.198   4.191   4.315
 7845TIP3    H123478   7.117   4.230   4.348
 7845TIP3    H223479   7.169   4.117   4.263
 7846TIP3   OH223480   6.821   3.825   2.917
 7846TIP3    H123481   6.870   3.765   2.861
 7846TIP3    H223482   6.874   3.904   2.920
 7847TIP3   OH223483   5.302   3.622   3.637
 7847TIP3    H123484   5.257   3.622   3.722
 7847TIP3    H223485   5.263   3.696   3.590
 7848TIP3   OH223486   6.426   5.385   3.176
 7848TIP3    H123487   6.472   5.353   3.098
 7848TIP3    H223488   6.471   5.466   3.199
 7849TIP3   OH223489   5.479   3.711   4.512
 7849TIP3    H123490   5.423   3.706   4.589
 7849TIP3    H223491   5.432   3.768   4.452
 7850TIP3   OH223492   5.515   5.172   4.567
 7850TIP3    H123493   5.420   5.164   4.556
 7850TIP3    H223494   5.528   5.169   4.661
 7851TIP3   OH223495   5.719   5.232   4.113
 7851TIP3    H123496   5.671   5.310   4.085
 7851TIP3    H223497   5.797   5.231   4.056
 7852TIP3   OH223498   6.110   5.461   4.254
 7852TIP3    H123499   6.147   5.452   4.342
 7852TIP3    H223500   6.173   5.516   4.207
 7853TIP3   OH223501   6.302   5.615   4.128
 7853TIP3    H123502   6.365   5.560   4.081
 7853TIP3    H223503   6.357   5.673   4.182
 7854TIP3   OH223504   7.106   3.942   4.215
 7854TIP3    H123505   7.020   3.937   4.173
 7854TIP3    H223506   7.141   3.853   4.209
 7855TIP3   OH223507   5.374   5.469   4.165
 7855TIP3    H123508   5.283   5.485   4.143
 7855TIP3    H223509   5.395   5.535   4.231
 7856TIP3   OH223510   5.607   5.466   4.019
 7856TIP3    H123511   5.524   5.467   4.065
 7856TIP3    H223512   5.585   5.484   3.928
 7857TIP3   OH223513   6.018   5.467   3.806
 7857TIP3    H123514   5.945   5.477   3.745
 7857TIP3    H223515   6.027   5.553   3.847
 7858TIP3   OH223516   6.285   5.406   3.848
 7858TIP3    H123517   6.192   5.423   3.833
 7858TIP3    H223518   6.330   5.475   3.800
 7859TIP3   OH223519   6.490   5.587   3.756
 7859TIP3    H123520   6.484   5.673   3.714
 7859TIP3    H223521   6.520   5.529   3.686
 7860TIP3   OH223522   5.289   5.244   3.881
 7860TIP3    H123523   5.313   5.217   3.970
 7860TIP3    H223524   5.362   5.215   3.827
 7861TIP3   OH223525   5.495   5.141   3.740
 7861TIP3    H123526   5.503   5.050   3.769
 7861TIP3    H223527   5.585   5.170   3.726
 7862TIP3   OH223528   5.769   5.199   3.717
 7862TIP3    H123529   5.766   5.109   3.683
 7862TIP3    H223530   5.825   5.193   3.795
 7863TIP3   OH223531   6.264   3.764   3.782
 7863TIP3    H123532   6.244   3.738   3.872
 7863TIP3    H223533   6.359   3.766   3.778
 7864TIP3   OH223534   6.828   3.789   3.741
 7864TIP3    H123535   6.869   3.833   3.666
 7864TIP3    H223536   6.744   3.832   3.752
 7865TIP3   OH223537   6.938   3.859   3.503
 7865TIP3    H123538   7.006   3.799   3.474
 7865TIP3    H223539   6.973   3.946   3.485
 7866TIP3   OH223540   5.591   3.570   3.835
 7866TIP3    H123541   5.498   3.546   3.831
 7866TIP3    H223542   5.637   3.486   3.841
 7867TIP3   OH223543   5.349   3.432   3.448
 7867TIP3    H123544   5.385   3.484   3.376
 7867TIP3    H223545   5.333   3.495   3.518
 7868TIP3   OH223546   6.008   3.667   3.739
 7868TIP3    H123547   6.102   3.655   3.728
 7868TIP3    H223548   5.995   3.665   3.834
 7869TIP3   OH223549   6.534   3.753   3.743
 7869TIP3    H123550   6.570   3.730   3.657
 7869TIP3    H223551   6.546   3.673   3.796
 7870TIP3   OH223552   6.594   3.699   3.284
 7870TIP3    H123553   6.513   3.747   3.300
 7870TIP3    H223554   6.581   3.615   3.328
 7871TIP3   OH223555   5.060   5.042   3.269
 7871TIP3    H123556   4.976   5.011   3.235
 7871TIP3    H223557   5.064   5.135   3.243
 7872TIP3   OH223558   5.475   3.591   3.247
 7872TIP3    H123559   5.527   3.534   3.190
 7872TIP3    H223560   5.537   3.655   3.281
 7873TIP3   OH223561   5.857   5.184   2.839
 7873TIP3    H123562   5.947   5.204   2.811
 7873TIP3    H223563   5.832   5.108   2.786
 7874TIP3   OH223564   6.568   5.310   2.945
 7874TIP3    H123565   6.566   5.219   2.916
 7874TIP3    H223566   6.522   5.358   2.877
 7875TIP3   OH223567   5.788   3.850   4.735
 7875TIP3    H123568   5.754   3.781   4.793
 7875TIP3    H223569   5.880   3.858   4.760
 7876TIP3   OH223570   6.035   3.856   4.860
 7876TIP3    H123571   6.111   3.833   4.807
 7876TIP3    H223572   6.028   3.785   4.924
 7877TIP3   OH223573   5.166   5.039   2.926
 7877TIP3    H123574   5.172   5.032   3.021
 7877TIP3    H223575   5.243   4.993   2.893
 7878TIP3   OH223576   6.856   3.940   4.642
 7878TIP3    H123577   6.874   3.911   4.731
 7878TIP3    H223578   6.941   3.936   4.598
 7879TIP3   OH223579   6.769   5.477   4.148
 7879TIP3    H123580   6.695   5.448   4.095
 7879TIP3    H223581   6.758   5.571   4.157
 7880TIP3   OH223582   8.054   4.855   2.866
 7880TIP3    H123583   8.019   4.944   2.870
 7880TIP3    H223584   7.981   4.801   2.839
 7881TIP3   OH223585   7.971   4.842   3.307
 7881TIP3    H123586   8.032   4.837   3.380
 7881TIP3    H223587   7.940   4.752   3.295
 7882TIP3   OH223588   7.342   4.721   3.656
 7882TIP3    H123589   7.379   4.672   3.730
 7882TIP3    H223590   7.417   4.746   3.603
 7883TIP3   OH223591   8.273   5.146   3.005
 7883TIP3    H123592   8.267   5.084   3.077
 7883TIP3    H223593   8.300   5.228   3.045
 7884TIP3   OH223594   7.380   5.173   3.356
 7884TIP3    H123595   7.345   5.084   3.356
 7884TIP3    H223596   7.406   5.189   3.447
 7885TIP3   OH223597   7.017   4.353   3.118
 7885TIP3    H123598   6.975   4.432   3.150
 7885TIP3    H223599   6.948   4.307   3.070
 7886TIP3   OH223600   7.106   4.664   3.344
 7886TIP3    H123601   7.156   4.588   3.371
 7886TIP3    H223602   7.168   4.717   3.294
 7887TIP3   OH223603   7.999   5.621   3.035
 7887TIP3    H123604   8.021   5.541   2.988
 7887TIP3    H223605   8.017   5.601   3.127
 7888TIP3   OH223606   7.874   5.095   3.324
 7888TIP3    H123607   7.906   5.007   3.303
 7888TIP3    H223608   7.949   5.140   3.362
 7889TIP3   OH223609   8.212   4.568   3.335
 7889TIP3    H123610   8.210   4.488   3.386
 7889TIP3    H223611   8.147   4.554   3.266
 7890TIP3   OH223612   7.585   4.229   3.312
 7890TIP3    H123613   7.561   4.299   3.252
 7890TIP3    H223614   7.538   4.152   3.280
 7891TIP3   OH223615   8.246   4.349   2.944
 7891TIP3    H123616   8.302   4.323   3.018
 7891TIP3    H223617   8.246   4.444   2.946
 7892TIP3   OH223618   7.243   4.444   3.432
 7892TIP3    H123619   7.323   4.420   3.478
 7892TIP3    H223620   7.241   4.387   3.355
 7893TIP3   OH223621   7.637   4.642   3.256
 7893TIP3    H123622   7.729   4.621   3.271
 7893TIP3    H223623   7.599   4.561   3.222
 7894TIP3   OH223624   7.582   4.242   3.772
 7894TIP3    H123625   7.531   4.277   3.699
 7894TIP3    H223626   7.528   4.258   3.849
 7895TIP3   OH223627   7.915   5.083   2.764
 7895TIP3    H123628   7.879   5.054   2.680
 7895TIP3    H223629   7.868   5.164   2.784
 7896TIP3   OH223630   7.681   5.020   3.507
 7896TIP3    H123631   7.628   5.091   3.542
 7896TIP3    H223632   7.747   5.064   3.453
 7897TIP3   OH223633   7.478   4.339   3.537
 7897TIP3    H123634   7.534   4.414   3.558
 7897TIP3    H223635   7.521   4.296   3.464
 7898TIP3   OH223636   7.505   5.215   3.606
 7898TIP3    H123637   7.511   5.310   3.598
 7898TIP3    H223638   7.440   5.200   3.674
 7899TIP3   OH223639   6.921   4.882   2.947
 7899TIP3    H123640   6.889   4.877   2.856
 7899TIP3    H223641   6.946   4.974   2.958
 7900TIP3   OH223642   7.854   3.914   3.460
 7900TIP3    H123643   7.867   3.830   3.505
 7900TIP3    H223644   7.792   3.962   3.516
 7901TIP3   OH223645   8.055   5.452   2.817
 7901TIP3    H123646   8.099   5.368   2.809
 7901TIP3    H223647   8.111   5.515   2.772
 7902TIP3   OH223648   8.163   5.201   2.760
 7902TIP3    H123649   8.081   5.152   2.765
 7902TIP3    H223650   8.211   5.177   2.839
 7903TIP3   OH223651   0.175   5.296   3.444
 7903TIP3    H123652   0.110   5.233   3.413
 7903TIP3    H223653   0.125   5.359   3.496
 7904TIP3   OH223654   7.851   4.727   2.726
 7904TIP3    H123655   7.766   4.772   2.725
 7904TIP3    H223656   7.880   4.728   2.635
 7905TIP3   OH223657   7.825   4.496   2.427
 7905TIP3    H123658   7.900   4.536   2.471
 7905TIP3    H223659   7.862   4.420   2.382
 7906TIP3   OH223660   8.243   4.856   2.674
 7906TIP3    H123661   8.175   4.863   2.741
 7906TIP3    H223662   8.244   4.764   2.650
 7907TIP3   OH223663   8.351   4.808   3.698
 7907TIP3    H123664   8.423   4.865   3.670
 7907TIP3    H223665   8.277   4.834   3.643
 7908TIP3   OH223666   7.462   4.784   3.098
 7908TIP3    H123667   7.420   4.725   3.035
 7908TIP3    H223668   7.528   4.730   3.142
 7909TIP3   OH223669   7.629   5.116   3.209
 7909TIP3    H123670   7.621   5.028   3.248
 7909TIP3    H223671   7.720   5.141   3.226
 7910TIP3   OH223672   7.557   4.775   3.484
 7910TIP3    H123673   7.593   4.734   3.406
 7910TIP3    H223674   7.608   4.854   3.496
 7911TIP3   OH223675   7.704   5.283   3.810
 7911TIP3    H123676   7.644   5.345   3.851
 7911TIP3    H223677   7.651   5.239   3.744
 7912TIP3   OH223678   8.063   4.618   2.510
 7912TIP3    H123679   8.038   4.708   2.493
 7912TIP3    H223680   8.122   4.595   2.437
 7913TIP3   OH223681   7.486   4.855   3.939
 7913TIP3    H123682   7.490   4.948   3.962
 7913TIP3    H223683   7.392   4.836   3.937
 7914TIP3   OH223684   7.804   5.332   2.798
 7914TIP3    H123685   7.882   5.384   2.819
 7914TIP3    H223686   7.750   5.391   2.745
 7915TIP3   OH223687   7.513   5.465   3.883
 7915TIP3    H123688   7.494   5.486   3.792
 7915TIP3    H223689   7.427   5.458   3.925
 7916TIP3   OH223690   7.335   4.620   2.909
 7916TIP3    H123691   7.259   4.667   2.874
 7916TIP3    H223692   7.304   4.531   2.923
 7917TIP3   OH223693   8.498   5.297   2.026
 7917TIP3    H123694   8.429   5.358   2.001
 7917TIP3    H223695   8.493   5.228   1.961
 7918TIP3   OH223696   7.121   5.021   3.834
 7918TIP3    H123697   7.051   5.003   3.772
 7918TIP3    H223698   7.153   4.934   3.860
 7919TIP3   OH223699   6.966   5.239   3.500
 7919TIP3    H123700   7.047   5.269   3.541
 7919TIP3    H223701   6.904   5.311   3.515
 7920TIP3   OH223702   7.909   5.432   3.691
 7920TIP3    H123703   7.900   5.527   3.700
 7920TIP3    H223704   7.831   5.397   3.734
 7921TIP3   OH223705   7.705   5.541   2.628
 7921TIP3    H123706   7.667   5.526   2.542
 7921TIP3    H223707   7.670   5.626   2.655
 7922TIP3   OH223708   7.099   5.395   2.994
 7922TIP3    H123709   7.055   5.385   3.079
 7922TIP3    H223710   7.077   5.316   2.945
 7923TIP3   OH223711   7.883   5.510   2.231
 7923TIP3    H123712   7.931   5.442   2.185
 7923TIP3    H223713   7.927   5.519   2.315
 7924TIP3   OH223714   7.955   5.532   2.497
 7924TIP3    H123715   7.886   5.516   2.561
 7924TIP3    H223716   8.022   5.467   2.517
 7925TIP3   OH223717   7.319   5.207   3.805
 7925TIP3    H123718   7.371   5.196   3.884
 7925TIP3    H223719   7.248   5.143   3.814
 7926TIP3   OH223720   7.666   4.021   3.630
 7926TIP3    H123721   7.581   3.991   3.599
 7926TIP3    H223722   7.646   4.102   3.679
 7927TIP3   OH223723   8.158   4.220   3.914
 7927TIP3    H123724   8.196   4.212   4.001
 7927TIP3    H223725   8.073   4.177   3.921
 7928TIP3   OH223726   8.524   4.673   3.867
 7928TIP3    H123727   8.464   4.600   3.881
 7928TIP3    H223728   8.480   4.730   3.803
 7929TIP3   OH223729   8.204   4.662   2.274
 7929TIP3    H123730   8.144   4.726   2.236
 7929TIP3    H223731   8.271   4.715   2.319
 7930TIP3   OH223732   7.816   4.051   2.593
 7930TIP3    H123733   7.784   4.058   2.683
 7930TIP3    H223734   7.780   3.968   2.562
 7931TIP3   OH223735   7.627   4.550   3.631
 7931TIP3    H123736   7.583   4.557   3.715
 7931TIP3    H223737   7.609   4.634   3.588
 7932TIP3   OH223738   7.499   4.430   3.146
 7932TIP3    H123739   7.411   4.401   3.170
 7932TIP3    H223740   7.512   4.398   3.057
 7933TIP3   OH223741   7.955   4.516   2.871
 7933TIP3    H123742   7.914   4.589   2.824
 7933TIP3    H223743   8.017   4.479   2.809
 7934TIP3   OH223744   8.147   4.785   3.961
 7934TIP3    H123745   8.131   4.713   4.021
 7934TIP3    H223746   8.239   4.807   3.974
 7935TIP3   OH223747   8.068   4.486   3.120
 7935TIP3    H123748   8.027   4.523   3.042
 7935TIP3    H223749   8.101   4.401   3.092
 7936TIP3   OH223750   7.470   4.566   3.855
 7936TIP3    H123751   7.487   4.631   3.923
 7936TIP3    H223752   7.452   4.485   3.903
 7937TIP3   OH223753   7.498   4.024   2.562
 7937TIP3    H123754   7.489   4.033   2.657
 7937TIP3    H223755   7.423   4.072   2.526
 7938TIP3   OH223756   7.064   4.081   3.418
 7938TIP3    H123757   7.135   4.118   3.470
 7938TIP3    H223758   7.104   4.061   3.333
 7939TIP3   OH223759   6.972   4.060   2.925
 7939TIP3    H123760   7.017   4.096   2.849
 7939TIP3    H223761   6.907   4.127   2.948
 7940TIP3   OH223762   8.137   4.773   3.514
 7940TIP3    H123763   8.180   4.708   3.459
 7940TIP3    H223764   8.107   4.724   3.591
 7941TIP3   OH223765   7.833   4.297   3.211
 7941TIP3    H123766   7.757   4.269   3.262
 7941TIP3    H223767   7.904   4.240   3.242
 7942TIP3   OH223768   7.271   4.292   3.206
 7942TIP3    H123769   7.184   4.298   3.167
 7942TIP3    H223770   7.299   4.202   3.188
 7943TIP3   OH223771   7.512   4.305   2.903
 7943TIP3    H123772   7.607   4.312   2.894
 7943TIP3    H223773   7.478   4.318   2.814
 7944TIP3   OH223774   8.196   4.307   3.417
 7944TIP3    H123775   8.174   4.322   3.509
 7944TIP3    H223776   8.291   4.295   3.416
 7945TIP3   OH223777   7.409   4.321   2.652
 7945TIP3    H123778   7.344   4.273   2.600
 7945TIP3    H223779   7.461   4.368   2.588
 7946TIP3   OH223780  -0.005   6.060   3.663
 7946TIP3    H123781   0.000   6.055   3.568
 7946TIP3    H223782   0.086   6.058   3.692
 7947TIP3   OH223783   7.471   5.123   4.033
 7947TIP3    H123784   7.553   5.142   4.079
 7947TIP3    H223785   7.404   5.129   4.100
 7948TIP3   OH223786   7.893   4.575   3.321
 7948TIP3    H123787   7.929   4.512   3.259
 7948TIP3    H223788   7.900   4.533   3.406
 7949TIP3   OH223789   7.415   4.045   3.188
 7949TIP3    H123790   7.389   3.970   3.241
 7949TIP3    H223791   7.442   4.008   3.104
 7950TIP3   OH223792   7.890   4.491   3.585
 7950TIP3    H123793   7.800   4.519   3.603
 7950TIP3    H223794   7.944   4.550   3.637
 7951TIP3   OH223795   7.608   4.865   2.694
 7951TIP3    H123796   7.540   4.801   2.671
 7951TIP3    H223797   7.576   4.905   2.775
 7952TIP3   OH223798   0.030   5.066   3.378
 7952TIP3    H123799   0.033   5.009   3.301
 7952TIP3    H223800  -0.058   5.104   3.377
 7953TIP3   OH223801   8.060   4.166   2.574
 7953TIP3    H123802   7.966   4.146   2.579
 7953TIP3    H223803   8.065   4.258   2.600
 7954TIP3   OH223804   8.067   5.210   3.725
 7954TIP3    H123805   8.053   5.199   3.819
 7954TIP3    H223806   8.021   5.292   3.704
 7955TIP3   OH223807   8.115   4.413   2.672
 7955TIP3    H123808   8.209   4.420   2.689
 7955TIP3    H223809   8.096   4.486   2.614
 7956TIP3   OH223810   7.357   4.900   3.327
 7956TIP3    H123811   7.382   4.862   3.242
 7956TIP3    H223812   7.407   4.849   3.391
 7957TIP3   OH223813   7.770   5.013   2.532
 7957TIP3    H123814   7.724   5.097   2.528
 7957TIP3    H223815   7.711   4.957   2.583
 7958TIP3   OH223816   7.212   4.789   3.967
 7958TIP3    H123817   7.215   4.762   4.059
 7958TIP3    H223818   7.137   4.742   3.930
 7959TIP3   OH223819   7.923   4.936   3.991
 7959TIP3    H123820   7.858   4.871   3.961
 7959TIP3    H223821   8.007   4.898   3.967
 7960TIP3   OH223822   8.205   5.453   3.572
 7960TIP3    H123823   8.134   5.478   3.513
 7960TIP3    H223824   8.180   5.489   3.657
 7961TIP3   OH223825   8.399   5.272   2.423
 7961TIP3    H123826   8.436   5.301   2.506
 7961TIP3    H223827   8.446   5.191   2.403
 7962TIP3   OH223828   8.262   5.017   3.254
 7962TIP3    H123829   8.190   5.033   3.316
 7962TIP3    H223830   8.246   4.928   3.223
 7963TIP3   OH223831   7.413   5.227   3.015
 7963TIP3    H123832   7.387   5.297   2.956
 7963TIP3    H223833   7.428   5.152   2.958
 7964TIP3   OH223834   7.005   4.491   2.711
 7964TIP3    H123835   7.049   4.574   2.730
 7964TIP3    H223836   6.922   4.497   2.757
 7965TIP3   OH223837   7.536   4.989   2.928
 7965TIP3    H123838   7.614   5.024   2.971
 7965TIP3    H223839   7.505   4.920   2.988
 7966TIP3   OH223840   7.736   5.503   3.447
 7966TIP3    H123841   7.746   5.574   3.384
 7966TIP3    H223842   7.825   5.478   3.470
 7967TIP3   OH223843   7.339   5.437   2.857
 7967TIP3    H123844   7.253   5.447   2.899
 7967TIP3    H223845   7.377   5.524   2.860
 7968TIP3   OH223846   8.109   5.128   3.463
 7968TIP3    H123847   8.089   5.148   3.554
 7968TIP3    H223848   8.188   5.180   3.444
 7969TIP3   OH223849   8.017   5.135   2.287
 7969TIP3    H123850   8.080   5.129   2.358
 7969TIP3    H223851   7.940   5.088   2.319
 7970TIP3   OH223852   8.273   5.725   3.464
 7970TIP3    H123853   8.203   5.663   3.444
 7970TIP3    H223854   8.273   5.785   3.389
 7971TIP3   OH223855   7.419   4.314   3.979
 7971TIP3    H123856   7.323   4.323   3.981
 7971TIP3    H223857   7.440   4.261   4.055
 7972TIP3   OH223858   8.193   5.052   2.486
 7972TIP3    H123859   8.215   4.983   2.549
 7972TIP3    H223860   8.225   5.133   2.527
 7973TIP3   OH223861   7.172   5.385   3.632
 7973TIP3    H123862   7.222   5.329   3.691
 7973TIP3    H223863   7.184   5.473   3.667
 7974TIP3   OH223864   7.429   5.035   2.309
 7974TIP3    H123865   7.446   4.945   2.281
 7974TIP3    H223866   7.411   5.028   2.403
 7975TIP3   OH223867   7.370   5.049   2.578
 7975TIP3    H123868   7.446   5.026   2.632
 7975TIP3    H223869   7.362   5.144   2.587
 7976TIP3   OH223870   7.117   4.738   2.795
 7976TIP3    H123871   7.051   4.776   2.852
 7976TIP3    H223872   7.117   4.794   2.717
 7977TIP3   OH223873   8.178   4.376   3.682
 7977TIP3    H123874   8.256   4.430   3.690
 7977TIP3    H223875   8.165   4.339   3.769
 7978TIP3   OH223876   8.105   4.126   2.856
 7978TIP3    H123877   8.098   4.125   2.761
 7978TIP3    H223878   8.151   4.208   2.876
 7979TIP3   OH223879   7.631   5.242   2.531
 7979TIP3    H123880   7.546   5.268   2.568
 7979TIP3    H223881   7.655   5.314   2.474
 7980TIP3   OH223882   7.787   4.315   2.942
 7980TIP3    H123883   7.844   4.385   2.911
 7980TIP3    H223884   7.801   4.312   3.037
 7981TIP3   OH223885   8.069   4.639   3.740
 7981TIP3    H123886   8.092   4.698   3.812
 7981TIP3    H223887   8.116   4.558   3.759
 7982TIP3   OH223888   7.951   4.009   3.044
 7982TIP3    H123889   7.970   4.064   3.120
 7982TIP3    H223890   8.003   4.046   2.973
 7983TIP3   OH223891   7.381   5.323   2.609
 7983TIP3    H123892   7.363   5.392   2.545
 7983TIP3    H223893   7.363   5.365   2.693
 7984TIP3   OH223894   7.473   4.029   2.842
 7984TIP3    H123895   7.455   4.119   2.870
 7984TIP3    H223896   7.568   4.020   2.851
 7985TIP3   OH223897   8.286   4.763   3.158
 7985TIP3    H123898   8.248   4.711   3.088
 7985TIP3    H223899   8.275   4.710   3.237
 7986TIP3   OH223900   7.127   4.905   2.564
 7986TIP3    H123901   7.196   4.970   2.572
 7986TIP3    H223902   7.161   4.842   2.501
 7987TIP3   OH223903   7.039   4.213   2.706
 7987TIP3    H123904   7.048   4.307   2.720
 7987TIP3    H223905   6.983   4.205   2.629
 7988TIP3   OH223906   8.346   5.688   3.033
 7988TIP3    H123907   8.298   5.730   2.962
 7988TIP3    H223908   8.438   5.707   3.015
 7989TIP3   OH223909   7.416   3.924   3.581
 7989TIP3    H123910   7.394   3.889   3.494
 7989TIP3    H223911   7.408   3.849   3.639
 7990TIP3   OH223912   6.951   5.163   2.937
 7990TIP3    H123913   6.873   5.179   2.990
 7990TIP3    H223914   6.928   5.196   2.850
 7991TIP3   OH223915   7.172   5.723   4.040
 7991TIP3    H123916   7.252   5.735   4.091
 7991TIP3    H223917   7.168   5.629   4.024
 7992TIP3   OH223918   7.626   5.623   4.079
 7992TIP3    H123919   7.716   5.593   4.090
 7992TIP3    H223920   7.592   5.571   4.006
 7993TIP3   OH223921   7.584   5.237   2.208
 7993TIP3    H123922   7.533   5.168   2.252
 7993TIP3    H223923   7.651   5.189   2.160
 7994TIP3   OH223924   8.192   5.555   3.826
 7994TIP3    H123925   8.201   5.486   3.892
 7994TIP3    H223926   8.260   5.618   3.848
 7995TIP3   OH223927   7.976   5.302   2.075
 7995TIP3    H123928   8.001   5.261   2.158
 7995TIP3    H223929   8.046   5.278   2.014
 7996TIP3   OH223930   7.268   5.120   4.224
 7996TIP3    H123931   7.291   5.028   4.236
 7996TIP3    H223932   7.180   5.118   4.187
 7997TIP3   OH223933   7.263   4.719   2.418
 7997TIP3    H123934   7.311   4.697   2.498
 7997TIP3    H223935   7.332   4.737   2.353
 7998TIP3   OH223936   7.887   5.209   4.000
 7998TIP3    H123937   7.830   5.226   3.925
 7998TIP3    H223938   7.911   5.117   3.992
 7999TIP3   OH223939   7.779   4.947   2.262
 7999TIP3    H123940   7.773   4.956   2.357
 7999TIP3    H223941   7.771   4.853   2.246
 8000TIP3   OH223942   8.347   5.208   3.717
 8000TIP3    H123943   8.367   5.230   3.625
 8000TIP3    H223944   8.252   5.219   3.724
 8001TIP3   OH223945   7.387   4.868   4.234
 8001TIP3    H123946   7.464   4.841   4.185
 8001TIP3    H223947   7.419   4.884   4.323
 8002TIP3   OH223948   7.429   4.665   2.640
 8002TIP3    H123949   7.402   4.630   2.725
 8002TIP3    H223950   7.472   4.591   2.597
 8003TIP3   OH223951   7.740   4.747   3.885
 8003TIP3    H123952   7.654   4.789   3.896
 8003TIP3    H223953   7.771   4.778   3.800
 8004TIP3   OH223954   7.554   4.477   2.481
 8004TIP3    H123955   7.520   4.486   2.392
 8004TIP3    H223956   7.649   4.481   2.471
 8005TIP3   OH223957   8.221   5.110   4.018
 8005TIP3    H123958   8.299   5.076   3.974
 8005TIP3    H223959   8.215   5.061   4.100
 8006TIP3   OH223960   7.833   4.517   4.004
 8006TIP3    H123961   7.839   4.446   3.941
 8006TIP3    H223962   7.806   4.593   3.952
 8007TIP3   OH223963   7.843   4.316   3.804
 8007TIP3    H123964   7.875   4.355   3.723
 8007TIP3    H223965   7.751   4.297   3.787
 8008TIP3   OH223966   7.843   4.851   3.656
 8008TIP3    H123967   7.934   4.865   3.631
 8008TIP3    H223968   7.794   4.917   3.606
 8009TIP3   OH223969   8.407   4.825   4.063
 8009TIP3    H123970   8.458   4.750   4.031
 8009TIP3    H223971   8.437   4.899   4.010
 8010TIP3   OH223972   8.459   5.021   3.878
 8010TIP3    H123973   8.415   5.083   3.821
 8010TIP3    H223974   8.525   4.979   3.822
 8011TIP3   OH223975   7.709   4.605   4.237
 8011TIP3    H123976   7.647   4.536   4.261
 8011TIP3    H223977   7.742   4.579   4.151
 8012TIP3   OH223978   7.924   4.065   3.894
 8012TIP3    H123979   7.880   4.145   3.868
 8012TIP3    H223980   7.857   3.997   3.885
 8013TIP3   OH223981   8.094   4.556   4.097
 8013TIP3    H123982   8.107   4.536   4.190
 8013TIP3    H223983   8.003   4.534   4.080
 8014TIP3   OH223984   8.293   4.512   3.909
 8014TIP3    H123985   8.218   4.529   3.965
 8014TIP3    H223986   8.353   4.462   3.964
 8015TIP3   OH223987   8.441   4.420   4.112
 8015TIP3    H123988   8.508   4.362   4.148
 8015TIP3    H223989   8.407   4.466   4.189
 8016TIP3   OH223990   7.562   4.376   4.307
 8016TIP3    H123991   7.568   4.288   4.271
 8016TIP3    H223992   7.599   4.369   4.395
 8017TIP3   OH223993   8.012   4.045   4.162
 8017TIP3    H123994   8.077   3.975   4.168
 8017TIP3    H223995   7.979   4.040   4.072
 8018TIP3   OH223996   8.097   4.256   4.330
 8018TIP3    H123997   8.084   4.191   4.261
 8018TIP3    H223998   8.026   4.319   4.317
 8019TIP3   OH223999   7.387   5.529   2.421
 8019TIP3    H124000   7.478   5.510   2.398
 8019TIP3    H224001   7.351   5.572   2.344
 8020TIP3   OH224002   6.873   4.868   2.687
 8020TIP3    H124003   6.934   4.883   2.614
 8020TIP3    H224004   6.786   4.869   2.646
 8021TIP3   OH224005   6.753   5.487   3.053
 8021TIP3    H124006   6.700   5.422   3.007
 8021TIP3    H224007   6.810   5.435   3.110
 8022TIP3   OH224008   6.938   5.356   3.221
 8022TIP3    H124009   6.926   5.279   3.278
 8022TIP3    H224010   6.988   5.417   3.274
 8023TIP3   OH224011   0.304   5.798   3.329
 8023TIP3    H124012   0.285   5.710   3.297
 8023TIP3    H224013   0.274   5.798   3.420
 8024TIP3   OH224014   0.119   5.554   3.838
 8024TIP3    H124015   0.063   5.479   3.860
 8024TIP3    H224016   0.205   5.531   3.872
 8025TIP3   OH224017   8.443   5.591   3.270
 8025TIP3    H124018   8.394   5.620   3.347
 8025TIP3    H224019   8.393   5.625   3.196
 8026TIP3   OH224020   0.038   4.627   2.875
 8026TIP3    H124021   0.129   4.602   2.892
 8026TIP3    H224022   0.044   4.716   2.840
 8027TIP3   OH224023   7.082   4.769   3.596
 8027TIP3    H124024   7.075   4.734   3.508
 8027TIP3    H224025   7.175   4.761   3.618
 8028TIP3   OH224026   7.300   4.439   4.249
 8028TIP3    H124027   7.394   4.434   4.267
 8028TIP3    H224028   7.265   4.357   4.284
 8029TIP3   OH224029   7.268   4.156   3.591
 8029TIP3    H124030   7.316   4.074   3.598
 8029TIP3    H224031   7.336   4.222   3.578
 8030TIP3   OH224032   7.070   4.425   3.654
 8030TIP3    H124033   7.118   4.415   3.571
 8030TIP3    H224034   7.113   4.497   3.699
 8031TIP3   OH224035   7.048   3.929   3.153
 8031TIP3    H124036   6.963   3.914   3.194
 8031TIP3    H224037   7.029   3.983   3.076
 8032TIP3   OH224038   8.229   5.626   2.689
 8032TIP3    H124039   8.262   5.638   2.600
 8032TIP3    H224040   8.245   5.710   2.732
 8033TIP3   OH224041   7.264   3.983   3.984
 8033TIP3    H124042   7.211   3.976   4.064
 8033TIP3    H224043   7.208   4.031   3.923
 8034TIP3   OH224044   7.284   5.449   4.043
 8034TIP3    H124045   7.193   5.419   4.044
 8034TIP3    H224046   7.314   5.434   4.133
 8035TIP3   OH224047   7.514   5.488   3.601
 8035TIP3    H124048   7.467   5.565   3.569
 8035TIP3    H224049   7.598   5.491   3.557
 8036TIP3   OH224050   7.891   5.711   3.749
 8036TIP3    H124051   7.932   5.706   3.835
 8036TIP3    H224052   7.953   5.758   3.694
 8037TIP3   OH224053   8.082   5.866   3.620
 8037TIP3    H124054   8.146   5.814   3.572
 8037TIP3    H224055   8.134   5.924   3.675
 8038TIP3   OH224056   7.161   5.725   3.644
 8038TIP3    H124057   7.069   5.739   3.623
 8038TIP3    H224058   7.181   5.793   3.709
 8039TIP3   OH224059   7.392   5.708   3.495
 8039TIP3    H124060   7.309   5.718   3.542
 8039TIP3    H224061   7.374   5.742   3.408
 8040TIP3   OH224062   7.782   5.742   3.269
 8040TIP3    H124063   7.860   5.686   3.264
 8040TIP3    H224064   7.811   5.818   3.319
 8041TIP3   OH224065   8.290   5.871   3.239
 8041TIP3    H124066   8.275   5.955   3.195
 8041TIP3    H224067   8.277   5.805   3.172
 8042TIP3   OH224068   7.109   5.515   3.370
 8042TIP3    H124069   7.076   5.493   3.457
 8042TIP3    H224070   7.204   5.500   3.377
 8043TIP3   OH224071   8.044   4.132   3.273
 8043TIP3    H124072   8.047   4.062   3.338
 8043TIP3    H224073   8.096   4.203   3.310
 8044TIP3   OH224074   7.349   3.819   3.334
 8044TIP3    H124075   7.260   3.784   3.343
 8044TIP3    H224076   7.404   3.742   3.326
 8045TIP3   OH224077   7.174   3.731   2.993
 8045TIP3    H124078   7.196   3.778   2.912
 8045TIP3    H224079   7.136   3.798   3.050
 8046TIP3   OH224080   7.770   3.866   3.204
 8046TIP3    H124081   7.829   3.915   3.148
 8046TIP3    H224082   7.797   3.888   3.294
 8047TIP3   OH224083   0.057   3.962   3.193
 8047TIP3    H124084  -0.006   4.022   3.154
 8047TIP3    H224085   0.005   3.906   3.250
 8048TIP3   OH224086   6.873   5.306   2.715
 8048TIP3    H124087   6.785   5.282   2.685
 8048TIP3    H224088   6.877   5.401   2.702
 8049TIP3   OH224089   7.272   3.855   2.750
 8049TIP3    H124090   7.321   3.795   2.694
 8049TIP3    H224091   7.339   3.913   2.787
 8050TIP3   OH224092   7.745   4.058   2.861
 8050TIP3    H124093   7.803   4.010   2.919
 8050TIP3    H224094   7.759   4.150   2.883
 8051TIP3   OH224095   7.644   5.459   2.355
 8051TIP3    H124096   7.723   5.494   2.313
 8051TIP3    H224097   7.616   5.388   2.297
 8052TIP3   OH224098   8.370   5.615   2.442
 8052TIP3    H124099   8.416   5.535   2.419
 8052TIP3    H224100   8.307   5.628   2.370
 8053TIP3   OH224101   7.574   4.106   4.221
 8053TIP3    H124102   7.539   4.041   4.282
 8053TIP3    H224103   7.666   4.115   4.246
 8054TIP3   OH224104   7.816   4.112   4.349
 8054TIP3    H124105   7.891   4.089   4.294
 8054TIP3    H224106   7.813   4.043   4.416
 8055TIP3   OH224107   6.953   5.295   2.401
 8055TIP3    H124108   6.943   5.290   2.497
 8055TIP3    H224109   7.035   5.249   2.383
 8056TIP3   OH224110   8.466   5.778   3.650
 8056TIP3    H124111   8.401   5.754   3.585
 8056TIP3    H224112   8.467   5.874   3.649
 8057TIP3   OH224113   0.533   5.678   4.646
 8057TIP3    H124114   0.494   5.763   4.626
 8057TIP3    H224115   0.478   5.615   4.600
 8058TIP3   OH224116   0.562   5.695   4.941
 8058TIP3    H124117   0.505   5.647   5.002
 8058TIP3    H224118   0.528   5.672   4.854
 8059TIP3   OH224119   0.767   5.959   4.660
 8059TIP3    H124120   0.779   5.887   4.722
 8059TIP3    H224121   0.794   6.037   4.709
 8060TIP3   OH224122   0.445   6.442   4.685
 8060TIP3    H124123   0.488   6.367   4.643
 8060TIP3    H224124   0.357   6.410   4.705
 8061TIP3   OH224125   0.325   5.782   5.115
 8061TIP3    H124126   0.306   5.775   5.021
 8061TIP3    H224127   0.316   5.875   5.135
 8062TIP3   OH224128   1.348   5.184   5.017
 8062TIP3    H124129   1.364   5.270   5.057
 8062TIP3    H224130   1.374   5.195   4.926
 8063TIP3   OH224131   0.774   5.374   5.060
 8063TIP3    H124132   0.811   5.286   5.064
 8063TIP3    H224133   0.685   5.361   5.025
 8064TIP3   OH224134   0.782   5.094   4.625
 8064TIP3    H124135   0.844   5.093   4.698
 8064TIP3    H224136   0.832   5.132   4.552
 8065TIP3   OH224137   1.404   5.406   5.183
 8065TIP3    H124138   1.315   5.441   5.177
 8065TIP3    H224139   1.437   5.440   5.266
 8066TIP3   OH224140   0.367   5.861   4.501
 8066TIP3    H124141   0.311   5.856   4.423
 8066TIP3    H224142   0.443   5.911   4.472
 8067TIP3   OH224143   0.937   5.140   4.843
 8067TIP3    H124144   0.903   5.112   4.928
 8067TIP3    H224145   0.996   5.212   4.862
 8068TIP3   OH224146   0.814   6.201   4.803
 8068TIP3    H124147   0.726   6.196   4.840
 8068TIP3    H224148   0.820   6.289   4.767
 8069TIP3   OH224149   1.135   5.105   5.187
 8069TIP3    H124150   1.050   5.121   5.147
 8069TIP3    H224151   1.198   5.124   5.118
 8070TIP3   OH224152   0.437   4.775   5.187
 8070TIP3    H124153   0.430   4.686   5.224
 8070TIP3    H224154   0.419   4.833   5.262
 8071TIP3   OH224155   0.510   6.230   4.506
 8071TIP3    H124156   0.531   6.137   4.493
 8071TIP3    H224157   0.578   6.277   4.459
 8072TIP3   OH224158   0.609   5.979   4.438
 8072TIP3    H124159   0.653   5.932   4.367
 8072TIP3    H224160   0.668   5.969   4.513
 8073TIP3   OH224161   1.052   6.087   5.168
 8073TIP3    H124162   1.031   6.012   5.111
 8073TIP3    H224163   1.035   6.164   5.113
 8074TIP3   OH224164   0.384   5.537   4.465
 8074TIP3    H124165   0.301   5.581   4.483
 8074TIP3    H224166   0.386   5.524   4.371
 8075TIP3   OH224167   0.354   5.239   4.141
 8075TIP3    H124168   0.408   5.300   4.191
 8075TIP3    H224169   0.415   5.194   4.084
 8076TIP3   OH224170   1.233   5.746   5.016
 8076TIP3    H124171   1.148   5.791   5.019
 8076TIP3    H224172   1.266   5.761   4.928
 8077TIP3   OH224173   0.689   5.595   4.412
 8077TIP3    H124174   0.647   5.626   4.493
 8077TIP3    H224175   0.772   5.557   4.442
 8078TIP3   OH224176   0.958   5.627   5.345
 8078TIP3    H124177   0.950   5.707   5.397
 8078TIP3    H224178   0.873   5.617   5.302
 8079TIP3   OH224179   0.573   6.210   4.931
 8079TIP3    H124180   0.556   6.291   4.980
 8079TIP3    H224181   0.599   6.147   4.998
 8080TIP3   OH224182   0.535   5.441   4.237
 8080TIP3    H124183   0.582   5.503   4.293
 8080TIP3    H224184   0.569   5.457   4.149
 8081TIP3   OH224185   1.052   4.653   4.274
 8081TIP3    H124186   0.978   4.671   4.332
 8081TIP3    H224187   1.058   4.730   4.219
 8082TIP3   OH224188   0.855   6.053   3.827
 8082TIP3    H124189   0.862   6.145   3.805
 8082TIP3    H224190   0.939   6.015   3.798
 8083TIP3   OH224191   1.269   6.457   5.239
 8083TIP3    H124192   1.277   6.362   5.247
 8083TIP3    H224193   1.189   6.478   5.288
 8084TIP3   OH224194   0.366   6.279   3.918
 8084TIP3    H124195   0.421   6.208   3.886
 8084TIP3    H224196   0.396   6.294   4.007
 8085TIP3   OH224197   0.465   6.296   4.177
 8085TIP3    H124198   0.419   6.217   4.205
 8085TIP3    H224199   0.540   6.303   4.237
 8086TIP3   OH224200   1.169   5.567   5.515
 8086TIP3    H124201   1.097   5.580   5.453
 8086TIP3    H224202   1.190   5.474   5.508
 8087TIP3   OH224203   0.760   4.933   5.485
 8087TIP3    H124204   0.833   4.907   5.541
 8087TIP3    H224205   0.690   4.957   5.545
 8088TIP3   OH224206   0.927   5.349   5.401
 8088TIP3    H124207   0.894   5.339   5.490
 8088TIP3    H224208   0.913   5.441   5.379
 8089TIP3   OH224209   0.650   5.466   3.996
 8089TIP3    H124210   0.598   5.445   3.919
 8089TIP3    H224211   0.731   5.504   3.961
 8090TIP3   OH224212   0.341   4.867   4.222
 8090TIP3    H124213   0.333   4.864   4.317
 8090TIP3    H224214   0.297   4.787   4.192
 8091TIP3   OH224215   0.490   5.299   4.535
 8091TIP3    H124216   0.447   5.382   4.514
 8091TIP3    H224217   0.537   5.276   4.455
 8092TIP3   OH224218   0.702   5.577   5.640
 8092TIP3    H124219   0.668   5.513   5.702
 8092TIP3    H224220   0.796   5.581   5.660
 8093TIP3   OH224221   0.668   5.320   4.740
 8093TIP3    H124222   0.606   5.333   4.669
 8093TIP3    H224223   0.716   5.241   4.716
 8094TIP3   OH224224   0.715   5.559   5.250
 8094TIP3    H124225   0.736   5.504   5.175
 8094TIP3    H224226   0.652   5.507   5.301
 8095TIP3   OH224227   0.360   4.924   4.920
 8095TIP3    H124228   0.284   4.960   4.967
 8095TIP3    H224229   0.435   4.971   4.956
 8096TIP3   OH224230   0.828   5.098   5.094
 8096TIP3    H124231   0.800   5.122   5.182
 8096TIP3    H224232   0.759   5.039   5.063
 8097TIP3   OH224233   0.989   6.787   5.316
 8097TIP3    H124234   0.987   6.799   5.221
 8097TIP3    H224235   1.065   6.836   5.345
 8098TIP3   OH224236   0.520   5.332   4.965
 8098TIP3    H124237   0.562   5.328   4.879
 8098TIP3    H224238   0.440   5.281   4.954
 8099TIP3   OH224239   0.430   5.205   5.235
 8099TIP3    H124240   0.406   5.297   5.245
 8099TIP3    H224241   0.524   5.202   5.251
 8100TIP3   OH224242   1.005   5.894   4.984
 8100TIP3    H124243   1.043   5.946   4.913
 8100TIP3    H224244   0.931   5.849   4.944
 8101TIP3   OH224245   0.591   4.949   4.278
 8101TIP3    H124246   0.501   4.939   4.249
 8101TIP3    H224247   0.605   5.044   4.282
 8102TIP3   OH224248   0.491   6.044   5.359
 8102TIP3    H124249   0.521   5.954   5.353
 8102TIP3    H224250   0.396   6.038   5.354
 8103TIP3   OH224251   0.655   5.211   4.332
 8103TIP3    H124252   0.750   5.214   4.343
 8103TIP3    H224253   0.636   5.287   4.277
 8104TIP3   OH224254   0.174   5.793   4.303
 8104TIP3    H124255   0.096   5.825   4.257
 8104TIP3    H224256   0.139   5.740   4.374
 8105TIP3   OH224257   0.477   5.703   5.763
 8105TIP3    H124258   0.410   5.656   5.714
 8105TIP3    H224259   0.559   5.681   5.719
 8106TIP3   OH224260   0.656   6.252   5.282
 8106TIP3    H124261   0.587   6.189   5.299
 8106TIP3    H224262   0.673   6.294   5.366
 8107TIP3   OH224263   1.037   5.303   4.167
 8107TIP3    H124264   0.977   5.259   4.107
 8107TIP3    H224265   1.047   5.391   4.131
 8108TIP3   OH224266   1.296   6.185   5.245
 8108TIP3    H124267   1.204   6.158   5.248
 8108TIP3    H224268   1.329   6.150   5.162
 8109TIP3   OH224269   0.785   6.104   4.088
 8109TIP3    H124270   0.720   6.040   4.118
 8109TIP3    H224271   0.804   6.079   3.997
 8110TIP3   OH224272   0.811   5.756   4.851
 8110TIP3    H124273   0.724   5.737   4.886
 8110TIP3    H224274   0.843   5.671   4.820
 8111TIP3   OH224275   0.634   5.982   5.081
 8111TIP3    H124276   0.657   5.954   5.170
 8111TIP3    H224277   0.632   5.902   5.030
 8112TIP3   OH224278   0.569   5.894   4.035
 8112TIP3    H124279   0.622   5.858   4.107
 8112TIP3    H224280   0.505   5.825   4.016
 8113TIP3   OH224281   0.815   6.445   5.151
 8113TIP3    H124282   0.748   6.385   5.185
 8113TIP3    H224283   0.765   6.514   5.107
 8114TIP3   OH224284   0.882   6.327   3.793
 8114TIP3    H124285   0.883   6.373   3.709
 8114TIP3    H224286   0.811   6.368   3.842
 8115TIP3   OH224287   0.724   5.812   4.245
 8115TIP3    H124288   0.704   5.733   4.295
 8115TIP3    H224289   0.815   5.800   4.218
 8116TIP3   OH224290   0.727   5.167   5.336
 8116TIP3    H124291   0.801   5.222   5.363
 8116TIP3    H224292   0.731   5.091   5.394
 8117TIP3   OH224293   0.662   4.869   4.527
 8117TIP3    H124294   0.631   4.887   4.438
 8117TIP3    H224295   0.710   4.948   4.552
 8118TIP3   OH224296   0.207   5.098   4.690
 8118TIP3    H124297   0.187   5.191   4.693
 8118TIP3    H224298   0.302   5.093   4.691
 8119TIP3   OH224299   0.592   5.405   5.446
 8119TIP3    H124300   0.646   5.450   5.511
 8119TIP3    H224301   0.619   5.314   5.452
 8120TIP3   OH224302   0.517   4.766   4.738
 8120TIP3    H124303   0.470   4.839   4.780
 8120TIP3    H224304   0.563   4.807   4.664
 8121TIP3   OH224305   1.192   5.294   5.403
 8121TIP3    H124306   1.098   5.308   5.408
 8121TIP3    H224307   1.204   5.236   5.327
 8122TIP3   OH224308   0.881   5.494   4.785
 8122TIP3    H124309   0.800   5.443   4.792
 8122TIP3    H224310   0.941   5.451   4.847
 8123TIP3   OH224311   0.850   6.469   4.741
 8123TIP3    H124312   0.808   6.505   4.663
 8123TIP3    H224313   0.943   6.487   4.729
 8124TIP3   OH224314   0.718   6.372   5.519
 8124TIP3    H124315   0.711   6.306   5.588
 8124TIP3    H224316   0.782   6.435   5.552
 8125TIP3   OH224317   0.511   6.069   3.827
 8125TIP3    H124318   0.540   6.007   3.893
 8125TIP3    H224319   0.561   6.046   3.749
 8126TIP3   OH224320   0.213   5.801   3.908
 8126TIP3    H124321   0.253   5.777   3.992
 8126TIP3    H224322   0.162   5.723   3.884
 8127TIP3   OH224323   0.832   6.036   5.329
 8127TIP3    H124324   0.907   6.060   5.275
 8127TIP3    H224325   0.768   6.105   5.313
 8128TIP3   OH224326   8.467   5.323   4.164
 8128TIP3    H124327   8.475   5.312   4.070
 8128TIP3    H224328   8.556   5.347   4.193
 8129TIP3   OH224329   0.728   5.918   5.713
 8129TIP3    H124330   0.727   5.872   5.628
 8129TIP3    H224331   0.723   5.848   5.778
 8130TIP3   OH224332   0.852   5.563   3.834
 8130TIP3    H124333   0.829   5.517   3.753
 8130TIP3    H224334   0.821   5.653   3.821
 8131TIP3   OH224335   0.327   4.998   5.387
 8131TIP3    H124336   0.358   5.056   5.318
 8131TIP3    H224337   0.304   5.057   5.459
 8132TIP3   OH224338   0.968   5.559   5.738
 8132TIP3    H124339   0.991   5.469   5.761
 8132TIP3    H224340   1.041   5.589   5.682
 8133TIP3   OH224341   0.958   5.861   5.495
 8133TIP3    H124342   0.900   5.921   5.448
 8133TIP3    H224343   1.045   5.880   5.460
 8134TIP3   OH224344   0.489   4.836   5.564
 8134TIP3    H124345   0.445   4.909   5.521
 8134TIP3    H224346   0.427   4.764   5.559
 8135TIP3   OH224347   0.615   5.373   5.798
 8135TIP3    H124348   0.652   5.367   5.886
 8135TIP3    H224349   0.531   5.327   5.804
 8136TIP3   OH224350   0.832   5.296   5.644
 8136TIP3    H124351   0.752   5.304   5.696
 8136TIP3    H224352   0.899   5.271   5.708
 8137TIP3   OH224353   1.045   5.271   5.822
 8137TIP3    H124354   1.061   5.176   5.827
 8137TIP3    H224355   1.036   5.298   5.913
 8138TIP3   OH224356   0.659   4.912   5.762
 8138TIP3    H124357   0.703   4.828   5.776
 8138TIP3    H224358   0.590   4.891   5.698
 8139TIP3   OH224359   0.628   5.066   5.981
 8139TIP3    H124360   0.664   5.023   5.903
 8139TIP3    H224361   0.543   5.023   5.995
 8140TIP3   OH224362   1.119   6.539   4.737
 8140TIP3    H124363   1.131   6.536   4.832
 8140TIP3    H224364   1.126   6.632   4.716
 8141TIP3   OH224365   1.127   6.535   5.012
 8141TIP3    H124366   1.076   6.454   5.008
 8141TIP3    H224367   1.190   6.520   5.082
 8142TIP3   OH224368   1.193   6.261   5.573
 8142TIP3    H124369   1.117   6.258   5.631
 8142TIP3    H224370   1.234   6.346   5.592
 8143TIP3   OH224371   0.988   5.759   4.187
 8143TIP3    H124372   1.046   5.824   4.149
 8143TIP3    H224373   1.038   5.720   4.259
 8144TIP3   OH224374   1.117   5.620   4.385
 8144TIP3    H124375   1.048   5.577   4.435
 8144TIP3    H224376   1.180   5.649   4.452
 8145TIP3   OH224377   1.174   6.034   4.818
 8145TIP3    H124378   1.225   5.967   4.773
 8145TIP3    H224379   1.176   6.110   4.760
 8146TIP3   OH224380   0.986   6.297   5.002
 8146TIP3    H124381   0.917   6.344   5.051
 8146TIP3    H224382   0.939   6.254   4.930
 8147TIP3   OH224383   1.041   5.540   4.028
 8147TIP3    H124384   0.978   5.538   3.956
 8147TIP3    H224385   1.014   5.614   4.082
 8148TIP3   OH224386   0.877   5.197   3.978
 8148TIP3    H124387   0.831   5.229   3.901
 8148TIP3    H224388   0.874   5.102   3.969
 8149TIP3   OH224389   0.919   5.474   4.513
 8149TIP3    H124390   0.928   5.380   4.499
 8149TIP3    H224391   0.911   5.483   4.608
 8150TIP3   OH224392   1.204   5.902   5.377
 8150TIP3    H124393   1.269   5.834   5.360
 8150TIP3    H224394   1.194   5.946   5.292
 8151TIP3   OH224395   1.377   5.686   5.374
 8151TIP3    H124396   1.305   5.648   5.425
 8151TIP3    H224397   1.451   5.629   5.392
 8152TIP3   OH224398   0.859   4.927   3.951
 8152TIP3    H124399   0.929   4.894   4.009
 8152TIP3    H224400   0.781   4.880   3.979
 8153TIP3   OH224401   0.931   5.199   4.407
 8153TIP3    H124402   0.978   5.116   4.419
 8153TIP3    H224403   0.971   5.238   4.329
 8154TIP3   OH224404   1.079   5.360   4.934
 8154TIP3    H124405   1.161   5.381   4.890
 8154TIP3    H224406   1.086   5.402   5.020
 8155TIP3   OH224407   1.150   5.521   5.156
 8155TIP3    H124408   1.081   5.553   5.215
 8155TIP3    H224409   1.178   5.599   5.108
 8156TIP3   OH224410   1.602   5.124   5.694
 8156TIP3    H124411   1.666   5.066   5.653
 8156TIP3    H224412   1.562   5.171   5.621
 8157TIP3   OH224413   1.038   4.945   4.468
 8157TIP3    H124414   1.076   4.935   4.555
 8157TIP3    H224415   0.985   4.866   4.455
 8158TIP3   OH224416   1.449   5.226   5.490
 8158TIP3    H124417   1.362   5.266   5.499
 8158TIP3    H224418   1.434   5.146   5.440
 8159TIP3   OH224419   1.086   4.861   4.099
 8159TIP3    H124420   1.133   4.804   4.039
 8159TIP3    H224421   1.138   4.942   4.101
 8160TIP3   OH224422   0.671   6.385   4.354
 8160TIP3    H124423   0.734   6.385   4.282
 8160TIP3    H224424   0.702   6.455   4.413
 8161TIP3   OH224425   0.587   6.600   5.275
 8161TIP3    H124426   0.596   6.530   5.339
 8161TIP3    H224427   0.624   6.677   5.319
 8162TIP3   OH224428   1.363   4.975   5.392
 8162TIP3    H124429   1.275   4.966   5.355
 8162TIP3    H224430   1.400   4.887   5.388
 8163TIP3   OH224431   0.530   6.463   5.038
 8163TIP3    H124432   0.532   6.513   5.119
 8163TIP3    H224433   0.548   6.528   4.969
 8164TIP3   OH224434   0.764   6.657   4.931
 8164TIP3    H124435   0.747   6.734   4.877
 8164TIP3    H224436   0.783   6.587   4.869
 8165TIP3   OH224437   0.618   4.929   5.031
 8165TIP3    H124438   0.559   4.867   5.075
 8165TIP3    H224439   0.675   4.875   4.978
 8166TIP3   OH224440   1.073   4.804   4.973
 8166TIP3    H124441   1.118   4.843   4.898
 8166TIP3    H224442   0.980   4.810   4.951
 8167TIP3   OH224443   1.172   4.874   4.713
 8167TIP3    H124444   1.242   4.821   4.674
 8167TIP3    H224445   1.203   4.964   4.704
 8168TIP3   OH224446   0.332   4.637   4.912
 8168TIP3    H124447   0.412   4.641   4.858
 8168TIP3    H224448   0.340   4.711   4.972
 8169TIP3   OH224449   0.802   4.781   4.892
 8169TIP3    H124450   0.779   4.754   4.803
 8169TIP3    H224451   0.793   4.702   4.944
 8170TIP3   OH224452   0.878   4.714   4.474
 8170TIP3    H124453   0.796   4.762   4.486
 8170TIP3    H224454   0.862   4.629   4.515
 8171TIP3   OH224455   0.335   4.872   4.496
 8171TIP3    H124456   0.297   4.825   4.570
 8171TIP3    H224457   0.395   4.935   4.535
 8172TIP3   OH224458   0.827   6.371   4.130
 8172TIP3    H124459   0.818   6.276   4.117
 8172TIP3    H224460   0.783   6.410   4.055
 8173TIP3   OH224461   1.117   5.004   5.827
 8173TIP3    H124462   1.131   4.969   5.915
 8173TIP3    H224463   1.202   4.996   5.784
 8174TIP3   OH224464   1.014   6.513   5.338
 8174TIP3    H124465   0.947   6.479   5.278
 8174TIP3    H224466   1.003   6.608   5.335
 8175TIP3   OH224467   2.312   5.900   4.062
 8175TIP3    H124468   2.276   5.959   4.128
 8175TIP3    H224469   2.236   5.856   4.025
 8176TIP3   OH224470   2.280   5.898   4.492
 8176TIP3    H124471   2.341   5.885   4.564
 8176TIP3    H224472   2.244   5.811   4.473
 8177TIP3   OH224473   1.595   5.763   4.829
 8177TIP3    H124474   1.629   5.709   4.901
 8177TIP3    H224475   1.673   5.784   4.777
 8178TIP3   OH224476   2.541   6.217   4.161
 8178TIP3    H124477   2.548   6.146   4.224
 8178TIP3    H224478   2.576   6.293   4.206
 8179TIP3   OH224479   1.569   6.205   4.449
 8179TIP3    H124480   1.564   6.112   4.473
 8179TIP3    H224481   1.629   6.243   4.513
 8180TIP3   OH224482   1.271   5.398   4.304
 8180TIP3    H124483   1.227   5.479   4.327
 8180TIP3    H224484   1.205   5.347   4.258
 8181TIP3   OH224485   1.345   5.688   4.529
 8181TIP3    H124486   1.392   5.611   4.560
 8181TIP3    H224487   1.404   5.728   4.464
 8182TIP3   OH224488   2.212   6.645   4.181
 8182TIP3    H124489   2.249   6.558   4.165
 8182TIP3    H224490   2.194   6.647   4.275
 8183TIP3   OH224491   2.117   6.127   4.506
 8183TIP3    H124492   2.158   6.044   4.486
 8183TIP3    H224493   2.189   6.184   4.532
 8184TIP3   OH224494   2.504   5.611   4.525
 8184TIP3    H124495   2.552   5.532   4.550
 8184TIP3    H224496   2.468   5.592   4.439
 8185TIP3   OH224497   1.864   5.267   4.481
 8185TIP3    H124498   1.844   5.340   4.423
 8185TIP3    H224499   1.810   5.194   4.448
 8186TIP3   OH224500   2.566   5.378   4.130
 8186TIP3    H124501   2.634   5.362   4.196
 8186TIP3    H224502   2.615   5.407   4.053
 8187TIP3   OH224503   1.492   5.475   4.617
 8187TIP3    H124504   1.576   5.456   4.660
 8187TIP3    H224505   1.495   5.425   4.536
 8188TIP3   OH224506   1.912   5.682   4.434
 8188TIP3    H124507   2.006   5.665   4.440
 8188TIP3    H224508   1.875   5.600   4.401
 8189TIP3   OH224509   3.203   5.639   4.704
 8189TIP3    H124510   3.124   5.681   4.671
 8189TIP3    H224511   3.234   5.697   4.774
 8190TIP3   OH224512   1.847   5.275   4.939
 8190TIP3    H124513   1.796   5.308   4.865
 8190TIP3    H224514   1.791   5.290   5.015
 8191TIP3   OH224515   2.118   6.174   3.901
 8191TIP3    H124516   2.082   6.136   3.821
 8191TIP3    H224517   2.065   6.134   3.971
 8192TIP3   OH224518   1.950   6.044   4.712
 8192TIP3    H124519   1.894   6.116   4.742
 8192TIP3    H224520   2.005   6.084   4.645
 8193TIP3   OH224521   2.745   5.359   4.337
 8193TIP3    H124522   2.714   5.370   4.427
 8193TIP3    H224523   2.841   5.359   4.344
 8194TIP3   OH224524   1.738   5.374   4.705
 8194TIP3    H124525   1.794   5.448   4.726
 8194TIP3    H224526   1.783   5.330   4.632
 8195TIP3   OH224527   1.785   6.252   4.801
 8195TIP3    H124528   1.775   6.345   4.779
 8195TIP3    H224529   1.711   6.233   4.858
 8196TIP3   OH224530   1.139   5.945   4.045
 8196TIP3    H124531   1.114   5.943   3.953
 8196TIP3    H224532   1.107   6.030   4.076
 8197TIP3   OH224533   2.594   6.462   4.296
 8197TIP3    H124534   2.506   6.457   4.332
 8197TIP3    H224535   2.599   6.548   4.255
 8198TIP3   OH224536   2.918   5.324   4.708
 8198TIP3    H124537   2.835   5.365   4.684
 8198TIP3    H224538   2.966   5.317   4.625
 8199TIP3   OH224539   2.188   4.980   4.670
 8199TIP3    H124540   2.178   4.888   4.691
 8199TIP3    H224541   2.111   5.022   4.708
 8200TIP3   OH224542   2.328   6.465   3.937
 8200TIP3    H124543   2.413   6.464   3.980
 8200TIP3    H224544   2.324   6.551   3.893
 8201TIP3   OH224545   2.435   6.196   3.910
 8201TIP3    H124546   2.482   6.140   3.847
 8201TIP3    H224547   2.487   6.190   3.990
 8202TIP3   OH224548   2.827   6.349   4.643
 8202TIP3    H124549   2.816   6.274   4.584
 8202TIP3    H224550   2.817   6.425   4.586
 8203TIP3   OH224551   2.120   5.770   3.910
 8203TIP3    H124552   2.033   5.792   3.876
 8203TIP3    H224553   2.172   5.752   3.831
 8204TIP3   OH224554   2.108   5.535   3.600
 8204TIP3    H124555   2.172   5.591   3.645
 8204TIP3    H224556   2.160   5.463   3.565
 8205TIP3   OH224557   3.017   6.009   4.523
 8205TIP3    H124558   2.932   6.052   4.517
 8205TIP3    H224559   3.053   6.015   4.434
 8206TIP3   OH224560   2.492   5.829   3.870
 8206TIP3    H124561   2.439   5.855   3.945
 8206TIP3    H224562   2.575   5.799   3.907
 8207TIP3   OH224563   2.711   5.863   4.826
 8207TIP3    H124564   2.707   5.948   4.871
 8207TIP3    H224565   2.633   5.860   4.772
 8208TIP3   OH224566   1.722   5.819   4.281
 8208TIP3    H124567   1.675   5.759   4.223
 8208TIP3    H224568   1.789   5.765   4.322
 8209TIP3   OH224569   1.874   6.241   4.419
 8209TIP3    H124570   1.839   6.154   4.400
 8209TIP3    H224571   1.964   6.226   4.447
 8210TIP3   OH224572   1.812   5.812   4.657
 8210TIP3    H124573   1.850   5.775   4.578
 8210TIP3    H224574   1.864   5.890   4.675
 8211TIP3   OH224575   2.348   6.450   4.415
 8211TIP3    H124576   2.342   6.532   4.464
 8211TIP3    H224577   2.344   6.381   4.482
 8212TIP3   OH224578   1.984   6.350   4.975
 8212TIP3    H124579   1.922   6.405   5.022
 8212TIP3    H224580   1.930   6.297   4.917
 8213TIP3   OH224581   2.303   5.709   3.710
 8213TIP3    H124582   2.373   5.751   3.760
 8213TIP3    H224583   2.328   5.723   3.618
 8214TIP3   OH224584   1.735   5.912   5.127
 8214TIP3    H124585   1.731   6.006   5.144
 8214TIP3    H224586   1.643   5.885   5.120
 8215TIP3   OH224587   1.773   6.508   5.059
 8215TIP3    H124588   1.750   6.522   4.967
 8215TIP3    H224589   1.688   6.495   5.102
 8216TIP3   OH224590   2.828   4.919   3.762
 8216TIP3    H124591   2.755   4.943   3.819
 8216TIP3    H224592   2.839   4.995   3.704
 8217TIP3   OH224593   1.572   5.664   4.107
 8217TIP3    H124594   1.499   5.707   4.062
 8217TIP3    H224595   1.549   5.571   4.107
 8218TIP3   OH224596   2.643   6.320   3.318
 8218TIP3    H124597   2.650   6.413   3.297
 8218TIP3    H224598   2.730   6.285   3.298
 8219TIP3   OH224599   1.374   6.066   5.013
 8219TIP3    H124600   1.303   6.048   4.950
 8219TIP3    H224601   1.404   5.980   5.041
 8220TIP3   OH224602   1.215   6.281   4.686
 8220TIP3    H124603   1.299   6.307   4.725
 8220TIP3    H224604   1.157   6.354   4.705
 8221TIP3   OH224605   3.059   6.691   4.718
 8221TIP3    H124606   3.062   6.597   4.734
 8221TIP3    H224607   2.980   6.720   4.764
 8222TIP3   OH224608   2.169   6.499   4.837
 8222TIP3    H124609   2.162   6.589   4.869
 8222TIP3    H224610   2.104   6.451   4.888
 8223TIP3   OH224611   1.362   6.380   4.210
 8223TIP3    H124612   1.322   6.456   4.251
 8223TIP3    H224613   1.301   6.355   4.140
 8224TIP3   OH224614   2.177   6.528   3.408
 8224TIP3    H124615   2.213   6.445   3.376
 8224TIP3    H224616   2.254   6.578   3.436
 8225TIP3   OH224617   2.946   5.837   4.991
 8225TIP3    H124618   2.869   5.844   4.936
 8225TIP3    H224619   2.969   5.744   4.987
 8226TIP3   OH224620   1.573   6.250   4.977
 8226TIP3    H124621   1.622   6.243   5.059
 8226TIP3    H224622   1.502   6.186   4.986
 8227TIP3   OH224623   1.948   5.057   4.798
 8227TIP3    H124624   1.865   5.021   4.767
 8227TIP3    H224625   1.923   5.138   4.844
 8228TIP3   OH224626   2.493   5.179   4.997
 8228TIP3    H124627   2.562   5.157   5.058
 8228TIP3    H224628   2.412   5.163   5.045
 8229TIP3   OH224629   2.711   5.591   4.901
 8229TIP3    H124630   2.679   5.591   4.992
 8229TIP3    H224631   2.705   5.682   4.874
 8230TIP3   OH224632   2.385   5.744   3.456
 8230TIP3    H124633   2.340   5.718   3.375
 8230TIP3    H224634   2.472   5.771   3.427
 8231TIP3   OH224635   2.102   5.094   3.770
 8231TIP3    H124636   2.059   5.101   3.855
 8231TIP3    H224637   2.061   5.017   3.728
 8232TIP3   OH224638   1.890   5.586   4.798
 8232TIP3    H124639   1.844   5.591   4.882
 8232TIP3    H224640   1.867   5.667   4.753
 8233TIP3   OH224641   1.768   5.472   4.324
 8233TIP3    H124642   1.680   5.443   4.348
 8233TIP3    H224643   1.779   5.442   4.234
 8234TIP3   OH224644   2.246   5.553   4.045
 8234TIP3    H124645   2.201   5.626   4.002
 8234TIP3    H224646   2.306   5.519   3.979
 8235TIP3   OH224647   2.439   5.812   5.124
 8235TIP3    H124648   2.414   5.742   5.185
 8235TIP3    H224649   2.533   5.826   5.141
 8236TIP3   OH224650   2.407   5.553   4.275
 8236TIP3    H124651   2.344   5.573   4.206
 8236TIP3    H224652   2.462   5.484   4.238
 8237TIP3   OH224653   1.719   5.595   5.017
 8237TIP3    H124654   1.778   5.645   5.072
 8237TIP3    H224655   1.701   5.515   5.067
 8238TIP3   OH224656   1.746   5.054   3.751
 8238TIP3    H124657   1.734   5.077   3.844
 8238TIP3    H224658   1.682   5.108   3.705
 8239TIP3   OH224659   1.300   5.097   4.623
 8239TIP3    H124660   1.375   5.140   4.664
 8239TIP3    H224661   1.329   5.080   4.534
 8240TIP3   OH224662   1.223   5.103   4.116
 8240TIP3    H124663   1.272   5.138   4.041
 8240TIP3    H224664   1.155   5.168   4.133
 8241TIP3   OH224665   2.456   5.814   4.697
 8241TIP3    H124666   2.482   5.748   4.633
 8241TIP3    H224667   2.416   5.764   4.768
 8242TIP3   OH224668   2.134   5.262   4.371
 8242TIP3    H124669   2.057   5.258   4.427
 8242TIP3    H224670   2.208   5.251   4.431
 8243TIP3   OH224671   1.531   5.343   4.381
 8243TIP3    H124672   1.443   5.348   4.344
 8243TIP3    H224673   1.559   5.253   4.365
 8244TIP3   OH224674   1.783   5.360   4.074
 8244TIP3    H124675   1.878   5.361   4.065
 8244TIP3    H224676   1.750   5.372   3.985
 8245TIP3   OH224677   2.593   5.355   4.590
 8245TIP3    H124678   2.558   5.370   4.677
 8245TIP3    H224679   2.534   5.290   4.552
 8246TIP3   OH224680   1.675   5.383   3.822
 8246TIP3    H124681   1.613   5.327   3.775
 8246TIP3    H224682   1.733   5.418   3.755
 8247TIP3   OH224683   2.757   7.045   4.794
 8247TIP3    H124684   2.754   7.058   4.699
 8247TIP3    H224685   2.846   7.073   4.819
 8248TIP3   OH224686   1.717   6.178   5.215
 8248TIP3    H124687   1.799   6.192   5.262
 8248TIP3    H224688   1.649   6.183   5.282
 8249TIP3   OH224689   2.185   5.628   4.476
 8249TIP3    H124690   2.250   5.583   4.423
 8249TIP3    H224691   2.186   5.582   4.560
 8250TIP3   OH224692   1.672   5.096   4.361
 8250TIP3    H124693   1.643   5.021   4.413
 8250TIP3    H224694   1.688   5.060   4.274
 8251TIP3   OH224695   2.155   5.529   4.742
 8251TIP3    H124696   2.067   5.557   4.767
 8251TIP3    H224697   2.214   5.580   4.798
 8252TIP3   OH224698   1.840   5.919   3.854
 8252TIP3    H124699   1.786   5.842   3.842
 8252TIP3    H224700   1.832   5.940   3.947
 8253TIP3   OH224701   2.782   6.147   4.461
 8253TIP3    H124702   2.825   6.193   4.388
 8253TIP3    H224703   2.708   6.102   4.421
 8254TIP3   OH224704   2.354   5.196   3.779
 8254TIP3    H124705   2.263   5.170   3.769
 8254TIP3    H224706   2.352   5.292   3.776
 8255TIP3   OH224707   2.296   6.229   4.872
 8255TIP3    H124708   2.356   6.215   4.946
 8255TIP3    H224709   2.262   6.318   4.885
 8256TIP3   OH224710   2.414   5.471   3.838
 8256TIP3    H124711   2.509   5.468   3.848
 8256TIP3    H224712   2.399   5.532   3.766
 8257TIP3   OH224713   1.603   5.938   4.499
 8257TIP3    H124714   1.637   5.895   4.421
 8257TIP3    H224715   1.646   5.893   4.572
 8258TIP3   OH224716   1.990   6.067   3.682
 8258TIP3    H124717   1.928   6.111   3.624
 8258TIP3    H224718   1.936   6.006   3.732
 8259TIP3   OH224719   1.462   5.836   5.147
 8259TIP3    H124720   1.466   5.806   5.237
 8259TIP3    H224721   1.393   5.784   5.107
 8260TIP3   OH224722   2.218   5.978   5.149
 8260TIP3    H124723   2.166   5.952   5.074
 8260TIP3    H224724   2.301   5.931   5.138
 8261TIP3   OH224725   2.440   6.517   4.762
 8261TIP3    H124726   2.345   6.506   4.767
 8261TIP3    H224727   2.464   6.553   4.848
 8262TIP3   OH224728   2.829   5.561   3.654
 8262TIP3    H124729   2.776   5.514   3.590
 8262TIP3    H224730   2.835   5.650   3.620
 8263TIP3   OH224731   3.074   6.408   4.740
 8263TIP3    H124732   2.980   6.399   4.726
 8263TIP3    H224733   3.114   6.387   4.655
 8264TIP3   OH224734   2.550   6.362   3.576
 8264TIP3    H124735   2.561   6.276   3.618
 8264TIP3    H224736   2.577   6.348   3.486
 8265TIP3   OH224737   2.554   6.009   4.351
 8265TIP3    H124738   2.470   5.984   4.389
 8265TIP3    H224739   2.591   5.927   4.317
 8266TIP3   OH224740   1.611   6.229   4.129
 8266TIP3    H124741   1.632   6.313   4.088
 8266TIP3    H224742   1.599   6.169   4.055
 8267TIP3   OH224743   1.277   5.526   3.885
 8267TIP3    H124744   1.316   5.611   3.907
 8267TIP3    H224745   1.195   5.524   3.935
 8268TIP3   OH224746   1.812   6.016   4.110
 8268TIP3    H124747   1.773   6.095   4.146
 8268TIP3    H224748   1.786   5.947   4.171
 8269TIP3   OH224749   1.992   6.567   4.626
 8269TIP3    H124750   2.028   6.639   4.575
 8269TIP3    H224751   2.065   6.537   4.681
 8270TIP3   OH224752   1.612   6.482   4.030
 8270TIP3    H124753   1.524   6.519   4.024
 8270TIP3    H224754   1.670   6.558   4.035
 8271TIP3   OH224755   2.352   6.238   4.602
 8271TIP3    H124756   2.333   6.232   4.695
 8271TIP3    H224757   2.440   6.201   4.593
 8272TIP3   OH224758   2.352   6.101   3.477
 8272TIP3    H124759   2.399   6.072   3.555
 8272TIP3    H224760   2.275   6.044   3.472
 8273TIP3   OH224761   2.594   6.726   4.641
 8273TIP3    H124762   2.523   6.664   4.656
 8273TIP3    H224763   2.562   6.781   4.569
 8274TIP3   OH224764   2.652   6.592   3.294
 8274TIP3    H124765   2.706   6.665   3.263
 8274TIP3    H224766   2.569   6.633   3.319
 8275TIP3   OH224767   1.676   5.347   5.146
 8275TIP3    H124768   1.580   5.356   5.149
 8275TIP3    H224769   1.696   5.288   5.218
 8276TIP3   OH224770   2.520   6.040   3.696
 8276TIP3    H124771   2.505   5.960   3.745
 8276TIP3    H224772   2.613   6.040   3.677
 8277TIP3   OH224773   1.427   6.425   4.804
 8277TIP3    H124774   1.480   6.368   4.860
 8277TIP3    H224775   1.430   6.510   4.847
 8278TIP3   OH224776   1.732   6.043   3.505
 8278TIP3    H124777   1.724   5.955   3.467
 8278TIP3    H224778   1.671   6.043   3.578
 8279TIP3   OH224779   1.620   6.080   3.762
 8279TIP3    H124780   1.702   6.043   3.796
 8279TIP3    H224781   1.633   6.174   3.766
 8280TIP3   OH224782   1.359   5.783   3.972
 8280TIP3    H124783   1.287   5.828   4.017
 8280TIP3    H224784   1.376   5.837   3.895
 8281TIP3   OH224785   2.505   5.414   4.849
 8281TIP3    H124786   2.588   5.457   4.872
 8281TIP3    H224787   2.504   5.335   4.902
 8282TIP3   OH224788   2.422   5.152   4.043
 8282TIP3    H124789   2.399   5.169   3.951
 8282TIP3    H224790   2.466   5.233   4.071
 8283TIP3   OH224791   2.062   5.358   4.120
 8283TIP3    H124792   2.126   5.424   4.092
 8283TIP3    H224793   2.089   5.336   4.210
 8284TIP3   OH224794   2.355   5.652   4.896
 8284TIP3    H124795   2.385   5.691   4.978
 8284TIP3    H224796   2.404   5.569   4.890
 8285TIP3   OH224797   2.227   5.049   4.209
 8285TIP3    H124798   2.204   5.127   4.259
 8285TIP3    H224799   2.299   5.077   4.152
 8286TIP3   OH224800   1.654   6.347   3.787
 8286TIP3    H124801   1.653   6.408   3.713
 8286TIP3    H224802   1.649   6.404   3.864
 8287TIP3   OH224803   1.731   5.082   4.034
 8287TIP3    H124804   1.724   5.174   4.056
 8287TIP3    H224805   1.825   5.065   4.032
 8288TIP3   OH224806   2.986   5.575   4.909
 8288TIP3    H124807   2.893   5.554   4.902
 8288TIP3    H224808   3.022   5.556   4.823
 8289TIP3   OH224809   2.637   5.754   4.272
 8289TIP3    H124810   2.570   5.687   4.287
 8289TIP3    H224811   2.712   5.725   4.324
 8290TIP3   OH224812   1.378   5.949   3.749
 8290TIP3    H124813   1.449   6.014   3.755
 8290TIP3    H224814   1.409   5.885   3.686
 8291TIP3   OH224815   1.309   5.249   3.905
 8291TIP3    H124816   1.310   5.345   3.896
 8291TIP3    H224817   1.303   5.218   3.814
 8292TIP3   OH224818   2.616   6.723   4.209
 8292TIP3    H124819   2.573   6.770   4.137
 8292TIP3    H224820   2.708   6.746   4.201
 8293TIP3   OH224821   1.687   4.965   4.760
 8293TIP3    H124822   1.658   4.934   4.674
 8293TIP3    H224823   1.671   4.891   4.818
 8294TIP3   OH224824   1.422   6.760   5.210
 8294TIP3    H124825   1.503   6.770   5.260
 8294TIP3    H224826   1.413   6.666   5.196
 8295TIP3   OH224827   1.879   6.666   5.259
 8295TIP3    H124828   1.971   6.640   5.267
 8295TIP3    H224829   1.846   6.615   5.185
 8296TIP3   OH224830   1.855   6.256   3.388
 8296TIP3    H124831   1.810   6.182   3.427
 8296TIP3    H224832   1.926   6.218   3.337
 8297TIP3   OH224833   2.494   6.610   5.015
 8297TIP3    H124834   2.508   6.540   5.079
 8297TIP3    H224835   2.570   6.668   5.026
 8298TIP3   OH224836   2.283   6.302   3.299
 8298TIP3    H124837   2.323   6.241   3.360
 8298TIP3    H224838   2.339   6.299   3.222
 8299TIP3   OH224839   1.517   6.170   5.409
 8299TIP3    H124840   1.536   6.077   5.419
 8299TIP3    H224841   1.431   6.173   5.365
 8300TIP3   OH224842   1.505   5.761   3.600
 8300TIP3    H124843   1.557   5.730   3.674
 8300TIP3    H224844   1.567   5.767   3.528
 8301TIP3   OH224845   2.136   6.246   5.183
 8301TIP3    H124846   2.095   6.267   5.099
 8301TIP3    H224847   2.178   6.161   5.169
 8302TIP3   OH224848   2.110   5.969   3.444
 8302TIP3    H124849   2.068   5.980   3.529
 8302TIP3    H224850   2.092   5.878   3.420
 8303TIP3   OH224851   2.606   6.290   4.795
 8303TIP3    H124852   2.686   6.315   4.748
 8303TIP3    H224853   2.546   6.364   4.780
 8304TIP3   OH224854   1.630   5.917   5.412
 8304TIP3    H124855   1.704   5.894   5.355
 8304TIP3    H224856   1.670   5.930   5.498
 8305TIP3   OH224857   1.690   5.693   3.807
 8305TIP3    H124858   1.661   5.636   3.878
 8305TIP3    H224859   1.742   5.636   3.750
 8306TIP3   OH224860   1.950   5.756   5.059
 8306TIP3    H124861   1.884   5.820   5.086
 8306TIP3    H224862   2.007   5.803   4.998
 8307TIP3   OH224863   1.833   5.524   3.644
 8307TIP3    H124864   1.801   5.517   3.554
 8307TIP3    H224865   1.928   5.520   3.636
 8308TIP3   OH224866   2.499   6.165   5.148
 8308TIP3    H124867   2.570   6.133   5.093
 8308TIP3    H224868   2.500   6.107   5.224
 8309TIP3   OH224869   2.621   5.824   3.334
 8309TIP3    H124870   2.606   5.776   3.253
 8309TIP3    H224871   2.602   5.915   3.312
 8310TIP3   OH224872   2.099   5.557   5.177
 8310TIP3    H124873   2.105   5.483   5.116
 8310TIP3    H224874   2.052   5.625   5.128
 8311TIP3   OH224875   2.107   5.357   4.976
 8311TIP3    H124876   2.137   5.389   4.891
 8311TIP3    H224877   2.017   5.330   4.962
 8312TIP3   OH224878   2.111   5.907   4.894
 8312TIP3    H124879   2.196   5.900   4.851
 8312TIP3    H224880   2.058   5.958   4.834
 8313TIP3   OH224881   2.708   5.846   5.218
 8313TIP3    H124882   2.738   5.755   5.217
 8313TIP3    H224883   2.787   5.897   5.199
 8314TIP3   OH224884   2.731   6.114   4.962
 8314TIP3    H124885   2.680   6.176   4.910
 8314TIP3    H224886   2.821   6.126   4.933
 8315TIP3   OH224887   1.985   5.641   5.422
 8315TIP3    H124888   1.915   5.578   5.441
 8315TIP3    H224889   2.013   5.619   5.333
 8316TIP3   OH224890   2.229   5.128   5.083
 8316TIP3    H124891   2.189   5.208   5.048
 8316TIP3    H224892   2.163   5.060   5.067
 8317TIP3   OH224893   2.357   5.598   5.277
 8317TIP3    H124894   2.346   5.585   5.371
 8317TIP3    H224895   2.271   5.579   5.240
 8318TIP3   OH224896   2.613   5.566   5.153
 8318TIP3    H124897   2.533   5.559   5.205
 8318TIP3    H224898   2.682   5.532   5.210
 8319TIP3   OH224899   2.834   5.504   5.307
 8319TIP3    H124900   2.852   5.411   5.318
 8319TIP3    H224901   2.832   5.539   5.396
 8320TIP3   OH224902   1.815   5.424   5.485
 8320TIP3    H124903   1.821   5.336   5.447
 8320TIP3    H224904   1.855   5.415   5.572
 8321TIP3   OH224905   2.300   5.101   5.347
 8321TIP3    H124906   2.369   5.035   5.340
 8321TIP3    H224907   2.269   5.113   5.257
 8322TIP3   OH224908   2.391   5.318   5.491
 8322TIP3    H124909   2.362   5.245   5.436
 8322TIP3    H224910   2.319   5.380   5.489
 8323TIP3   OH224911   1.662   6.541   3.590
 8323TIP3    H124912   1.756   6.534   3.573
 8323TIP3    H224913   1.628   6.594   3.518
 8324TIP3   OH224914   1.105   5.945   3.767
 8324TIP3    H124915   1.200   5.957   3.759
 8324TIP3    H224916   1.087   5.861   3.726
 8325TIP3   OH224917   1.023   6.532   4.237
 8325TIP3    H124918   0.962   6.474   4.191
 8325TIP3    H224919   1.060   6.477   4.306
 8326TIP3   OH224920   1.163   6.400   4.430
 8326TIP3    H124921   1.152   6.327   4.491
 8326TIP3    H224922   1.226   6.458   4.473
 8327TIP3   OH224923   2.872   6.815   4.211
 8327TIP3    H124924   2.911   6.827   4.297
 8327TIP3    H224925   2.945   6.830   4.150
 8328TIP3   OH224926   2.919   6.805   4.493
 8328TIP3    H124927   2.875   6.721   4.481
 8328TIP3    H224928   2.987   6.787   4.558
 8329TIP3   OH224929   2.958   6.506   5.065
 8329TIP3    H124930   2.893   6.517   5.134
 8329TIP3    H224931   3.009   6.587   5.067
 8330TIP3   OH224932   2.791   6.030   3.674
 8330TIP3    H124933   2.850   6.096   3.638
 8330TIP3    H224934   2.841   5.990   3.745
 8331TIP3   OH224935   2.919   5.884   3.874
 8331TIP3    H124936   2.855   5.842   3.931
 8331TIP3    H224937   2.987   5.915   3.934
 8332TIP3   OH224938   2.965   6.280   4.296
 8332TIP3    H124939   3.018   6.206   4.265
 8332TIP3    H224940   2.987   6.351   4.236
 8333TIP3   OH224941   2.770   6.569   4.490
 8333TIP3    H124942   2.703   6.616   4.540
 8333TIP3    H224943   2.723   6.529   4.417
 8334TIP3   OH224944   2.822   5.801   3.521
 8334TIP3    H124945   2.753   5.803   3.455
 8334TIP3    H224946   2.809   5.881   3.571
 8335TIP3   OH224947   2.684   5.450   3.454
 8335TIP3    H124948   2.633   5.485   3.381
 8335TIP3    H224949   2.680   5.355   3.444
 8336TIP3   OH224950   2.716   5.738   4.004
 8336TIP3    H124951   2.720   5.644   3.988
 8336TIP3    H224952   2.697   5.745   4.098
 8337TIP3   OH224953   1.336   5.814   4.771
 8337TIP3    H124954   1.325   5.773   4.685
 8337TIP3    H224955   1.429   5.805   4.791
 8338TIP3   OH224956   2.991   6.156   4.872
 8338TIP3    H124957   3.056   6.088   4.857
 8338TIP3    H224958   3.018   6.228   4.814
 8339TIP3   OH224959   3.168   5.945   4.865
 8339TIP3    H124960   3.094   5.903   4.909
 8339TIP3    H224961   3.244   5.894   4.892
 8340TIP3   OH224962   2.649   5.179   3.408
 8340TIP3    H124963   2.714   5.155   3.473
 8340TIP3    H224964   2.566   5.147   3.444
 8341TIP3   OH224965   2.698   5.470   3.889
 8341TIP3    H124966   2.742   5.387   3.905
 8341TIP3    H224967   2.742   5.506   3.812
 8342TIP3   OH224968   2.858   5.676   4.413
 8342TIP3    H124969   2.938   5.685   4.360
 8342TIP3    H224970   2.888   5.685   4.503
 8343TIP3   OH224971   2.954   5.776   4.660
 8343TIP3    H124972   2.875   5.804   4.706
 8343TIP3    H224973   2.983   5.854   4.613
 8344TIP3   OH224974   1.550   5.478   5.423
 8344TIP3    H124975   1.645   5.474   5.440
 8344TIP3    H224976   1.517   5.396   5.460
 8345TIP3   OH224977   3.389   5.369   5.185
 8345TIP3    H124978   3.455   5.316   5.139
 8345TIP3    H224979   3.351   5.424   5.117
 8346TIP3   OH224980   2.808   5.230   3.952
 8346TIP3    H124981   2.873   5.219   4.022
 8346TIP3    H224982   2.760   5.147   3.951
 8347TIP3   OH224983   1.523   5.190   4.771
 8347TIP3    H124984   1.576   5.110   4.777
 8347TIP3    H224985   1.586   5.259   4.750
 8348TIP3   OH224986   1.319   5.455   4.839
 8348TIP3    H124987   1.368   5.446   4.758
 8348TIP3    H224988   1.355   5.534   4.880
 8349TIP3   OH224989   3.240   5.499   4.998
 8349TIP3    H124990   3.156   5.542   5.012
 8349TIP3    H224991   3.219   5.423   4.944
 8350TIP3   OH224992   2.861   5.123   3.574
 8350TIP3    H124993   2.912   5.061   3.521
 8350TIP3    H224994   2.920   5.197   3.588
 8351TIP3   OH224995   1.300   4.987   4.351
 8351TIP3    H124996   1.214   4.961   4.384
 8351TIP3    H224997   1.281   5.034   4.269
 8352TIP3   OH224998   2.398   6.706   3.823
 8352TIP3    H124999   2.469   6.684   3.762
 8352TIP3    H225000   2.440   6.761   3.889
 8353TIP3   OH225001   1.528   5.034   5.167
 8353TIP3    H125002   1.471   5.015   5.242
 8353TIP3    H225003   1.470   5.077   5.104
 8354TIP3   OH225004   1.543   6.486   5.217
 8354TIP3    H125005   1.450   6.463   5.220
 8354TIP3    H225006   1.573   6.474   5.306
 8355TIP3   OH225007   1.764   6.528   4.776
 8355TIP3    H125008   1.711   6.602   4.745
 8355TIP3    H225009   1.848   6.539   4.732
 8356TIP3   OH225010   2.158   6.765   4.920
 8356TIP3    H125011   2.195   6.756   5.008
 8356TIP3    H225012   2.223   6.816   4.872
 8357TIP3   OH225013   2.354   6.913   4.793
 8357TIP3    H125014   2.423   6.862   4.749
 8357TIP3    H225015   2.401   6.976   4.847
 8358TIP3   OH225016   3.138   5.264   4.889
 8358TIP3    H125017   3.067   5.279   4.827
 8358TIP3    H225018   3.181   5.185   4.857
 8359TIP3   OH225019   1.411   6.776   4.817
 8359TIP3    H125020   1.317   6.786   4.799
 8359TIP3    H225021   1.430   6.843   4.882
 8360TIP3   OH225022   1.641   6.750   4.671
 8360TIP3    H125023   1.561   6.764   4.720
 8360TIP3    H225024   1.623   6.787   4.584
 8361TIP3   OH225025   2.069   6.776   4.457
 8361TIP3    H125026   1.991   6.789   4.402
 8361TIP3    H225027   2.080   6.859   4.503
 8362TIP3   OH225028   2.330   6.709   4.506
 8362TIP3    H125029   2.240   6.738   4.493
 8362TIP3    H225030   2.384   6.778   4.468
 8363TIP3   OH225031   2.528   6.883   4.415
 8363TIP3    H125032   2.528   6.971   4.378
 8363TIP3    H225033   2.561   6.827   4.345
 8364TIP3   OH225034   1.374   6.551   4.538
 8364TIP3    H125035   1.351   6.519   4.626
 8364TIP3    H225036   1.467   6.573   4.545
 8365TIP3   OH225037   1.811   6.518   4.418
 8365TIP3    H125038   1.828   6.425   4.401
 8365TIP3    H225039   1.864   6.538   4.495
 8366TIP3   OH225040   2.353   5.169   4.517
 8366TIP3    H125041   2.310   5.101   4.570
 8366TIP3    H225042   2.422   5.122   4.470
 8367TIP3   OH225043   2.855   5.040   4.411
 8367TIP3    H125044   2.921   5.109   4.410
 8367TIP3    H225045   2.771   5.086   4.414
 8368TIP3   OH225046   3.007   5.188   4.133
 8368TIP3    H125047   3.075   5.123   4.120
 8368TIP3    H225048   3.027   5.227   4.219
 8369TIP3   OH225049   1.598   4.872   4.514
 8369TIP3    H125050   1.508   4.840   4.518
 8369TIP3    H225051   1.651   4.793   4.503
 8370TIP3   OH225052   1.437   4.790   4.184
 8370TIP3    H125053   1.459   4.832   4.101
 8370TIP3    H225054   1.400   4.860   4.237
 8371TIP3   OH225055   2.082   4.911   4.409
 8371TIP3    H125056   2.129   4.954   4.337
 8371TIP3    H225057   2.124   4.946   4.488
 8372TIP3   OH225058   2.561   5.034   4.400
 8372TIP3    H125059   2.586   5.017   4.309
 8372TIP3    H225060   2.581   4.953   4.447
 8373TIP3   OH225061   2.643   5.000   3.952
 8373TIP3    H125062   2.564   5.048   3.976
 8373TIP3    H225063   2.633   4.915   3.994
 8374TIP3   OH225064   1.133   6.356   3.955
 8374TIP3    H125065   1.049   6.320   3.926
 8374TIP3    H225066   1.136   6.444   3.919
 8375TIP3   OH225067   1.530   4.904   3.939
 8375TIP3    H125068   1.573   4.846   3.876
 8375TIP3    H225069   1.600   4.960   3.972
 8376TIP3   OH225070   2.006   5.103   4.032
 8376TIP3    H125071   2.069   5.049   4.080
 8376TIP3    H225072   2.028   5.193   4.056
 8377TIP3   OH225073   1.922   6.491   3.521
 8377TIP3    H125074   2.009   6.514   3.489
 8377TIP3    H225075   1.900   6.410   3.474
 8378TIP3   OH225076   2.577   6.633   3.623
 8378TIP3    H125077   2.576   6.538   3.613
 8378TIP3    H225078   2.548   6.666   3.538
 8379TIP3   OH225079   1.832   5.155   5.397
 8379TIP3    H125080   1.797   5.088   5.456
 8379TIP3    H225081   1.925   5.162   5.422
 8380TIP3   OH225082   2.080   5.156   5.521
 8380TIP3    H125083   2.157   5.133   5.470
 8380TIP3    H225084   2.072   5.087   5.587
 8381TIP3   OH225085   1.200   6.343   3.581
 8381TIP3    H125086   1.205   6.355   3.675
 8381TIP3    H225087   1.279   6.294   3.559
 8382TIP3   OH225088   2.905   5.235   5.319
 8382TIP3    H125089   2.931   5.204   5.405
 8382TIP3    H225090   2.986   5.236   5.268
 8383TIP3   OH225091   2.810   6.773   4.813
 8383TIP3    H125092   2.740   6.742   4.756
 8383TIP3    H225093   2.798   6.868   4.816
 8384TIP3   OH225094   4.099   6.159   3.549
 8384TIP3    H125095   4.067   6.246   3.523
 8384TIP3    H225096   4.023   6.102   3.538
 8385TIP3   OH225097   4.093   6.160   3.968
 8385TIP3    H125098   4.141   6.142   4.049
 8385TIP3    H225099   4.046   6.079   3.950
 8386TIP3   OH225100   3.390   6.019   4.325
 8386TIP3    H125101   3.431   5.963   4.391
 8386TIP3    H225102   3.460   6.040   4.264
 8387TIP3   OH225103   4.367   6.466   3.650
 8387TIP3    H125104   4.350   6.401   3.717
 8387TIP3    H225105   4.384   6.547   3.698
 8388TIP3   OH225106   3.352   6.442   4.019
 8388TIP3    H125107   3.342   6.347   4.010
 8388TIP3    H225108   3.445   6.457   4.002
 8389TIP3   OH225109   3.061   5.652   3.792
 8389TIP3    H125110   3.026   5.738   3.815
 8389TIP3    H225111   2.988   5.606   3.751
 8390TIP3   OH225112   3.149   5.957   4.020
 8390TIP3    H125113   3.201   5.880   4.042
 8390TIP3    H225114   3.213   6.023   3.993
 8391TIP3   OH225115   4.019   6.896   3.658
 8391TIP3    H125116   4.049   6.836   3.590
 8391TIP3    H225117   4.016   6.843   3.738
 8392TIP3   OH225118   3.892   6.382   3.976
 8392TIP3    H125119   3.936   6.305   3.942
 8392TIP3    H225120   3.963   6.439   4.007
 8393TIP3   OH225121   4.934   5.704   3.997
 8393TIP3    H125122   4.949   5.787   4.043
 8393TIP3    H225123   4.954   5.724   3.906
 8394TIP3   OH225124   4.306   5.872   4.015
 8394TIP3    H125125   4.338   5.787   4.047
 8394TIP3    H225126   4.268   5.852   3.930
 8395TIP3   OH225127   3.672   5.525   3.964
 8395TIP3    H125128   3.644   5.599   3.909
 8395TIP3    H225129   3.611   5.454   3.941
 8396TIP3   OH225130   4.367   5.631   3.621
 8396TIP3    H125131   4.430   5.624   3.693
 8396TIP3    H225132   4.417   5.666   3.548
 8397TIP3   OH225133   3.296   5.734   4.101
 8397TIP3    H125134   3.377   5.709   4.145
 8397TIP3    H225135   3.299   5.686   4.018
 8398TIP3   OH225136   3.703   5.939   3.924
 8398TIP3    H125137   3.798   5.923   3.930
 8398TIP3    H225138   3.668   5.857   3.888
 8399TIP3   OH225139   4.987   5.925   4.160
 8399TIP3    H125140   4.896   5.956   4.157
 8399TIP3    H225141   5.021   5.957   4.243
 8400TIP3   OH225142   3.637   5.538   4.420
 8400TIP3    H125143   3.586   5.567   4.344
 8400TIP3    H225144   3.579   5.553   4.495
 8401TIP3   OH225145   3.979   6.370   3.419
 8401TIP3    H125146   3.935   6.350   3.336
 8401TIP3    H225147   3.939   6.451   3.449
 8402TIP3   OH225148   3.733   6.304   4.187
 8402TIP3    H125149   3.681   6.376   4.222
 8402TIP3    H225150   3.782   6.342   4.114
 8403TIP3   OH225151   4.528   5.644   3.839
 8403TIP3    H125152   4.478   5.626   3.919
 8403TIP3    H225153   4.578   5.723   3.859
 8404TIP3   OH225154   3.550   5.651   4.183
 8404TIP3    H125155   3.610   5.721   4.207
 8404TIP3    H225156   3.596   5.601   4.116
 8405TIP3   OH225157   3.581   6.509   4.296
 8405TIP3    H125158   3.566   6.598   4.265
 8405TIP3    H225159   3.503   6.488   4.348
 8406TIP3   OH225160   2.957   6.210   3.548
 8406TIP3    H125161   2.928   6.221   3.457
 8406TIP3    H225162   3.029   6.272   3.558
 8407TIP3   OH225163   4.395   6.716   3.787
 8407TIP3    H125164   4.309   6.709   3.828
 8407TIP3    H225165   4.393   6.801   3.742
 8408TIP3   OH225166   4.733   5.597   4.164
 8408TIP3    H125167   4.648   5.626   4.130
 8408TIP3    H225168   4.797   5.624   4.098
 8409TIP3   OH225169   3.991   5.246   4.148
 8409TIP3    H125170   3.985   5.155   4.175
 8409TIP3    H225171   3.917   5.289   4.191
 8410TIP3   OH225172   4.113   6.763   3.431
 8410TIP3    H125173   4.160   6.679   3.428
 8410TIP3    H225174   4.177   6.828   3.402
 8411TIP3   OH225175   4.254   6.533   3.407
 8411TIP3    H125176   4.223   6.452   3.366
 8411TIP3    H225177   4.297   6.504   3.487
 8412TIP3   OH225178   4.639   6.598   4.132
 8412TIP3    H125179   4.617   6.523   4.076
 8412TIP3    H225180   4.624   6.674   4.077
 8413TIP3   OH225181   3.921   5.994   3.401
 8413TIP3    H125182   3.836   6.039   3.395
 8413TIP3    H225183   3.968   6.021   3.323
 8414TIP3   OH225184   3.873   5.831   3.095
 8414TIP3    H125185   3.937   5.868   3.157
 8414TIP3    H225186   3.922   5.764   3.048
 8415TIP3   OH225187   4.811   6.262   3.996
 8415TIP3    H125188   4.725   6.305   3.996
 8415TIP3    H225189   4.844   6.276   3.907
 8416TIP3   OH225190   4.281   6.079   3.364
 8416TIP3    H125191   4.225   6.110   3.435
 8416TIP3    H225192   4.365   6.061   3.406
 8417TIP3   OH225193   4.501   6.123   4.289
 8417TIP3    H125194   4.506   6.199   4.347
 8417TIP3    H225195   4.413   6.129   4.251
 8418TIP3   OH225196   3.503   6.072   3.774
 8418TIP3    H125197   3.471   6.015   3.704
 8418TIP3    H225198   3.577   6.023   3.812
 8419TIP3   OH225199   3.611   6.497   3.901
 8419TIP3    H125200   3.578   6.481   3.812
 8419TIP3    H225201   3.697   6.457   3.903
 8420TIP3   OH225202   3.596   6.071   4.142
 8420TIP3    H125203   3.635   6.032   4.064
 8420TIP3    H225204   3.646   6.151   4.157
 8421TIP3   OH225205   4.160   6.713   3.924
 8421TIP3    H125206   4.151   6.789   3.980
 8421TIP3    H225207   4.144   6.638   3.982
 8422TIP3   OH225208   3.780   6.609   4.462
 8422TIP3    H125209   3.718   6.664   4.511
 8422TIP3    H225210   3.725   6.556   4.405
 8423TIP3   OH225211   4.128   5.922   3.196
 8423TIP3    H125212   4.182   5.984   3.246
 8423TIP3    H225213   4.153   5.936   3.105
 8424TIP3   OH225214   3.538   6.154   4.614
 8424TIP3    H125215   3.540   6.248   4.629
 8424TIP3    H225216   3.445   6.134   4.602
 8425TIP3   OH225217   3.871   6.623   3.458
 8425TIP3    H125218   3.947   6.680   3.453
 8425TIP3    H225219   3.803   6.668   3.408
 8426TIP3   OH225220   3.563   6.764   4.549
 8426TIP3    H125221   3.543   6.773   4.455
 8426TIP3    H225222   3.478   6.747   4.590
 8427TIP3   OH225223   4.617   5.194   3.234
 8427TIP3    H125224   4.541   5.213   3.288
 8427TIP3    H225225   4.626   5.271   3.178
 8428TIP3   OH225226   3.389   5.916   3.566
 8428TIP3    H125227   3.313   5.964   3.533
 8428TIP3    H225228   3.355   5.829   3.587
 8429TIP3   OH225229   3.164   6.322   4.498
 8429TIP3    H125230   3.099   6.302   4.431
 8429TIP3    H225231   3.201   6.237   4.523
 8430TIP3   OH225232   3.084   6.487   4.139
 8430TIP3    H125233   3.165   6.467   4.093
 8430TIP3    H225234   3.106   6.561   4.196
 8431TIP3   OH225235   4.864   6.973   4.203
 8431TIP3    H125236   4.873   6.878   4.214
 8431TIP3    H225237   4.785   6.996   4.253
 8432TIP3   OH225238   3.967   6.755   4.323
 8432TIP3    H125239   3.957   6.845   4.354
 8432TIP3    H225240   3.903   6.705   4.373
 8433TIP3   OH225241   3.747   6.859   3.275
 8433TIP3    H125242   3.686   6.830   3.206
 8433TIP3    H225243   3.709   6.940   3.308
 8434TIP3   OH225244   3.181   6.681   3.636
 8434TIP3    H125245   3.217   6.666   3.723
 8434TIP3    H225246   3.172   6.594   3.597
 8435TIP3   OH225247   3.940   6.788   2.909
 8435TIP3    H125248   3.991   6.712   2.882
 8435TIP3    H225249   3.971   6.809   2.997
 8436TIP3   OH225250   3.999   6.831   3.176
 8436TIP3    H125251   3.911   6.835   3.214
 8436TIP3    H225252   4.053   6.793   3.245
 8437TIP3   OH225253   4.758   6.087   4.492
 8437TIP3    H125254   4.674   6.098   4.537
 8437TIP3    H225255   4.765   5.992   4.480
 8438TIP3   OH225256   3.363   6.511   4.468
 8438TIP3    H125257   3.416   6.494   4.546
 8438TIP3    H225258   3.292   6.447   4.474
 8439TIP3   OH225259   3.764   5.330   4.285
 8439TIP3    H125260   3.686   5.288   4.249
 8439TIP3    H225261   3.731   5.409   4.329
 8440TIP3   OH225262   4.288   5.438   4.488
 8440TIP3    H125263   4.357   5.412   4.549
 8440TIP3    H225264   4.206   5.424   4.537
 8441TIP3   OH225265   4.517   5.869   4.398
 8441TIP3    H125266   4.472   5.867   4.483
 8441TIP3    H225267   4.506   5.958   4.367
 8442TIP3   OH225268   4.192   5.920   2.925
 8442TIP3    H125269   4.144   5.924   2.842
 8442TIP3    H225270   4.263   5.983   2.915
 8443TIP3   OH225271   3.934   5.340   3.247
 8443TIP3    H125272   3.897   5.356   3.333
 8443TIP3    H225273   3.888   5.262   3.215
 8444TIP3   OH225274   3.699   5.858   4.293
 8444TIP3    H125275   3.648   5.857   4.374
 8444TIP3    H225276   3.670   5.937   4.248
 8445TIP3   OH225277   3.568   5.725   3.808
 8445TIP3    H125278   3.479   5.703   3.834
 8445TIP3    H225279   3.577   5.690   3.719
 8446TIP3   OH225280   4.053   5.794   3.533
 8446TIP3    H125281   4.004   5.865   3.493
 8446TIP3    H225282   4.108   5.760   3.463
 8447TIP3   OH225283   4.234   6.068   4.607
 8447TIP3    H125284   4.215   6.004   4.676
 8447TIP3    H225285   4.325   6.093   4.622
 8448TIP3   OH225286   4.211   5.815   3.765
 8448TIP3    H125287   4.144   5.835   3.700
 8448TIP3    H225288   4.261   5.742   3.727
 8449TIP3   OH225289   3.529   5.861   4.511
 8449TIP3    H125290   3.552   5.920   4.583
 8449TIP3    H225291   3.510   5.777   4.554
 8450TIP3   OH225292   3.578   5.341   3.218
 8450TIP3    H125293   3.569   5.343   3.313
 8450TIP3    H225294   3.498   5.383   3.186
 8451TIP3   OH225295   3.016   5.356   3.599
 8451TIP3    H125296   3.059   5.392   3.522
 8451TIP3    H225297   2.956   5.425   3.627
 8452TIP3   OH225298   4.239   6.071   4.188
 8452TIP3    H125299   4.272   6.004   4.127
 8452TIP3    H225300   4.205   6.020   4.262
 8453TIP3   OH225301   3.933   5.513   3.857
 8453TIP3    H125302   3.853   5.515   3.910
 8453TIP3    H225303   4.004   5.508   3.921
 8454TIP3   OH225304   3.326   5.607   3.860
 8454TIP3    H125305   3.236   5.608   3.829
 8454TIP3    H225306   3.353   5.515   3.853
 8455TIP3   OH225307   3.583   5.597   3.565
 8455TIP3    H125308   3.677   5.613   3.553
 8455TIP3    H225309   3.545   5.616   3.479
 8456TIP3   OH225310   4.373   5.606   4.065
 8456TIP3    H125311   4.364   5.620   4.159
 8456TIP3    H225312   4.301   5.547   4.042
 8457TIP3   OH225313   3.466   5.620   3.319
 8457TIP3    H125314   3.403   5.571   3.266
 8457TIP3    H225315   3.514   5.673   3.256
 8458TIP3   OH225316   4.577   7.306   4.296
 8458TIP3    H125317   4.574   7.320   4.201
 8458TIP3    H225318   4.654   7.355   4.325
 8459TIP3   OH225319   3.517   6.424   4.700
 8459TIP3    H125320   3.598   6.440   4.748
 8459TIP3    H225321   3.448   6.429   4.767
 8460TIP3   OH225322   3.978   5.889   3.970
 8460TIP3    H125323   4.046   5.840   3.924
 8460TIP3    H225324   3.977   5.852   4.058
 8461TIP3   OH225325   3.470   5.359   3.854
 8461TIP3    H125326   3.438   5.286   3.908
 8461TIP3    H225327   3.488   5.319   3.769
 8462TIP3   OH225328   3.960   5.794   4.234
 8462TIP3    H125329   3.874   5.828   4.259
 8462TIP3    H225330   4.022   5.842   4.290
 8463TIP3   OH225331   3.690   6.137   3.358
 8463TIP3    H125332   3.608   6.097   3.330
 8463TIP3    H225333   3.668   6.184   3.438
 8464TIP3   OH225334   4.575   6.399   3.952
 8464TIP3    H125335   4.609   6.449   3.878
 8464TIP3    H225336   4.494   6.358   3.920
 8465TIP3   OH225337   4.133   5.489   3.131
 8465TIP3    H125338   4.063   5.439   3.173
 8465TIP3    H225339   4.165   5.548   3.199
 8466TIP3   OH225340   4.100   6.483   4.362
 8466TIP3    H125341   4.159   6.466   4.435
 8466TIP3    H225342   4.062   6.569   4.380
 8467TIP3   OH225343   4.216   5.686   3.317
 8467TIP3    H125344   4.308   5.700   3.339
 8467TIP3    H225345   4.189   5.766   3.272
 8468TIP3   OH225346   3.365   6.157   3.997
 8468TIP3    H125347   3.401   6.141   3.910
 8468TIP3    H225348   3.433   6.130   4.057
 8469TIP3   OH225349   3.827   6.300   3.187
 8469TIP3    H125350   3.784   6.385   3.189
 8469TIP3    H225351   3.774   6.244   3.244
 8470TIP3   OH225352   3.260   6.098   4.637
 8470TIP3    H125353   3.270   6.075   4.729
 8470TIP3    H225354   3.185   6.046   4.607
 8471TIP3   OH225355   4.008   6.230   4.656
 8471TIP3    H125356   3.941   6.167   4.631
 8471TIP3    H225357   4.090   6.189   4.627
 8472TIP3   OH225358   4.239   6.776   4.246
 8472TIP3    H125359   4.144   6.759   4.251
 8472TIP3    H225360   4.261   6.810   4.332
 8473TIP3   OH225361   4.626   5.826   3.157
 8473TIP3    H125362   4.571   5.778   3.095
 8473TIP3    H225363   4.628   5.915   3.122
 8474TIP3   OH225364   4.883   6.698   4.215
 8474TIP3    H125365   4.791   6.673   4.218
 8474TIP3    H225366   4.915   6.662   4.132
 8475TIP3   OH225367   4.344   6.265   3.851
 8475TIP3    H125368   4.255   6.242   3.877
 8475TIP3    H225369   4.380   6.184   3.815
 8476TIP3   OH225370   3.482   6.489   3.653
 8476TIP3    H125371   3.483   6.569   3.601
 8476TIP3    H225372   3.400   6.445   3.627
 8477TIP3   OH225373   3.059   5.782   3.379
 8477TIP3    H125374   3.105   5.864   3.398
 8477TIP3    H225375   2.980   5.786   3.432
 8478TIP3   OH225376   3.612   6.252   3.590
 8478TIP3    H125377   3.576   6.339   3.604
 8478TIP3    H225378   3.570   6.198   3.658
 8479TIP3   OH225379   3.781   6.814   4.116
 8479TIP3    H125380   3.819   6.884   4.062
 8479TIP3    H225381   3.854   6.782   4.168
 8480TIP3   OH225382   3.422   6.724   3.505
 8480TIP3    H125383   3.333   6.720   3.541
 8480TIP3    H225384   3.448   6.816   3.516
 8481TIP3   OH225385   4.130   6.486   4.088
 8481TIP3    H125386   4.118   6.483   4.183
 8481TIP3    H225387   4.202   6.425   4.070
 8482TIP3   OH225388   4.136   6.337   2.951
 8482TIP3    H125389   4.180   6.318   3.034
 8482TIP3    H225390   4.048   6.299   2.961
 8483TIP3   OH225391   4.399   6.978   4.130
 8483TIP3    H125392   4.330   6.916   4.153
 8483TIP3    H225393   4.361   7.034   4.063
 8484TIP3   OH225394   4.498   6.872   2.657
 8484TIP3    H125395   4.542   6.939   2.708
 8484TIP3    H225396   4.482   6.801   2.720
 8485TIP3   OH225397   3.474   5.611   4.636
 8485TIP3    H125398   3.379   5.611   4.644
 8485TIP3    H225399   3.505   5.559   4.711
 8486TIP3   OH225400   4.292   6.274   3.168
 8486TIP3    H125401   4.282   6.213   3.241
 8486TIP3    H225402   4.386   6.290   3.163
 8487TIP3   OH225403   3.204   6.704   4.291
 8487TIP3    H125404   3.261   6.647   4.343
 8487TIP3    H225405   3.219   6.791   4.328
 8488TIP3   OH225406   3.484   6.328   2.988
 8488TIP3    H125407   3.494   6.237   2.962
 8488TIP3    H225408   3.469   6.325   3.083
 8489TIP3   OH225409   3.416   6.347   3.257
 8489TIP3    H125410   3.386   6.329   3.346
 8489TIP3    H225411   3.421   6.442   3.253
 8490TIP3   OH225412   3.165   6.030   3.448
 8490TIP3    H125413   3.123   6.087   3.512
 8490TIP3    H225414   3.176   6.084   3.370
 8491TIP3   OH225415   4.341   5.659   4.329
 8491TIP3    H125416   4.409   5.712   4.371
 8491TIP3    H225417   4.325   5.588   4.392
 8492TIP3   OH225418   4.210   5.429   3.520
 8492TIP3    H125419   4.165   5.480   3.453
 8492TIP3    H225420   4.263   5.493   3.568
 8493TIP3   OH225421   3.703   6.540   3.189
 8493TIP3    H125422   3.615   6.551   3.225
 8493TIP3    H225423   3.714   6.614   3.129
 8494TIP3   OH225424   3.864   5.607   3.605
 8494TIP3    H125425   3.925   5.677   3.583
 8494TIP3    H225426   3.883   5.586   3.696
 8495TIP3   OH225427   4.162   5.903   4.393
 8495TIP3    H125428   4.182   5.956   4.471
 8495TIP3    H225429   4.216   5.825   4.403
 8496TIP3   OH225430   4.026   5.306   3.694
 8496TIP3    H125431   4.001   5.381   3.748
 8496TIP3    H225432   4.097   5.339   3.639
 8497TIP3   OH225433   3.447   6.620   3.252
 8497TIP3    H125434   3.420   6.694   3.197
 8497TIP3    H225435   3.433   6.651   3.342
 8498TIP3   OH225436   3.544   5.325   3.495
 8498TIP3    H125437   3.529   5.414   3.528
 8498TIP3    H225438   3.638   5.312   3.504
 8499TIP3   OH225439   4.776   5.794   4.375
 8499TIP3    H125440   4.684   5.818   4.387
 8499TIP3    H225441   4.775   5.730   4.304
 8500TIP3   OH225442   4.439   6.007   3.764
 8500TIP3    H125443   4.360   5.955   3.781
 8500TIP3    H225444   4.505   5.969   3.822
 8501TIP3   OH225445   3.146   6.238   3.254
 8501TIP3    H125446   3.170   6.299   3.325
 8501TIP3    H225447   3.224   6.234   3.199
 8502TIP3   OH225448   3.079   5.503   3.374
 8502TIP3    H125449   3.094   5.597   3.385
 8502TIP3    H225450   3.014   5.497   3.304
 8503TIP3   OH225451   4.417   6.987   3.711
 8503TIP3    H125452   4.375   7.040   3.644
 8503TIP3    H225453   4.510   6.996   3.694
 8504TIP3   OH225454   3.528   5.216   4.222
 8504TIP3    H125455   3.474   5.204   4.144
 8504TIP3    H225456   3.497   5.148   4.283
 8505TIP3   OH225457   3.250   7.013   4.685
 8505TIP3    H125458   3.319   7.036   4.747
 8505TIP3    H225459   3.261   6.919   4.670
 8506TIP3   OH225460   3.671   6.929   4.742
 8506TIP3    H125461   3.761   6.898   4.753
 8506TIP3    H225462   3.636   6.875   4.671
 8507TIP3   OH225463   3.638   6.519   2.862
 8507TIP3    H125464   3.590   6.453   2.912
 8507TIP3    H225465   3.716   6.473   2.830
 8508TIP3   OH225466   4.293   6.871   4.496
 8508TIP3    H125467   4.298   6.798   4.559
 8508TIP3    H225468   4.369   6.925   4.515
 8509TIP3   OH225469   4.093   6.578   2.831
 8509TIP3    H125470   4.108   6.499   2.884
 8509TIP3    H225471   4.179   6.618   2.823
 8510TIP3   OH225472   3.309   6.419   4.889
 8510TIP3    H125473   3.334   6.328   4.902
 8510TIP3    H225474   3.222   6.416   4.850
 8511TIP3   OH225475   3.304   6.041   3.087
 8511TIP3    H125476   3.349   6.024   3.169
 8511TIP3    H225477   3.374   6.051   3.023
 8512TIP3   OH225478   3.931   6.502   4.671
 8512TIP3    H125479   3.890   6.521   4.586
 8512TIP3    H225480   3.971   6.416   4.659
 8513TIP3   OH225481   3.870   6.251   2.922
 8513TIP3    H125482   3.845   6.263   3.013
 8513TIP3    H225483   3.846   6.160   2.901
 8514TIP3   OH225484   4.412   6.552   4.286
 8514TIP3    H125485   4.490   6.577   4.237
 8514TIP3    H225486   4.348   6.619   4.265
 8515TIP3   OH225487   3.424   6.166   4.895
 8515TIP3    H125488   3.500   6.147   4.840
 8515TIP3    H225489   3.462   6.180   4.982
 8516TIP3   OH225490   3.472   5.974   3.300
 8516TIP3    H125491   3.454   5.946   3.390
 8516TIP3    H225492   3.516   5.899   3.260
 8517TIP3   OH225493   3.797   6.049   4.564
 8517TIP3    H125494   3.711   6.091   4.574
 8517TIP3    H225495   3.827   6.076   4.477
 8518TIP3   OH225496   3.605   5.782   3.147
 8518TIP3    H125497   3.575   5.787   3.056
 8518TIP3    H225498   3.699   5.800   3.143
 8519TIP3   OH225499   4.321   6.423   4.635
 8519TIP3    H125500   4.388   6.388   4.576
 8519TIP3    H225501   4.334   6.376   4.717
 8520TIP3   OH225502   4.392   6.095   2.833
 8520TIP3    H125503   4.375   6.053   2.748
 8520TIP3    H225504   4.384   6.189   2.815
 8521TIP3   OH225505   3.896   5.814   4.666
 8521TIP3    H125506   3.899   5.744   4.600
 8521TIP3    H225507   3.866   5.891   4.619
 8522TIP3   OH225508   3.898   5.619   4.460
 8522TIP3    H125509   3.927   5.656   4.376
 8522TIP3    H225510   3.807   5.595   4.445
 8523TIP3   OH225511   3.904   6.143   4.333
 8523TIP3    H125512   3.993   6.173   4.316
 8523TIP3    H225513   3.848   6.202   4.282
 8524TIP3   OH225514   4.529   6.081   4.671
 8524TIP3    H125515   4.550   6.002   4.720
 8524TIP3    H225516   4.497   6.143   4.737
 8525TIP3   OH225517   4.524   6.358   4.444
 8525TIP3    H125518   4.479   6.426   4.394
 8525TIP3    H225519   4.617   6.377   4.431
 8526TIP3   OH225520   3.778   5.899   4.905
 8526TIP3    H125521   3.711   5.834   4.925
 8526TIP3    H225522   3.809   5.875   4.817
 8527TIP3   OH225523   4.018   5.387   4.562
 8527TIP3    H125524   3.979   5.467   4.528
 8527TIP3    H225525   3.952   5.319   4.547
 8528TIP3   OH225526   4.155   5.855   4.767
 8528TIP3    H125527   4.149   5.844   4.862
 8528TIP3    H225528   4.067   5.835   4.735
 8529TIP3   OH225529   4.387   5.795   4.626
 8529TIP3    H125530   4.311   5.804   4.682
 8529TIP3    H225531   4.460   5.780   4.686
 8530TIP3   OH225532   4.630   5.783   4.779
 8530TIP3    H125533   4.643   5.688   4.785
 8530TIP3    H225534   4.621   5.812   4.870
 8531TIP3   OH225535   3.614   5.677   4.971
 8531TIP3    H125536   3.620   5.589   4.933
 8531TIP3    H225537   3.655   5.668   5.058
 8532TIP3   OH225538   4.085   5.355   4.825
 8532TIP3    H125539   4.155   5.290   4.817
 8532TIP3    H225540   4.056   5.370   4.735
 8533TIP3   OH225541   4.177   5.565   4.978
 8533TIP3    H125542   4.147   5.496   4.919
 8533TIP3    H225543   4.107   5.630   4.975
 8534TIP3   OH225544   3.442   6.843   3.081
 8534TIP3    H125545   3.526   6.810   3.051
 8534TIP3    H225546   3.403   6.886   3.005
 8535TIP3   OH225547   2.881   6.199   3.260
 8535TIP3    H125548   2.975   6.217   3.254
 8535TIP3    H225549   2.871   6.114   3.217
 8536TIP3   OH225550   2.798   6.785   3.715
 8536TIP3    H125551   2.735   6.725   3.675
 8536TIP3    H225552   2.843   6.732   3.781
 8537TIP3   OH225553   2.923   6.650   3.920
 8537TIP3    H125554   2.940   6.566   3.963
 8537TIP3    H225555   2.986   6.710   3.959
 8538TIP3   OH225556   4.690   7.028   3.698
 8538TIP3    H125557   4.711   7.051   3.788
 8538TIP3    H225558   4.743   7.087   3.644
 8539TIP3   OH225559   4.719   7.050   3.976
 8539TIP3    H125560   4.670   6.968   3.971
 8539TIP3    H225561   4.785   7.035   4.044
 8540TIP3   OH225562   4.786   6.766   4.542
 8540TIP3    H125563   4.707   6.764   4.595
 8540TIP3    H225564   4.823   6.853   4.556
 8541TIP3   OH225565   4.575   6.274   3.159
 8541TIP3    H125566   4.625   6.350   3.128
 8541TIP3    H225567   4.624   6.241   3.234
 8542TIP3   OH225568   4.715   6.138   3.359
 8542TIP3    H125569   4.649   6.101   3.417
 8542TIP3    H225570   4.780   6.176   3.418
 8543TIP3   OH225571   4.758   6.540   3.792
 8543TIP3    H125572   4.809   6.471   3.750
 8543TIP3    H225573   4.760   6.613   3.730
 8544TIP3   OH225574   4.569   6.817   3.980
 8544TIP3    H125575   4.503   6.865   4.031
 8544TIP3    H225576   4.520   6.778   3.908
 8545TIP3   OH225577   4.608   6.054   2.999
 8545TIP3    H125578   4.533   6.062   2.939
 8545TIP3    H225579   4.599   6.130   3.057
 8546TIP3   OH225580   4.492   5.709   2.950
 8546TIP3    H125581   4.471   5.772   2.881
 8546TIP3    H225582   4.506   5.626   2.904
 8547TIP3   OH225583   4.513   5.998   3.498
 8547TIP3    H125584   4.515   5.903   3.489
 8547TIP3    H225585   4.492   6.012   3.591
 8548TIP3   OH225586   3.127   6.058   4.275
 8548TIP3    H125587   3.118   6.022   4.187
 8548TIP3    H225588   3.221   6.056   4.292
 8549TIP3   OH225589   4.790   6.416   4.365
 8549TIP3    H125590   4.849   6.344   4.344
 8549TIP3    H225591   4.780   6.464   4.282
 8550TIP3   OH225592   4.959   6.199   4.343
 8550TIP3    H125593   4.886   6.159   4.390
 8550TIP3    H225594   5.035   6.144   4.366
 8551TIP3   OH225595   4.498   5.717   3.386
 8551TIP3    H125596   4.546   5.634   3.394
 8551TIP3    H225597   4.542   5.763   3.315
 8552TIP3   OH225598   4.653   5.884   3.905
 8552TIP3    H125599   4.735   5.901   3.859
 8552TIP3    H225600   4.665   5.925   3.991
 8553TIP3   OH225601   4.725   6.032   4.131
 8553TIP3    H125602   4.655   6.057   4.192
 8553TIP3    H225603   4.754   6.115   4.093
 8554TIP3   OH225604   3.350   5.748   4.930
 8554TIP3    H125605   3.445   5.739   4.940
 8554TIP3    H225606   3.315   5.666   4.966
 8555TIP3   OH225607   5.194   5.631   4.671
 8555TIP3    H125608   5.257   5.574   4.626
 8555TIP3    H225609   5.155   5.682   4.600
 8556TIP3   OH225610   4.618   5.468   3.422
 8556TIP3    H125611   4.664   5.455   3.505
 8556TIP3    H225612   4.552   5.398   3.420
 8557TIP3   OH225613   3.100   5.749   4.300
 8557TIP3    H125614   3.154   5.717   4.228
 8557TIP3    H225615   3.146   5.826   4.333
 8558TIP3   OH225616   5.041   5.756   4.483
 8558TIP3    H125617   4.967   5.798   4.527
 8558TIP3    H225618   5.002   5.693   4.423
 8559TIP3   OH225619   4.721   5.380   3.036
 8559TIP3    H125620   4.802   5.341   3.069
 8559TIP3    H225621   4.733   5.474   3.048
 8560TIP3   OH225622   3.091   5.172   3.791
 8560TIP3    H125623   3.039   5.188   3.870
 8560TIP3    H225624   3.073   5.248   3.735
 8561TIP3   OH225625   4.280   6.941   3.309
 8561TIP3    H125626   4.325   6.901   3.235
 8561TIP3    H225627   4.320   7.028   3.318
 8562TIP3   OH225628   3.308   5.288   4.616
 8562TIP3    H125629   3.279   5.364   4.667
 8562TIP3    H225630   3.246   5.282   4.543
 8563TIP3   OH225631   3.329   6.745   4.711
 8563TIP3    H125632   3.238   6.717   4.707
 8563TIP3    H225633   3.357   6.721   4.800
 8564TIP3   OH225634   3.553   6.785   4.268
 8564TIP3    H125635   3.503   6.860   4.235
 8564TIP3    H225636   3.638   6.791   4.223
 8565TIP3   OH225637   3.948   7.021   4.409
 8565TIP3    H125638   3.987   7.009   4.495
 8565TIP3    H225639   4.012   7.074   4.361
 8566TIP3   OH225640   4.137   7.173   4.276
 8566TIP3    H125641   4.193   7.117   4.222
 8566TIP3    H225642   4.198   7.224   4.329
 8567TIP3   OH225643   4.951   5.502   4.368
 8567TIP3    H125644   4.863   5.494   4.333
 8567TIP3    H225645   4.987   5.414   4.362
 8568TIP3   OH225646   3.213   7.016   4.308
 8568TIP3    H125647   3.122   7.037   4.287
 8568TIP3    H225648   3.240   7.084   4.370
 8569TIP3   OH225649   3.446   7.015   4.162
 8569TIP3    H125650   3.361   7.016   4.207
 8569TIP3    H225651   3.425   7.037   4.071
 8570TIP3   OH225652   3.862   7.020   3.949
 8570TIP3    H125653   3.788   7.030   3.888
 8570TIP3    H225654   3.869   7.105   3.992
 8571TIP3   OH225655   4.131   6.982   4.010
 8571TIP3    H125656   4.039   6.989   3.984
 8571TIP3    H225657   4.176   7.046   3.954
 8572TIP3   OH225658   4.341   7.160   3.913
 8572TIP3    H125659   4.327   7.243   3.869
 8572TIP3    H225660   4.366   7.099   3.843
 8573TIP3   OH225661   3.120   6.807   4.044
 8573TIP3    H125662   3.151   6.780   4.131
 8573TIP3    H225663   3.185   6.771   3.984
 8574TIP3   OH225664   3.312   6.689   3.891
 8574TIP3    H125665   3.324   6.600   3.926
 8574TIP3    H225666   3.401   6.725   3.888
 8575TIP3   OH225667   3.589   6.775   3.913
 8575TIP3    H125668   3.602   6.682   3.895
 8575TIP3    H225669   3.645   6.793   3.988
 8576TIP3   OH225670   4.160   5.428   4.000
 8576TIP3    H125671   4.114   5.362   4.052
 8576TIP3    H225672   4.226   5.379   3.952
 8577TIP3   OH225673   4.661   5.339   3.875
 8577TIP3    H125674   4.698   5.393   3.805
 8577TIP3    H225675   4.572   5.373   3.888
 8578TIP3   OH225676   4.778   5.423   3.640
 8578TIP3    H125677   4.847   5.359   3.621
 8578TIP3    H225678   4.821   5.508   3.628
 8579TIP3   OH225679   3.397   5.131   3.990
 8579TIP3    H125680   3.311   5.092   4.006
 8579TIP3    H225681   3.458   5.057   3.997
 8580TIP3   OH225682   3.210   4.994   3.621
 8580TIP3    H125683   3.244   5.050   3.551
 8580TIP3    H225684   3.172   5.054   3.684
 8581TIP3   OH225685   3.893   5.154   3.893
 8581TIP3    H125686   3.932   5.208   3.825
 8581TIP3    H225687   3.920   5.195   3.975
 8582TIP3   OH225688   4.366   5.292   3.874
 8582TIP3    H125689   4.392   5.253   3.791
 8582TIP3    H225690   4.377   5.222   3.939
 8583TIP3   OH225691   4.422   5.267   3.423
 8583TIP3    H125692   4.345   5.316   3.450
 8583TIP3    H225693   4.413   5.181   3.464
 8584TIP3   OH225694   2.945   6.613   3.334
 8584TIP3    H125695   2.888   6.561   3.391
 8584TIP3    H225696   2.905   6.700   3.332
 8585TIP3   OH225697   3.330   5.155   3.412
 8585TIP3    H125698   3.377   5.098   3.351
 8585TIP3    H225699   3.398   5.213   3.447
 8586TIP3   OH225700   3.823   5.357   3.502
 8586TIP3    H125701   3.877   5.306   3.563
 8586TIP3    H225702   3.830   5.447   3.533
 8587TIP3   OH225703   3.685   6.748   3.002
 8587TIP3    H125704   3.768   6.777   2.966
 8587TIP3    H225705   3.659   6.674   2.947
 8588TIP3   OH225706   4.417   6.860   3.073
 8588TIP3    H125707   4.431   6.776   3.031
 8588TIP3    H225708   4.366   6.911   3.010
 8589TIP3   OH225709   3.621   5.406   4.876
 8589TIP3    H125710   3.587   5.340   4.936
 8589TIP3    H225711   3.714   5.412   4.897
 8590TIP3   OH225712   3.870   5.406   4.998
 8590TIP3    H125713   3.947   5.388   4.944
 8590TIP3    H225714   3.868   5.335   5.062
 8591TIP3   OH225715   3.009   6.595   3.070
 8591TIP3    H125716   2.999   6.596   3.166
 8591TIP3    H225717   3.092   6.550   3.055
 8592TIP3   OH225718   4.693   5.510   4.791
 8592TIP3    H125719   4.710   5.480   4.880
 8592TIP3    H225720   4.779   5.504   4.748
 8593TIP3   OH225721   4.613   7.033   4.304
 8593TIP3    H125722   4.541   7.003   4.248
 8593TIP3    H225723   4.600   7.128   4.310
 8594TIP3   OH225724   5.951   6.418   2.927
 8594TIP3    H125725   5.900   6.498   2.936
 8594TIP3    H225726   5.886   6.350   2.912
 8595TIP3   OH225727   5.898   6.406   3.452
 8595TIP3    H125728   5.946   6.394   3.534
 8595TIP3    H225729   5.849   6.325   3.440
 8596TIP3   OH225730   5.183   6.280   3.806
 8596TIP3    H125731   5.218   6.226   3.877
 8596TIP3    H225732   5.261   6.314   3.762
 8597TIP3   OH225733   6.151   6.707   3.134
 8597TIP3    H125734   6.142   6.648   3.209
 8597TIP3    H225735   6.174   6.792   3.172
 8598TIP3   OH225736   5.182   6.702   3.488
 8598TIP3    H125737   5.162   6.609   3.499
 8598TIP3    H225738   5.278   6.706   3.482
 8599TIP3   OH225739   4.871   5.915   3.279
 8599TIP3    H125740   4.838   6.001   3.306
 8599TIP3    H225741   4.793   5.868   3.249
 8600TIP3   OH225742   4.947   6.220   3.495
 8600TIP3    H125743   4.997   6.144   3.524
 8600TIP3    H225744   5.014   6.287   3.477
 8601TIP3   OH225745   5.818   7.150   3.134
 8601TIP3    H125746   5.849   7.081   3.076
 8601TIP3    H225747   5.807   7.108   3.219
 8602TIP3   OH225748   5.703   6.635   3.461
 8602TIP3    H125749   5.746   6.554   3.434
 8602TIP3    H225750   5.774   6.689   3.497
 8603TIP3   OH225751   6.732   5.958   3.478
 8603TIP3    H125752   6.749   6.042   3.521
 8603TIP3    H225753   6.760   5.972   3.387
 8604TIP3   OH225754   6.101   6.125   3.484
 8604TIP3    H125755   6.133   6.040   3.517
 8604TIP3    H225756   6.055   6.103   3.403
 8605TIP3   OH225757   5.466   5.787   3.459
 8605TIP3    H125758   5.439   5.857   3.399
 8605TIP3    H225759   5.412   5.712   3.434
 8606TIP3   OH225760   6.155   5.891   3.088
 8606TIP3    H125761   6.216   5.884   3.162
 8606TIP3    H225762   6.210   5.919   3.014
 8607TIP3   OH225763   5.084   5.999   3.591
 8607TIP3    H125764   5.167   5.981   3.636
 8607TIP3    H225765   5.089   5.945   3.511
 8608TIP3   OH225766   5.503   6.199   3.398
 8608TIP3    H125767   5.596   6.182   3.408
 8608TIP3    H225768   5.467   6.116   3.366
 8609TIP3   OH225769   6.786   6.179   3.645
 8609TIP3    H125770   6.695   6.210   3.641
 8609TIP3    H225771   6.819   6.212   3.728
 8610TIP3   OH225772   5.438   5.785   3.912
 8610TIP3    H125773   5.388   5.820   3.839
 8610TIP3    H225774   5.383   5.799   3.989
 8611TIP3   OH225775   5.790   6.639   2.899
 8611TIP3    H125776   5.742   6.608   2.822
 8611TIP3    H225777   5.738   6.713   2.931
 8612TIP3   OH225778   5.534   6.565   3.672
 8612TIP3    H125779   5.479   6.636   3.707
 8612TIP3    H225780   5.582   6.606   3.599
 8613TIP3   OH225781   6.306   5.919   3.313
 8613TIP3    H125782   6.268   5.890   3.396
 8613TIP3    H225783   6.366   5.989   3.337
 8614TIP3   OH225784   5.333   5.894   3.681
 8614TIP3    H125785   5.386   5.970   3.706
 8614TIP3    H225786   5.382   5.853   3.609
 8615TIP3   OH225787   5.376   6.766   3.780
 8615TIP3    H125788   5.362   6.856   3.752
 8615TIP3    H225789   5.299   6.745   3.832
 8616TIP3   OH225790   4.721   6.479   3.032
 8616TIP3    H125791   4.654   6.516   2.975
 8616TIP3    H225792   4.765   6.554   3.070
 8617TIP3   OH225793   6.192   6.962   3.258
 8617TIP3    H125794   6.109   6.956   3.306
 8617TIP3    H225795   6.190   7.049   3.217
 8618TIP3   OH225796   6.528   5.853   3.648
 8618TIP3    H125797   6.443   5.868   3.607
 8618TIP3    H225798   6.592   5.879   3.581
 8619TIP3   OH225799   5.783   5.471   3.640
 8619TIP3    H125800   5.777   5.377   3.656
 8619TIP3    H225801   5.706   5.508   3.683
 8620TIP3   OH225802   5.916   6.986   2.925
 8620TIP3    H125803   5.971   6.910   2.909
 8620TIP3    H225804   5.971   7.061   2.902
 8621TIP3   OH225805   6.047   6.737   2.883
 8621TIP3    H125806   5.957   6.706   2.894
 8621TIP3    H225807   6.085   6.731   2.971
 8622TIP3   OH225808   6.422   6.863   3.614
 8622TIP3    H125809   6.408   6.786   3.558
 8622TIP3    H225810   6.408   6.937   3.556
 8623TIP3   OH225811   5.736   6.264   2.829
 8623TIP3    H125812   5.649   6.297   2.853
 8623TIP3    H225813   5.746   6.288   2.737
 8624TIP3   OH225814   5.682   6.049   2.600
 8624TIP3    H125815   5.728   6.061   2.683
 8624TIP3    H225816   5.739   5.993   2.548
 8625TIP3   OH225817   6.611   6.519   3.484
 8625TIP3    H125818   6.527   6.564   3.484
 8625TIP3    H225819   6.645   6.532   3.396
 8626TIP3   OH225820   6.309   6.379   3.796
 8626TIP3    H125821   6.305   6.463   3.842
 8626TIP3    H225822   6.228   6.375   3.745
 8627TIP3   OH225823   5.301   6.332   3.253
 8627TIP3    H125824   5.261   6.272   3.190
 8627TIP3    H225825   5.373   6.282   3.291
 8628TIP3   OH225826   5.446   6.753   3.392
 8628TIP3    H125827   5.419   6.739   3.302
 8628TIP3    H225828   5.533   6.714   3.397
 8629TIP3   OH225829   5.405   6.327   3.626
 8629TIP3    H125830   5.443   6.291   3.547
 8629TIP3    H225831   5.453   6.409   3.641
 8630TIP3   OH225832   5.967   6.956   3.409
 8630TIP3    H125833   5.946   7.039   3.453
 8630TIP3    H225834   5.946   6.889   3.474
 8631TIP3   OH225835   5.573   6.860   3.952
 8631TIP3    H125836   5.512   6.916   4.000
 8631TIP3    H225837   5.517   6.809   3.893
 8632TIP3   OH225838   5.328   6.408   4.082
 8632TIP3    H125839   5.333   6.500   4.106
 8632TIP3    H225840   5.234   6.389   4.083
 8633TIP3   OH225841   5.659   6.880   2.936
 8633TIP3    H125842   5.741   6.929   2.938
 8633TIP3    H225843   5.598   6.937   2.889
 8634TIP3   OH225844   5.364   7.018   4.040
 8634TIP3    H125845   5.337   7.029   3.949
 8634TIP3    H225846   5.283   7.005   4.089
 8635TIP3   OH225847   6.420   5.443   2.753
 8635TIP3    H125848   6.341   5.463   2.802
 8635TIP3    H225849   6.428   5.515   2.690
 8636TIP3   OH225850   5.162   6.180   3.053
 8636TIP3    H125851   5.084   6.229   3.027
 8636TIP3    H225852   5.128   6.094   3.079
 8637TIP3   OH225853   6.246   6.812   2.304
 8637TIP3    H125854   6.237   6.904   2.277
 8637TIP3    H225855   6.334   6.788   2.277
 8638TIP3   OH225856   4.962   6.576   3.985
 8638TIP3    H125857   4.890   6.558   3.924
 8638TIP3    H225858   4.994   6.489   4.010
 8639TIP3   OH225859   4.802   6.775   3.639
 8639TIP3    H125860   4.893   6.800   3.659
 8639TIP3    H225861   4.750   6.850   3.668
 8640TIP3   OH225862   6.650   7.208   3.688
 8640TIP3    H125863   6.655   7.114   3.705
 8640TIP3    H225864   6.570   7.236   3.732
 8641TIP3   OH225865   5.761   7.005   3.815
 8641TIP3    H125866   5.752   7.096   3.843
 8641TIP3    H225867   5.693   6.958   3.862
 8642TIP3   OH225868   5.549   7.099   2.768
 8642TIP3    H125869   5.512   7.078   2.682
 8642TIP3    H225870   5.505   7.180   2.794
 8643TIP3   OH225871   4.980   6.963   3.147
 8643TIP3    H125872   5.025   6.957   3.231
 8643TIP3    H225873   4.934   6.880   3.138
 8644TIP3   OH225874   5.752   7.044   2.398
 8644TIP3    H125875   5.805   6.974   2.360
 8644TIP3    H225876   5.783   7.053   2.488
 8645TIP3   OH225877   5.804   7.082   2.668
 8645TIP3    H125878   5.716   7.082   2.705
 8645TIP3    H225879   5.859   7.048   2.739
 8646TIP3   OH225880   6.553   6.330   3.952
 8646TIP3    H125881   6.469   6.340   3.907
 8646TIP3    H225882   6.569   6.236   3.952
 8647TIP3   OH225883   5.159   6.765   3.951
 8647TIP3    H125884   5.211   6.754   4.031
 8647TIP3    H225885   5.088   6.702   3.959
 8648TIP3   OH225886   5.546   5.567   3.769
 8648TIP3    H125887   5.463   5.532   3.737
 8648TIP3    H225888   5.523   5.648   3.815
 8649TIP3   OH225889   6.083   5.690   3.965
 8649TIP3    H125890   6.151   5.666   4.027
 8649TIP3    H225891   6.001   5.676   4.012
 8650TIP3   OH225892   6.307   6.114   3.889
 8650TIP3    H125893   6.265   6.109   3.975
 8650TIP3    H225894   6.290   6.204   3.860
 8651TIP3   OH225895   6.010   6.174   2.473
 8651TIP3    H125896   5.949   6.183   2.399
 8651TIP3    H225897   6.088   6.222   2.446
 8652TIP3   OH225898   5.695   5.617   2.735
 8652TIP3    H125899   5.658   5.620   2.823
 8652TIP3    H225900   5.660   5.536   2.697
 8653TIP3   OH225901   5.479   6.107   3.779
 8653TIP3    H125902   5.432   6.113   3.861
 8653TIP3    H225903   5.456   6.188   3.732
 8654TIP3   OH225904   5.364   5.982   3.294
 8654TIP3    H125905   5.276   5.957   3.322
 8654TIP3    H225906   5.372   5.947   3.205
 8655TIP3   OH225907   5.854   6.067   2.987
 8655TIP3    H125908   5.802   6.134   2.944
 8655TIP3    H225909   5.918   6.040   2.921
 8656TIP3   OH225910   6.025   6.322   4.099
 8656TIP3    H125911   5.998   6.254   4.160
 8656TIP3    H225912   6.117   6.338   4.119
 8657TIP3   OH225913   6.000   6.069   3.234
 8657TIP3    H125914   5.935   6.089   3.166
 8657TIP3    H225915   6.052   5.998   3.198
 8658TIP3   OH225916   5.314   6.118   3.998
 8658TIP3    H125917   5.319   6.183   4.068
 8658TIP3    H225918   5.296   6.035   4.042
 8659TIP3   OH225919   5.359   5.593   2.708
 8659TIP3    H125920   5.351   5.595   2.804
 8659TIP3    H225921   5.279   5.638   2.677
 8660TIP3   OH225922   4.923   5.638   3.566
 8660TIP3    H125923   4.985   5.675   3.629
 8660TIP3    H225924   4.976   5.620   3.488
 8661TIP3   OH225925   4.813   5.635   3.084
 8661TIP3    H125926   4.857   5.673   3.008
 8661TIP3    H225927   4.755   5.705   3.115
 8662TIP3   OH225928   6.062   6.323   3.668
 8662TIP3    H125929   6.083   6.256   3.603
 8662TIP3    H225930   6.017   6.276   3.738
 8663TIP3   OH225931   5.733   5.791   3.347
 8663TIP3    H125932   5.654   5.784   3.400
 8663TIP3    H225933   5.804   5.771   3.408
 8664TIP3   OH225934   5.129   5.854   3.360
 8664TIP3    H125935   5.041   5.860   3.323
 8664TIP3    H225936   5.156   5.764   3.344
 8665TIP3   OH225937   5.380   5.859   3.049
 8665TIP3    H125938   5.474   5.869   3.034
 8665TIP3    H225939   5.340   5.874   2.964
 8666TIP3   OH225940   6.169   5.865   3.554
 8666TIP3    H125941   6.151   5.881   3.646
 8666TIP3    H225942   6.103   5.800   3.528
 8667TIP3   OH225943   5.257   5.879   2.804
 8667TIP3    H125944   5.193   5.830   2.753
 8667TIP3    H225945   5.309   5.925   2.739
 8668TIP3   OH225946   6.340   7.552   3.762
 8668TIP3    H125947   6.332   7.567   3.668
 8668TIP3    H225948   6.424   7.591   3.786
 8669TIP3   OH225949   5.321   6.674   4.180
 8669TIP3    H125950   5.400   6.693   4.231
 8669TIP3    H225951   5.250   6.680   4.244
 8670TIP3   OH225952   5.773   6.144   3.455
 8670TIP3    H125953   5.828   6.081   3.409
 8670TIP3    H225954   5.767   6.109   3.544
 8671TIP3   OH225955   5.274   5.603   3.353
 8671TIP3    H125956   5.245   5.528   3.405
 8671TIP3    H225957   5.317   5.564   3.277
 8672TIP3   OH225958   5.746   6.057   3.719
 8672TIP3    H125959   5.659   6.086   3.746
 8672TIP3    H225960   5.806   6.107   3.774
 8673TIP3   OH225961   5.488   6.388   2.843
 8673TIP3    H125962   5.410   6.338   2.818
 8673TIP3    H225963   5.462   6.433   2.924
 8674TIP3   OH225964   6.374   6.655   3.438
 8674TIP3    H125965   6.411   6.705   3.365
 8674TIP3    H225966   6.295   6.615   3.403
 8675TIP3   OH225967   5.942   5.731   2.749
 8675TIP3    H125968   5.852   5.701   2.739
 8675TIP3    H225969   5.937   5.826   2.732
 8676TIP3   OH225970   5.888   6.739   3.858
 8676TIP3    H125971   5.935   6.727   3.940
 8676TIP3    H225972   5.845   6.824   3.867
 8677TIP3   OH225973   6.019   6.023   2.756
 8677TIP3    H125974   6.109   5.999   2.780
 8677TIP3    H225975   6.028   6.063   2.670
 8678TIP3   OH225976   5.170   6.408   3.485
 8678TIP3    H125977   5.209   6.393   3.399
 8678TIP3    H225978   5.237   6.378   3.547
 8679TIP3   OH225979   5.642   6.547   2.681
 8679TIP3    H125980   5.595   6.630   2.670
 8679TIP3    H225981   5.582   6.491   2.731
 8680TIP3   OH225982   5.054   6.339   4.112
 8680TIP3    H125983   5.056   6.316   4.205
 8680TIP3    H225984   4.978   6.293   4.078
 8681TIP3   OH225985   5.795   6.481   4.137
 8681TIP3    H125986   5.724   6.422   4.113
 8681TIP3    H225987   5.874   6.436   4.110
 8682TIP3   OH225988   6.032   7.024   3.739
 8682TIP3    H125989   5.937   7.011   3.745
 8682TIP3    H225990   6.056   7.060   3.824
 8683TIP3   OH225991   6.423   6.070   2.621
 8683TIP3    H125992   6.362   6.023   2.564
 8683TIP3    H225993   6.432   6.156   2.581
 8684TIP3   OH225994   6.668   6.926   3.710
 8684TIP3    H125995   6.573   6.916   3.698
 8684TIP3    H225996   6.706   6.905   3.625
 8685TIP3   OH225997   6.174   6.890   2.563
 8685TIP3    H125998   6.160   6.816   2.622
 8685TIP3    H225999   6.193   6.851   2.479
 8686TIP3   OH226000   6.144   6.512   3.336
 8686TIP3    H126001   6.058   6.492   3.372
 8686TIP3    H226002   6.180   6.428   3.310
 8687TIP3   OH226003   5.294   6.755   3.152
 8687TIP3    H126004   5.288   6.830   3.094
 8687TIP3    H226005   5.206   6.744   3.188
 8688TIP3   OH226006   4.847   6.048   2.857
 8688TIP3    H126007   4.887   6.132   2.879
 8688TIP3    H226008   4.765   6.046   2.906
 8689TIP3   OH226009   5.393   6.513   3.063
 8689TIP3    H126010   5.368   6.602   3.089
 8689TIP3    H226011   5.361   6.458   3.134
 8690TIP3   OH226012   5.580   7.080   3.606
 8690TIP3    H126013   5.616   7.153   3.557
 8690TIP3    H226014   5.654   7.048   3.658
 8691TIP3   OH226015   5.214   6.976   3.000
 8691TIP3    H126016   5.126   6.983   3.037
 8691TIP3    H226017   5.250   7.065   3.006
 8692TIP3   OH226018   5.933   6.738   3.586
 8692TIP3    H126019   5.912   6.737   3.680
 8692TIP3    H226020   6.020   6.700   3.581
 8693TIP3   OH226021   5.911   6.622   2.449
 8693TIP3    H126022   5.897   6.641   2.542
 8693TIP3    H226023   5.832   6.576   2.422
 8694TIP3   OH226024   6.186   7.228   3.613
 8694TIP3    H126025   6.115   7.167   3.635
 8694TIP3    H226026   6.149   7.283   3.544
 8695TIP3   OH226027   6.230   7.082   2.254
 8695TIP3    H126028   6.232   7.134   2.174
 8695TIP3    H226029   6.163   7.124   2.308
 8696TIP3   OH226030   5.261   5.865   4.115
 8696TIP3    H126031   5.166   5.877   4.121
 8696TIP3    H226032   5.283   5.814   4.193
 8697TIP3   OH226033   5.010   6.966   3.768
 8697TIP3    H126034   5.061   6.905   3.821
 8697TIP3    H226035   5.020   7.051   3.813
 8698TIP3   OH226036   5.268   6.585   2.457
 8698TIP3    H126037   5.291   6.496   2.433
 8698TIP3    H226038   5.263   6.584   2.552
 8699TIP3   OH226039   5.238   6.611   2.733
 8699TIP3    H126040   5.301   6.589   2.802
 8699TIP3    H226041   5.235   6.707   2.733
 8700TIP3   OH226042   4.928   6.301   2.949
 8700TIP3    H126043   4.857   6.348   2.991
 8700TIP3    H226044   4.961   6.360   2.882
 8701TIP3   OH226045   6.116   5.922   3.818
 8701TIP3    H126046   6.193   5.966   3.854
 8701TIP3    H226047   6.105   5.844   3.873
 8702TIP3   OH226048   6.003   5.672   3.012
 8702TIP3    H126049   5.981   5.691   2.920
 8702TIP3    H226050   6.051   5.749   3.042
 8703TIP3   OH226051   5.496   6.771   2.651
 8703TIP3    H126052   5.426   6.817   2.698
 8703TIP3    H226053   5.480   6.790   2.559
 8704TIP3   OH226054   5.668   5.874   3.086
 8704TIP3    H126055   5.733   5.939   3.057
 8704TIP3    H226056   5.689   5.859   3.178
 8705TIP3   OH226057   5.959   6.164   3.868
 8705TIP3    H126058   5.979   6.206   3.951
 8705TIP3    H226059   6.005   6.080   3.871
 8706TIP3   OH226060   5.814   5.572   3.188
 8706TIP3    H126061   5.793   5.651   3.238
 8706TIP3    H226062   5.884   5.600   3.129
 8707TIP3   OH226063   5.260   6.884   2.745
 8707TIP3    H126064   5.233   6.955   2.685
 8707TIP3    H226065   5.242   6.918   2.832
 8708TIP3   OH226066   5.329   5.583   2.985
 8708TIP3    H126067   5.317   5.672   3.018
 8708TIP3    H226068   5.423   5.568   2.993
 8709TIP3   OH226069   6.568   6.049   3.859
 8709TIP3    H126070   6.474   6.064   3.874
 8709TIP3    H226071   6.571   5.985   3.788
 8710TIP3   OH226072   6.234   6.256   3.243
 8710TIP3    H126073   6.161   6.201   3.271
 8710TIP3    H226074   6.309   6.223   3.294
 8711TIP3   OH226075   5.002   6.468   2.745
 8711TIP3    H126076   5.071   6.535   2.751
 8711TIP3    H226077   5.031   6.409   2.676
 8712TIP3   OH226078   4.887   5.772   2.860
 8712TIP3    H126079   4.893   5.867   2.874
 8712TIP3    H226080   4.865   5.763   2.767
 8713TIP3   OH226081   6.213   7.232   3.187
 8713TIP3    H126082   6.171   7.285   3.119
 8713TIP3    H226083   6.306   7.246   3.174
 8714TIP3   OH226084   5.284   5.482   3.730
 8714TIP3    H126085   5.256   5.446   3.646
 8714TIP3    H226086   5.276   5.408   3.791
 8715TIP3   OH226087   4.818   6.733   3.127
 8715TIP3    H126088   4.767   6.772   3.198
 8715TIP3    H226089   4.781   6.770   3.047
 8716TIP3   OH226090   5.006   7.279   4.190
 8716TIP3    H126091   5.089   7.282   4.237
 8716TIP3    H226092   4.987   7.185   4.182
 8717TIP3   OH226093   5.475   7.183   4.231
 8717TIP3    H126094   5.565   7.152   4.240
 8717TIP3    H226095   5.438   7.128   4.161
 8718TIP3   OH226096   5.420   6.809   2.387
 8718TIP3    H126097   5.362   6.734   2.393
 8718TIP3    H226098   5.485   6.785   2.321
 8719TIP3   OH226099   6.095   7.121   3.987
 8719TIP3    H126100   6.108   7.052   4.052
 8719TIP3    H226101   6.167   7.182   4.001
 8720TIP3   OH226102   5.889   6.840   2.277
 8720TIP3    H126103   5.921   6.768   2.332
 8720TIP3    H226104   5.934   6.827   2.193
 8721TIP3   OH226105   5.114   6.670   4.364
 8721TIP3    H126106   5.128   6.576   4.375
 8721TIP3    H226107   5.026   6.677   4.328
 8722TIP3   OH226108   5.105   6.279   2.576
 8722TIP3    H126109   5.155   6.256   2.654
 8722TIP3    H226110   5.172   6.294   2.508
 8723TIP3   OH226111   5.734   6.758   4.152
 8723TIP3    H126112   5.684   6.778   4.073
 8723TIP3    H226113   5.765   6.668   4.139
 8724TIP3   OH226114   5.669   6.505   2.401
 8724TIP3    H126115   5.641   6.514   2.492
 8724TIP3    H226116   5.661   6.411   2.383
 8725TIP3   OH226117   6.200   6.797   3.764
 8725TIP3    H126118   6.278   6.829   3.718
 8725TIP3    H226119   6.136   6.868   3.755
 8726TIP3   OH226120   5.227   6.412   4.376
 8726TIP3    H126121   5.311   6.387   4.338
 8726TIP3    H226122   5.247   6.434   4.467
 8727TIP3   OH226123   5.272   6.221   2.792
 8727TIP3    H126124   5.243   6.192   2.878
 8727TIP3    H226125   5.315   6.144   2.753
 8728TIP3   OH226126   5.589   6.308   4.043
 8728TIP3    H126127   5.500   6.344   4.051
 8728TIP3    H226128   5.618   6.334   3.956
 8729TIP3   OH226129   5.404   6.032   2.631
 8729TIP3    H126130   5.375   6.038   2.540
 8729TIP3    H226131   5.500   6.036   2.626
 8730TIP3   OH226132   6.084   6.678   4.122
 8730TIP3    H126133   6.152   6.639   4.068
 8730TIP3    H226134   6.079   6.623   4.200
 8731TIP3   OH226135   6.203   6.316   2.325
 8731TIP3    H126136   6.191   6.276   2.239
 8731TIP3    H226137   6.179   6.408   2.312
 8732TIP3   OH226138   5.689   6.075   4.149
 8732TIP3    H126139   5.690   6.004   4.084
 8732TIP3    H226140   5.654   6.150   4.102
 8733TIP3   OH226141   5.696   5.877   3.946
 8733TIP3    H126142   5.721   5.913   3.861
 8733TIP3    H226143   5.606   5.847   3.934
 8734TIP3   OH226144   5.702   6.400   3.813
 8734TIP3    H126145   5.788   6.440   3.810
 8734TIP3    H226146   5.645   6.460   3.764
 8735TIP3   OH226147   6.293   6.357   4.197
 8735TIP3    H126148   6.333   6.271   4.206
 8735TIP3    H226149   6.367   6.417   4.188
 8736TIP3   OH226150   6.328   6.625   3.933
 8736TIP3    H126151   6.274   6.685   3.882
 8736TIP3    H226152   6.417   6.641   3.901
 8737TIP3   OH226153   5.575   6.153   4.394
 8737TIP3    H126154   5.505   6.091   4.415
 8737TIP3    H226155   5.602   6.129   4.305
 8738TIP3   OH226156   5.819   5.647   4.050
 8738TIP3    H126157   5.778   5.727   4.018
 8738TIP3    H226158   5.753   5.579   4.039
 8739TIP3   OH226159   5.944   6.110   4.253
 8739TIP3    H126160   5.932   6.097   4.347
 8739TIP3    H226161   5.858   6.091   4.216
 8740TIP3   OH226162   6.191   6.067   4.127
 8740TIP3    H126163   6.111   6.066   4.180
 8740TIP3    H226164   6.260   6.041   4.187
 8741TIP3   OH226165   6.430   6.033   4.273
 8741TIP3    H126166   6.443   5.938   4.280
 8741TIP3    H226167   6.425   6.063   4.364
 8742TIP3   OH226168   5.408   5.934   4.458
 8742TIP3    H126169   5.411   5.846   4.422
 8742TIP3    H226170   5.447   5.926   4.545
 8743TIP3   OH226171   5.884   5.618   4.316
 8743TIP3    H126172   5.952   5.551   4.308
 8743TIP3    H226173   5.854   5.632   4.226
 8744TIP3   OH226174   5.982   5.832   4.460
 8744TIP3    H126175   5.950   5.759   4.406
 8744TIP3    H226176   5.910   5.894   4.462
 8745TIP3   OH226177   5.233   7.098   2.569
 8745TIP3    H126178   5.325   7.089   2.545
 8745TIP3    H226179   5.191   7.137   2.492
 8746TIP3   OH226180   4.748   6.454   2.643
 8746TIP3    H126181   4.829   6.474   2.690
 8746TIP3    H226182   4.731   6.362   2.662
 8747TIP3   OH226183   4.597   7.033   3.194
 8747TIP3    H126184   4.543   6.972   3.143
 8747TIP3    H226185   4.643   6.977   3.257
 8748TIP3   OH226186   4.746   6.885   3.373
 8748TIP3    H126187   4.738   6.816   3.439
 8748TIP3    H226188   4.798   6.953   3.416
 8749TIP3   OH226189   6.484   7.284   3.182
 8749TIP3    H126190   6.502   7.311   3.272
 8749TIP3    H226191   6.535   7.344   3.128
 8750TIP3   OH226192   6.499   7.317   3.462
 8750TIP3    H126193   6.453   7.233   3.456
 8750TIP3    H226194   6.568   7.302   3.526
 8751TIP3   OH226195   6.566   7.027   4.036
 8751TIP3    H126196   6.491   7.030   4.095
 8751TIP3    H226197   6.610   7.112   4.049
 8752TIP3   OH226198   6.384   6.520   2.668
 8752TIP3    H126199   6.432   6.593   2.630
 8752TIP3    H226200   6.441   6.487   2.738
 8753TIP3   OH226201   6.522   6.393   2.874
 8753TIP3    H126202   6.487   6.350   2.952
 8753TIP3    H226203   6.602   6.435   2.905
 8754TIP3   OH226204   6.551   6.794   3.275
 8754TIP3    H126205   6.608   6.729   3.235
 8754TIP3    H226206   6.557   6.870   3.217
 8755TIP3   OH226207   6.358   7.077   3.457
 8755TIP3    H126208   6.290   7.121   3.508
 8755TIP3    H226209   6.311   7.037   3.383
 8756TIP3   OH226210   6.420   6.311   2.492
 8756TIP3    H126211   6.347   6.309   2.429
 8756TIP3    H226212   6.402   6.387   2.547
 8757TIP3   OH226213   6.250   5.955   2.445
 8757TIP3    H126214   6.208   5.991   2.367
 8757TIP3    H226215   6.246   5.860   2.433
 8758TIP3   OH226216   6.234   6.254   2.969
 8758TIP3    H126217   6.258   6.169   2.934
 8758TIP3    H226218   6.242   6.245   3.064
 8759TIP3   OH226219   4.919   6.317   3.750
 8759TIP3    H126220   4.912   6.284   3.661
 8759TIP3    H226221   5.013   6.313   3.769
 8760TIP3   OH226222   6.588   6.671   3.842
 8760TIP3    H126223   6.653   6.602   3.827
 8760TIP3    H226224   6.613   6.741   3.781
 8761TIP3   OH226225   6.763   6.457   3.833
 8761TIP3    H126226   6.689   6.414   3.876
 8761TIP3    H226227   6.838   6.401   3.854
 8762TIP3   OH226228   6.226   5.685   2.406
 8762TIP3    H126229   6.296   5.653   2.464
 8762TIP3    H226230   6.148   5.637   2.434
 8763TIP3   OH226231   6.299   5.987   2.857
 8763TIP3    H126232   6.338   5.902   2.876
 8763TIP3    H226233   6.346   6.018   2.780
 8764TIP3   OH226234   6.452   6.148   3.383
 8764TIP3    H126235   6.534   6.163   3.337
 8764TIP3    H226236   6.466   6.184   3.471
 8765TIP3   OH226237   6.525   6.289   3.615
 8765TIP3    H126238   6.454   6.317   3.674
 8765TIP3    H226239   6.556   6.370   3.575
 8766TIP3   OH226240   5.144   5.998   4.396
 8766TIP3    H126241   5.238   5.995   4.415
 8766TIP3    H226242   5.109   5.918   4.435
 8767TIP3   OH226243   6.987   5.889   4.155
 8767TIP3    H126244   7.053   5.832   4.115
 8767TIP3    H226245   6.949   5.937   4.081
 8768TIP3   OH226246   6.397   5.735   2.925
 8768TIP3    H126247   6.447   5.716   3.005
 8768TIP3    H226248   6.338   5.660   2.916
 8769TIP3   OH226249   5.123   5.709   3.742
 8769TIP3    H126250   5.176   5.630   3.751
 8769TIP3    H226251   5.187   5.779   3.726
 8770TIP3   OH226252   4.899   5.965   3.805
 8770TIP3    H126253   4.952   5.964   3.726
 8770TIP3    H226254   4.923   6.046   3.850
 8771TIP3   OH226255   6.836   6.002   3.957
 8771TIP3    H126256   6.756   6.041   3.992
 8771TIP3    H226257   6.805   5.930   3.902
 8772TIP3   OH226258   6.459   5.635   2.557
 8772TIP3    H126259   6.505   5.574   2.500
 8772TIP3    H226260   6.515   5.713   2.559
 8773TIP3   OH226261   4.883   5.468   3.291
 8773TIP3    H126262   4.804   5.466   3.345
 8773TIP3    H226263   4.867   5.538   3.228
 8774TIP3   OH226264   6.057   7.192   2.832
 8774TIP3    H126265   6.109   7.192   2.752
 8774TIP3    H226266   6.087   7.270   2.879
 8775TIP3   OH226267   5.111   5.540   4.135
 8775TIP3    H126268   5.061   5.534   4.216
 8775TIP3    H226269   5.055   5.589   4.075
 8776TIP3   OH226270   5.140   6.996   4.203
 8776TIP3    H126271   5.046   6.978   4.192
 8776TIP3    H226272   5.156   6.982   4.297
 8777TIP3   OH226273   5.351   7.042   3.756
 8777TIP3    H126274   5.299   7.116   3.725
 8777TIP3    H226275   5.436   7.053   3.712
 8778TIP3   OH226276   5.745   7.271   3.892
 8778TIP3    H126277   5.783   7.263   3.979
 8778TIP3    H226278   5.807   7.326   3.844
 8779TIP3   OH226279   5.935   7.426   3.766
 8779TIP3    H126280   6.001   7.376   3.717
 8779TIP3    H226281   5.985   7.485   3.822
 8780TIP3   OH226282   6.750   5.748   3.853
 8780TIP3    H126283   6.660   5.734   3.823
 8780TIP3    H226284   6.788   5.660   3.852
 8781TIP3   OH226285   5.008   7.290   3.800
 8781TIP3    H126286   4.915   7.303   3.779
 8781TIP3    H226287   5.028   7.357   3.865
 8782TIP3   OH226288   5.240   7.273   3.653
 8782TIP3    H126289   5.157   7.280   3.700
 8782TIP3    H226290   5.218   7.294   3.562
 8783TIP3   OH226291   5.656   7.289   3.440
 8783TIP3    H126292   5.581   7.300   3.382
 8783TIP3    H226293   5.666   7.374   3.483
 8784TIP3   OH226294   5.918   7.218   3.486
 8784TIP3    H126295   5.826   7.241   3.469
 8784TIP3    H226296   5.968   7.286   3.442
 8785TIP3   OH226297   6.117   7.390   3.392
 8785TIP3    H126298   6.118   7.478   3.355
 8785TIP3    H226299   6.148   7.334   3.321
 8786TIP3   OH226300   4.924   7.061   3.518
 8786TIP3    H126301   4.948   7.036   3.608
 8786TIP3    H226302   4.995   7.027   3.464
 8787TIP3   OH226303   5.127   6.946   3.379
 8787TIP3    H126304   5.138   6.861   3.422
 8787TIP3    H226305   5.214   6.987   3.384
 8788TIP3   OH226306   5.396   7.030   3.402
 8788TIP3    H126307   5.415   6.937   3.388
 8788TIP3    H226308   5.448   7.053   3.479
 8789TIP3   OH226309   5.954   5.677   3.484
 8789TIP3    H126310   5.915   5.607   3.535
 8789TIP3    H226311   6.023   5.635   3.433
 8790TIP3   OH226312   6.456   5.608   3.388
 8790TIP3    H126313   6.489   5.649   3.308
 8790TIP3    H226314   6.361   5.610   3.380
 8791TIP3   OH226315   6.564   5.667   3.139
 8791TIP3    H126316   6.632   5.606   3.110
 8791TIP3    H226317   6.603   5.754   3.130
 8792TIP3   OH226318   5.197   5.373   3.490
 8792TIP3    H126319   5.109   5.338   3.504
 8792TIP3    H226320   5.252   5.295   3.484
 8793TIP3   OH226321   4.968   5.278   3.109
 8793TIP3    H126322   5.025   5.319   3.044
 8793TIP3    H226323   4.962   5.341   3.180
 8794TIP3   OH226324   5.650   5.451   3.386
 8794TIP3    H126325   5.710   5.483   3.318
 8794TIP3    H226326   5.699   5.458   3.467
 8795TIP3   OH226327   6.175   5.563   3.354
 8795TIP3    H126328   6.179   5.524   3.267
 8795TIP3    H226329   6.178   5.488   3.414
 8796TIP3   OH226330   6.220   5.516   2.930
 8796TIP3    H126331   6.139   5.559   2.955
 8796TIP3    H226332   6.212   5.427   2.965
 8797TIP3   OH226333   4.709   6.832   2.899
 8797TIP3    H126334   4.637   6.773   2.876
 8797TIP3    H226335   4.682   6.918   2.866
 8798TIP3   OH226336   5.118   5.411   2.901
 8798TIP3    H126337   5.165   5.351   2.843
 8798TIP3    H226338   5.186   5.468   2.936
 8799TIP3   OH226339   5.605   5.620   2.997
 8799TIP3    H126340   5.660   5.564   3.052
 8799TIP3    H226341   5.626   5.709   3.026
 8800TIP3   OH226342   5.492   7.050   2.496
 8800TIP3    H126343   5.577   7.066   2.456
 8800TIP3    H226344   5.458   6.972   2.452
 8801TIP3   OH226345   6.199   7.160   2.596
 8801TIP3    H126346   6.193   7.065   2.587
 8801TIP3    H226347   6.153   7.194   2.519
 8802TIP3   OH226348   5.421   5.663   4.371
 8802TIP3    H126349   5.386   5.595   4.429
 8802TIP3    H226350   5.513   5.671   4.397
 8803TIP3   OH226351   5.669   5.669   4.493
 8803TIP3    H126352   5.746   5.646   4.441
 8803TIP3    H226353   5.661   5.598   4.557
 8804TIP3   OH226354   4.834   6.884   2.557
 8804TIP3    H126355   4.802   6.847   2.639
 8804TIP3    H226356   4.904   6.824   2.530
 8805TIP3   OH226357   6.492   5.761   4.278
 8805TIP3    H126358   6.508   5.731   4.367
 8805TIP3    H226359   6.578   5.755   4.235
 8806TIP3   OH226360   6.401   7.284   3.781
 8806TIP3    H126361   6.331   7.247   3.727
 8806TIP3    H226362   6.382   7.378   3.784
 8807TIP3   OH226363   7.672   6.684   2.546
 8807TIP3    H126364   7.648   6.770   2.511
 8807TIP3    H226365   7.604   6.625   2.513
 8808TIP3   OH226366   7.668   6.662   2.960
 8808TIP3    H126367   7.723   6.643   3.035
 8808TIP3    H226368   7.627   6.579   2.938
 8809TIP3   OH226369   6.982   6.531   3.295
 8809TIP3    H126370   7.021   6.480   3.366
 8809TIP3    H226371   7.055   6.556   3.239
 8810TIP3   OH226372   7.897   6.985   2.660
 8810TIP3    H126373   7.895   6.905   2.712
 8810TIP3    H226374   7.845   7.048   2.710
 8811TIP3   OH226375   6.974   6.950   2.976
 8811TIP3    H126376   6.956   6.856   2.982
 8811TIP3    H226377   7.069   6.955   2.964
 8812TIP3   OH226378   6.656   6.162   2.765
 8812TIP3    H126379   6.617   6.246   2.792
 8812TIP3    H226380   6.586   6.117   2.718
 8813TIP3   OH226381   6.755   6.484   2.983
 8813TIP3    H126382   6.805   6.406   3.010
 8813TIP3    H226383   6.822   6.550   2.965
 8814TIP3   OH226384   7.566   7.303   2.672
 8814TIP3    H126385   7.634   7.255   2.719
 8814TIP3    H226386   7.537   7.371   2.732
 8815TIP3   OH226387   7.486   6.885   2.949
 8815TIP3    H126388   7.528   6.802   2.927
 8815TIP3    H226389   7.559   6.943   2.974
 8816TIP3   OH226390   8.474   6.270   3.040
 8816TIP3    H126391   8.458   6.360   3.067
 8816TIP3    H226392   8.494   6.276   2.947
 8817TIP3   OH226393   7.892   6.386   2.988
 8817TIP3    H126394   7.925   6.300   3.015
 8817TIP3    H226395   7.856   6.372   2.900
 8818TIP3   OH226396   7.250   6.037   2.948
 8818TIP3    H126397   7.233   6.110   2.888
 8818TIP3    H226398   7.197   5.965   2.914
 8819TIP3   OH226399   7.940   6.142   2.589
 8819TIP3    H126400   8.008   6.129   2.655
 8819TIP3    H226401   7.988   6.176   2.513
 8820TIP3   OH226402   6.881   6.255   3.074
 8820TIP3    H126403   6.965   6.236   3.117
 8820TIP3    H226404   6.883   6.203   2.994
 8821TIP3   OH226405   7.295   6.453   2.894
 8821TIP3    H126406   7.389   6.437   2.900
 8821TIP3    H226407   7.259   6.372   2.860
 8822TIP3   OH226408   7.231   6.047   3.400
 8822TIP3    H126409   7.181   6.083   3.326
 8822TIP3    H226410   7.177   6.064   3.477
 8823TIP3   OH226411   7.590   6.900   2.395
 8823TIP3    H126412   7.548   6.881   2.311
 8823TIP3    H226413   7.545   6.979   2.426
 8824TIP3   OH226414   7.328   6.816   3.164
 8824TIP3    H126415   7.273   6.888   3.196
 8824TIP3    H226416   7.376   6.853   3.090
 8825TIP3   OH226417   8.114   6.146   2.802
 8825TIP3    H126418   8.068   6.129   2.884
 8825TIP3    H226419   8.162   6.227   2.818
 8826TIP3   OH226420   7.125   6.152   3.167
 8826TIP3    H126421   7.182   6.225   3.189
 8826TIP3    H226422   7.170   6.107   3.096
 8827TIP3   OH226423   7.170   7.019   3.265
 8827TIP3    H126424   7.157   7.108   3.233
 8827TIP3    H226425   7.092   7.001   3.317
 8828TIP3   OH226426   6.540   6.717   2.529
 8828TIP3    H126427   6.509   6.733   2.440
 8828TIP3    H226428   6.565   6.803   2.562
 8829TIP3   OH226429   8.264   6.101   3.104
 8829TIP3    H126430   8.182   6.147   3.086
 8829TIP3    H226431   8.332   6.166   3.084
 8830TIP3   OH226432   7.573   5.796   3.098
 8830TIP3    H126433   7.641   5.767   3.159
 8830TIP3    H226434   7.496   5.811   3.154
 8831TIP3   OH226435   7.861   6.965   2.372
 8831TIP3    H126436   7.767   6.948   2.378
 8831TIP3    H226437   7.889   6.979   2.463
 8832TIP3   OH226438   7.501   6.527   2.387
 8832TIP3    H126439   7.422   6.575   2.360
 8832TIP3    H226440   7.551   6.517   2.306
 8833TIP3   OH226441   7.483   6.327   2.072
 8833TIP3    H126442   7.545   6.379   2.122
 8833TIP3    H226443   7.536   6.258   2.032
 8834TIP3   OH226444   8.401   6.793   3.036
 8834TIP3    H126445   8.318   6.820   2.997
 8834TIP3    H226446   8.465   6.805   2.966
 8835TIP3   OH226447   7.852   6.611   2.348
 8835TIP3    H126448   7.806   6.645   2.424
 8835TIP3    H226449   7.936   6.581   2.382
 8836TIP3   OH226450   8.092   6.628   3.292
 8836TIP3    H126451   8.083   6.712   3.338
 8836TIP3    H226452   8.011   6.620   3.242
 8837TIP3   OH226453   7.102   6.587   2.737
 8837TIP3    H126454   7.066   6.526   2.673
 8837TIP3    H226455   7.174   6.539   2.777
 8838TIP3   OH226456   7.235   6.995   2.879
 8838TIP3    H126457   7.215   6.987   2.786
 8838TIP3    H226458   7.323   6.959   2.888
 8839TIP3   OH226459   7.194   6.582   3.117
 8839TIP3    H126460   7.233   6.545   3.038
 8839TIP3    H226461   7.243   6.662   3.133
 8840TIP3   OH226462   7.751   7.178   2.853
 8840TIP3    H126463   7.785   7.250   2.905
 8840TIP3    H226464   7.737   7.107   2.915
 8841TIP3   OH226465   7.363   7.108   3.443
 8841TIP3    H126466   7.300   7.166   3.487
 8841TIP3    H226467   7.310   7.058   3.381
 8842TIP3   OH226468   7.688   6.470   2.190
 8842TIP3    H126469   7.744   6.523   2.246
 8842TIP3    H226470   7.719   6.487   2.101
 8843TIP3   OH226471   7.125   6.670   3.581
 8843TIP3    H126472   7.126   6.764   3.600
 8843TIP3    H226473   7.032   6.649   3.574
 8844TIP3   OH226474   7.470   7.135   2.468
 8844TIP3    H126475   7.503   7.193   2.537
 8844TIP3    H226476   7.422   7.193   2.409
 8845TIP3   OH226477   7.149   7.269   3.514
 8845TIP3    H126478   7.130   7.280   3.421
 8845TIP3    H226479   7.063   7.260   3.556
 8846TIP3   OH226480   8.209   5.686   2.234
 8846TIP3    H126481   8.133   5.729   2.273
 8846TIP3    H226482   8.258   5.757   2.192
 8847TIP3   OH226483   6.977   6.428   2.539
 8847TIP3    H126484   6.897   6.472   2.510
 8847TIP3    H226485   6.951   6.336   2.549
 8848TIP3   OH226486   6.756   6.835   3.470
 8848TIP3    H126487   6.686   6.816   3.407
 8848TIP3    H226488   6.791   6.750   3.495
 8849TIP3   OH226489   6.598   7.031   3.129
 8849TIP3    H126490   6.689   7.057   3.149
 8849TIP3    H226491   6.546   7.107   3.155
 8850TIP3   OH226492   7.556   7.247   3.308
 8850TIP3    H126493   7.541   7.340   3.328
 8850TIP3    H226494   7.488   7.201   3.357
 8851TIP3   OH226495   6.776   7.208   2.626
 8851TIP3    H126496   6.817   7.201   2.713
 8851TIP3    H226497   6.725   7.128   2.617
 8852TIP3   OH226498   8.347   6.627   3.425
 8852TIP3    H126499   8.259   6.622   3.388
 8852TIP3    H226500   8.387   6.543   3.404
 8853TIP3   OH226501   6.955   7.023   3.439
 8853TIP3    H126502   7.006   7.009   3.519
 8853TIP3    H226503   6.883   6.961   3.445
 8854TIP3   OH226504   7.335   5.833   3.257
 8854TIP3    H126505   7.253   5.801   3.219
 8854TIP3    H226506   7.311   5.913   3.303
 8855TIP3   OH226507   7.872   5.944   3.447
 8855TIP3    H126508   7.943   5.911   3.503
 8855TIP3    H226509   7.792   5.923   3.495
 8856TIP3   OH226510   8.125   6.356   3.367
 8856TIP3    H126511   8.080   6.351   3.451
 8856TIP3    H226512   8.112   6.446   3.338
 8857TIP3   OH226513   7.786   6.516   1.948
 8857TIP3    H126514   7.755   6.491   1.861
 8857TIP3    H226515   7.850   6.585   1.932
 8858TIP3   OH226516   7.484   5.871   2.224
 8858TIP3    H126517   7.450   5.878   2.313
 8858TIP3    H226518   7.450   5.788   2.191
 8859TIP3   OH226519   7.278   6.361   3.264
 8859TIP3    H126520   7.233   6.368   3.348
 8859TIP3    H226521   7.256   6.442   3.218
 8860TIP3   OH226522   7.156   6.239   2.786
 8860TIP3    H126523   7.067   6.213   2.810
 8860TIP3    H226524   7.167   6.207   2.696
 8861TIP3   OH226525   7.629   6.320   2.517
 8861TIP3    H126526   7.581   6.393   2.477
 8861TIP3    H226527   7.685   6.287   2.447
 8862TIP3   OH226528   7.822   6.585   3.586
 8862TIP3    H126529   7.795   6.516   3.645
 8862TIP3    H226530   7.916   6.594   3.601
 8863TIP3   OH226531   7.800   6.331   2.735
 8863TIP3    H126532   7.731   6.353   2.672
 8863TIP3    H226533   7.844   6.256   2.698
 8864TIP3   OH226534   7.116   6.375   3.486
 8864TIP3    H126535   7.141   6.435   3.556
 8864TIP3    H226536   7.097   6.292   3.531
 8865TIP3   OH226537   7.156   5.849   2.204
 8865TIP3    H126538   7.149   5.853   2.299
 8865TIP3    H226539   7.077   5.892   2.171
 8866TIP3   OH226540   6.698   5.891   3.071
 8866TIP3    H126541   6.773   5.928   3.117
 8866TIP3    H226542   6.730   5.873   2.982
 8867TIP3   OH226543   6.611   5.870   2.570
 8867TIP3    H126544   6.657   5.904   2.493
 8867TIP3    H226545   6.546   5.937   2.590
 8868TIP3   OH226546   7.842   6.581   3.167
 8868TIP3    H126547   7.868   6.517   3.100
 8868TIP3    H226548   7.802   6.529   3.236
 8869TIP3   OH226549   7.522   6.030   2.832
 8869TIP3    H126550   7.449   6.023   2.894
 8869TIP3    H226551   7.600   6.023   2.887
 8870TIP3   OH226552   6.918   6.112   2.844
 8870TIP3    H126553   6.830   6.114   2.806
 8870TIP3    H226554   6.949   6.023   2.827
 8871TIP3   OH226555   7.169   6.120   2.539
 8871TIP3    H126556   7.264   6.128   2.530
 8871TIP3    H226557   7.135   6.136   2.451
 8872TIP3   OH226558   7.965   6.126   3.041
 8872TIP3    H126559   7.948   6.136   3.134
 8872TIP3    H226560   7.897   6.066   3.010
 8873TIP3   OH226561   7.057   6.143   2.291
 8873TIP3    H126562   6.996   6.092   2.238
 8873TIP3    H226563   7.111   6.189   2.227
 8874TIP3   OH226564   7.105   6.937   3.674
 8874TIP3    H126565   7.186   6.956   3.721
 8874TIP3    H226566   7.036   6.943   3.740
 8875TIP3   OH226567   7.566   6.397   2.941
 8875TIP3    H126568   7.631   6.347   2.890
 8875TIP3    H226569   7.566   6.355   3.027
 8876TIP3   OH226570   7.059   5.866   2.823
 8876TIP3    H126571   7.028   5.792   2.875
 8876TIP3    H226572   7.082   5.828   2.738
 8877TIP3   OH226573   7.544   6.302   3.204
 8877TIP3    H126574   7.458   6.334   3.231
 8877TIP3    H226575   7.605   6.350   3.260
 8878TIP3   OH226576   7.274   6.671   2.308
 8878TIP3    H126577   7.204   6.610   2.286
 8878TIP3    H226578   7.249   6.706   2.394
 8879TIP3   OH226579   8.163   6.860   2.916
 8879TIP3    H126580   8.161   6.919   2.840
 8879TIP3    H226581   8.080   6.812   2.911
 8880TIP3   OH226582   7.735   5.977   2.226
 8880TIP3    H126583   7.642   5.956   2.225
 8880TIP3    H226584   7.737   6.072   2.242
 8881TIP3   OH226585   7.678   6.979   3.316
 8881TIP3    H126586   7.724   6.963   3.399
 8881TIP3    H226587   7.639   7.065   3.326
 8882TIP3   OH226588   7.789   6.237   2.303
 8882TIP3    H126589   7.883   6.239   2.316
 8882TIP3    H226590   7.769   6.314   2.251
 8883TIP3   OH226591   6.969   6.664   2.966
 8883TIP3    H126592   7.007   6.648   2.880
 8883TIP3    H226593   7.037   6.637   3.028
 8884TIP3   OH226594   7.439   6.831   2.158
 8884TIP3    H126595   7.391   6.914   2.154
 8884TIP3    H226596   7.383   6.773   2.210
 8885TIP3   OH226597   6.850   6.606   3.605
 8885TIP3    H126598   6.856   6.580   3.697
 8885TIP3    H226599   6.775   6.556   3.571
 8886TIP3   OH226600   7.591   6.737   3.620
 8886TIP3    H126601   7.523   6.677   3.590
 8886TIP3    H226602   7.673   6.696   3.594
 8887TIP3   OH226603   7.829   7.259   3.239
 8887TIP3    H126604   7.734   7.258   3.256
 8887TIP3    H226605   7.865   7.311   3.311
 8888TIP3   OH226606   7.909   6.758   2.837
 8888TIP3    H126607   7.820   6.730   2.859
 8888TIP3    H226608   7.948   6.683   2.792
 8889TIP3   OH226609   7.093   7.016   2.634
 8889TIP3    H126610   7.091   7.091   2.575
 8889TIP3    H226611   7.004   7.010   2.669
 8890TIP3   OH226612   6.653   6.297   2.344
 8890TIP3    H126613   6.698   6.379   2.367
 8890TIP3    H226614   6.573   6.298   2.396
 8891TIP3   OH226615   7.175   6.770   2.539
 8891TIP3    H126616   7.157   6.858   2.570
 8891TIP3    H226617   7.152   6.713   2.612
 8892TIP3   OH226618   7.378   7.320   3.091
 8892TIP3    H126619   7.418   7.379   3.027
 8892TIP3    H226620   7.452   7.286   3.141
 8893TIP3   OH226621   7.009   7.240   2.480
 8893TIP3    H126622   6.923   7.242   2.522
 8893TIP3    H226623   7.043   7.329   2.492
 8894TIP3   OH226624   7.732   6.979   3.044
 8894TIP3    H126625   7.719   6.980   3.138
 8894TIP3    H226626   7.792   6.905   3.029
 8895TIP3   OH226627   7.651   6.867   1.971
 8895TIP3    H126628   7.733   6.837   2.011
 8895TIP3    H226629   7.585   6.856   2.040
 8896TIP3   OH226630   7.062   6.124   3.606
 8896TIP3    H126631   6.967   6.133   3.613
 8896TIP3    H226632   7.087   6.079   3.687
 8897TIP3   OH226633   7.865   6.785   2.131
 8897TIP3    H126634   7.863   6.715   2.196
 8897TIP3    H226635   7.890   6.863   2.181
 8898TIP3   OH226636   6.802   7.228   3.253
 8898TIP3    H126637   6.857   7.172   3.308
 8898TIP3    H226638   6.812   7.316   3.291
 8899TIP3   OH226639   7.076   6.845   1.955
 8899TIP3    H126640   7.104   6.760   1.921
 8899TIP3    H226641   7.059   6.829   2.048
 8900TIP3   OH226642   7.023   6.847   2.229
 8900TIP3    H126643   7.093   6.815   2.286
 8900TIP3    H226644   7.029   6.942   2.236
 8901TIP3   OH226645   6.745   6.546   2.435
 8901TIP3    H126646   6.679   6.593   2.486
 8901TIP3    H226647   6.767   6.606   2.364
 8902TIP3   OH226648   7.912   6.179   3.307
 8902TIP3    H126649   7.997   6.212   3.336
 8902TIP3    H226650   7.900   6.098   3.357
 8903TIP3   OH226651   7.791   5.927   2.495
 8903TIP3    H126652   7.772   5.948   2.403
 8903TIP3    H226653   7.834   6.006   2.528
 8904TIP3   OH226654   7.288   7.058   2.143
 8904TIP3    H126655   7.206   7.087   2.182
 8904TIP3    H226656   7.279   7.079   2.050
 8905TIP3   OH226657   7.447   6.125   2.584
 8905TIP3    H126658   7.508   6.194   2.560
 8905TIP3    H226659   7.472   6.102   2.674
 8906TIP3   OH226660   7.752   6.407   3.359
 8906TIP3    H126661   7.781   6.445   3.442
 8906TIP3    H226662   7.803   6.326   3.351
 8907TIP3   OH226663   7.614   5.814   2.672
 8907TIP3    H126664   7.593   5.890   2.726
 8907TIP3    H226665   7.682   5.845   2.612
 8908TIP3   OH226666   7.035   7.121   2.235
 8908TIP3    H126667   6.969   7.164   2.181
 8908TIP3    H226668   7.029   7.165   2.320
 8909TIP3   OH226669   7.130   5.845   2.483
 8909TIP3    H126670   7.120   5.936   2.511
 8909TIP3    H226671   7.224   5.829   2.489
 8910TIP3   OH226672   8.422   6.378   3.354
 8910TIP3    H126673   8.343   6.324   3.353
 8910TIP3    H226674   8.490   6.320   3.389
 8911TIP3   OH226675   8.016   6.520   2.735
 8911TIP3    H126676   7.941   6.460   2.737
 8911TIP3    H226677   8.084   6.474   2.785
 8912TIP3   OH226678   6.772   6.725   2.222
 8912TIP3    H126679   6.846   6.786   2.233
 8912TIP3    H226680   6.802   6.663   2.156
 8913TIP3   OH226681   6.680   6.019   2.351
 8913TIP3    H126682   6.689   6.114   2.353
 8913TIP3    H226683   6.651   5.999   2.263
 8914TIP3   OH226684   7.075   5.743   3.209
 8914TIP3    H126685   7.043   5.710   3.125
 8914TIP3    H226686   7.077   5.665   3.265
 8915TIP3   OH226687   6.592   6.991   2.602
 8915TIP3    H126688   6.550   7.031   2.678
 8915TIP3    H226689   6.550   7.033   2.527
 8916TIP3   OH226690   6.814   7.541   3.681
 8916TIP3    H126691   6.893   7.557   3.733
 8916TIP3    H226692   6.821   7.449   3.655
 8917TIP3   OH226693   7.261   7.433   3.701
 8917TIP3    H126694   7.347   7.394   3.717
 8917TIP3    H226695   7.224   7.380   3.630
 8918TIP3   OH226696   7.245   7.045   1.868
 8918TIP3    H126697   7.193   6.970   1.895
 8918TIP3    H226698   7.330   7.007   1.842
 8919TIP3   OH226699   7.954   7.360   3.478
 8919TIP3    H126700   7.907   7.301   3.536
 8919TIP3    H226701   8.046   7.336   3.488
 8920TIP3   OH226702   6.899   6.930   3.862
 8920TIP3    H126703   6.922   6.838   3.874
 8920TIP3    H226704   6.811   6.929   3.823
 8921TIP3   OH226705   6.892   6.535   2.068
 8921TIP3    H126706   6.945   6.512   2.144
 8921TIP3    H226707   6.955   6.549   1.998
 8922TIP3   OH226708   7.525   7.011   3.642
 8922TIP3    H126709   7.476   7.030   3.562
 8922TIP3    H226710   7.558   6.922   3.629
 8923TIP3   OH226711   7.358   6.733   1.899
 8923TIP3    H126712   7.390   6.745   1.989
 8923TIP3    H226713   7.379   6.642   1.878
 8924TIP3   OH226714   7.996   7.041   3.241
 8924TIP3    H126715   8.046   7.052   3.160
 8924TIP3    H226716   7.930   7.111   3.239
 8925TIP3   OH226717   7.018   6.678   3.869
 8925TIP3    H126718   7.094   6.658   3.814
 8925TIP3    H226719   7.054   6.694   3.956
 8926TIP3   OH226720   7.073   6.482   2.274
 8926TIP3    H126721   7.054   6.450   2.363
 8926TIP3    H226722   7.120   6.410   2.233
 8927TIP3   OH226723   7.377   6.557   3.531
 8927TIP3    H126724   7.294   6.603   3.541
 8927TIP3    H226725   7.410   6.585   3.446
 8928TIP3   OH226726   7.211   6.295   2.122
 8928TIP3    H126727   7.183   6.298   2.030
 8928TIP3    H226728   7.306   6.302   2.118
 8929TIP3   OH226729   7.883   6.936   3.609
 8929TIP3    H126730   7.953   6.900   3.553
 8929TIP3    H226731   7.881   6.878   3.685
 8930TIP3   OH226732   7.482   6.326   3.639
 8930TIP3    H126733   7.488   6.255   3.574
 8930TIP3    H226734   7.448   6.401   3.590
 8931TIP3   OH226735   7.492   6.130   3.435
 8931TIP3    H126736   7.522   6.162   3.350
 8931TIP3    H226737   7.401   6.104   3.419
 8932TIP3   OH226738   7.497   6.656   3.310
 8932TIP3    H126739   7.587   6.683   3.291
 8932TIP3    H226740   7.443   6.717   3.259
 8933TIP3   OH226741   8.094   6.599   3.687
 8933TIP3    H126742   8.110   6.505   3.692
 8933TIP3    H226743   8.179   6.638   3.669
 8934TIP3   OH226744   8.112   6.884   3.427
 8934TIP3    H126745   8.059   6.940   3.370
 8934TIP3    H226746   8.200   6.887   3.389
 8935TIP3   OH226747   7.368   6.411   3.881
 8935TIP3    H126748   7.299   6.348   3.902
 8935TIP3    H226749   7.397   6.386   3.793
 8936TIP3   OH226750   7.610   5.897   3.540
 8936TIP3    H126751   7.571   5.977   3.503
 8936TIP3    H226752   7.548   5.828   3.517
 8937TIP3   OH226753   7.740   6.370   3.735
 8937TIP3    H126754   7.735   6.356   3.829
 8937TIP3    H226755   7.653   6.347   3.702
 8938TIP3   OH226756   7.984   6.331   3.599
 8938TIP3    H126757   7.902   6.325   3.650
 8938TIP3    H226758   8.052   6.301   3.659
 8939TIP3   OH226759   8.201   6.298   3.764
 8939TIP3    H126760   8.211   6.203   3.768
 8939TIP3    H226761   8.203   6.327   3.855
 8940TIP3   OH226762   7.202   6.190   3.944
 8940TIP3    H126763   7.210   6.102   3.908
 8940TIP3    H226764   7.241   6.183   4.031
 8941TIP3   OH226765   7.674   5.875   3.804
 8941TIP3    H126766   7.742   5.808   3.800
 8941TIP3    H226767   7.647   5.888   3.713
 8942TIP3   OH226768   7.775   6.089   3.947
 8942TIP3    H126769   7.746   6.016   3.892
 8942TIP3    H226770   7.702   6.151   3.945
 8943TIP3   OH226771   6.497   6.719   2.234
 8943TIP3    H126772   6.593   6.730   2.231
 8943TIP3    H226773   6.482   6.632   2.198
 8944TIP3   OH226774   6.405   7.308   2.695
 8944TIP3    H126775   6.339   7.257   2.648
 8944TIP3    H226776   6.447   7.245   2.753
 8945TIP3   OH226777   6.546   7.135   2.859
 8945TIP3    H126778   6.539   7.066   2.925
 8945TIP3    H226779   6.598   7.204   2.900
 8946TIP3   OH226780   7.983   6.218   1.946
 8946TIP3    H126781   8.010   6.248   1.859
 8946TIP3    H226782   8.011   6.127   1.950
 8947TIP3   OH226783   8.074   6.507   2.464
 8947TIP3    H126784   8.112   6.420   2.456
 8947TIP3    H226785   8.067   6.522   2.558
 8948TIP3   OH226786   6.721   6.577   3.239
 8948TIP3    H126787   6.716   6.545   3.149
 8948TIP3    H226788   6.814   6.571   3.261
 8949TIP3   OH226789   8.359   6.875   3.307
 8949TIP3    H126790   8.381   6.792   3.349
 8949TIP3    H226791   8.383   6.863   3.215
 8950TIP3   OH226792   8.023   5.949   1.921
 8950TIP3    H126793   8.082   5.875   1.931
 8950TIP3    H226794   7.936   5.914   1.936
 8951TIP3   OH226795   8.068   6.227   2.350
 8951TIP3    H126796   8.116   6.145   2.366
 8951TIP3    H226797   8.103   6.259   2.266
 8952TIP3   OH226798   8.237   6.390   2.850
 8952TIP3    H126799   8.315   6.407   2.797
 8952TIP3    H226800   8.252   6.437   2.931
 8953TIP3   OH226801   8.293   6.539   3.074
 8953TIP3    H126802   8.229   6.550   3.144
 8953TIP3    H226803   8.337   6.623   3.069
 8954TIP3   OH226804   6.939   6.248   3.882
 8954TIP3    H126805   7.033   6.245   3.901
 8954TIP3    H226806   6.904   6.167   3.919
 8955TIP3   OH226807   8.186   5.994   2.418
 8955TIP3    H126808   8.239   5.978   2.496
 8955TIP3    H226809   8.129   5.917   2.412
 8956TIP3   OH226810   6.914   5.968   3.234
 8956TIP3    H126811   6.966   5.887   3.236
 8956TIP3    H226812   6.977   6.036   3.213
 8957TIP3   OH226813   6.696   6.233   3.286
 8957TIP3    H126814   6.750   6.225   3.208
 8957TIP3    H226815   6.737   6.305   3.336
 8958TIP3   OH226816   6.688   5.757   2.807
 8958TIP3    H126817   6.602   5.730   2.840
 8958TIP3    H226818   6.669   5.803   2.725
 8959TIP3   OH226819   6.889   5.771   3.605
 8959TIP3    H126820   6.846   5.777   3.690
 8959TIP3    H226821   6.841   5.833   3.550
 8960TIP3   OH226822   6.918   7.265   3.675
 8960TIP3    H126823   6.827   7.237   3.673
 8960TIP3    H226824   6.947   7.247   3.765
 8961TIP3   OH226825   7.146   7.295   3.236
 8961TIP3    H126826   7.093   7.367   3.202
 8961TIP3    H226827   7.231   7.305   3.194
 8962TIP3   OH226828   7.539   7.517   3.357
 8962TIP3    H126829   7.596   7.515   3.433
 8962TIP3    H226830   7.586   7.572   3.293
 8963TIP3   OH226831   8.489   5.976   3.402
 8963TIP3    H126832   8.413   5.936   3.360
 8963TIP3    H226833   8.545   6.005   3.330
 8964TIP3   OH226834   6.799   7.521   3.294
 8964TIP3    H126835   6.709   7.542   3.268
 8964TIP3    H226836   6.824   7.591   3.354
 8965TIP3   OH226837   7.022   7.518   3.135
 8965TIP3    H126838   6.941   7.520   3.185
 8965TIP3    H226839   6.995   7.542   3.046
 8966TIP3   OH226840   7.461   7.500   2.897
 8966TIP3    H126841   7.381   7.526   2.853
 8966TIP3    H226842   7.483   7.574   2.953
 8967TIP3   OH226843   6.717   7.315   3.001
 8967TIP3    H126844   6.741   7.293   3.091
 8967TIP3    H226845   6.788   7.279   2.948
 8968TIP3   OH226846   6.915   7.190   2.864
 8968TIP3    H126847   6.924   7.105   2.907
 8968TIP3    H226848   7.002   7.230   2.872
 8969TIP3   OH226849   7.179   7.267   2.905
 8969TIP3    H126850   7.200   7.175   2.886
 8969TIP3    H226851   7.240   7.291   2.974
 8970TIP3   OH226852   7.760   5.955   2.955
 8970TIP3    H126853   7.712   5.893   3.010
 8970TIP3    H226854   7.825   5.901   2.910
 8971TIP3   OH226855   8.233   5.864   2.848
 8971TIP3    H126856   8.244   5.937   2.787
 8971TIP3    H226857   8.139   5.864   2.868
 8972TIP3   OH226858   8.373   5.954   2.617
 8972TIP3    H126859   8.418   5.890   2.673
 8972TIP3    H226860   8.430   5.965   2.541
 8973TIP3   OH226861   6.977   5.644   2.970
 8973TIP3    H126862   6.886   5.616   2.973
 8973TIP3    H226863   7.027   5.563   2.957
 8974TIP3   OH226864   6.853   5.575   2.654
 8974TIP3    H126865   6.859   5.613   2.566
 8974TIP3    H226866   6.801   5.637   2.704
 8975TIP3   OH226867   7.456   5.683   2.870
 8975TIP3    H126868   7.507   5.720   2.798
 8975TIP3    H226869   7.497   5.720   2.949
 8976TIP3   OH226870   7.961   5.803   2.843
 8976TIP3    H126871   7.969   5.748   2.765
 8976TIP3    H226872   7.969   5.742   2.916
 8977TIP3   OH226873   8.013   5.782   2.410
 8977TIP3    H126874   7.932   5.827   2.435
 8977TIP3    H226875   8.001   5.692   2.440
 8978TIP3   OH226876   6.480   7.110   2.378
 8978TIP3    H126877   6.394   7.082   2.346
 8978TIP3    H226878   6.486   7.203   2.355
 8979TIP3   OH226879   6.919   5.682   2.389
 8979TIP3    H126880   6.963   5.616   2.336
 8979TIP3    H226881   6.991   5.735   2.426
 8980TIP3   OH226882   7.405   5.872   2.489
 8980TIP3    H126883   7.465   5.820   2.542
 8980TIP3    H226884   7.420   5.962   2.517
 8981TIP3   OH226885   7.215   5.921   3.850
 8981TIP3    H126886   7.182   5.855   3.912
 8981TIP3    H226887   7.308   5.929   3.871
 8982TIP3   OH226888   7.461   5.928   3.977
 8982TIP3    H126889   7.538   5.908   3.924
 8982TIP3    H226890   7.459   5.859   4.043
 8983TIP3   OH226891   6.603   7.111   2.053
 8983TIP3    H126892   6.590   7.110   2.148
 8983TIP3    H226893   6.689   7.071   2.039
 8984TIP3   OH226894   8.251   6.029   3.778
 8984TIP3    H126895   8.269   6.005   3.869
 8984TIP3    H226896   8.338   6.038   3.738
 8985TIP3   OH226897   0.995   7.005   4.657
 8985TIP3    H126898   1.008   7.089   4.702
 8985TIP3    H226899   1.023   7.021   4.567
 8986TIP3   OH226900   0.393   6.877   4.256
 8986TIP3    H126901   0.438   6.911   4.334
 8986TIP3    H226902   0.430   6.927   4.183
 8987TIP3   OH226903   1.040   7.218   4.833
 8987TIP3    H126904   0.951   7.254   4.826
 8987TIP3    H226905   1.076   7.259   4.911
 8988TIP3   OH226906   0.543   6.961   4.474
 8988TIP3    H126907   0.571   6.873   4.498
 8988TIP3    H226908   0.614   7.018   4.503
 8989TIP3   OH226909   0.772   6.918   4.802
 8989TIP3    H126910   0.698   6.952   4.752
 8989TIP3    H226911   0.848   6.938   4.749
 8990TIP3   OH226912   0.677   7.952   4.723
 8990TIP3    H126913   0.715   7.876   4.679
 8990TIP3    H226914   0.634   8.001   4.652
 8991TIP3   OH226915   0.888   7.532   4.648
 8991TIP3    H126916   0.806   7.579   4.665
 8991TIP3    H226917   0.909   7.555   4.557
 8992TIP3   OH226918   0.691   6.481   3.916
 8992TIP3    H126919   0.609   6.498   3.963
 8992TIP3    H226920   0.702   6.558   3.860
 8993TIP3   OH226921   0.819   7.362   5.139
 8993TIP3    H126922   0.730   7.393   5.153
 8993TIP3    H226923   0.809   7.269   5.118
 8994TIP3   OH226924   0.645   7.651   4.682
 8994TIP3    H126925   0.618   7.686   4.597
 8994TIP3    H226926   0.579   7.684   4.743
 8995TIP3   OH226927   0.680   7.097   3.811
 8995TIP3    H126928   0.628   7.054   3.744
 8995TIP3    H226929   0.682   7.189   3.785
 8996TIP3   OH226930   0.896   7.878   4.891
 8996TIP3    H126931   0.817   7.928   4.870
 8996TIP3    H226932   0.940   7.866   4.807
 8997TIP3   OH226933   0.791   7.098   5.045
 8997TIP3    H126934   0.734   7.034   5.087
 8997TIP3    H226935   0.799   7.067   4.954
 8998TIP3   OH226936   0.487   7.246   4.437
 8998TIP3    H126937   0.438   7.165   4.448
 8998TIP3    H226938   0.567   7.233   4.488
 8999TIP3   OH226939   0.514   7.357   3.474
 8999TIP3    H126940   0.458   7.304   3.418
 8999TIP3    H226941   0.582   7.391   3.415
 9000TIP3   OH226942   0.724   7.054   5.461
 9000TIP3    H126943   0.720   6.959   5.451
 9000TIP3    H226944   0.641   7.077   5.505
 9001TIP3   OH226945   0.573   7.571   3.858
 9001TIP3    H126946   0.650   7.611   3.818
 9001TIP3    H226947   0.607   7.518   3.930
 9002TIP3   OH226948   0.741   7.416   4.015
 9002TIP3    H126949   0.687   7.369   4.079
 9002TIP3    H226950   0.810   7.457   4.068
 9003TIP3   OH226951   0.807   7.800   4.482
 9003TIP3    H126952   0.841   7.723   4.436
 9003TIP3    H226953   0.783   7.861   4.412
 9004TIP3   OH226954   0.680   7.345   3.693
 9004TIP3    H126955   0.610   7.351   3.627
 9004TIP3    H226956   0.662   7.418   3.753
 9005TIP3   OH226957   0.551   6.994   3.595
 9005TIP3    H126958   0.498   7.038   3.528
 9005TIP3    H226959   0.532   6.901   3.583
 9006TIP3   OH226960   0.590   7.266   4.181
 9006TIP3    H126961   0.571   7.177   4.152
 9006TIP3    H226962   0.545   7.274   4.265
 9007TIP3   OH226963   0.814   7.670   5.049
 9007TIP3    H126964   0.883   7.609   5.022
 9007TIP3    H226965   0.819   7.741   4.986
 9008TIP3   OH226966   1.023   7.492   5.021
 9008TIP3    H126967   0.952   7.446   5.065
 9008TIP3    H226968   1.101   7.441   5.042
 9009TIP3   OH226969   0.503   6.722   3.580
 9009TIP3    H126970   0.568   6.705   3.647
 9009TIP3    H226971   0.420   6.695   3.619
 9010TIP3   OH226972   0.564   7.010   4.064
 9010TIP3    H126973   0.607   6.925   4.070
 9010TIP3    H226974   0.592   7.045   3.979
 9011TIP3   OH226975   0.717   7.155   4.578
 9011TIP3    H126976   0.795   7.175   4.527
 9011TIP3    H226977   0.727   7.207   4.658
 9012TIP3   OH226978   0.784   7.324   4.791
 9012TIP3    H126979   0.718   7.366   4.846
 9012TIP3    H226980   0.821   7.395   4.739
 9013TIP3   OH226981   1.240   6.924   5.329
 9013TIP3    H126982   1.304   6.869   5.284
 9013TIP3    H226983   1.199   6.976   5.259
 9014TIP3   OH226984   0.674   6.756   4.089
 9014TIP3    H126985   0.713   6.743   4.175
 9014TIP3    H226986   0.603   6.692   4.085
 9015TIP3   OH226987   1.084   7.053   5.144
 9015TIP3    H126988   1.024   7.095   5.206
 9015TIP3    H226989   1.027   7.002   5.086
 9016TIP3   OH226990   0.730   6.680   3.731
 9016TIP3    H126991   0.777   6.622   3.671
 9016TIP3    H226992   0.786   6.758   3.738
 9017TIP3   OH226993   0.993   6.779   5.035
 9017TIP3    H126994   0.905   6.752   5.008
 9017TIP3    H226995   1.044   6.698   5.031
 9018TIP3   OH226996   0.741   6.593   4.526
 9018TIP3    H126997   0.779   6.647   4.457
 9018TIP3    H226998   0.652   6.625   4.535
 9019TIP3   OH226999   0.837   6.722   4.309
 9019TIP3    H127000   0.905   6.662   4.279
 9019TIP3    H227001   0.874   6.809   4.294
 9020TIP3   OH227002   0.483   6.674   4.537
 9020TIP3    H127003   0.401   6.706   4.499
 9020TIP3    H227004   0.457   6.602   4.594
 9021TIP3   OH227005   0.478   6.554   4.077
 9021TIP3    H127006   0.389   6.586   4.064
 9021TIP3    H227007   0.467   6.467   4.117
 9022TIP3   OH227008   0.736   6.779   5.433
 9022TIP3    H127009   0.751   6.758   5.525
 9022TIP3    H227010   0.824   6.779   5.395
 9023TIP3   OH227011   1.940   7.609   3.781
 9023TIP3    H127012   1.939   7.703   3.761
 9023TIP3    H227013   1.878   7.571   3.718
 9024TIP3   OH227014   1.923   7.710   4.120
 9024TIP3    H127015   1.967   7.695   4.204
 9024TIP3    H227016   1.883   7.626   4.098
 9025TIP3   OH227017   1.228   7.593   4.483
 9025TIP3    H127018   1.270   7.531   4.541
 9025TIP3    H227019   1.291   7.664   4.473
 9026TIP3   OH227020   2.208   7.993   3.822
 9026TIP3    H127021   2.182   7.934   3.892
 9026TIP3    H227022   2.236   8.073   3.867
 9027TIP3   OH227023   1.348   7.902   4.290
 9027TIP3    H127024   1.253   7.899   4.298
 9027TIP3    H227025   1.365   7.903   4.196
 9028TIP3   OH227026   0.906   7.194   3.954
 9028TIP3    H127027   0.867   7.280   3.973
 9028TIP3    H227028   0.836   7.144   3.913
 9029TIP3   OH227029   0.973   7.486   4.150
 9029TIP3    H127030   1.019   7.408   4.183
 9029TIP3    H227031   1.043   7.543   4.118
 9030TIP3   OH227032   1.754   7.938   4.199
 9030TIP3    H127033   1.775   7.867   4.139
 9030TIP3    H227034   1.838   7.964   4.237
 9031TIP3   OH227035   2.772   7.244   4.136
 9031TIP3    H127036   2.788   7.329   4.176
 9031TIP3    H227037   2.809   7.251   4.048
 9032TIP3   OH227038   2.151   7.426   4.173
 9032TIP3    H127039   2.183   7.339   4.197
 9032TIP3    H227040   2.116   7.415   4.085
 9033TIP3   OH227041   1.502   7.078   4.127
 9033TIP3    H127042   1.485   7.152   4.069
 9033TIP3    H227043   1.447   7.007   4.093
 9034TIP3   OH227044   2.195   7.190   3.760
 9034TIP3    H127045   2.253   7.185   3.836
 9034TIP3    H227046   2.250   7.226   3.690
 9035TIP3   OH227047   1.124   7.282   4.260
 9035TIP3    H127048   1.210   7.275   4.302
 9035TIP3    H227049   1.135   7.239   4.175
 9036TIP3   OH227050   1.572   7.485   4.051
 9036TIP3    H127051   1.666   7.469   4.063
 9036TIP3    H227052   1.537   7.400   4.023
 9037TIP3   OH227053   2.815   7.453   4.322
 9037TIP3    H127054   2.739   7.506   4.296
 9037TIP3    H227055   2.790   7.413   4.405
 9038TIP3   OH227056   1.482   7.085   4.577
 9038TIP3    H127057   1.435   7.127   4.505
 9038TIP3    H227058   1.428   7.102   4.654
 9039TIP3   OH227059   1.922   7.825   3.596
 9039TIP3    H127060   1.869   7.830   3.517
 9039TIP3    H227061   1.926   7.915   3.629
 9040TIP3   OH227062   1.589   7.831   4.384
 9040TIP3    H127063   1.500   7.862   4.369
 9040TIP3    H227064   1.643   7.878   4.321
 9041TIP3   OH227065   2.357   7.196   3.984
 9041TIP3    H127066   2.311   7.182   4.067
 9041TIP3    H227067   2.415   7.270   4.001
 9042TIP3   OH227068   1.378   7.194   4.346
 9042TIP3    H127069   1.433   7.268   4.370
 9042TIP3    H227070   1.424   7.152   4.273
 9043TIP3   OH227071   4.305   0.115   4.413
 9043TIP3    H127072   4.240   0.045   4.399
 9043TIP3    H227073   4.255   0.186   4.454
 9044TIP3   OH227074   0.804   7.639   3.731
 9044TIP3    H127075   0.761   7.638   3.646
 9044TIP3    H227076   0.844   7.726   3.737
 9045TIP3   OH227077   2.572   7.140   4.306
 9045TIP3    H127078   2.490   7.172   4.270
 9045TIP3    H227079   2.638   7.164   4.240
 9046TIP3   OH227080   1.827   6.784   4.312
 9046TIP3    H127081   1.817   6.691   4.333
 9046TIP3    H227082   1.748   6.825   4.348
 9047TIP3   OH227083   2.242   7.946   3.545
 9047TIP3    H127084   2.180   7.985   3.484
 9047TIP3    H227085   2.207   7.965   3.632
 9048TIP3   OH227086   5.375   0.127   4.225
 9048TIP3    H127087   5.325   0.053   4.191
 9048TIP3    H227088   5.402   0.175   4.147
 9049TIP3   OH227089   1.780   7.519   3.574
 9049TIP3    H127090   1.697   7.566   3.562
 9049TIP3    H227091   1.819   7.517   3.487
 9050TIP3   OH227092   1.729   7.317   3.270
 9050TIP3    H127093   1.791   7.379   3.308
 9050TIP3    H227094   1.783   7.258   3.218
 9051TIP3   OH227095   2.659   7.803   4.152
 9051TIP3    H127096   2.573   7.844   4.153
 9051TIP3    H227097   2.689   7.812   4.061
 9052TIP3   OH227098   2.111   7.612   3.521
 9052TIP3    H127099   2.062   7.667   3.582
 9052TIP3    H227100   2.195   7.598   3.565
 9053TIP3   OH227101   2.344   7.646   4.432
 9053TIP3    H127102   2.349   7.721   4.492
 9053TIP3    H227103   2.258   7.654   4.391
 9054TIP3   OH227104   1.356   7.595   3.919
 9054TIP3    H127105   1.318   7.532   3.857
 9054TIP3    H227106   1.430   7.548   3.958
 9055TIP3   OH227107   1.443   7.930   4.040
 9055TIP3    H127108   1.481   8.015   4.063
 9055TIP3    H227109   1.509   7.888   3.985
 9056TIP3   OH227110   1.471   7.598   4.279
 9056TIP3    H127111   1.512   7.571   4.197
 9056TIP3    H227112   1.518   7.678   4.304
 9057TIP3   OH227113   4.479   0.050   4.646
 9057TIP3    H127114   4.550   0.113   4.638
 9057TIP3    H227115   4.460   0.024   4.555
 9058TIP3   OH227116   1.942   7.483   3.350
 9058TIP3    H127117   2.005   7.537   3.398
 9058TIP3    H227118   1.968   7.490   3.259
 9059TIP3   OH227119   1.381   7.693   4.756
 9059TIP3    H127120   1.385   7.779   4.798
 9059TIP3    H227121   1.289   7.669   4.759
 9060TIP3   OH227122   2.437   6.734   3.396
 9060TIP3    H127123   2.375   6.769   3.460
 9060TIP3    H227124   2.454   6.808   3.337
 9061TIP3   OH227125   1.237   7.425   3.733
 9061TIP3    H127126   1.167   7.478   3.695
 9061TIP3    H227127   1.195   7.342   3.755
 9062TIP3   OH227128   1.015   7.820   4.659
 9062TIP3    H127129   0.945   7.814   4.594
 9062TIP3    H227130   1.048   7.730   4.666
 9063TIP3   OH227131   2.621   7.614   4.627
 9063TIP3    H127132   2.534   7.617   4.587
 9063TIP3    H227133   2.640   7.521   4.634
 9064TIP3   OH227134   1.210   7.962   4.541
 9064TIP3    H127135   1.257   8.013   4.607
 9064TIP3    H227136   1.139   7.920   4.589
 9065TIP3   OH227137   1.583   6.871   4.431
 9065TIP3    H127138   1.503   6.843   4.388
 9065TIP3    H227139   1.559   6.952   4.476
 9066TIP3   OH227140   2.132   6.981   4.631
 9066TIP3    H127141   2.202   6.963   4.693
 9066TIP3    H227142   2.051   6.969   4.681
 9067TIP3   OH227143   2.384   7.406   4.559
 9067TIP3    H127144   2.330   7.400   4.638
 9067TIP3    H227145   2.353   7.484   4.514
 9068TIP3   OH227146   2.000   7.474   3.084
 9068TIP3    H127147   1.979   7.439   2.997
 9068TIP3    H227148   2.027   7.565   3.067
 9069TIP3   OH227149   1.734   6.912   3.403
 9069TIP3    H127150   1.701   6.918   3.492
 9069TIP3    H227151   1.703   6.828   3.371
 9070TIP3   OH227152   1.535   7.395   4.447
 9070TIP3    H127153   1.487   7.407   4.529
 9070TIP3    H227154   1.511   7.470   4.394
 9071TIP3   OH227155   1.413   7.277   3.964
 9071TIP3    H127156   1.323   7.260   3.991
 9071TIP3    H227157   1.419   7.244   3.875
 9072TIP3   OH227158   1.900   7.296   3.680
 9072TIP3    H127159   1.857   7.375   3.645
 9072TIP3    H227160   1.967   7.275   3.615
 9073TIP3   OH227161   2.098   7.602   4.754
 9073TIP3    H127162   2.065   7.538   4.817
 9073TIP3    H227163   2.188   7.619   4.783
 9074TIP3   OH227164   2.054   7.400   3.920
 9074TIP3    H127165   2.009   7.470   3.872
 9074TIP3    H227166   2.056   7.327   3.858
 9075TIP3   OH227167   1.361   7.413   4.658
 9075TIP3    H127168   1.362   7.480   4.727
 9075TIP3    H227169   1.343   7.332   4.705
 9076TIP3   OH227170   1.401   6.889   3.378
 9076TIP3    H127171   1.392   6.896   3.473
 9076TIP3    H227172   1.324   6.935   3.344
 9077TIP3   OH227173   0.959   6.956   4.254
 9077TIP3    H127174   1.031   6.985   4.310
 9077TIP3    H227175   0.959   7.017   4.181
 9078TIP3   OH227176   0.879   6.914   3.752
 9078TIP3    H127177   0.918   6.949   3.672
 9078TIP3    H227178   0.812   6.978   3.776
 9079TIP3   OH227179   2.082   7.630   4.336
 9079TIP3    H127180   2.110   7.560   4.277
 9079TIP3    H227181   2.039   7.585   4.408
 9080TIP3   OH227182   1.770   7.093   4.025
 9080TIP3    H127183   1.692   7.084   4.081
 9080TIP3    H227184   1.843   7.080   4.085
 9081TIP3   OH227185   1.170   7.160   4.021
 9081TIP3    H127186   1.081   7.163   3.985
 9081TIP3    H227187   1.199   7.070   4.003
 9082TIP3   OH227188   1.411   7.148   3.723
 9082TIP3    H127189   1.506   7.160   3.712
 9082TIP3    H227190   1.375   7.168   3.636
 9083TIP3   OH227191   2.218   7.162   4.224
 9083TIP3    H127192   2.206   7.178   4.318
 9083TIP3    H227193   2.145   7.105   4.201
 9084TIP3   OH227194   1.290   7.167   3.479
 9084TIP3    H127195   1.223   7.121   3.428
 9084TIP3    H227196   1.351   7.201   3.413
 9085TIP3   OH227197   1.369   7.927   4.914
 9085TIP3    H127198   1.437   7.939   4.980
 9085TIP3    H227199   1.287   7.930   4.963
 9086TIP3   OH227200   1.833   7.437   4.119
 9086TIP3    H127201   1.901   7.393   4.067
 9086TIP3    H227202   1.835   7.392   4.204
 9087TIP3   OH227203   1.311   6.911   4.000
 9087TIP3    H127204   1.279   6.833   4.045
 9087TIP3    H227205   1.329   6.882   3.911
 9088TIP3   OH227206   1.801   7.338   4.387
 9088TIP3    H127207   1.715   7.374   4.410
 9088TIP3    H227208   1.863   7.390   4.438
 9089TIP3   OH227209   1.544   7.660   3.544
 9089TIP3    H127210   1.465   7.607   3.533
 9089TIP3    H227211   1.533   7.701   3.629
 9090TIP3   OH227212   2.412   7.920   4.111
 9090TIP3    H127213   2.437   7.962   4.029
 9090TIP3    H227214   2.329   7.877   4.091
 9091TIP3   OH227215   1.994   6.999   3.409
 9091TIP3    H127216   1.899   6.985   3.405
 9091TIP3    H227217   2.004   7.094   3.418
 9092TIP3   OH227218   1.949   7.933   4.539
 9092TIP3    H127219   2.007   7.924   4.615
 9092TIP3    H227220   1.904   8.016   4.554
 9093TIP3   OH227221   2.070   7.259   3.464
 9093TIP3    H127222   2.163   7.273   3.479
 9093TIP3    H227223   2.041   7.338   3.418
 9094TIP3   OH227224   1.218   7.620   4.156
 9094TIP3    H127225   1.257   7.626   4.069
 9094TIP3    H227226   1.293   7.607   4.214
 9095TIP3   OH227227   1.594   7.861   3.363
 9095TIP3    H127228   1.635   7.931   3.415
 9095TIP3    H227229   1.580   7.790   3.426
 9096TIP3   OH227230   1.126   7.587   4.784
 9096TIP3    H127231   1.108   7.570   4.876
 9096TIP3    H227232   1.052   7.548   4.737
 9097TIP3   OH227233   1.852   7.719   4.820
 9097TIP3    H127234   1.787   7.665   4.776
 9097TIP3    H227235   1.935   7.696   4.779
 9098TIP3   OH227236   2.471   7.356   3.299
 9098TIP3    H127237   2.409   7.316   3.238
 9098TIP3    H227238   2.487   7.443   3.264
 9099TIP3   OH227239   5.586   0.149   4.387
 9099TIP3    H127240   5.498   0.163   4.353
 9099TIP3    H227241   5.639   0.131   4.309
 9100TIP3   OH227242   2.178   7.797   4.022
 9100TIP3    H127243   2.088   7.775   4.044
 9100TIP3    H227244   2.215   7.717   3.986
 9101TIP3   OH227245   0.900   7.322   3.525
 9101TIP3    H127246   0.955   7.398   3.544
 9101TIP3    H227247   0.826   7.331   3.585
 9102TIP3   OH227248   1.498   7.787   3.789
 9102TIP3    H127249   1.430   7.847   3.759
 9102TIP3    H227250   1.451   7.721   3.840
 9103TIP3   OH227251   2.020   7.964   4.269
 9103TIP3    H127252   2.004   7.958   4.363
 9103TIP3    H227253   2.101   7.914   4.256
 9104TIP3   OH227254   1.892   7.843   3.211
 9104TIP3    H127255   1.977   7.798   3.220
 9104TIP3    H227256   1.845   7.790   3.146
 9105TIP3   OH227257   1.312   7.163   4.784
 9105TIP3    H127258   1.218   7.173   4.792
 9105TIP3    H227259   1.339   7.124   4.867
 9106TIP3   OH227260   2.139   7.756   3.292
 9106TIP3    H127261   2.126   7.710   3.375
 9106TIP3    H227262   2.234   7.772   3.288
 9107TIP3   OH227263   1.316   7.776   3.306
 9107TIP3    H127264   1.270   7.757   3.224
 9107TIP3    H227265   1.398   7.817   3.277
 9108TIP3   OH227266   1.031   7.551   3.608
 9108TIP3    H127267   0.961   7.573   3.669
 9108TIP3    H227268   1.033   7.624   3.546
 9109TIP3   OH227269   2.179   7.216   4.490
 9109TIP3    H127270   2.256   7.255   4.532
 9109TIP3    H227271   2.160   7.138   4.543
 9110TIP3   OH227272   2.057   6.964   3.680
 9110TIP3    H127273   2.033   6.976   3.588
 9110TIP3    H227274   2.095   7.047   3.706
 9111TIP3   OH227275   1.686   7.157   3.769
 9111TIP3    H127276   1.759   7.207   3.733
 9111TIP3    H227277   1.709   7.145   3.861
 9112TIP3   OH227278   2.011   7.447   4.533
 9112TIP3    H127279   2.041   7.494   4.611
 9112TIP3    H227280   2.065   7.368   4.531
 9113TIP3   OH227281   1.860   6.882   3.858
 9113TIP3    H127282   1.844   6.965   3.903
 9113TIP3    H227283   1.933   6.901   3.799
 9114TIP3   OH227284   1.377   6.879   3.661
 9114TIP3    H127285   1.366   6.971   3.687
 9114TIP3    H227286   1.471   6.864   3.664
 9115TIP3   OH227287   2.641   7.329   4.509
 9115TIP3    H127288   2.552   7.355   4.532
 9115TIP3    H227289   2.630   7.257   4.448
 9116TIP3   OH227290   2.287   7.558   3.924
 9116TIP3    H127291   2.213   7.499   3.929
 9116TIP3    H227292   2.356   7.515   3.975
 9117TIP3   OH227293   0.968   7.733   3.390
 9117TIP3    H127294   0.937   7.784   3.315
 9117TIP3    H227295   1.032   7.672   3.352
 9118TIP3   OH227296   0.931   7.048   3.521
 9118TIP3    H127297   0.937   7.143   3.532
 9118TIP3    H227298   0.858   7.036   3.460
 9119TIP3   OH227299   1.330   6.774   4.359
 9119TIP3    H127300   1.298   6.740   4.275
 9119TIP3    H227301   1.324   6.699   4.419
 9120TIP3   OH227302   1.120   7.885   5.048
 9120TIP3    H127303   1.166   7.801   5.046
 9120TIP3    H227304   1.048   7.873   4.986
 9121TIP3   OH227305   1.134   7.532   3.301
 9121TIP3    H127306   1.190   7.518   3.377
 9121TIP3    H227307   1.194   7.531   3.226
 9122TIP3   OH227308   1.751   7.965   4.876
 9122TIP3    H127309   1.716   7.997   4.794
 9122TIP3    H227310   1.789   7.879   4.854
 9123TIP3   OH227311   1.647   7.773   3.105
 9123TIP3    H127312   1.642   7.835   3.178
 9123TIP3    H227313   1.608   7.693   3.138
 9124TIP3   OH227314   5.106   0.017   4.440
 9124TIP3    H127315   5.184   0.073   4.442
 9124TIP3    H227316   5.043   0.061   4.496
 9125TIP3   OH227317   1.295   7.672   5.060
 9125TIP3    H127318   1.376   7.651   5.014
 9125TIP3    H227319   1.324   7.705   5.145
 9126TIP3   OH227320   1.346   7.480   3.479
 9126TIP3    H127321   1.316   7.443   3.562
 9126TIP3    H227322   1.381   7.406   3.430
 9127TIP3   OH227323   1.636   7.583   4.701
 9127TIP3    H127324   1.552   7.628   4.708
 9127TIP3    H227325   1.676   7.618   4.621
 9128TIP3   OH227326   1.456   7.289   3.305
 9128TIP3    H127327   1.430   7.285   3.212
 9128TIP3    H227328   1.551   7.300   3.303
 9129TIP3   OH227329   2.101   7.923   4.773
 9129TIP3    H127330   2.184   7.875   4.778
 9129TIP3    H227331   2.071   7.928   4.864
 9130TIP3   OH227332   2.326   7.612   2.971
 9130TIP3    H127333   2.262   7.575   2.910
 9130TIP3    H227334   2.394   7.649   2.915
 9131TIP3   OH227335   1.737   7.359   4.818
 9131TIP3    H127336   1.743   7.288   4.755
 9131TIP3    H227337   1.702   7.433   4.768
 9132TIP3   OH227338   1.745   7.165   4.611
 9132TIP3    H127339   1.773   7.207   4.530
 9132TIP3    H227340   1.653   7.144   4.596
 9133TIP3   OH227341   1.791   7.698   4.507
 9133TIP3    H127342   1.862   7.762   4.513
 9133TIP3    H227343   1.722   7.744   4.459
 9134TIP3   OH227344   2.351   7.627   4.881
 9134TIP3    H127345   2.404   7.548   4.887
 9134TIP3    H227346   2.415   7.699   4.882
 9135TIP3   OH227347   2.387   7.851   4.608
 9135TIP3    H127348   2.326   7.908   4.560
 9135TIP3    H227349   2.474   7.883   4.584
 9136TIP3   OH227350   1.612   7.453   5.053
 9136TIP3    H127351   1.546   7.387   5.075
 9136TIP3    H227352   1.644   7.428   4.966
 9137TIP3   OH227353   1.863   6.934   4.712
 9137TIP3    H127354   1.825   7.015   4.678
 9137TIP3    H227355   1.795   6.868   4.696
 9138TIP3   OH227356   1.997   7.404   4.914
 9138TIP3    H127357   1.989   7.401   5.009
 9138TIP3    H227358   1.909   7.383   4.882
 9139TIP3   OH227359   2.235   7.337   4.777
 9139TIP3    H127360   2.156   7.347   4.830
 9139TIP3    H227361   2.307   7.333   4.840
 9140TIP3   OH227362   2.471   7.345   4.934
 9140TIP3    H127363   2.486   7.251   4.935
 9140TIP3    H227364   2.467   7.370   5.026
 9141TIP3   OH227365   1.458   7.228   5.119
 9141TIP3    H127366   1.465   7.140   5.084
 9141TIP3    H227367   1.495   7.222   5.207
 9142TIP3   OH227368   1.931   6.919   4.977
 9142TIP3    H127369   2.003   6.856   4.971
 9142TIP3    H227370   1.901   6.930   4.887
 9143TIP3   OH227371   2.023   7.133   5.128
 9143TIP3    H127372   1.993   7.063   5.070
 9143TIP3    H227373   1.952   7.197   5.127
 9144TIP3   OH227374   0.724   7.633   3.471
 9144TIP3    H127375   0.803   7.679   3.440
 9144TIP3    H227376   0.693   7.585   3.394
 9145TIP3   OH227377   5.423   0.366   4.645
 9145TIP3    H127378   5.385   0.429   4.708
 9145TIP3    H227379   5.514   0.393   4.637
 9146TIP3   OH227380   2.400   7.800   3.314
 9146TIP3    H127381   2.433   7.888   3.294
 9146TIP3    H227382   2.453   7.772   3.389
 9147TIP3   OH227383   2.547   7.679   3.512
 9147TIP3    H127384   2.481   7.643   3.571
 9147TIP3    H227385   2.615   7.713   3.570
 9148TIP3   OH227386   5.433   0.046   3.954
 9148TIP3    H127387   5.476  -0.032   3.919
 9148TIP3    H227388   5.398   0.091   3.877
 9149TIP3   OH227389   2.505   7.592   3.171
 9149TIP3    H127390   2.434   7.592   3.106
 9149TIP3    H227391   2.487   7.668   3.227
 9150TIP3   OH227392   2.307   7.259   3.104
 9150TIP3    H127393   2.269   7.301   3.027
 9150TIP3    H227394   2.299   7.165   3.087
 9151TIP3   OH227395   2.348   7.548   3.654
 9151TIP3    H127396   2.357   7.454   3.639
 9151TIP3    H227397   2.334   7.556   3.749
 9152TIP3   OH227398   0.971   7.598   4.398
 9152TIP3    H127399   0.961   7.559   4.311
 9152TIP3    H227400   1.065   7.593   4.415
 9153TIP3   OH227401   2.625   7.952   4.522
 9153TIP3    H127402   2.690   7.882   4.510
 9153TIP3    H227403   2.654   8.021   4.463
 9154TIP3   OH227404   2.825   7.769   4.527
 9154TIP3    H127405   2.770   7.703   4.569
 9154TIP3    H227406   2.901   7.776   4.584
 9155TIP3   OH227407   2.272   6.990   3.059
 9155TIP3    H127408   2.341   6.961   3.118
 9155TIP3    H227409   2.193   6.945   3.091
 9156TIP3   OH227410   2.350   7.280   3.539
 9156TIP3    H127411   2.395   7.197   3.553
 9156TIP3    H227412   2.390   7.317   3.461
 9157TIP3   OH227413   2.498   7.427   4.052
 9157TIP3    H127414   2.579   7.445   4.004
 9157TIP3    H227415   2.512   7.467   4.138
 9158TIP3   OH227416   2.567   7.576   4.277
 9158TIP3    H127417   2.490   7.599   4.329
 9158TIP3    H227418   2.596   7.659   4.239
 9159TIP3   OH227419   1.199   7.289   5.059
 9159TIP3    H127420   1.293   7.284   5.080
 9159TIP3    H227421   1.163   7.209   5.097
 9160TIP3   OH227422   3.022   7.112   4.799
 9160TIP3    H127423   3.097   7.076   4.751
 9160TIP3    H227424   2.999   7.192   4.752
 9161TIP3   OH227425   2.465   7.033   3.581
 9161TIP3    H127426   2.509   7.016   3.664
 9161TIP3    H227427   2.399   6.963   3.574
 9162TIP3   OH227428   1.177   7.005   4.417
 9162TIP3    H127429   1.229   6.925   4.406
 9162TIP3    H227430   1.238   7.076   4.397
 9163TIP3   OH227431   0.956   7.259   4.483
 9163TIP3    H127432   1.005   7.258   4.401
 9163TIP3    H227433   0.968   7.347   4.517
 9164TIP3   OH227434   2.906   7.310   4.644
 9164TIP3    H127435   2.853   7.361   4.705
 9164TIP3    H227436   2.843   7.265   4.588
 9165TIP3   OH227437   2.495   6.935   3.217
 9165TIP3    H127438   2.541   6.874   3.160
 9165TIP3    H227439   2.554   7.009   3.226
 9166TIP3   OH227440   0.932   6.757   3.967
 9166TIP3    H127441   0.847   6.754   4.012
 9166TIP3    H227442   0.920   6.823   3.899
 9167TIP3   OH227443   1.138   6.814   4.789
 9167TIP3    H127444   1.091   6.819   4.872
 9167TIP3    H227445   1.095   6.878   4.733
 9168TIP3   OH227446   2.787   7.048   4.514
 9168TIP3    H127447   2.707   7.031   4.464
 9168TIP3    H227448   2.835   6.965   4.510
 9169TIP3   OH227449   1.990   6.993   4.167
 9169TIP3    H127450   1.948   6.921   4.215
 9169TIP3    H227451   2.054   6.951   4.110
 9170TIP3   OH227452   2.487   6.880   4.022
 9170TIP3    H127453   2.539   6.926   3.956
 9170TIP3    H227454   2.411   6.936   4.036
 9171TIP3   OH227455   2.617   6.972   3.802
 9171TIP3    H127456   2.684   6.910   3.774
 9171TIP3    H227457   2.658   7.058   3.792
 9172TIP3   OH227458   1.230   6.660   4.111
 9172TIP3    H127459   1.150   6.631   4.156
 9172TIP3    H227460   1.215   6.638   4.019
 9173TIP3   OH227461   1.129   6.612   3.847
 9173TIP3    H127462   1.132   6.640   3.756
 9173TIP3    H227463   1.055   6.659   3.885
 9174TIP3   OH227464   1.743   6.717   4.045
 9174TIP3    H127465   1.783   6.766   3.974
 9174TIP3    H227466   1.780   6.755   4.125
 9175TIP3   OH227467   2.188   6.870   4.027
 9175TIP3    H127468   2.205   6.844   3.936
 9175TIP3    H227469   2.203   6.791   4.078
 9176TIP3   OH227470   2.282   6.822   3.600
 9176TIP3    H127471   2.195   6.858   3.621
 9176TIP3    H227472   2.308   6.775   3.680
 9177TIP3   OH227473   1.171   6.710   3.574
 9177TIP3    H127474   1.214   6.653   3.511
 9177TIP3    H227475   1.240   6.769   3.605
 9178TIP3   OH227476   1.651   6.905   3.668
 9178TIP3    H127477   1.715   6.854   3.718
 9178TIP3    H227478   1.662   6.995   3.699
 9179TIP3   OH227479   1.466   6.962   5.025
 9179TIP3    H127480   1.434   6.895   5.085
 9179TIP3    H227481   1.559   6.970   5.047
 9180TIP3   OH227482   1.714   6.971   5.147
 9180TIP3    H127483   1.792   6.951   5.096
 9180TIP3    H227484   1.710   6.901   5.213
 9181TIP3   OH227485   2.528   7.072   4.944
 9181TIP3    H127486   2.548   7.040   5.032
 9181TIP3    H227487   2.610   7.062   4.896
 9182TIP3   OH227488   3.741   7.868   3.253
 9182TIP3    H127489   3.734   7.961   3.231
 9182TIP3    H227490   3.674   7.825   3.200
 9183TIP3   OH227491   3.712   7.971   3.588
 9183TIP3    H127492   3.743   7.948   3.675
 9183TIP3    H227493   3.671   7.891   3.555
 9184TIP3   OH227494   3.026   7.827   3.961
 9184TIP3    H127495   3.065   7.772   4.029
 9184TIP3    H227496   3.101   7.855   3.907
 9185TIP3   OH227497   6.836   0.235   3.309
 9185TIP3    H127498   6.811   0.174   3.379
 9185TIP3    H227499   6.863   0.315   3.355
 9186TIP3   OH227500   5.967   0.147   3.761
 9186TIP3    H127501   5.871   0.137   3.759
 9186TIP3    H227502   5.992   0.150   3.668
 9187TIP3   OH227503   2.709   7.459   3.429
 9187TIP3    H127504   2.669   7.543   3.449
 9187TIP3    H227505   2.637   7.406   3.394
 9188TIP3   OH227506   2.775   7.742   3.655
 9188TIP3    H127507   2.819   7.661   3.681
 9188TIP3    H227508   2.846   7.797   3.621
 9189TIP3   OH227509   6.381   0.184   3.681
 9189TIP3    H127510   6.399   0.118   3.614
 9189TIP3    H227511   6.467   0.206   3.716
 9190TIP3   OH227512   4.564   7.516   3.636
 9190TIP3    H127513   4.587   7.600   3.676
 9190TIP3    H227514   4.594   7.524   3.545
 9191TIP3   OH227515   3.955   7.683   3.667
 9191TIP3    H127516   3.992   7.598   3.688
 9191TIP3    H227517   3.919   7.673   3.579
 9192TIP3   OH227518   3.301   7.330   3.617
 9192TIP3    H127519   3.280   7.401   3.556
 9192TIP3    H227520   3.247   7.257   3.587
 9193TIP3   OH227521   3.986   7.455   3.245
 9193TIP3    H127522   4.045   7.450   3.320
 9193TIP3    H227523   4.041   7.484   3.172
 9194TIP3   OH227524   2.924   7.532   3.746
 9194TIP3    H127525   3.009   7.518   3.787
 9194TIP3    H227526   2.930   7.485   3.663
 9195TIP3   OH227527   3.355   7.735   3.561
 9195TIP3    H127528   3.450   7.722   3.566
 9195TIP3    H227529   3.321   7.652   3.528
 9196TIP3   OH227530   4.646   7.752   3.759
 9196TIP3    H127531   4.605   7.833   3.728
 9196TIP3    H227532   4.675   7.772   3.848
 9197TIP3   OH227533   3.275   7.342   4.074
 9197TIP3    H127534   3.223   7.375   4.001
 9197TIP3    H227535   3.220   7.356   4.151
 9198TIP3   OH227536   6.533   0.070   3.084
 9198TIP3    H127537   6.476   0.061   3.007
 9198TIP3    H227538   6.538   0.165   3.099
 9199TIP3   OH227539   6.222   0.063   3.863
 9199TIP3    H127540   6.142   0.115   3.867
 9199TIP3    H227541   6.277   0.110   3.800
 9200TIP3   OH227542   4.150   7.466   3.461
 9200TIP3    H127543   4.121   7.435   3.547
 9200TIP3    H227544   4.212   7.536   3.480
 9201TIP3   OH227545   3.172   7.441   3.836
 9201TIP3    H127546   3.230   7.513   3.860
 9201TIP3    H227547   3.218   7.396   3.765
 9202TIP3   OH227548   6.097   0.337   3.915
 9202TIP3    H127549   6.028   0.274   3.891
 9202TIP3    H227550   6.050   0.407   3.960
 9203TIP3   OH227551   2.652   7.887   3.223
 9203TIP3    H127552   2.591   7.885   3.150
 9203TIP3    H227553   2.676   7.979   3.233
 9204TIP3   OH227554   4.340   7.418   3.794
 9204TIP3    H127555   4.258   7.416   3.744
 9204TIP3    H227556   4.407   7.439   3.729
 9205TIP3   OH227557   3.619   7.033   3.795
 9205TIP3    H127558   3.609   6.941   3.819
 9205TIP3    H227559   3.542   7.077   3.833
 9206TIP3   OH227560   6.881   0.202   3.027
 9206TIP3    H127561   6.816   0.230   2.963
 9206TIP3    H227562   6.838   0.214   3.112
 9207TIP3   OH227563   7.182   0.403   3.706
 9207TIP3    H127564   7.160   0.317   3.670
 9207TIP3    H227565   7.229   0.447   3.635
 9208TIP3   OH227566   3.573   7.776   3.054
 9208TIP3    H127567   3.489   7.822   3.048
 9208TIP3    H227568   3.612   7.785   2.967
 9209TIP3   OH227569   3.529   7.575   2.767
 9209TIP3    H127570   3.587   7.643   2.801
 9209TIP3    H227571   3.575   7.540   2.691
 9210TIP3   OH227572   7.316   0.022   3.671
 9210TIP3    H127573   7.226   0.053   3.681
 9210TIP3    H227574   7.336   0.034   3.578
 9211TIP3   OH227575   3.912   7.851   3.024
 9211TIP3    H127576   3.860   7.874   3.101
 9211TIP3    H227577   4.002   7.843   3.057
 9212TIP3   OH227578   3.153   7.844   3.404
 9212TIP3    H127579   3.117   7.780   3.343
 9212TIP3    H227580   3.224   7.798   3.448
 9213TIP3   OH227581   6.077   0.191   3.518
 9213TIP3    H127582   6.113   0.274   3.549
 9213TIP3    H227583   6.151   0.148   3.475
 9214TIP3   OH227584   3.244   7.858   3.780
 9214TIP3    H127585   3.287   7.823   3.702
 9214TIP3    H227586   3.294   7.937   3.802
 9215TIP3   OH227587   6.280   0.324   4.136
 9215TIP3    H127588   6.358   0.379   4.129
 9215TIP3    H227589   6.253   0.310   4.045
 9216TIP3   OH227590   3.749   7.739   2.835
 9216TIP3    H127591   3.806   7.792   2.890
 9216TIP3    H227592   3.781   7.753   2.746
 9217TIP3   OH227593   3.175   7.935   4.268
 9217TIP3    H127594   3.175   8.027   4.296
 9217TIP3    H227595   3.082   7.915   4.255
 9218TIP3   OH227596   4.262   7.009   2.904
 9218TIP3    H127597   4.184   7.027   2.956
 9218TIP3    H227598   4.268   7.084   2.844
 9219TIP3   OH227599   3.040   7.671   3.221
 9219TIP3    H127600   2.972   7.721   3.176
 9219TIP3    H227601   3.001   7.585   3.237
 9220TIP3   OH227602   5.665   0.052   4.144
 9220TIP3    H127603   5.580   0.038   4.103
 9220TIP3    H227604   5.692  -0.036   4.174
 9221TIP3   OH227605   5.851   0.206   4.028
 9221TIP3    H127606   5.890   0.255   4.100
 9221TIP3    H227607   5.787   0.149   4.070
 9222TIP3   OH227608   3.381   7.129   3.919
 9222TIP3    H127609   3.298   7.094   3.886
 9222TIP3    H227610   3.356   7.207   3.969
 9223TIP3   OH227611   3.916   7.236   4.112
 9223TIP3    H127612   3.985   7.214   4.174
 9223TIP3    H227613   3.834   7.222   4.160
 9224TIP3   OH227614   4.161   7.775   4.044
 9224TIP3    H127615   4.117   7.721   4.109
 9224TIP3    H227616   4.103   7.774   3.968
 9225TIP3   OH227617   3.853   7.742   2.580
 9225TIP3    H127618   3.803   7.799   2.521
 9225TIP3    H227619   3.943   7.771   2.571
 9226TIP3   OH227620   3.549   7.167   2.887
 9226TIP3    H127621   3.511   7.178   2.975
 9226TIP3    H227622   3.511   7.085   2.855
 9227TIP3   OH227623   3.330   7.647   3.934
 9227TIP3    H127624   3.283   7.654   4.017
 9227TIP3    H227625   3.302   7.724   3.884
 9228TIP3   OH227626   3.208   7.529   3.454
 9228TIP3    H127627   3.118   7.506   3.479
 9228TIP3    H227628   3.216   7.499   3.363
 9229TIP3   OH227629   3.693   7.559   3.167
 9229TIP3    H127630   3.648   7.633   3.127
 9229TIP3    H227631   3.762   7.536   3.105
 9230TIP3   OH227632   3.896   7.883   4.228
 9230TIP3    H127633   3.894   7.823   4.303
 9230TIP3    H227634   3.936   7.963   4.262
 9231TIP3   OH227635   3.851   7.661   3.411
 9231TIP3    H127636   3.805   7.727   3.358
 9231TIP3    H227637   3.859   7.586   3.352
 9232TIP3   OH227638   3.159   7.664   4.149
 9232TIP3    H127639   3.172   7.730   4.217
 9232TIP3    H227640   3.138   7.584   4.197
 9233TIP3   OH227641   3.200   7.154   2.851
 9233TIP3    H127642   3.189   7.153   2.946
 9233TIP3    H227643   3.123   7.201   2.819
 9234TIP3   OH227644   2.748   7.196   3.732
 9234TIP3    H127645   2.823   7.228   3.782
 9234TIP3    H227646   2.785   7.173   3.647
 9235TIP3   OH227647   2.657   7.161   3.235
 9235TIP3    H127648   2.699   7.193   3.155
 9235TIP3    H227649   2.594   7.229   3.257
 9236TIP3   OH227650   3.824   7.872   3.818
 9236TIP3    H127651   3.877   7.816   3.760
 9236TIP3    H227652   3.811   7.818   3.897
 9237TIP3   OH227653   3.571   7.326   3.511
 9237TIP3    H127654   3.493   7.322   3.567
 9237TIP3    H227655   3.644   7.321   3.572
 9238TIP3   OH227656   2.968   7.406   3.508
 9238TIP3    H127657   2.880   7.411   3.471
 9238TIP3    H227658   2.995   7.315   3.493
 9239TIP3   OH227659   3.209   7.405   3.209
 9239TIP3    H127660   3.303   7.415   3.197
 9239TIP3    H227661   3.172   7.423   3.122
 9240TIP3   OH227662   4.043   7.423   3.726
 9240TIP3    H127663   4.030   7.440   3.819
 9240TIP3    H227664   3.973   7.363   3.702
 9241TIP3   OH227665   3.082   7.426   2.966
 9241TIP3    H127666   3.018   7.380   2.912
 9241TIP3    H227667   3.146   7.460   2.903
 9242TIP3   OH227668   6.002   0.167   4.409
 9242TIP3    H127669   6.079   0.181   4.465
 9242TIP3    H227670   5.927   0.176   4.468
 9243TIP3   OH227671   3.623   7.690   3.601
 9243TIP3    H127672   3.695   7.650   3.552
 9243TIP3    H227673   3.628   7.650   3.687
 9244TIP3   OH227674   3.108   7.154   3.504
 9244TIP3    H127675   3.079   7.078   3.554
 9244TIP3    H227676   3.138   7.118   3.421
 9245TIP3   OH227677   3.597   7.598   3.871
 9245TIP3    H127678   3.509   7.627   3.895
 9245TIP3    H227679   3.655   7.647   3.929
 9246TIP3   OH227680   3.332   7.911   3.042
 9246TIP3    H127681   3.253   7.860   3.025
 9246TIP3    H227682   3.314   7.956   3.124
 9247TIP3   OH227683   7.062   0.142   3.616
 9247TIP3    H127684   7.098   0.185   3.538
 9247TIP3    H227685   6.975   0.113   3.590
 9248TIP3   OH227686   3.760   7.312   2.785
 9248TIP3    H127687   3.682   7.272   2.825
 9248TIP3    H227688   3.791   7.375   2.850
 9249TIP3   OH227689   6.625   0.188   4.029
 9249TIP3    H127690   6.663   0.171   4.115
 9249TIP3    H227691   6.563   0.259   4.043
 9250TIP3   OH227692   3.863   7.509   2.952
 9250TIP3    H127693   3.956   7.523   2.967
 9250TIP3    H227694   3.833   7.588   2.908
 9251TIP3   OH227695   3.008   7.891   3.630
 9251TIP3    H127696   3.046   7.886   3.542
 9251TIP3    H227697   3.082   7.877   3.689
 9252TIP3   OH227698   6.324   0.061   2.896
 9252TIP3    H127699   6.309   0.153   2.919
 9252TIP3    H227700   6.257   0.013   2.945
 9253TIP3   OH227701   2.909   7.838   4.276
 9253TIP3    H127702   2.901   7.816   4.369
 9253TIP3    H227703   2.831   7.800   4.235
 9254TIP3   OH227704   3.646   7.975   4.309
 9254TIP3    H127705   3.577   7.920   4.273
 9254TIP3    H227706   3.724   7.951   4.259
 9255TIP3   OH227707   4.270   7.623   2.786
 9255TIP3    H127708   4.212   7.576   2.725
 9255TIP3    H227709   4.281   7.709   2.746
 9256TIP3   OH227710   7.407   0.354   3.856
 9256TIP3    H127711   7.315   0.368   3.836
 9256TIP3    H227712   7.448   0.334   3.772
 9257TIP3   OH227713   6.810   0.043   3.516
 9257TIP3    H127714   6.718   0.020   3.529
 9257TIP3    H227715   6.849  -0.035   3.477
 9258TIP3   OH227716   2.723   7.565   3.008
 9258TIP3    H127717   2.778   7.642   3.022
 9258TIP3    H227718   2.651   7.575   3.070
 9259TIP3   OH227719   6.113   0.032   3.277
 9259TIP3    H127720   6.051   0.105   3.281
 9259TIP3    H227721   6.071  -0.038   3.326
 9260TIP3   OH227722   6.647   0.204   3.747
 9260TIP3    H127723   6.644   0.199   3.842
 9260TIP3    H227724   6.726   0.156   3.722
 9261TIP3   OH227725   6.526   0.061   2.653
 9261TIP3    H127726   6.600   0.029   2.705
 9261TIP3    H227727   6.540   0.024   2.566
 9262TIP3   OH227728   3.101   7.423   4.286
 9262TIP3    H127729   3.006   7.430   4.298
 9262TIP3    H227730   3.129   7.361   4.354
 9263TIP3   OH227731   3.916   8.011   2.802
 9263TIP3    H127732   3.912   7.967   2.887
 9263TIP3    H227733   4.010   8.022   2.785
 9264TIP3   OH227734   5.983   0.033   2.780
 9264TIP3    H127735   5.918   0.004   2.717
 9264TIP3    H227736   6.055   0.069   2.727
 9265TIP3   OH227737   2.852   7.797   3.074
 9265TIP3    H127738   2.786   7.821   3.140
 9265TIP3    H227739   2.853   7.871   3.013
 9266TIP3   OH227740   3.986   7.474   3.997
 9266TIP3    H127741   4.024   7.511   4.077
 9266TIP3    H227742   3.954   7.388   4.022
 9267TIP3   OH227743   3.841   7.238   3.158
 9267TIP3    H127744   3.805   7.272   3.076
 9267TIP3    H227745   3.887   7.312   3.197
 9268TIP3   OH227746   3.486   7.412   3.261
 9268TIP3    H127747   3.556   7.467   3.226
 9268TIP3    H227748   3.511   7.394   3.351
 9269TIP3   OH227749   3.805   7.702   4.030
 9269TIP3    H127750   3.836   7.753   4.105
 9269TIP3    H227751   3.858   7.622   4.033
 9270TIP3   OH227752   3.660   7.124   3.337
 9270TIP3    H127753   3.636   7.199   3.390
 9270TIP3    H227754   3.727   7.157   3.277
 9271TIP3   OH227755   3.171   7.137   3.130
 9271TIP3    H127756   3.158   7.225   3.166
 9271TIP3    H227757   3.265   7.121   3.137
 9272TIP3   OH227758   4.394   7.595   4.007
 9272TIP3    H127759   4.311   7.641   4.017
 9272TIP3    H227760   4.378   7.531   3.937
 9273TIP3   OH227761   4.083   7.819   3.410
 9273TIP3    H127762   4.008   7.760   3.416
 9273TIP3    H227763   4.152   7.776   3.461
 9274TIP3   OH227764   2.778   7.995   2.880
 9274TIP3    H127765   2.823   8.077   2.859
 9274TIP3    H227766   2.826   7.929   2.830
 9275TIP3   OH227767   2.728   7.290   3.007
 9275TIP3    H127768   2.744   7.384   3.019
 9275TIP3    H227769   2.679   7.285   2.925
 9276TIP3   OH227770   3.120   7.036   3.879
 9276TIP3    H127771   3.095   6.997   3.795
 9276TIP3    H227772   3.113   6.964   3.941
 9277TIP3   OH227773   5.781   0.126   4.573
 9277TIP3    H127774   5.819   0.038   4.566
 9277TIP3    H227775   5.715   0.129   4.504
 9278TIP3   OH227776   2.936   7.793   2.780
 9278TIP3    H127777   2.987   7.772   2.858
 9278TIP3    H227778   2.999   7.795   2.709
 9279TIP3   OH227779   6.394   0.213   4.361
 9279TIP3    H127780   6.359   0.247   4.279
 9279TIP3    H227781   6.427   0.126   4.338
 9280TIP3   OH227782   6.253   0.044   2.598
 9280TIP3    H127783   6.340   0.068   2.632
 9280TIP3    H227784   6.231  -0.037   2.644
 9281TIP3   OH227785   6.895   0.240   3.959
 9281TIP3    H127786   6.880   0.319   4.010
 9281TIP3    H227787   6.816   0.187   3.973
 9282TIP3   OH227788   3.083   7.902   4.548
 9282TIP3    H127789   3.149   7.899   4.479
 9282TIP3    H227790   3.132   7.923   4.627
 9283TIP3   OH227791   3.139   7.736   2.963
 9283TIP3    H127792   3.112   7.694   3.045
 9283TIP3    H227793   3.181   7.666   2.913
 9284TIP3   OH227794   3.432   7.829   4.210
 9284TIP3    H127795   3.347   7.873   4.215
 9284TIP3    H227796   3.467   7.857   4.126
 9285TIP3   OH227797   3.258   7.547   2.801
 9285TIP3    H127798   3.234   7.541   2.708
 9285TIP3    H227799   3.353   7.559   2.800
 9286TIP3   OH227800   6.762   0.162   4.284
 9286TIP3    H127801   6.831   0.227   4.285
 9286TIP3    H227802   6.722   0.166   4.371
 9287TIP3   OH227803   4.074   7.869   2.459
 9287TIP3    H127804   4.044   7.831   2.376
 9287TIP3    H227805   4.054   7.963   2.450
 9288TIP3   OH227806   3.567   7.615   4.321
 9288TIP3    H127807   3.560   7.544   4.257
 9288TIP3    H227808   3.515   7.686   4.285
 9289TIP3   OH227809   3.536   7.429   4.106
 9289TIP3    H127810   3.562   7.464   4.021
 9289TIP3    H227811   3.445   7.403   4.094
 9290TIP3   OH227812   3.572   7.925   3.997
 9290TIP3    H127813   3.657   7.943   3.958
 9290TIP3    H227814   3.512   7.982   3.949
 9291TIP3   OH227815   4.220   7.921   4.311
 9291TIP3    H127816   4.208   7.866   4.389
 9291TIP3    H227817   4.229   8.009   4.345
 9292TIP3   OH227818   7.114   0.076   4.044
 9292TIP3    H127819   7.055   0.138   4.002
 9292TIP3    H227820   7.189   0.129   4.071
 9293TIP3   OH227821   3.656   7.197   4.203
 9293TIP3    H127822   3.614   7.276   4.170
 9293TIP3    H227823   3.591   7.128   4.190
 9294TIP3   OH227824   3.834   7.666   4.392
 9294TIP3    H127825   3.830   7.653   4.487
 9294TIP3    H227826   3.746   7.645   4.360
 9295TIP3   OH227827   4.052   7.605   4.228
 9295TIP3    H127828   3.980   7.616   4.291
 9295TIP3    H227829   4.129   7.589   4.283
 9296TIP3   OH227830   4.275   7.576   4.386
 9296TIP3    H127831   4.290   7.484   4.409
 9296TIP3    H227832   4.251   7.618   4.469
 9297TIP3   OH227833   3.726   7.189   4.469
 9297TIP3    H127834   3.792   7.119   4.466
 9297TIP3    H227835   3.694   7.196   4.379
 9298TIP3   OH227836   3.831   7.398   4.615
 9298TIP3    H127837   3.801   7.325   4.560
 9298TIP3    H227838   3.759   7.461   4.612
 9299TIP3   OH227839   2.536   7.902   2.971
 9299TIP3    H127840   2.613   7.948   2.937
 9299TIP3    H227841   2.521   7.832   2.907
 9300TIP3   OH227842   7.018   0.036   2.792
 9300TIP3    H127843   7.040   0.128   2.775
 9300TIP3    H227844   7.075   0.011   2.865
 9301TIP3   OH227845   4.343   7.942   2.994
 9301TIP3    H127846   4.279   7.903   3.054
 9301TIP3    H227847   4.408   7.982   3.052
 9302TIP3   OH227848   7.230   0.282   3.449
 9302TIP3    H127849   7.268   0.209   3.399
 9302TIP3    H227850   7.208   0.347   3.383
 9303TIP3   OH227851   4.283   7.850   2.632
 9303TIP3    H127852   4.213   7.849   2.567
 9303TIP3    H227853   4.263   7.925   2.688
 9304TIP3   OH227854   4.122   7.513   2.586
 9304TIP3    H127855   4.094   7.557   2.506
 9304TIP3    H227856   4.111   7.420   2.568
 9305TIP3   OH227857   4.156   7.801   3.143
 9305TIP3    H127858   4.164   7.706   3.131
 9305TIP3    H227859   4.139   7.811   3.237
 9306TIP3   OH227860   2.764   7.851   3.903
 9306TIP3    H127861   2.752   7.811   3.817
 9306TIP3    H227862   2.858   7.844   3.920
 9307TIP3   OH227863   4.066   7.243   2.531
 9307TIP3    H127864   4.122   7.227   2.608
 9307TIP3    H227865   3.984   7.198   2.552
 9308TIP3   OH227866   4.143   7.531   3.022
 9308TIP3    H127867   4.189   7.448   3.035
 9308TIP3    H227868   4.186   7.571   2.946
 9309TIP3   OH227869   4.296   7.690   3.536
 9309TIP3    H127870   4.375   7.714   3.488
 9309TIP3    H227871   4.316   7.709   3.628
 9310TIP3   OH227872   4.824   7.449   4.302
 9310TIP3    H127873   4.890   7.393   4.262
 9310TIP3    H227874   4.780   7.493   4.229
 9311TIP3   OH227875   4.257   7.284   3.074
 9311TIP3    H127876   4.300   7.263   3.157
 9311TIP3    H227877   4.191   7.215   3.064
 9312TIP3   OH227878   2.959   7.259   3.906
 9312TIP3    H127879   3.011   7.179   3.906
 9312TIP3    H227880   3.021   7.328   3.885
 9313TIP3   OH227881   2.740   7.522   3.958
 9313TIP3    H127882   2.790   7.504   3.879
 9313TIP3    H227883   2.780   7.602   3.994
 9314TIP3   OH227884   4.659   7.550   4.107
 9314TIP3    H127885   4.578   7.599   4.122
 9314TIP3    H227886   4.633   7.476   4.052
 9315TIP3   OH227887   4.268   7.224   2.724
 9315TIP3    H127888   4.301   7.158   2.663
 9315TIP3    H227889   4.336   7.292   2.725
 9316TIP3   OH227890   2.732   7.051   3.471
 9316TIP3    H127891   2.645   7.039   3.508
 9316TIP3    H227892   2.716   7.098   3.389
 9317TIP3   OH227893   2.958   7.111   4.295
 9317TIP3    H127894   2.907   7.104   4.375
 9317TIP3    H227895   2.896   7.146   4.230
 9318TIP3   OH227896   4.586   7.290   4.008
 9318TIP3    H127897   4.496   7.265   3.985
 9318TIP3    H227898   4.636   7.209   4.003
 9319TIP3   OH227899   3.805   7.243   3.651
 9319TIP3    H127900   3.763   7.169   3.696
 9319TIP3    H227901   3.872   7.203   3.596
 9320TIP3   OH227902   4.293   7.173   3.550
 9320TIP3    H127903   4.330   7.198   3.465
 9320TIP3    H227904   4.199   7.170   3.535
 9321TIP3   OH227905   4.409   7.205   3.296
 9321TIP3    H127906   4.479   7.149   3.261
 9321TIP3    H227907   4.445   7.294   3.290
 9322TIP3   OH227908   3.036   6.919   3.641
 9322TIP3    H127909   2.947   6.887   3.649
 9322TIP3    H227910   3.089   6.840   3.627
 9323TIP3   OH227911   2.806   6.846   3.279
 9323TIP3    H127912   2.850   6.892   3.208
 9323TIP3    H227913   2.795   6.912   3.347
 9324TIP3   OH227914   3.506   6.986   3.534
 9324TIP3    H127915   3.558   7.029   3.466
 9324TIP3    H227916   3.550   7.007   3.616
 9325TIP3   OH227917   4.013   7.124   3.510
 9325TIP3    H127918   4.013   7.088   3.421
 9325TIP3    H227919   4.017   7.046   3.567
 9326TIP3   OH227920   4.062   7.082   3.080
 9326TIP3    H127921   3.981   7.128   3.103
 9326TIP3    H227922   4.051   6.994   3.116
 9327TIP3   OH227923   2.956   6.969   3.057
 9327TIP3    H127924   3.002   6.903   3.004
 9327TIP3    H227925   3.026   7.026   3.090
 9328TIP3   OH227926   3.446   7.167   3.145
 9328TIP3    H127927   3.500   7.109   3.199
 9328TIP3    H227928   3.459   7.254   3.184
 9329TIP3   OH227929   3.256   7.218   4.498
 9329TIP3    H127930   3.232   7.148   4.559
 9329TIP3    H227931   3.341   7.249   4.530
 9330TIP3   OH227932   3.492   7.254   4.652
 9330TIP3    H127933   3.570   7.235   4.600
 9330TIP3    H227934   3.492   7.187   4.720
 9331TIP3   OH227935   4.333   7.308   4.430
 9331TIP3    H127936   4.349   7.279   4.519
 9331TIP3    H227937   4.418   7.305   4.387
 9332TIP3   OH227938   8.364   0.198   2.689
 9332TIP3    H127939   8.338   0.286   2.661
 9332TIP3    H227940   8.291   0.142   2.662
 9333TIP3   OH227941   8.366   0.203   3.090
 9333TIP3    H127942   8.412   0.191   3.173
 9333TIP3    H227943   8.321   0.119   3.075
 9334TIP3   OH227944   7.658   0.074   3.449
 9334TIP3    H127945   7.695   0.016   3.515
 9334TIP3    H227946   7.733   0.121   3.414
 9335TIP3   OH227947   0.125   0.484   2.759
 9335TIP3    H127948   0.122   0.414   2.824
 9335TIP3    H227949   0.066   0.551   2.793
 9336TIP3   OH227950   7.735   0.409   3.197
 9336TIP3    H127951   7.720   0.322   3.160
 9336TIP3    H227952   7.805   0.446   3.144
 9337TIP3   OH227953   4.502   7.718   2.921
 9337TIP3    H127954   4.465   7.804   2.942
 9337TIP3    H227955   4.430   7.670   2.881
 9338TIP3   OH227956   7.400   0.003   3.140
 9338TIP3    H127957   7.462  -0.068   3.158
 9338TIP3    H227958   7.452   0.068   3.092
 9339TIP3   OH227959   8.200   0.432   3.106
 9339TIP3    H127960   8.241   0.352   3.074
 9339TIP3    H227961   8.271   0.481   3.147
 9340TIP3   OH227962   6.366   7.770   3.120
 9340TIP3    H127963   6.379   7.855   3.162
 9340TIP3    H227964   6.389   7.784   3.028
 9341TIP3   OH227965   5.745   7.936   3.138
 9341TIP3    H127966   5.776   7.850   3.167
 9341TIP3    H227967   5.707   7.920   3.052
 9342TIP3   OH227968   5.098   7.591   3.098
 9342TIP3    H127969   5.076   7.664   3.040
 9342TIP3    H227970   5.041   7.519   3.069
 9343TIP3   OH227971   5.794   7.696   2.734
 9343TIP3    H127972   5.857   7.689   2.806
 9343TIP3    H227973   5.844   7.729   2.660
 9344TIP3   OH227974   4.723   7.805   3.229
 9344TIP3    H127975   4.806   7.788   3.272
 9344TIP3    H227976   4.727   7.755   3.148
 9345TIP3   OH227977   5.156   8.003   3.029
 9345TIP3    H127978   5.249   7.985   3.037
 9345TIP3    H227979   5.118   7.921   2.998
 9346TIP3   OH227980   0.748  -0.022   3.284
 9346TIP3    H127981   0.659   0.013   3.281
 9346TIP3    H227982   0.784   0.012   3.366
 9347TIP3   OH227983   5.084   7.594   3.545
 9347TIP3    H127984   5.031   7.630   3.474
 9347TIP3    H227985   5.032   7.607   3.624
 9348TIP3   OH227986   8.283   0.418   2.546
 9348TIP3    H127987   8.236   0.410   2.463
 9348TIP3    H227988   8.357   0.475   2.526
 9349TIP3   OH227989   8.042   0.331   3.308
 9349TIP3    H127990   7.994   0.401   3.351
 9349TIP3    H227991   8.092   0.376   3.239
 9350TIP3   OH227992   5.951   7.714   2.957
 9350TIP3    H127993   5.907   7.692   3.038
 9350TIP3    H227994   6.006   7.790   2.978
 9351TIP3   OH227995   4.968   7.703   3.319
 9351TIP3    H127996   5.023   7.777   3.344
 9351TIP3    H227997   5.015   7.660   3.248
 9352TIP3   OH227998   7.894   0.527   3.432
 9352TIP3    H127999   7.853   0.562   3.353
 9352TIP3    H228000   7.820   0.496   3.485
 9353TIP3   OH228001   7.278   0.113   2.681
 9353TIP3    H128002   7.210   0.151   2.624
 9353TIP3    H228003   7.295   0.181   2.746
 9354TIP3   OH228004   6.171   7.654   3.288
 9354TIP3    H128005   6.084   7.678   3.255
 9354TIP3    H228006   6.232   7.684   3.221
 9355TIP3   OH228007   5.419   7.291   3.282
 9355TIP3    H128008   5.411   7.198   3.305
 9355TIP3    H228009   5.342   7.332   3.319
 9356TIP3   OH228010   0.028   0.536   2.499
 9356TIP3    H128011   0.057   0.475   2.431
 9356TIP3    H228012   0.079   0.512   2.577
 9357TIP3   OH228013   0.360   0.671   3.240
 9357TIP3    H128014   0.356   0.584   3.201
 9357TIP3    H228015   0.403   0.726   3.174
 9358TIP3   OH228016   8.185   0.049   2.535
 9358TIP3    H128017   8.105   0.099   2.520
 9358TIP3    H228018   8.229   0.048   2.450
 9359TIP3   OH228019   5.329   7.878   2.212
 9359TIP3    H128020   5.393   7.926   2.265
 9359TIP3    H228021   5.380   7.813   2.165
 9360TIP3   OH228022   0.570   0.297   3.110
 9360TIP3    H128023   0.488   0.347   3.115
 9360TIP3    H228024   0.607   0.321   3.024
 9361TIP3   OH228025   0.048   0.131   2.498
 9361TIP3    H128026  -0.007   0.157   2.572
 9361TIP3    H228027   0.131   0.105   2.538
 9362TIP3   OH228028   0.272   0.168   3.426
 9362TIP3    H128029   0.272   0.252   3.473
 9362TIP3    H228030   0.189   0.167   3.379
 9363TIP3   OH228031   7.792   0.122   2.884
 9363TIP3    H128032   7.757   0.058   2.822
 9363TIP3    H228033   7.868   0.078   2.923
 9364TIP3   OH228034   7.942   0.519   3.049
 9364TIP3    H128035   7.943   0.533   2.955
 9364TIP3    H228036   8.032   0.495   3.072
 9365TIP3   OH228037   7.894   0.107   3.258
 9365TIP3    H128038   7.933   0.072   3.178
 9365TIP3    H228039   7.944   0.187   3.276
 9366TIP3   OH228040   8.116   0.618   3.577
 9366TIP3    H128041   8.071   0.692   3.619
 9366TIP3    H228042   8.049   0.579   3.520
 9367TIP3   OH228043   8.374   0.005   2.328
 9367TIP3    H128044   8.434   0.058   2.381
 9367TIP3    H228045   8.405   0.014   2.239
 9368TIP3   OH228046   7.818   0.215   3.704
 9368TIP3    H128047   7.822   0.296   3.756
 9368TIP3    H228048   7.731   0.180   3.720
 9369TIP3   OH228049   6.053   7.251   2.381
 9369TIP3    H128050   5.975   7.271   2.433
 9369TIP3    H228051   6.063   7.327   2.323
 9370TIP3   OH228052   4.844   7.965   2.698
 9370TIP3    H128053   4.776   8.011   2.649
 9370TIP3    H228054   4.804   7.880   2.720
 9371TIP3   OH228055   7.479   0.289   3.600
 9371TIP3    H128056   7.399   0.275   3.549
 9371TIP3    H228057   7.511   0.201   3.620
 9372TIP3   OH228058   0.529   0.133   3.588
 9372TIP3    H128059   0.444   0.149   3.548
 9372TIP3    H228060   0.544   0.039   3.574
 9373TIP3   OH228061   7.654   0.496   3.564
 9373TIP3    H128062   7.614   0.551   3.632
 9373TIP3    H228063   7.605   0.414   3.569
 9374TIP3   OH228064   5.181   7.377   3.402
 9374TIP3    H128065   5.097   7.346   3.371
 9374TIP3    H228066   5.161   7.459   3.449
 9375TIP3   OH228067   5.718   7.503   3.605
 9375TIP3    H128068   5.786   7.480   3.669
 9375TIP3    H228069   5.636   7.489   3.653
 9376TIP3   OH228070   5.948   7.923   3.526
 9376TIP3    H128071   5.902   7.919   3.610
 9376TIP3    H228072   5.931   8.012   3.494
 9377TIP3   OH228073   8.465   0.013   2.075
 9377TIP3    H128074   8.419  -0.008   1.994
 9377TIP3    H228075   8.540   0.066   2.048
 9378TIP3   OH228076   5.331   7.427   2.373
 9378TIP3    H128077   5.294   7.435   2.461
 9378TIP3    H228078   5.295   7.346   2.339
 9379TIP3   OH228079   5.121   7.909   3.421
 9379TIP3    H128080   5.075   7.920   3.504
 9379TIP3    H228081   5.099   7.988   3.371
 9380TIP3   OH228082   5.003   7.791   2.937
 9380TIP3    H128083   4.914   7.769   2.963
 9380TIP3    H228084   5.011   7.759   2.847
 9381TIP3   OH228085   5.482   7.861   2.665
 9381TIP3    H128086   5.432   7.932   2.625
 9381TIP3    H228087   5.539   7.829   2.595
 9382TIP3   OH228088   0.005   0.115   3.727
 9382TIP3    H128089  -0.022   0.052   3.793
 9382TIP3    H228090   0.097   0.133   3.748
 9383TIP3   OH228091   5.650   7.881   2.888
 9383TIP3    H128092   5.580   7.904   2.826
 9383TIP3    H228093   5.695   7.808   2.847
 9384TIP3   OH228094   4.952   7.922   3.639
 9384TIP3    H128095   4.922   7.982   3.708
 9384TIP3    H228096   4.945   7.835   3.678
 9385TIP3   OH228097   4.993   7.412   2.351
 9385TIP3    H128098   4.983   7.413   2.446
 9385TIP3    H228099   4.918   7.461   2.317
 9386TIP3   OH228100   4.540   7.434   3.231
 9386TIP3    H128101   4.610   7.476   3.281
 9386TIP3    H228102   4.574   7.426   3.142
 9387TIP3   OH228103   4.457   7.428   2.723
 9387TIP3    H128104   4.499   7.459   2.643
 9387TIP3    H228105   4.398   7.499   2.748
 9388TIP3   OH228106   0.018   0.120   3.312
 9388TIP3    H128107   0.046   0.056   3.247
 9388TIP3    H228108  -0.021   0.068   3.382
 9389TIP3   OH228109   5.364   7.583   2.988
 9389TIP3    H128110   5.285   7.582   3.043
 9389TIP3    H228111   5.436   7.575   3.050
 9390TIP3   OH228112   4.763   7.669   2.995
 9390TIP3    H128113   4.674   7.674   2.960
 9390TIP3    H228114   4.790   7.579   2.981
 9391TIP3   OH228115   5.012   7.670   2.692
 9391TIP3    H128116   5.106   7.680   2.681
 9391TIP3    H228117   4.975   7.690   2.606
 9392TIP3   OH228118   5.809   7.672   3.194
 9392TIP3    H128119   5.793   7.690   3.287
 9392TIP3    H228120   5.739   7.613   3.169
 9393TIP3   OH228121   4.898   7.700   2.445
 9393TIP3    H128122   4.833   7.655   2.391
 9393TIP3    H228123   4.958   7.741   2.381
 9394TIP3   OH228124   7.810   0.431   3.880
 9394TIP3    H128125   7.881   0.461   3.937
 9394TIP3    H228126   7.735   0.422   3.938
 9395TIP3   OH228127   5.421   7.949   3.092
 9395TIP3    H128128   5.488   7.897   3.048
 9395TIP3    H228129   5.416   7.912   3.180
 9396TIP3   OH228130   4.902   7.419   2.985
 9396TIP3    H128131   4.871   7.344   3.036
 9396TIP3    H228132   4.923   7.382   2.899
 9397TIP3   OH228133   5.387   7.861   3.356
 9397TIP3    H128134   5.300   7.891   3.382
 9397TIP3    H228135   5.447   7.913   3.410
 9398TIP3   OH228136   7.959   0.203   2.487
 9398TIP3    H128137   7.887   0.146   2.459
 9398TIP3    H228138   7.924   0.249   2.564
 9399TIP3   OH228139   0.336   0.441   3.082
 9399TIP3    H128140   0.370   0.487   3.005
 9399TIP3    H228141   0.256   0.399   3.052
 9400TIP3   OH228142   5.586   7.522   2.378
 9400TIP3    H128143   5.493   7.502   2.373
 9400TIP3    H228144   5.589   7.618   2.388
 9401TIP3   OH228145   8.385   0.560   3.513
 9401TIP3    H128146   8.422   0.530   3.596
 9401TIP3    H228147   8.296   0.586   3.535
 9402TIP3   OH228148   5.644   7.787   2.448
 9402TIP3    H128149   5.739   7.794   2.457
 9402TIP3    H228150   5.620   7.863   2.396
 9403TIP3   OH228151   7.654   0.151   3.123
 9403TIP3    H128152   7.684   0.143   3.033
 9403TIP3    H228153   7.724   0.112   3.175
 9404TIP3   OH228154   8.104   0.372   2.329
 9404TIP3    H128155   8.048   0.450   2.331
 9404TIP3    H228156   8.058   0.308   2.384
 9405TIP3   OH228157   7.582   0.085   3.779
 9405TIP3    H128158   7.610   0.092   3.870
 9405TIP3    H228159   7.488   0.064   3.784
 9406TIP3   OH228160   8.269   0.260   3.783
 9406TIP3    H128161   8.198   0.204   3.751
 9406TIP3    H228162   8.349   0.222   3.747
 9407TIP3   OH228163   6.052   7.877   2.263
 9407TIP3    H128164   5.996   7.828   2.202
 9407TIP3    H228165   6.055   7.965   2.226
 9408TIP3   OH228166   0.656   0.686   3.375
 9408TIP3    H128167   0.591   0.753   3.397
 9408TIP3    H228168   0.658   0.686   3.279
 9409TIP3   OH228169   0.113   0.304   2.974
 9409TIP3    H128170   0.025   0.285   3.006
 9409TIP3    H228171   0.145   0.220   2.942
 9410TIP3   OH228172   4.519   7.843   2.488
 9410TIP3    H128173   4.571   7.921   2.502
 9410TIP3    H228174   4.443   7.854   2.546
 9411TIP3   OH228175   7.844   0.325   2.706
 9411TIP3    H128176   7.780   0.392   2.730
 9411TIP3    H228177   7.833   0.256   2.772
 9412TIP3   OH228178   8.421   0.516   3.243
 9412TIP3    H128179   8.401   0.533   3.335
 9412TIP3    H228180   8.514   0.497   3.242
 9413TIP3   OH228181   8.422   0.366   2.075
 9413TIP3    H128182   8.470   0.357   2.158
 9413TIP3    H228183   8.330   0.364   2.100
 9414TIP3   OH228184   4.920   7.665   3.753
 9414TIP3    H128185   4.825   7.679   3.756
 9414TIP3    H228186   4.941   7.627   3.838
 9415TIP3   OH228187   0.067   0.329   2.309
 9415TIP3    H128188   0.053   0.259   2.373
 9415TIP3    H228189   0.162   0.328   2.292
 9416TIP3   OH228190   7.741   0.324   2.169
 9416TIP3    H128191   7.727   0.236   2.133
 9416TIP3    H228192   7.830   0.347   2.140
 9417TIP3   OH228193   7.492   0.069   2.537
 9417TIP3    H128194   7.417   0.085   2.593
 9417TIP3    H228195   7.503   0.150   2.487
 9418TIP3   OH228196   5.759   7.731   3.456
 9418TIP3    H128197   5.835   7.776   3.494
 9418TIP3    H228198   5.746   7.655   3.514
 9419TIP3   OH228199   5.643   7.479   2.648
 9419TIP3    H128200   5.621   7.496   2.556
 9419TIP3    H228201   5.685   7.560   2.677
 9420TIP3   OH228202   5.292   7.676   2.737
 9420TIP3    H128203   5.355   7.742   2.711
 9420TIP3    H228204   5.314   7.656   2.828
 9421TIP3   OH228205   5.598   7.965   3.508
 9421TIP3    H128206   5.622   8.009   3.590
 9421TIP3    H228207   5.647   7.883   3.510
 9422TIP3   OH228208   5.456   7.374   2.822
 9422TIP3    H128209   5.431   7.451   2.873
 9422TIP3    H228210   5.524   7.404   2.762
 9423TIP3   OH228211   4.967   7.398   2.630
 9423TIP3    H128212   4.957   7.489   2.659
 9423TIP3    H228213   5.061   7.382   2.634
 9424TIP3   OH228214   6.213   7.874   3.505
 9424TIP3    H128215   6.118   7.881   3.517
 9424TIP3    H228216   6.223   7.822   3.426
 9425TIP3   OH228217   0.205   0.052   2.889
 9425TIP3    H128218   0.127  -0.003   2.899
 9425TIP3    H228219   0.269   0.012   2.947
 9426TIP3   OH228220   7.480   0.308   2.348
 9426TIP3    H128221   7.561   0.355   2.330
 9426TIP3    H228222   7.488   0.226   2.300
 9427TIP3   OH228223   4.517   7.565   2.493
 9427TIP3    H128224   4.535   7.658   2.502
 9427TIP3    H228225   4.464   7.559   2.413
 9428TIP3   OH228226   4.917   7.297   3.365
 9428TIP3    H128227   4.885   7.264   3.281
 9428TIP3    H228228   4.909   7.223   3.424
 9429TIP3   OH228229   7.587   0.397   4.051
 9429TIP3    H128230   7.564   0.342   4.126
 9429TIP3    H228231   7.526   0.371   3.982
 9430TIP3   OH228232   7.559   0.067   2.244
 9430TIP3    H128233   7.612   0.041   2.319
 9430TIP3    H228234   7.621   0.066   2.170
 9431TIP3   OH228235   8.204   0.530   3.822
 9431TIP3    H128236   8.175   0.554   3.734
 9431TIP3    H228237   8.237   0.441   3.813
 9432TIP3   OH228238   8.008   0.294   2.078
 9432TIP3    H128239   8.059   0.309   2.158
 9432TIP3    H228240   8.036   0.208   2.047
 9433TIP3   OH228241   0.163   0.566   3.403
 9433TIP3    H128242   0.222   0.625   3.355
 9433TIP3    H228243   0.089   0.622   3.428
 9434TIP3   OH228244   7.742   0.121   4.008
 9434TIP3    H128245   7.832   0.130   3.977
 9434TIP3    H228246   7.737   0.180   4.083
 9435TIP3   OH228247   4.935   8.025   2.427
 9435TIP3    H128248   4.913   7.985   2.511
 9435TIP3    H228249   4.980   7.956   2.379
 9436TIP3   OH228250   8.067   0.095   3.679
 9436TIP3    H128251   7.980   0.135   3.680
 9436TIP3    H228252   8.103   0.119   3.593
 9437TIP3   OH228253   5.061   7.836   2.271
 9437TIP3    H128254   5.029   7.835   2.181
 9437TIP3    H228255   5.156   7.846   2.263
 9438TIP3   OH228256   0.036   0.463   3.752
 9438TIP3    H128257   0.117   0.434   3.710
 9438TIP3    H228258   0.025   0.404   3.827
 9439TIP3   OH228259   0.177   0.143   1.949
 9439TIP3    H128260   0.154   0.093   1.871
 9439TIP3    H228261   0.161   0.234   1.926
 9440TIP3   OH228262   5.330   7.878   3.789
 9440TIP3    H128263   5.332   7.809   3.723
 9440TIP3    H228264   5.295   7.954   3.742
 9441TIP3   OH228265   5.340   7.685   3.581
 9441TIP3    H128266   5.367   7.725   3.498
 9441TIP3    H228267   5.250   7.658   3.567
 9442TIP3   OH228268   8.204   0.172   3.457
 9442TIP3    H128269   8.294   0.200   3.440
 9442TIP3    H228270   8.150   0.230   3.402
 9443TIP3   OH228271   0.271   0.160   3.829
 9443TIP3    H128272   0.332   0.086   3.838
 9443TIP3    H228273   0.328   0.237   3.828
 9444TIP3   OH228274   0.303   0.405   3.564
 9444TIP3    H128275   0.246   0.462   3.513
 9444TIP3    H228276   0.391   0.420   3.527
 9445TIP3   OH228277   5.207   7.964   4.028
 9445TIP3    H128278   5.137   7.902   4.048
 9445TIP3    H228279   5.237   7.939   3.941
 9446TIP3   OH228280   5.455   7.454   3.687
 9446TIP3    H128281   5.416   7.534   3.653
 9446TIP3    H228282   5.387   7.387   3.675
 9447TIP3   OH228283   5.583   7.926   3.891
 9447TIP3    H128284   5.570   7.915   3.985
 9447TIP3    H228285   5.497   7.904   3.853
 9448TIP3   OH228286   5.819   7.867   3.755
 9448TIP3    H128287   5.740   7.873   3.810
 9448TIP3    H228288   5.890   7.854   3.817
 9449TIP3   OH228289   6.050   7.844   3.910
 9449TIP3    H128290   6.060   7.750   3.918
 9449TIP3    H228291   6.048   7.876   4.001
 9450TIP3   OH228292   5.034   7.753   4.098
 9450TIP3    H128293   5.040   7.663   4.064
 9450TIP3    H228294   5.071   7.748   4.186
 9451TIP3   OH228295   5.521   7.433   3.953
 9451TIP3    H128296   5.588   7.364   3.947
 9451TIP3    H228297   5.490   7.445   3.863
 9452TIP3   OH228298   5.617   7.646   4.100
 9452TIP3    H128299   5.586   7.575   4.045
 9452TIP3    H228300   5.546   7.710   4.100
 9453TIP3   OH228301   7.175   0.205   2.402
 9453TIP3    H128302   7.264   0.231   2.378
 9453TIP3    H228303   7.161   0.123   2.354
 9454TIP3   OH228304   0.540   0.841   3.631
 9454TIP3    H128305   0.458   0.835   3.680
 9454TIP3    H228306   0.564   0.933   3.634
 9455TIP3   OH228307   0.340   0.315   2.293
 9455TIP3    H128308   0.403   0.375   2.255
 9455TIP3    H228309   0.385   0.277   2.369
 9456TIP3   OH228310   0.470   0.182   2.493
 9456TIP3    H128311   0.403   0.139   2.546
 9456TIP3    H228312   0.533   0.215   2.557
 9457TIP3   OH228313   0.504   0.567   2.900
 9457TIP3    H128314   0.568   0.501   2.873
 9457TIP3    H228315   0.486   0.617   2.820
 9458TIP3   OH228316   0.381   0.102   2.127
 9458TIP3    H128317   0.311   0.106   2.061
 9458TIP3    H228318   0.362   0.175   2.186
 9459TIP3   OH228319   5.903   7.759   2.069
 9459TIP3    H128320   5.845   7.794   2.002
 9459TIP3    H228321   5.899   7.664   2.057
 9460TIP3   OH228322   0.277   0.038   2.624
 9460TIP3    H128323   0.280  -0.056   2.609
 9460TIP3    H228324   0.257   0.047   2.717
 9461TIP3   OH228325   7.392   0.058   3.405
 9461TIP3    H128326   7.379   0.040   3.311
 9461TIP3    H228327   7.487   0.062   3.415
 9462TIP3   OH228328   0.550   0.450   3.457
 9462TIP3    H128329   0.622   0.387   3.447
 9462TIP3    H228330   0.581   0.529   3.414
 9463TIP3   OH228331   0.741   0.255   3.462
 9463TIP3    H128332   0.668   0.216   3.511
 9463TIP3    H228333   0.816   0.201   3.484
 9464TIP3   OH228334   5.871   7.487   2.035
 9464TIP3    H128335   5.932   7.465   2.105
 9464TIP3    H228336   5.787   7.452   2.064
 9465TIP3   OH228337   5.936   7.786   2.506
 9465TIP3    H128338   5.982   7.703   2.517
 9465TIP3    H228339   5.975   7.824   2.427
 9466TIP3   OH228340   6.083   7.946   3.032
 9466TIP3    H128341   6.164   7.965   2.986
 9466TIP3    H228342   6.095   7.987   3.118
 9467TIP3   OH228343   0.488   0.081   3.259
 9467TIP3    H128344   0.415   0.111   3.313
 9467TIP3    H228345   0.516   0.159   3.212
 9468TIP3   OH228346   4.773   7.780   3.999
 9468TIP3    H128347   4.860   7.795   4.036
 9468TIP3    H228348   4.737   7.708   4.051
 9469TIP3   OH228349   6.589   7.656   3.791
 9469TIP3    H128350   6.669   7.620   3.752
 9469TIP3    H228351   6.567   7.730   3.736
 9470TIP3   OH228352   6.052   7.538   2.555
 9470TIP3    H128353   6.096   7.523   2.638
 9470TIP3    H228354   5.988   7.467   2.548
 9471TIP3   OH228355   4.753   7.521   3.390
 9471TIP3    H128356   4.807   7.442   3.393
 9471TIP3    H228357   4.814   7.592   3.371
 9472TIP3   OH228358   4.530   7.790   3.435
 9472TIP3    H128359   4.590   7.769   3.364
 9472TIP3    H228360   4.534   7.885   3.443
 9473TIP3   OH228361   6.472   7.812   3.598
 9473TIP3    H128362   6.389   7.854   3.619
 9473TIP3    H228363   6.449   7.735   3.546
 9474TIP3   OH228364   6.095   7.450   2.196
 9474TIP3    H128365   6.144   7.388   2.143
 9474TIP3    H228366   6.150   7.529   2.199
 9475TIP3   OH228367   4.521   7.288   2.950
 9475TIP3    H128368   4.434   7.281   2.989
 9475TIP3    H228369   4.509   7.343   2.873
 9476TIP3   OH228370   4.738   7.345   3.772
 9476TIP3    H128371   4.687   7.335   3.853
 9476TIP3    H228372   4.683   7.398   3.715
 9477TIP3   OH228373   6.379   7.571   3.481
 9477TIP3    H128374   6.298   7.572   3.429
 9477TIP3    H228375   6.410   7.481   3.475
 9478TIP3   OH228376   5.590   7.495   3.132
 9478TIP3    H128377   5.550   7.423   3.181
 9478TIP3    H228378   5.658   7.453   3.079
 9479TIP3   OH228379   6.091   7.408   3.014
 9479TIP3    H128380   6.128   7.460   2.942
 9479TIP3    H228381   5.998   7.432   3.015
 9480TIP3   OH228382   6.208   7.486   2.778
 9480TIP3    H128383   6.279   7.427   2.752
 9480TIP3    H228384   6.244   7.574   2.764
 9481TIP3   OH228385   4.823   7.191   3.126
 9481TIP3    H128386   4.734   7.156   3.130
 9481TIP3    H228387   4.879   7.114   3.118
 9482TIP3   OH228388   4.625   7.078   2.788
 9482TIP3    H128389   4.667   7.130   2.719
 9482TIP3    H228390   4.595   7.143   2.852
 9483TIP3   OH228391   5.314   7.230   3.020
 9483TIP3    H128392   5.360   7.278   2.951
 9483TIP3    H228393   5.353   7.262   3.102
 9484TIP3   OH228394   5.803   7.383   2.995
 9484TIP3    H128395   5.802   7.354   2.904
 9484TIP3    H228396   5.811   7.303   3.046
 9485TIP3   OH228397   5.865   7.331   2.566
 9485TIP3    H128398   5.784   7.377   2.588
 9485TIP3    H228399   5.853   7.243   2.603
 9486TIP3   OH228400   4.756   7.227   2.552
 9486TIP3    H128401   4.803   7.162   2.500
 9486TIP3    H228402   4.824   7.285   2.586
 9487TIP3   OH228403   5.242   7.427   2.635
 9487TIP3    H128404   5.300   7.371   2.688
 9487TIP3    H228405   5.259   7.516   2.667
 9488TIP3   OH228406   5.055   7.484   4.007
 9488TIP3    H128407   5.021   7.416   4.066
 9488TIP3    H228408   5.147   7.493   4.031
 9489TIP3   OH228409   5.304   7.487   4.129
 9489TIP3    H128410   5.381   7.463   4.078
 9489TIP3    H228411   5.296   7.418   4.195
 9490TIP3   OH228412   6.114   7.575   3.919
 9490TIP3    H128413   6.137   7.546   4.007
 9490TIP3    H228414   6.194   7.565   3.868
 9491TIP3   OH228415   0.961   0.333   2.931
 9491TIP3    H128416   0.988   0.260   2.986
 9491TIP3    H228417   0.998   0.410   2.975
 9492TIP3   OH228418   6.284   7.984   2.386
 9492TIP3    H128419   6.241   8.062   2.421
 9492TIP3    H228420   6.212   7.932   2.349
 9493TIP3   OH228421   0.701   0.258   2.625
 9493TIP3    H128422   0.746   0.180   2.660
 9493TIP3    H228423   0.757   0.287   2.553
 9494TIP3   OH228424   6.841   7.876   2.570
 9494TIP3    H128425   6.823   7.948   2.509
 9494TIP3    H228426   6.786   7.804   2.538
 9495TIP3   OH228427   0.837   0.042   2.721
 9495TIP3    H128428   0.923   0.029   2.762
 9495TIP3    H228429   0.839  -0.013   2.643
 9496TIP3   OH228430   6.841   7.837   3.044
 9496TIP3    H128431   6.795   7.877   2.971
 9496TIP3    H228432   6.788   7.857   3.121
 9497TIP3   OH228433   6.751   7.964   2.815
 9497TIP3    H128434   6.812   8.031   2.843
 9497TIP3    H228435   6.787   7.930   2.733
 9498TIP3   OH228436   0.527   0.467   2.165
 9498TIP3    H128437   0.519   0.455   2.071
 9498TIP3    H228438   0.544   0.561   2.176
 9499TIP3   OH228439   7.195   7.523   2.796
 9499TIP3    H128440   7.184   7.433   2.826
 9499TIP3    H228441   7.118   7.569   2.828
 9500TIP3   OH228442   1.053   0.492   3.136
 9500TIP3    H128443   1.099   0.527   3.213
 9500TIP3    H228444   0.967   0.467   3.170
 9501TIP3   OH228445   0.919   0.153   2.178
 9501TIP3    H128446   0.917   0.247   2.166
 9501TIP3    H228447   0.827   0.127   2.181
 9502TIP3   OH228448   0.680   0.632   3.111
 9502TIP3    H128449   0.628   0.608   3.035
 9502TIP3    H228450   0.735   0.555   3.128
 9503TIP3   OH228451   6.957   7.635   2.895
 9503TIP3    H128452   6.875   7.602   2.858
 9503TIP3    H228453   6.932   7.712   2.945
 9504TIP3   OH228454   7.492   7.697   3.100
 9504TIP3    H128455   7.517   7.789   3.113
 9504TIP3    H228456   7.398   7.696   3.120
 9505TIP3   OH228457   1.261   0.133   2.928
 9505TIP3    H128458   1.203   0.149   3.003
 9505TIP3    H228459   1.278   0.220   2.892
 9506TIP3   OH228460   1.071   0.047   2.394
 9506TIP3    H128461   0.992   0.003   2.426
 9506TIP3    H228462   1.045   0.086   2.311
 9507TIP3   OH228463   1.082   0.170   3.131
 9507TIP3    H128464   1.077   0.241   3.196
 9507TIP3    H228465   1.061   0.091   3.180
 9508TIP3   OH228466   6.844   7.587   1.871
 9508TIP3    H128467   6.789   7.618   1.943
 9508TIP3    H228468   6.805   7.627   1.793
 9509TIP3   OH228469   6.334   7.711   2.700
 9509TIP3    H128470   6.406   7.745   2.753
 9509TIP3    H228471   6.375   7.689   2.616
 9510TIP3   OH228472   6.245   7.684   2.206
 9510TIP3    H128473   6.288   7.719   2.129
 9510TIP3    H228474   6.179   7.749   2.229
 9511TIP3   OH228475   7.086   7.767   2.501
 9511TIP3    H128476   7.002   7.806   2.526
 9511TIP3    H228477   7.150   7.813   2.554
 9512TIP3   OH228478   6.527   7.912   2.490
 9512TIP3    H128479   6.443   7.921   2.446
 9512TIP3    H228480   6.558   7.824   2.467
 9513TIP3   OH228481   6.647   7.903   2.004
 9513TIP3    H128482   6.602   7.896   1.920
 9513TIP3    H228483   6.634   7.994   2.031
 9514TIP3   OH228484   6.678   7.677   2.456
 9514TIP3    H128485   6.660   7.597   2.506
 9514TIP3    H228486   6.696   7.646   2.367
 9515TIP3   OH228487   0.806   0.398   3.217
 9515TIP3    H128488   0.830   0.372   3.306
 9515TIP3    H228489   0.727   0.347   3.198
 9516TIP3   OH228490   0.623   0.112   2.000
 9516TIP3    H128491   0.623   0.204   1.972
 9516TIP3    H228492   0.543   0.102   2.051
 9517TIP3   OH228493   6.686   7.934   3.248
 9517TIP3    H128494   6.592   7.947   3.253
 9517TIP3    H228495   6.709   7.892   3.331
 9518TIP3   OH228496   6.720   7.664   2.115
 9518TIP3    H128497   6.693   7.752   2.089
 9518TIP3    H228498   6.811   7.674   2.144
 9519TIP3   OH228499   6.310   7.838   1.991
 9519TIP3    H128500   6.327   7.930   2.012
 9519TIP3    H228501   6.268   7.841   1.905
 9520TIP3   OH228502   6.700   7.550   2.848
 9520TIP3    H128503   6.675   7.517   2.762
 9520TIP3    H228504   6.694   7.474   2.906
 9521TIP3   OH228505   0.922   0.685   3.444
 9521TIP3    H128506   0.953   0.596   3.428
 9521TIP3    H228507   0.830   0.684   3.418
 9522TIP3   OH228508   1.020   0.413   3.417
 9522TIP3    H128509   1.104   0.368   3.422
 9522TIP3    H228510   0.993   0.426   3.508
 9523TIP3   OH228511   1.419   0.151   3.261
 9523TIP3    H128512   1.484   0.096   3.304
 9523TIP3    H228513   1.394   0.102   3.182
 9524TIP3   OH228514   7.090   7.944   3.065
 9524TIP3    H128515   7.082   8.008   2.994
 9524TIP3    H228516   7.004   7.902   3.069
 9525TIP3   OH228517   1.248   0.264   3.444
 9525TIP3    H128518   1.225   0.184   3.492
 9525TIP3    H228519   1.311   0.235   3.378
 9526TIP3   OH228520   7.223   7.711   3.155
 9526TIP3    H128521   7.180   7.791   3.124
 9526TIP3    H228522   7.156   7.643   3.147
 9527TIP3   OH228523   6.841   8.012   3.534
 9527TIP3    H128524   6.860   7.926   3.495
 9527TIP3    H228525   6.860   8.000   3.627
 9528TIP3   OH228526   7.321   7.683   3.409
 9528TIP3    H128527   7.387   7.614   3.400
 9528TIP3    H228528   7.283   7.691   3.321
 9529TIP3   OH228529   7.405   7.904   3.548
 9529TIP3    H128530   7.372   7.835   3.491
 9529TIP3    H228531   7.340   7.974   3.544
 9530TIP3   OH228532   0.505   0.444   1.894
 9530TIP3    H128533   0.479   0.517   1.837
 9530TIP3    H228534   0.483   0.366   1.844
 9531TIP3   OH228535   0.695   0.372   2.873
 9531TIP3    H128536   0.688   0.334   2.785
 9531TIP3    H228537   0.788   0.367   2.894
 9532TIP3   OH228538   0.905   0.042   3.511
 9532TIP3    H128539   1.000   0.045   3.522
 9532TIP3    H228540   0.878  -0.037   3.558
 9533TIP3   OH228541   6.542   7.777   2.874
 9533TIP3    H128542   6.595   7.697   2.876
 9533TIP3    H228543   6.605   7.847   2.857
 9534TIP3   OH228544   0.660   0.020   2.939
 9534TIP3    H128545   0.713   0.016   2.860
 9534TIP3    H228546   0.687   0.102   2.981
 9535TIP3   OH228547   6.320   7.560   2.438
 9535TIP3    H128548   6.234   7.545   2.477
 9535TIP3    H228549   6.302   7.610   2.358
 9536TIP3   OH228550   6.541   7.598   3.249
 9536TIP3    H128551   6.494   7.600   3.333
 9536TIP3    H228552   6.488   7.653   3.191
 9537TIP3   OH228553   6.630   7.445   2.603
 9537TIP3    H128554   6.541   7.411   2.616
 9537TIP3    H228555   6.684   7.366   2.595
 9538TIP3   OH228556   6.454   7.364   2.282
 9538TIP3    H128557   6.469   7.408   2.199
 9538TIP3    H228558   6.415   7.431   2.338
 9539TIP3   OH228559   7.096   7.494   2.534
 9539TIP3    H128560   7.086   7.586   2.509
 9539TIP3    H228561   7.145   7.497   2.616
 9540TIP3   OH228562   6.529   7.483   2.035
 9540TIP3    H128563   6.577   7.423   1.978
 9540TIP3    H228564   6.595   7.543   2.069
 9541TIP3   OH228565   6.980   7.702   2.192
 9541TIP3    H128566   7.031   7.677   2.269
 9541TIP3    H228567   7.036   7.765   2.146
 9542TIP3   OH228568   6.860   7.730   3.473
 9542TIP3    H128569   6.819   7.684   3.546
 9542TIP3    H228570   6.954   7.731   3.494
 9543TIP3   OH228571   7.113   7.711   3.588
 9543TIP3    H128572   7.189   7.704   3.530
 9543TIP3    H228573   7.126   7.643   3.654
 9544TIP3   OH228574   5.095   4.899   0.623
 9544TIP3    H128575   5.072   4.837   0.692
 9544TIP3    H228576   5.103   4.983   0.668
 9545TIP3   OH228577   4.763   5.431   0.650
 9545TIP3    H128578   4.788   5.355   0.597
 9545TIP3    H228579   4.707   5.395   0.719
 9546TIP3   OH228580   4.771   4.812   0.271
 9546TIP3    H128581   4.738   4.829   0.359
 9546TIP3    H228582   4.815   4.893   0.245
 9547TIP3   OH228583   4.874   5.246   0.467
 9547TIP3    H128584   4.918   5.170   0.428
 9547TIP3    H228585   4.875   5.312   0.398
 9548TIP3   OH228586   4.987   4.992   0.390
 9548TIP3    H128587   5.041   4.992   0.310
 9548TIP3    H228588   5.049   4.977   0.461
 9549TIP3   OH228589   5.010   4.559   0.390
 9549TIP3    H128590   4.957   4.597   0.460
 9549TIP3    H228591   5.094   4.540   0.431
 9550TIP3   OH228592   4.609   5.109   0.465
 9550TIP3    H128593   4.627   5.202   0.449
 9550TIP3    H228594   4.513   5.103   0.462
 9551TIP3   OH228595   2.420   1.028   6.667
 9551TIP3    H128596   2.412   1.121   6.648
 9551TIP3    H228597   2.507   1.004   6.635
 9552TIP3   OH228598   4.592   5.404   0.100
 9552TIP3    H128599   4.531   5.391   0.027
 9552TIP3    H228600   4.555   5.477   0.149
 9553TIP3   OH228601   1.875   1.247   6.759
 9553TIP3    H128602   1.925   1.176   6.717
 9553TIP3    H228603   1.927   1.271   6.836
 9554TIP3   OH228604   4.849   5.316   0.044
 9554TIP3    H128605   4.777   5.351   0.097
 9554TIP3    H228606   4.923   5.312   0.105
 9555TIP3   OH228607   2.167   0.377   6.838
 9555TIP3    H128608   2.111   0.366   6.761
 9555TIP3    H228609   2.224   0.450   6.816
 9556TIP3   OH228610   4.677   4.833  -0.017
 9556TIP3    H128611   4.716   4.897   0.043
 9556TIP3    H228612   4.666   4.754   0.036
 9557TIP3   OH228613   2.660   0.269   6.922
 9557TIP3    H128614   2.577   0.227   6.897
 9557TIP3    H228615   2.640   0.363   6.921
 9558TIP3   OH228616   2.306   1.074   6.917
 9558TIP3    H128617   2.280   0.993   6.961
 9558TIP3    H228618   2.339   1.046   6.832
 9559TIP3   OH228619   2.093   0.851   6.813
 9559TIP3    H128620   2.145   0.851   6.893
 9559TIP3    H228621   2.004   0.829   6.842
 9560TIP3   OH228622   2.417   1.298   6.637
 9560TIP3    H128623   2.475   1.372   6.619
 9560TIP3    H228624   2.336   1.338   6.667
 9561TIP3   OH228625   5.074   4.836   0.097
 9561TIP3    H128626   5.021   4.759   0.117
 9561TIP3    H228627   5.163   4.802   0.084
 9562TIP3   OH228628   4.342   5.094   0.028
 9562TIP3    H128629   4.386   5.096   0.112
 9562TIP3    H228630   4.361   5.179  -0.012
 9563TIP3   OH228631   5.169   5.431   0.837
 9563TIP3    H128632   5.130   5.458   0.753
 9563TIP3    H228633   5.235   5.367   0.812
 9564TIP3   OH228634   1.588   1.019   6.714
 9564TIP3    H128635   1.569   1.020   6.808
 9564TIP3    H228636   1.667   0.967   6.706
 9565TIP3   OH228637   2.026   1.053   6.645
 9565TIP3    H128638   2.074   0.996   6.704
 9565TIP3    H228639   2.078   1.055   6.565
 9566TIP3   OH228640   2.347   0.544   6.709
 9566TIP3    H128641   2.340   0.501   6.623
 9566TIP3    H228642   2.328   0.637   6.691
 9567TIP3   OH228643   1.290   1.318   6.912
 9567TIP3    H128644   1.371   1.331   6.962
 9567TIP3    H228645   1.306   1.364   6.829
 9568TIP3   OH228646   5.405   5.572   0.655
 9568TIP3    H128647   5.478   5.560   0.715
 9568TIP3    H228648   5.442   5.622   0.582
 9569TIP3   OH228649   5.342   4.821   0.049
 9569TIP3    H128650   5.410   4.858  -0.007
 9569TIP3    H228651   5.390   4.778   0.120
 9570TIP3   OH228652   5.462   4.715   0.264
 9570TIP3    H128653   5.386   4.738   0.318
 9570TIP3    H228654   5.537   4.752   0.311
 9571TIP3   OH228655   5.393   4.977   0.720
 9571TIP3    H128656   5.386   4.914   0.792
 9571TIP3    H228657   5.482   4.966   0.687
 9572TIP3   OH228658   2.564   0.533   6.876
 9572TIP3    H128659   2.495   0.526   6.810
 9572TIP3    H228660   2.527   0.589   6.944
 9573TIP3   OH228661   2.409   0.213   6.820
 9573TIP3    H128662   2.341   0.275   6.846
 9573TIP3    H228663   2.370   0.163   6.748
 9574TIP3   OH228664   5.242   4.452   0.474
 9574TIP3    H128665   5.328   4.417   0.455
 9574TIP3    H228666   5.243   4.467   0.569
 9575TIP3   OH228667   5.092   5.510   0.172
 9575TIP3    H128668   5.153   5.449   0.130
 9575TIP3    H228669   5.144   5.554   0.239
 9576TIP3   OH228670   1.613   1.301   6.821
 9576TIP3    H128671   1.703   1.278   6.797
 9576TIP3    H228672   1.561   1.279   6.743
 9577TIP3   OH228673   2.403   1.331   6.950
 9577TIP3    H128674   2.364   1.244   6.954
 9577TIP3    H228675   2.351   1.378   6.885
 9578TIP3   OH228676   6.638   4.912   0.026
 9578TIP3    H128677   6.608   4.997  -0.006
 9578TIP3    H228678   6.583   4.849  -0.020
 9579TIP3   OH228679   6.680   4.942   0.298
 9579TIP3    H128680   6.658   4.861   0.344
 9579TIP3    H228681   6.657   4.926   0.206
 9580TIP3   OH228682   5.862   4.851   0.808
 9580TIP3    H128683   5.809   4.813   0.878
 9580TIP3    H228684   5.951   4.818   0.825
 9581TIP3   OH228685   6.943   5.220   0.047
 9581TIP3    H128686   6.936   5.155   0.117
 9581TIP3    H228687   6.954   5.303   0.092
 9582TIP3   OH228688   5.957   5.274   0.382
 9582TIP3    H128689   5.916   5.188   0.386
 9582TIP3    H228690   6.051   5.256   0.374
 9583TIP3   OH228691   5.646   4.288   0.260
 9583TIP3    H128692   5.561   4.329   0.245
 9583TIP3    H228693   5.641   4.204   0.214
 9584TIP3   OH228694   5.682   4.765   0.417
 9584TIP3    H128695   5.662   4.674   0.436
 9584TIP3    H228696   5.772   4.764   0.387
 9585TIP3   OH228697   6.589   5.634   0.095
 9585TIP3    H128698   6.605   5.581   0.016
 9585TIP3    H228699   6.620   5.579   0.167
 9586TIP3   OH228700   6.439   5.121   0.378
 9586TIP3    H128701   6.442   5.029   0.354
 9586TIP3    H228702   6.530   5.151   0.370
 9587TIP3   OH228703   6.931   4.555   0.439
 9587TIP3    H128704   6.956   4.463   0.449
 9587TIP3    H228705   6.914   4.566   0.345
 9588TIP3   OH228706   6.211   4.249   0.302
 9588TIP3    H128707   6.192   4.343   0.295
 9588TIP3    H228708   6.139   4.207   0.255
 9589TIP3   OH228709   6.929   4.380   0.111
 9589TIP3    H128710   7.024   4.389   0.114
 9589TIP3    H228711   6.909   4.366   0.019
 9590TIP3   OH228712   5.872   4.350   0.508
 9590TIP3    H128713   5.883   4.363   0.602
 9590TIP3    H228714   5.948   4.393   0.469
 9591TIP3   OH228715   6.298   4.657   0.179
 9591TIP3    H128716   6.381   4.618   0.208
 9591TIP3    H228717   6.243   4.581   0.157
 9592TIP3   OH228718   7.575   4.713   0.517
 9592TIP3    H128719   7.491   4.753   0.538
 9592TIP3    H228720   7.627   4.722   0.597
 9593TIP3   OH228721   3.688   1.110   6.829
 9593TIP3    H128722   3.671   1.095   6.736
 9593TIP3    H228723   3.651   1.197   6.847
 9594TIP3   OH228724   6.381   5.064   0.640
 9594TIP3    H128725   6.357   5.144   0.688
 9594TIP3    H228726   6.394   5.093   0.550
 9595TIP3   OH228727   6.045   4.378   0.740
 9595TIP3    H128728   6.093   4.462   0.738
 9595TIP3    H228729   6.096   4.321   0.683
 9596TIP3   OH228730   6.241   5.223   0.820
 9596TIP3    H128731   6.223   5.281   0.746
 9596TIP3    H228732   6.156   5.215   0.865
 9597TIP3   OH228733   2.723   0.932   6.867
 9597TIP3    H128734   2.699   0.973   6.784
 9597TIP3    H228735   2.751   1.005   6.923
 9598TIP3   OH228736   6.952   5.463   0.183
 9598TIP3    H128737   6.864   5.459   0.219
 9598TIP3    H228738   6.958   5.549   0.142
 9599TIP3   OH228739   3.837   1.486   6.811
 9599TIP3    H128740   3.886   1.406   6.795
 9599TIP3    H228741   3.897   1.556   6.787
 9600TIP3   OH228742   3.985   1.270   6.750
 9600TIP3    H128743   3.996   1.196   6.690
 9600TIP3    H228744   4.033   1.244   6.829
 9601TIP3   OH228745   7.186   5.366   0.535
 9601TIP3    H128746   7.176   5.288   0.481
 9601TIP3    H228747   7.170   5.439   0.476
 9602TIP3   OH228748   3.666   0.747   6.786
 9602TIP3    H128749   3.581   0.786   6.763
 9602TIP3    H228750   3.713   0.741   6.703
 9603TIP3   OH228751   3.630   0.566   6.475
 9603TIP3    H128752   3.700   0.609   6.525
 9603TIP3    H228753   3.676   0.501   6.422
 9604TIP3   OH228754   7.400   5.048   0.396
 9604TIP3    H128755   7.310   5.080   0.392
 9604TIP3    H228756   7.431   5.052   0.306
 9605TIP3   OH228757   3.995   0.861   6.754
 9605TIP3    H128758   3.942   0.885   6.830
 9605TIP3    H228759   4.080   0.835   6.790
 9606TIP3   OH228760   7.116   4.969   0.676
 9606TIP3    H128761   7.067   4.926   0.747
 9606TIP3    H228762   7.052   4.976   0.605
 9607TIP3   OH228763   6.112   4.845   0.127
 9607TIP3    H128764   6.060   4.786   0.073
 9607TIP3    H228765   6.191   4.796   0.148
 9608TIP3   OH228766   6.234   5.291   0.299
 9608TIP3    H128767   6.194   5.266   0.215
 9608TIP3    H228768   6.296   5.221   0.318
 9609TIP3   OH228769   6.183   4.882   0.664
 9609TIP3    H128770   6.178   4.842   0.577
 9609TIP3    H228771   6.259   4.940   0.658
 9610TIP3   OH228772   6.698   5.470   0.296
 9610TIP3    H128773   6.714   5.533   0.366
 9610TIP3    H228774   6.685   5.387   0.342
 9611TIP3   OH228775   6.465   5.319   0.941
 9611TIP3    H128776   6.436   5.348   1.028
 9611TIP3    H228777   6.385   5.306   0.892
 9612TIP3   OH228778   3.857   0.693   6.584
 9612TIP3    H128779   3.907   0.761   6.629
 9612TIP3    H228780   3.882   0.702   6.492
 9613TIP3   OH228781   3.587   1.370   6.837
 9613TIP3    H128782   3.673   1.412   6.833
 9613TIP3    H228783   3.530   1.426   6.784
 9614TIP3   OH228784   6.122   5.663   1.104
 9614TIP3    H128785   6.074   5.619   1.034
 9614TIP3    H228786   6.168   5.734   1.059
 9615TIP3   OH228787   3.123   0.666   6.928
 9615TIP3    H128788   3.040   0.688   6.886
 9615TIP3    H228789   3.106   0.585   6.975
 9616TIP3   OH228790   4.184   1.308   6.177
 9616TIP3    H128791   4.181   1.402   6.158
 9616TIP3    H228792   4.274   1.283   6.155
 9617TIP3   OH228793   5.570   5.171   0.554
 9617TIP3    H128794   5.615   5.093   0.588
 9617TIP3    H228795   5.515   5.201   0.626
 9618TIP3   OH228796   7.451   5.735   0.539
 9618TIP3    H128797   7.449   5.639   0.538
 9618TIP3    H228798   7.366   5.761   0.574
 9619TIP3   OH228799   6.543   5.571   0.867
 9619TIP3    H128800   6.543   5.574   0.771
 9619TIP3    H228801   6.543   5.478   0.888
 9620TIP3   OH228802   3.484   1.587   6.661
 9620TIP3    H128803   3.444   1.567   6.577
 9620TIP3    H228804   3.451   1.673   6.684
 9621TIP3   OH228805   5.729   5.475   0.060
 9621TIP3    H128806   5.793   5.483   0.130
 9621TIP3    H228807   5.647   5.451   0.104
 9622TIP3   OH228808   3.684   1.526   6.286
 9622TIP3    H128809   3.736   1.455   6.250
 9622TIP3    H228810   3.720   1.541   6.373
 9623TIP3   OH228811   3.737   1.569   6.554
 9623TIP3    H128812   3.651   1.571   6.596
 9623TIP3    H228813   3.795   1.529   6.619
 9624TIP3   OH228814   7.313   4.895   0.915
 9624TIP3    H128815   7.323   4.903   0.820
 9624TIP3    H228816   7.270   4.810   0.928
 9625TIP3   OH228817   7.195   4.658   0.965
 9625TIP3    H128818   7.178   4.592   1.032
 9625TIP3    H228819   7.109   4.683   0.933
 9626TIP3   OH228820   3.925   0.708   6.322
 9626TIP3    H128821   3.874   0.695   6.242
 9626TIP3    H228822   4.007   0.747   6.291
 9627TIP3   OH228823   6.206   4.601   0.710
 9627TIP3    H128824   6.301   4.599   0.699
 9627TIP3    H228825   6.182   4.693   0.699
 9628TIP3   OH228826   6.099   4.467   0.152
 9628TIP3    H128827   6.028   4.414   0.191
 9628TIP3    H228828   6.135   4.411   0.084
 9629TIP3   OH228829   3.791   0.552   6.929
 9629TIP3    H128830   3.736   0.619   6.888
 9629TIP3    H228831   3.854   0.527   6.862
 9630TIP3   OH228832   6.799   4.600   0.198
 9630TIP3    H128833   6.728   4.617   0.136
 9630TIP3    H228834   6.835   4.515   0.170
 9631TIP3   OH228835   2.923   0.160   6.957
 9631TIP3    H128836   2.957   0.158   6.868
 9631TIP3    H228837   2.833   0.192   6.948
 9632TIP3   OH228838   6.806   4.845   0.671
 9632TIP3    H128839   6.833   4.916   0.613
 9632TIP3    H228840   6.730   4.879   0.718
 9633TIP3   OH228841   5.924   4.271   0.224
 9633TIP3    H128842   5.844   4.285   0.274
 9633TIP3    H228843   5.893   4.236   0.140
 9634TIP3   OH228844   3.361   0.273   6.923
 9634TIP3    H128845   3.454   0.286   6.909
 9634TIP3    H228846   3.320   0.295   6.840
 9635TIP3   OH228847   3.233   0.358   6.698
 9635TIP3    H128848   3.166   0.319   6.641
 9635TIP3    H228849   3.281   0.418   6.642
 9636TIP3   OH228850   7.144   6.066   0.680
 9636TIP3    H128851   7.150   6.089   0.587
 9636TIP3    H228852   7.220   6.108   0.719
 9637TIP3   OH228853   6.519   4.561   0.311
 9637TIP3    H128854   6.577   4.502   0.263
 9637TIP3    H228855   6.577   4.613   0.366
 9638TIP3   OH228856   6.484   4.593   0.706
 9638TIP3    H128857   6.466   4.536   0.780
 9638TIP3    H228858   6.572   4.626   0.722
 9639TIP3   OH228859   3.431   0.867   6.705
 9639TIP3    H128860   3.353   0.820   6.674
 9639TIP3    H228861   3.397   0.931   6.768
 9640TIP3   OH228862   7.150   5.164   0.354
 9640TIP3    H128863   7.195   5.218   0.289
 9640TIP3    H228864   7.081   5.120   0.305
 9641TIP3   OH228865   3.849   0.302   6.564
 9641TIP3    H128866   3.796   0.248   6.622
 9641TIP3    H228867   3.900   0.357   6.624
 9642TIP3   OH228868   6.673   5.193   0.807
 9642TIP3    H128869   6.654   5.099   0.808
 9642TIP3    H228870   6.609   5.230   0.867
 9643TIP3   OH228871   3.978   0.488   6.733
 9643TIP3    H128872   4.074   0.497   6.733
 9643TIP3    H228873   3.948   0.557   6.674
 9644TIP3   OH228874   6.101   5.007   0.355
 9644TIP3    H128875   6.118   4.962   0.273
 9644TIP3    H228876   6.058   4.942   0.410
 9645TIP3   OH228877   3.577   1.057   6.572
 9645TIP3    H128878   3.521   1.134   6.573
 9645TIP3    H228879   3.524   0.989   6.615
 9646TIP3   OH228880   6.929   5.523   0.524
 9646TIP3    H128881   6.847   5.481   0.548
 9646TIP3    H228882   6.972   5.540   0.608
 9647TIP3   OH228883   4.384   0.555   6.511
 9647TIP3    H128884   4.338   0.498   6.449
 9647TIP3    H228885   4.378   0.642   6.472
 9648TIP3   OH228886   7.435   5.464   0.586
 9648TIP3    H128887   7.344   5.436   0.595
 9648TIP3    H228888   7.465   5.423   0.504
 9649TIP3   OH228889   4.095   1.366   6.437
 9649TIP3    H128890   4.065   1.289   6.486
 9649TIP3    H228891   4.120   1.331   6.351
 9650TIP3   OH228892   6.937   5.025   0.249
 9650TIP3    H128893   6.844   5.006   0.260
 9650TIP3    H228894   6.976   4.941   0.225
 9651TIP3   OH228895   6.067   5.262   0.080
 9651TIP3    H128896   6.054   5.339   0.026
 9651TIP3    H228897   5.980   5.238   0.110
 9652TIP3   OH228898   2.799   0.505   6.729
 9652TIP3    H128899   2.847   0.588   6.736
 9652TIP3    H228900   2.717   0.521   6.775
 9653TIP3   OH228901   3.303   1.034   6.876
 9653TIP3    H128902   3.301   1.119   6.919
 9653TIP3    H228903   3.296   0.971   6.948
 9654TIP3   OH228904   6.488   5.623   0.587
 9654TIP3    H128905   6.448   5.536   0.580
 9654TIP3    H228906   6.479   5.661   0.500
 9655TIP3   OH228907   3.142   1.470   6.873
 9655TIP3    H128908   3.055   1.482   6.910
 9655TIP3    H228909   3.179   1.559   6.870
 9656TIP3   OH228910   6.685   5.229   0.445
 9656TIP3    H128911   6.706   5.274   0.526
 9656TIP3    H228912   6.731   5.145   0.452
 9657TIP3   OH228913   3.876   1.113   6.342
 9657TIP3    H128914   3.913   1.095   6.428
 9657TIP3    H228915   3.791   1.069   6.342
 9658TIP3   OH228916   6.971   5.809   0.526
 9658TIP3    H128917   6.929   5.724   0.516
 9658TIP3    H228918   6.959   5.853   0.441
 9659TIP3   OH228919   4.190   1.583   6.150
 9659TIP3    H128920   4.239   1.655   6.110
 9659TIP3    H228921   4.111   1.624   6.185
 9660TIP3   OH228922   4.033   1.063   6.567
 9660TIP3    H128923   4.015   0.991   6.628
 9660TIP3    H228924   4.126   1.053   6.545
 9661TIP3   OH228925   5.634   5.484   0.786
 9661TIP3    H128926   5.694   5.424   0.742
 9661TIP3    H228927   5.672   5.571   0.771
 9662TIP3   OH228928   3.196   1.083   6.367
 9662TIP3    H128929   3.202   0.994   6.333
 9662TIP3    H228930   3.184   1.072   6.461
 9663TIP3   OH228931   3.148   1.073   6.642
 9663TIP3    H128932   3.202   1.055   6.719
 9663TIP3    H228933   3.137   1.168   6.642
 9664TIP3   OH228934   2.909   0.752   6.785
 9664TIP3    H128935   2.845   0.813   6.821
 9664TIP3    H228936   2.962   0.806   6.725
 9665TIP3   OH228937   3.407   1.270   6.571
 9665TIP3    H128938   3.316   1.286   6.596
 9665TIP3    H228939   3.431   1.346   6.518
 9666TIP3   OH228940   6.465   4.332  -0.001
 9666TIP3    H128941   6.517   4.412  -0.006
 9666TIP3    H228942   6.480   4.299   0.087
 9667TIP3   OH228943   6.709   4.711   0.950
 9667TIP3    H128944   6.695   4.694   1.043
 9667TIP3    H228945   6.784   4.657   0.925
 9668TIP3   OH228946   3.142   1.348   6.630
 9668TIP3    H128947   3.138   1.419   6.566
 9668TIP3    H228948   3.147   1.392   6.715
 9669TIP3   OH228949   7.019   4.767   0.196
 9669TIP3    H128950   6.938   4.717   0.206
 9669TIP3    H228951   7.087   4.709   0.231
 9670TIP3   OH228952   2.823   0.227   6.690
 9670TIP3    H128953   2.844   0.321   6.691
 9670TIP3    H228954   2.745   0.220   6.744
 9671TIP3   OH228955   6.985   5.725   0.101
 9671TIP3    H128956   6.942   5.781   0.036
 9671TIP3    H228957   7.078   5.739   0.087
 9672TIP3   OH228958   5.605   5.157   0.081
 9672TIP3    H128959   5.557   5.167   0.163
 9672TIP3    H228960   5.582   5.236   0.031
 9673TIP3   OH228961   3.364   1.271   6.250
 9673TIP3    H128962   3.316   1.202   6.294
 9673TIP3    H228963   3.438   1.226   6.208
 9674TIP3   OH228964   6.850   5.660   1.015
 9674TIP3    H128965   6.831   5.591   0.952
 9674TIP3    H228966   6.941   5.686   0.997
 9675TIP3   OH228967   3.816   1.318   6.168
 9675TIP3    H128968   3.854   1.255   6.229
 9675TIP3    H228969   3.873   1.314   6.091
 9676TIP3   OH228970   3.011   0.778   6.473
 9676TIP3    H128971   3.070   0.753   6.545
 9676TIP3    H228972   3.070   0.802   6.402
 9677TIP3   OH228973   3.627   0.993   6.310
 9677TIP3    H128974   3.600   1.006   6.401
 9677TIP3    H228975   3.604   0.902   6.291
 9678TIP3   OH228976   6.985   5.247   0.688
 9678TIP3    H128977   7.053   5.303   0.650
 9678TIP3    H228978   6.933   5.307   0.742
 9679TIP3   OH228979   3.202   0.710   6.665
 9679TIP3    H128980   3.192   0.682   6.756
 9679TIP3    H228981   3.255   0.642   6.625
 9680TIP3   OH228982   3.361   0.533   6.531
 9680TIP3    H128983   3.331   0.543   6.441
 9680TIP3    H228984   3.456   0.543   6.525
 9681TIP3   OH228985   4.151   0.807   6.195
 9681TIP3    H128986   4.131   0.770   6.108
 9681TIP3    H228987   4.132   0.900   6.186
 9682TIP3   OH228988   6.594   4.921   0.815
 9682TIP3    H128989   6.619   4.848   0.872
 9682TIP3    H228990   6.511   4.952   0.851
 9683TIP3   OH228991   7.026   5.100   0.928
 9683TIP3    H128992   7.008   5.139   0.842
 9683TIP3    H228993   7.113   5.062   0.920
 9684TIP3   OH228994   3.171   1.556   6.455
 9684TIP3    H128995   3.263   1.541   6.433
 9684TIP3    H228996   3.138   1.608   6.382
 9685TIP3   OH228997   2.680   0.945   6.586
 9685TIP3    H128998   2.774   0.938   6.571
 9685TIP3    H228999   2.646   0.858   6.564
 9686TIP3   OH229000   5.359   5.623   0.034
 9686TIP3    H129001   5.359   5.606  -0.060
 9686TIP3    H229002   5.379   5.538   0.073
 9687TIP3   OH229003   5.498   5.440   0.205
 9687TIP3    H129004   5.462   5.355   0.228
 9687TIP3    H229005   5.526   5.478   0.288
 9688TIP3   OH229006   7.247   5.792   0.081
 9688TIP3    H129007   7.260   5.827   0.169
 9688TIP3    H229008   7.322   5.825   0.031
 9689TIP3   OH229009   7.256   5.834   0.352
 9689TIP3    H129010   7.211   5.750   0.359
 9689TIP3    H229011   7.342   5.818   0.391
 9690TIP3   OH229012   7.364   5.507   0.887
 9690TIP3    H129013   7.399   5.526   0.974
 9690TIP3    H229014   7.398   5.578   0.832
 9691TIP3   OH229015   4.304   1.033   6.522
 9691TIP3    H129016   4.362   1.101   6.488
 9691TIP3    H229017   4.347   1.003   6.603
 9692TIP3   OH229018   4.424   0.922   6.739
 9692TIP3    H129019   4.362   0.882   6.800
 9692TIP3    H229020   4.499   0.945   6.794
 9693TIP3   OH229021   7.326   5.303   0.200
 9693TIP3    H129022   7.380   5.235   0.159
 9693TIP3    H229023   7.336   5.379   0.144
 9694TIP3   OH229024   7.140   5.581   0.363
 9694TIP3    H129025   7.057   5.573   0.411
 9694TIP3    H229026   7.121   5.543   0.277
 9695TIP3   OH229027   4.347   0.796   6.386
 9695TIP3    H129028   4.281   0.798   6.317
 9695TIP3    H229029   4.333   0.877   6.436
 9696TIP3   OH229030   4.220   0.473   6.302
 9696TIP3    H129031   4.212   0.560   6.264
 9696TIP3    H229032   4.161   0.418   6.250
 9697TIP3   OH229033   4.229   0.765   6.866
 9697TIP3    H129034   4.244   0.674   6.842
 9697TIP3    H229035   4.222   0.764   6.961
 9698TIP3   OH229036   5.655   4.919   0.642
 9698TIP3    H129037   5.667   4.875   0.558
 9698TIP3    H229038   5.738   4.907   0.687
 9699TIP3   OH229039   7.514   5.208   0.686
 9699TIP3    H129040   7.432   5.192   0.735
 9699TIP3    H229041   7.496   5.287   0.635
 9700TIP3   OH229042   7.590   4.967   0.876
 9700TIP3    H129043   7.510   4.931   0.914
 9700TIP3    H229044   7.642   4.891   0.850
 9701TIP3   OH229045   4.260   0.505   6.755
 9701TIP3    H129046   4.328   0.448   6.793
 9701TIP3    H229047   4.294   0.527   6.668
 9702TIP3   OH229048   7.221   4.580   0.247
 9702TIP3    H129049   7.300   4.628   0.224
 9702TIP3    H229050   7.240   4.540   0.332
 9703TIP3   OH229051   7.296   4.787   0.455
 9703TIP3    H129052   7.337   4.786   0.368
 9703TIP3    H229053   7.329   4.867   0.496
 9704TIP3   OH229054   3.980   1.694   6.718
 9704TIP3    H129055   4.032   1.677   6.640
 9704TIP3    H229056   4.025   1.766   6.762
 9705TIP3   OH229057   6.146   5.348   0.600
 9705TIP3    H129058   6.226   5.390   0.568
 9705TIP3    H229059   6.077   5.411   0.581
 9706TIP3   OH229060   6.477   5.821   0.780
 9706TIP3    H129061   6.520   5.753   0.831
 9706TIP3    H229062   6.467   5.783   0.693
 9707TIP3   OH229063   6.729   5.986   0.588
 9707TIP3    H129064   6.799   5.944   0.538
 9707TIP3    H229065   6.772   6.013   0.670
 9708TIP3   OH229066   5.736   5.724   0.724
 9708TIP3    H129067   5.702   5.794   0.669
 9708TIP3    H229068   5.799   5.767   0.781
 9709TIP3   OH229069   5.975   5.831   0.565
 9709TIP3    H129070   5.885   5.864   0.566
 9709TIP3    H229071   6.001   5.835   0.473
 9710TIP3   OH229072   6.468   5.731   0.333
 9710TIP3    H129073   6.469   5.717   0.239
 9710TIP3    H229074   6.442   5.823   0.344
 9711TIP3   OH229075   6.724   5.723   0.418
 9711TIP3    H129076   6.633   5.727   0.388
 9711TIP3    H229077   6.771   5.786   0.363
 9712TIP3   OH229078   6.888   5.906   0.288
 9712TIP3    H129079   6.895   5.995   0.253
 9712TIP3    H229080   6.919   5.850   0.217
 9713TIP3   OH229081   5.762   5.670   0.398
 9713TIP3    H129082   5.697   5.606   0.427
 9713TIP3    H229083   5.826   5.619   0.348
 9714TIP3   OH229084   5.923   5.507   0.253
 9714TIP3    H129085   5.934   5.424   0.300
 9714TIP3    H229086   6.012   5.542   0.245
 9715TIP3   OH229087   6.197   5.561   0.279
 9715TIP3    H129088   6.217   5.468   0.276
 9715TIP3    H229089   6.244   5.594   0.356
 9716TIP3   OH229090   2.658   1.302   6.821
 9716TIP3    H129091   2.601   1.228   6.838
 9716TIP3    H229092   2.599   1.378   6.821
 9717TIP3   OH229093   3.432   1.491   6.395
 9717TIP3    H129094   3.515   1.520   6.357
 9717TIP3    H229095   3.402   1.421   6.337
 9718TIP3   OH229096   4.120   1.633   6.486
 9718TIP3    H129097   4.115   1.538   6.475
 9718TIP3    H229098   4.083   1.669   6.406
 9719TIP3   OH229099   2.800   1.356   6.515
 9719TIP3    H129100   2.747   1.407   6.454
 9719TIP3    H229101   2.864   1.311   6.459
 9720TIP3   OH229102   7.214   5.795   0.645
 9720TIP3    H129103   7.133   5.815   0.598
 9720TIP3    H229104   7.218   5.860   0.715
 9721TIP3   OH229105   5.611   1.172   6.427
 9721TIP3    H129106   5.586   1.261   6.399
 9721TIP3    H229107   5.541   1.116   6.394
 9722TIP3   OH229108   5.626   1.175   6.843
 9722TIP3    H129109   5.673   1.152   6.923
 9722TIP3    H229110   5.575   1.097   6.821
 9723TIP3   OH229111   7.755   5.034   0.220
 9723TIP3    H129112   7.778   4.974   0.291
 9723TIP3    H229113   7.838   5.050   0.174
 9724TIP3   OH229114   5.895   1.469   6.517
 9724TIP3    H129115   5.880   1.404   6.586
 9724TIP3    H229116   5.915   1.550   6.564
 9725TIP3   OH229117   4.912   1.452   6.885
 9725TIP3    H129118   4.897   1.357   6.883
 9725TIP3    H229119   5.006   1.462   6.871
 9726TIP3   OH229120   4.567   0.694   6.677
 9726TIP3    H129121   4.521   0.777   6.688
 9726TIP3    H229122   4.510   0.641   6.621
 9727TIP3   OH229123   4.674   0.961   6.855
 9727TIP3    H129124   4.717   0.881   6.883
 9727TIP3    H229125   4.745   1.015   6.818
 9728TIP3   OH229126   5.555   1.895   6.524
 9728TIP3    H129127   5.581   1.833   6.457
 9728TIP3    H229128   5.556   1.845   6.606
 9729TIP3   OH229129   5.430   1.391   6.840
 9729TIP3    H129130   5.474   1.312   6.811
 9729TIP3    H229131   5.500   1.447   6.873
 9730TIP3   OH229132   5.851   0.874   6.912
 9730TIP3    H129133   5.921   0.809   6.908
 9730TIP3    H229134   5.807   0.867   6.827
 9731TIP3   OH229135   5.151   0.514   6.874
 9731TIP3    H129136   5.142   0.582   6.808
 9731TIP3    H229137   5.149   0.432   6.824
 9732TIP3   OH229138   5.787   0.630   6.526
 9732TIP3    H129139   5.879   0.604   6.526
 9732TIP3    H229140   5.771   0.660   6.437
 9733TIP3   OH229141   7.635   4.743   0.013
 9733TIP3    H129142   7.720   4.735   0.057
 9733TIP3    H229143   7.644   4.689  -0.066
 9734TIP3   OH229144   5.227   0.941   6.785
 9734TIP3    H129145   5.322   0.929   6.786
 9734TIP3    H229146   5.192   0.854   6.762
 9735TIP3   OH229147   0.829   4.931   0.068
 9735TIP3    H129148   0.739   4.960   0.084
 9735TIP3    H229149   0.875   4.951   0.150
 9736TIP3   OH229150   5.529   1.389   6.277
 9736TIP3    H129151   5.489   1.357   6.196
 9736TIP3    H229152   5.475   1.463   6.303
 9737TIP3   OH229153   8.107   5.316   0.113
 9737TIP3    H129154   8.050   5.386   0.147
 9737TIP3    H229155   8.152   5.356   0.038
 9738TIP3   OH229156   7.882   4.694   0.121
 9738TIP3    H129157   7.957   4.737   0.162
 9738TIP3    H229158   7.920   4.626   0.066
 9739TIP3   OH229159   7.943   5.519   0.216
 9739TIP3    H129160   7.933   5.610   0.190
 9739TIP3    H229161   7.857   5.493   0.249
 9740TIP3   OH229162   4.484   1.213   6.411
 9740TIP3    H129163   4.456   1.237   6.323
 9740TIP3    H229164   4.510   1.297   6.451
 9741TIP3   OH229165   5.929   1.717   6.654
 9741TIP3    H129166   5.842   1.709   6.693
 9741TIP3    H229167   5.927   1.801   6.607
 9742TIP3   OH229168   5.640   1.748   6.304
 9742TIP3    H129169   5.692   1.668   6.295
 9742TIP3    H229170   5.699   1.818   6.277
 9743TIP3   OH229171   5.779   1.517   6.271
 9743TIP3    H129172   5.705   1.456   6.268
 9743TIP3    H229173   5.828   1.492   6.349
 9744TIP3   OH229174   0.508   5.607   0.056
 9744TIP3    H129175   0.485   5.534  -0.001
 9744TIP3    H229176   0.493   5.685   0.003
 9745TIP3   OH229177   5.444   1.019   6.265
 9745TIP3    H129178   5.361   1.061   6.241
 9745TIP3    H229179   5.491   1.010   6.183
 9746TIP3   OH229180   5.430   0.841   5.935
 9746TIP3    H129181   5.499   0.867   5.997
 9746TIP3    H229182   5.395   0.760   5.972
 9747TIP3   OH229183   6.344   1.267   6.865
 9747TIP3    H129184   6.260   1.311   6.857
 9747TIP3    H229185   6.385   1.277   6.779
 9748TIP3   OH229186   5.801   1.123   6.237
 9748TIP3    H129187   5.737   1.142   6.306
 9748TIP3    H229188   5.885   1.121   6.282
 9749TIP3   OH229189   0.364   5.143   0.224
 9749TIP3    H129190   0.359   5.221   0.279
 9749TIP3    H229191   0.278   5.138   0.182
 9750TIP3   OH229192   5.036   1.077   6.635
 9750TIP3    H129193   5.000   1.017   6.570
 9750TIP3    H229194   5.107   1.027   6.677
 9751TIP3   OH229195   5.172   1.501   6.778
 9751TIP3    H129196   5.146   1.485   6.687
 9751TIP3    H229197   5.260   1.464   6.785
 9752TIP3   OH229198   7.987   5.070   0.081
 9752TIP3    H129199   8.018   5.033  -0.002
 9752TIP3    H229200   8.035   5.152   0.090
 9753TIP3   OH229201   5.692   1.713   6.786
 9753TIP3    H129202   5.680   1.792   6.839
 9753TIP3    H229203   5.678   1.641   6.847
 9754TIP3   OH229204   8.149   5.604   0.385
 9754TIP3    H129205   8.093   5.670   0.424
 9754TIP3    H229206   8.091   5.553   0.328
 9755TIP3   OH229207   5.653   0.950   6.075
 9755TIP3    H129208   5.706   1.018   6.117
 9755TIP3    H229209   5.682   0.951   5.983
 9756TIP3   OH229210   7.918   5.182   0.466
 9756TIP3    H129211   7.909   5.274   0.491
 9756TIP3    H229212   7.829   5.147   0.469
 9757TIP3   OH229213   5.392   1.626   6.318
 9757TIP3    H129214   5.473   1.677   6.320
 9757TIP3    H229215   5.330   1.680   6.269
 9758TIP3   OH229216   7.965   5.793   0.457
 9758TIP3    H129217   7.943   5.804   0.365
 9758TIP3    H229218   7.881   5.786   0.502
 9759TIP3   OH229219   4.910   0.921   6.438
 9759TIP3    H129220   4.828   0.960   6.409
 9759TIP3    H229221   4.891   0.828   6.451
 9760TIP3   OH229222   5.977   1.560   5.678
 9760TIP3    H129223   5.970   1.653   5.655
 9760TIP3    H229224   6.068   1.537   5.658
 9761TIP3   OH229225   7.539   5.316   0.386
 9761TIP3    H129226   7.470   5.302   0.321
 9761TIP3    H229227   7.579   5.230   0.397
 9762TIP3   OH229228   7.410   5.521   0.056
 9762TIP3    H129229   7.504   5.514   0.040
 9762TIP3    H229230   7.400   5.603   0.103
 9763TIP3   OH229231   0.730   5.990   0.119
 9763TIP3    H129232   0.740   5.896   0.130
 9763TIP3    H229233   0.651   6.012   0.169
 9764TIP3   OH229234   8.336   5.756   0.249
 9764TIP3    H129235   8.325   5.846   0.281
 9764TIP3    H229236   8.269   5.706   0.296
 9765TIP3   OH229237   5.283   1.854   6.142
 9765TIP3    H129238   5.235   1.831   6.061
 9765TIP3    H229239   5.242   1.935   6.172
 9766TIP3   OH229240   4.722   1.693   6.518
 9766TIP3    H129241   4.761   1.690   6.606
 9766TIP3    H229242   4.670   1.612   6.513
 9767TIP3   OH229243   5.485   1.787   5.771
 9767TIP3    H129244   5.534   1.713   5.735
 9767TIP3    H229245   5.519   1.798   5.860
 9768TIP3   OH229246   5.537   1.826   6.042
 9768TIP3    H129247   5.449   1.831   6.080
 9768TIP3    H229248   5.591   1.786   6.110
 9769TIP3   OH229249   0.616   5.057   0.343
 9769TIP3    H129250   0.538   5.104   0.313
 9769TIP3    H229251   0.582   4.972   0.371
 9770TIP3   OH229252   7.699   5.539   0.378
 9770TIP3    H129253   7.769   5.514   0.439
 9770TIP3    H229254   7.643   5.462   0.373
 9771TIP3   OH229255   0.373   4.905   0.380
 9771TIP3    H129256   0.374   4.959   0.459
 9771TIP3    H229257   0.355   4.967   0.309
 9772TIP3   OH229258   5.724   0.936   5.806
 9772TIP3    H129259   5.673   0.950   5.726
 9772TIP3    H229260   5.806   0.982   5.791
 9773TIP3   OH229261   8.069   4.862   0.257
 9773TIP3    H129262   8.002   4.865   0.326
 9773TIP3    H229263   8.050   4.937   0.202
 9774TIP3   OH229264   5.088   0.714   6.696
 9774TIP3    H129265   4.996   0.690   6.700
 9774TIP3    H229266   5.114   0.696   6.606
 9775TIP3   OH229267   5.560   0.847   6.444
 9775TIP3    H129268   5.506   0.908   6.393
 9775TIP3    H229269   5.633   0.825   6.385
 9776TIP3   OH229270   0.113   5.101   0.527
 9776TIP3    H129271   0.085   5.032   0.587
 9776TIP3    H229272   0.207   5.111   0.544
 9777TIP3   OH229273   5.737   0.864   6.662
 9777TIP3    H129274   5.675   0.905   6.602
 9777TIP3    H229275   5.752   0.777   6.625
 9778TIP3   OH229276   7.849   4.868   0.432
 9778TIP3    H129277   7.810   4.936   0.487
 9778TIP3    H229278   7.795   4.790   0.448
 9779TIP3   OH229279   4.672   0.439   6.527
 9779TIP3    H129280   4.695   0.462   6.437
 9779TIP3    H229281   4.577   0.451   6.531
 9780TIP3   OH229282   0.101   5.087   0.125
 9780TIP3    H129283   0.134   5.018   0.068
 9780TIP3    H229284   0.061   5.040   0.199
 9781TIP3   OH229285   4.827   0.615   6.697
 9781TIP3    H129286   4.739   0.653   6.690
 9781TIP3    H229287   4.820   0.531   6.651
 9782TIP3   OH229288   5.147   0.650   6.442
 9782TIP3    H129289   5.236   0.646   6.405
 9782TIP3    H229290   5.089   0.641   6.366
 9783TIP3   OH229291   4.984   0.635   6.226
 9783TIP3    H129292   4.899   0.611   6.190
 9783TIP3    H229293   5.028   0.680   6.154
 9784TIP3   OH229294   0.442   6.322   0.216
 9784TIP3    H129295   0.440   6.337   0.121
 9784TIP3    H229296   0.520   6.368   0.246
 9785TIP3   OH229297   7.886   5.445   0.558
 9785TIP3    H129298   7.966   5.483   0.593
 9785TIP3    H229299   7.828   5.438   0.633
 9786TIP3   OH229300   5.503   0.920   6.828
 9786TIP3    H129301   5.574   0.873   6.784
 9786TIP3    H229302   5.502   0.885   6.917
 9787TIP3   OH229303   8.330   4.840   0.147
 9787TIP3    H129304   8.245   4.839   0.190
 9787TIP3    H229305   8.391   4.870   0.214
 9788TIP3   OH229306   5.206   1.153   6.208
 9788TIP3    H129307   5.132   1.096   6.188
 9788TIP3    H229308   5.185   1.190   6.294
 9789TIP3   OH229309   6.109   1.403   6.818
 9789TIP3    H129310   6.143   1.453   6.743
 9789TIP3    H229311   6.027   1.366   6.787
 9790TIP3   OH229312   5.552   0.534   6.174
 9790TIP3    H129313   5.488   0.519   6.105
 9790TIP3    H229314   5.503   0.576   6.244
 9791TIP3   OH229315   8.470   5.493   0.288
 9791TIP3    H129316   8.517   5.478   0.370
 9791TIP3    H229317   8.429   5.579   0.298
 9792TIP3   OH229318   5.763   0.778   6.272
 9792TIP3    H129319   5.856   0.801   6.269
 9792TIP3    H229320   5.725   0.827   6.199
 9793TIP3   OH229321   4.915   1.171   6.864
 9793TIP3    H129322   4.954   1.147   6.779
 9793TIP3    H229323   4.972   1.130   6.929
 9794TIP3   OH229324   5.371   1.307   6.058
 9794TIP3    H129325   5.326   1.392   6.054
 9794TIP3    H229326   5.312   1.251   6.108
 9795TIP3   OH229327   7.664   5.067   0.510
 9795TIP3    H129328   7.636   5.112   0.590
 9795TIP3    H229329   7.583   5.030   0.474
 9796TIP3   OH229330   8.375   5.243   0.581
 9796TIP3    H129331   8.306   5.186   0.547
 9796TIP3    H229332   8.456   5.205   0.546
 9797TIP3   OH229333   0.106   5.786   0.174
 9797TIP3    H129334   0.012   5.768   0.178
 9797TIP3    H229335   0.127   5.819   0.261
 9798TIP3   OH229336   6.154   0.843   6.009
 9798TIP3    H129337   6.089   0.794   5.958
 9798TIP3    H229338   6.155   0.930   5.969
 9799TIP3   OH229339   0.750   5.715   0.138
 9799TIP3    H129340   0.659   5.685   0.147
 9799TIP3    H229341   0.779   5.679   0.055
 9800TIP3   OH229342   5.902   1.629   5.945
 9800TIP3    H129343   5.871   1.560   6.004
 9800TIP3    H229344   5.918   1.584   5.862
 9801TIP3   OH229345   5.872   1.278   6.728
 9801TIP3    H129346   5.782   1.255   6.750
 9801TIP3    H229347   5.913   1.195   6.703
 9802TIP3   OH229348   5.031   1.501   6.535
 9802TIP3    H129349   5.032   1.576   6.476
 9802TIP3    H229350   4.939   1.486   6.554
 9803TIP3   OH229351   4.589   0.781   6.253
 9803TIP3    H129352   4.630   0.866   6.270
 9803TIP3    H229353   4.507   0.784   6.301
 9804TIP3   OH229354   5.123   1.257   6.442
 9804TIP3    H129355   5.104   1.346   6.473
 9804TIP3    H229356   5.096   1.201   6.514
 9805TIP3   OH229357   8.155   5.830   0.039
 9805TIP3    H129358   8.191   5.904  -0.010
 9805TIP3    H229359   8.229   5.796   0.089
 9806TIP3   OH229360   4.956   1.721   6.378
 9806TIP3    H129361   4.868   1.726   6.416
 9806TIP3    H229362   4.990   1.810   6.384
 9807TIP3   OH229363   0.000   5.497   0.014
 9807TIP3    H129364  -0.008   5.493   0.109
 9807TIP3    H229365   0.070   5.436  -0.007
 9808TIP3   OH229366   5.657   1.367   5.818
 9808TIP3    H129367   5.707   1.342   5.896
 9808TIP3    H229368   5.573   1.322   5.827
 9809TIP3   OH229369   0.262   5.989   0.058
 9809TIP3    H129370   0.193   5.927   0.080
 9809TIP3    H229371   0.225   6.042  -0.013
 9810TIP3   OH229372   5.969   1.831   5.627
 9810TIP3    H129373   5.971   1.884   5.547
 9810TIP3    H229374   5.903   1.874   5.682
 9811TIP3   OH229375   5.826   1.290   6.017
 9811TIP3    H129376   5.809   1.241   6.098
 9811TIP3    H229377   5.921   1.301   6.015
 9812TIP3   OH229378   7.564   5.734   0.213
 9812TIP3    H129379   7.615   5.674   0.269
 9812TIP3    H229380   7.586   5.821   0.245
 9813TIP3   OH229381   5.013   1.340   5.845
 9813TIP3    H129382   5.023   1.249   5.817
 9813TIP3    H229383   4.998   1.334   5.940
 9814TIP3   OH229384   4.956   1.347   6.116
 9814TIP3    H129385   5.024   1.320   6.178
 9814TIP3    H229386   4.955   1.443   6.122
 9815TIP3   OH229387   4.681   1.034   6.326
 9815TIP3    H129388   4.616   1.084   6.375
 9815TIP3    H229389   4.705   1.092   6.253
 9816TIP3   OH229390   5.229   1.538   6.050
 9816TIP3    H129391   5.143   1.559   6.086
 9816TIP3    H229392   5.250   1.611   5.992
 9817TIP3   OH229393   5.417   0.617   6.394
 9817TIP3    H129394   5.463   0.691   6.433
 9817TIP3    H229395   5.418   0.549   6.461
 9818TIP3   OH229396   0.022   4.923   0.334
 9818TIP3    H129397   0.037   4.991   0.400
 9818TIP3    H229398   0.076   4.849   0.364
 9819TIP3   OH229399   4.978   1.619   6.126
 9819TIP3    H129400   4.958   1.692   6.066
 9819TIP3    H229401   4.968   1.657   6.213
 9820TIP3   OH229402   5.973   1.024   6.662
 9820TIP3    H129403   5.894   0.971   6.663
 9820TIP3    H229404   6.040   0.969   6.703
 9821TIP3   OH229405   4.712   1.214   6.112
 9821TIP3    H129406   4.783   1.277   6.121
 9821TIP3    H229407   4.742   1.152   6.046
 9822TIP3   OH229408   4.693   0.522   6.267
 9822TIP3    H129409   4.669   0.614   6.266
 9822TIP3    H229410   4.645   0.484   6.193
 9823TIP3   OH229411   5.948   1.984   6.569
 9823TIP3    H129412   5.904   2.035   6.502
 9823TIP3    H229413   6.042   1.999   6.553
 9824TIP3   OH229414   4.544   1.472   6.509
 9824TIP3    H129415   4.507   1.512   6.587
 9824TIP3    H229416   4.500   1.517   6.436
 9825TIP3   OH229417   7.580   6.014   0.584
 9825TIP3    H129418   7.636   6.003   0.660
 9825TIP3    H229419   7.576   5.927   0.544
 9826TIP3   OH229420   8.072   5.907   0.686
 9826TIP3    H129421   8.162   5.876   0.687
 9826TIP3    H229422   8.035   5.872   0.606
 9827TIP3   OH229423   5.169   1.533   5.728
 9827TIP3    H129424   5.121   1.465   5.775
 9827TIP3    H229425   5.243   1.487   5.688
 9828TIP3   OH229426   0.162   5.879   0.425
 9828TIP3    H129427   0.176   5.806   0.485
 9828TIP3    H229428   0.238   5.936   0.439
 9829TIP3   OH229429   5.610   1.577   5.651
 9829TIP3    H129430   5.642   1.511   5.712
 9829TIP3    H229431   5.667   1.568   5.574
 9830TIP3   OH229432   7.669   5.443   0.731
 9830TIP3    H129433   7.665   5.360   0.778
 9830TIP3    H229434   7.581   5.455   0.695
 9831TIP3   OH229435   4.833   1.029   5.954
 9831TIP3    H129436   4.882   1.003   6.032
 9831TIP3    H229437   4.901   1.047   5.889
 9832TIP3   OH229438   8.333   5.518   0.573
 9832TIP3    H129439   8.276   5.531   0.497
 9832TIP3    H229440   8.360   5.426   0.567
 9833TIP3   OH229441   5.406   1.248   5.792
 9833TIP3    H129442   5.383   1.258   5.885
 9833TIP3    H229443   5.380   1.158   5.771
 9834TIP3   OH229444   0.277   5.562   0.208
 9834TIP3    H129445   0.356   5.588   0.159
 9834TIP3    H229446   0.213   5.630   0.188
 9835TIP3   OH229447   7.907   5.149   0.771
 9835TIP3    H129448   7.951   5.101   0.702
 9835TIP3    H229449   7.941   5.112   0.852
 9836TIP3   OH229450   4.999   0.975   6.174
 9836TIP3    H129451   4.980   0.948   6.264
 9836TIP3    H229452   5.043   0.899   6.135
 9837TIP3   OH229453   8.174   5.084   0.470
 9837TIP3    H129454   8.084   5.116   0.464
 9837TIP3    H229455   8.213   5.106   0.385
 9838TIP3   OH229456   5.114   0.772   6.029
 9838TIP3    H129457   5.091   0.795   5.939
 9838TIP3    H229458   5.181   0.705   6.020
 9839TIP3   OH229459   0.161   5.420   0.563
 9839TIP3    H129460   0.229   5.387   0.505
 9839TIP3    H229461   0.159   5.358   0.636
 9840TIP3   OH229462   5.937   1.076   5.691
 9840TIP3    H129463   5.924   1.033   5.607
 9840TIP3    H229464   5.913   1.167   5.676
 9841TIP3   OH229465   8.235   4.838   0.566
 9841TIP3    H129466   8.207   4.777   0.498
 9841TIP3    H229467   8.215   4.925   0.530
 9842TIP3   OH229468   8.300   5.171   0.247
 9842TIP3    H129469   8.385   5.203   0.216
 9842TIP3    H229470   8.236   5.225   0.200
 9843TIP3   OH229471   0.398   5.088   0.585
 9843TIP3    H129472   0.381   5.055   0.673
 9843TIP3    H229473   0.486   5.125   0.590
 9844TIP3   OH229474   0.386   5.380   0.375
 9844TIP3    H129475   0.337   5.443   0.324
 9844TIP3    H229476   0.476   5.389   0.345
 9845TIP3   OH229477   8.152   4.949   0.808
 9845TIP3    H129478   8.077   4.898   0.841
 9845TIP3    H229479   8.177   4.904   0.727
 9846TIP3   OH229480   8.495   4.893   0.658
 9846TIP3    H129481   8.499   4.858   0.747
 9846TIP3    H229482   8.408   4.869   0.627
 9847TIP3   OH229483   4.978   1.832   5.947
 9847TIP3    H129484   5.065   1.810   5.916
 9847TIP3    H229485   4.936   1.877   5.874
 9848TIP3   OH229486   4.438   1.216   6.120
 9848TIP3    H129487   4.534   1.226   6.119
 9848TIP3    H229488   4.423   1.130   6.082
 9849TIP3   OH229489   4.324   1.784   6.591
 9849TIP3    H129490   4.261   1.730   6.543
 9849TIP3    H229491   4.374   1.720   6.643
 9850TIP3   OH229492   4.490   1.620   6.744
 9850TIP3    H129493   4.486   1.561   6.818
 9850TIP3    H229494   4.535   1.698   6.777
 9851TIP3   OH229495   6.218   2.046   6.563
 9851TIP3    H129496   6.234   2.056   6.657
 9851TIP3    H229497   6.253   2.126   6.524
 9852TIP3   OH229498   6.239   2.059   6.840
 9852TIP3    H129499   6.191   1.976   6.838
 9852TIP3    H229500   6.308   2.046   6.904
 9853TIP3   OH229501   0.622   5.778   0.459
 9853TIP3    H129502   0.550   5.781   0.523
 9853TIP3    H229503   0.665   5.863   0.468
 9854TIP3   OH229504   6.102   1.306   6.020
 9854TIP3    H129505   6.162   1.374   5.989
 9854TIP3    H229506   6.143   1.272   6.099
 9855TIP3   OH229507   6.225   1.185   6.234
 9855TIP3    H129508   6.158   1.164   6.299
 9855TIP3    H229509   6.294   1.229   6.284
 9856TIP3   OH229510   6.287   1.548   6.658
 9856TIP3    H129511   6.341   1.480   6.618
 9856TIP3    H229512   6.291   1.622   6.597
 9857TIP3   OH229513   6.099   1.821   6.848
 9857TIP3    H129514   6.032   1.865   6.900
 9857TIP3    H229515   6.051   1.779   6.777
 9858TIP3   OH229516   6.141   1.079   5.874
 9858TIP3    H129517   6.072   1.072   5.808
 9858TIP3    H229518   6.120   1.159   5.922
 9859TIP3   OH229519   5.966   0.740   5.840
 9859TIP3    H129520   5.936   0.753   5.750
 9859TIP3    H229521   5.889   0.706   5.886
 9860TIP3   OH229522   6.026   1.088   6.397
 9860TIP3    H129523   6.026   0.998   6.366
 9860TIP3    H229524   6.014   1.081   6.492
 9861TIP3   OH229525   7.503   5.103   0.150
 9861TIP3    H129526   7.491   5.060   0.065
 9861TIP3    H229527   7.595   5.088   0.171
 9862TIP3   OH229528   0.640   5.416   0.266
 9862TIP3    H129529   0.708   5.350   0.256
 9862TIP3    H229530   0.632   5.456   0.180
 9863TIP3   OH229531   0.824   5.214   0.265
 9863TIP3    H129532   0.752   5.158   0.296
 9863TIP3    H229533   0.903   5.163   0.282
 9864TIP3   OH229534   6.028   0.843   6.262
 9864TIP3    H129535   6.100   0.831   6.324
 9864TIP3    H229536   6.069   0.839   6.176
 9865TIP3   OH229537   6.170   0.854   6.788
 9865TIP3    H129538   6.244   0.879   6.733
 9865TIP3    H229539   6.182   0.903   6.869
 9866TIP3   OH229540   0.566   5.047   0.043
 9866TIP3    H129541   0.498   5.082   0.101
 9866TIP3    H229542   0.607   5.124   0.005
 9867TIP3   OH229543   7.736   4.755   0.753
 9867TIP3    H129544   7.808   4.791   0.804
 9867TIP3    H229545   7.749   4.661   0.755
 9868TIP3   OH229546   7.462   4.730   0.236
 9868TIP3    H129547   7.511   4.739   0.154
 9868TIP3    H229548   7.530   4.722   0.303
 9869TIP3   OH229549   5.790   1.947   6.205
 9869TIP3    H129550   5.845   1.935   6.128
 9869TIP3    H229551   5.830   2.021   6.251
 9870TIP3   OH229552   7.736   5.758   0.595
 9870TIP3    H129553   7.676   5.693   0.557
 9870TIP3    H229554   7.750   5.726   0.685
 9871TIP3   OH229555   7.927   5.795   0.184
 9871TIP3    H129556   7.875   5.869   0.152
 9871TIP3    H229557   8.010   5.802   0.137
 9872TIP3   OH229558   8.321   6.021   0.332
 9872TIP3    H129559   8.358   6.015   0.420
 9872TIP3    H229560   8.383   6.075   0.283
 9873TIP3   OH229561   0.007   6.180   0.206
 9873TIP3    H129562   0.067   6.126   0.154
 9873TIP3    H229563   0.065   6.235   0.259
 9874TIP3   OH229564   7.586   6.021   0.240
 9874TIP3    H129565   7.499   6.043   0.207
 9874TIP3    H229566   7.608   6.092   0.300
 9875TIP3   OH229567   7.814   6.025   0.086
 9875TIP3    H129568   7.731   6.026   0.134
 9875TIP3    H229569   7.791   6.052  -0.003
 9876TIP3   OH229570   5.396   2.038   6.821
 9876TIP3    H129571   5.323   2.047   6.760
 9876TIP3    H229572   5.406   2.124   6.861
 9877TIP3   OH229573   5.659   1.976   6.876
 9877TIP3    H129574   5.568   1.993   6.853
 9877TIP3    H229575   5.709   2.041   6.826
 9878TIP3   OH229576   5.862   2.145   6.775
 9878TIP3    H129577   5.858   2.232   6.734
 9878TIP3    H229578   5.890   2.087   6.704
 9879TIP3   OH229579   4.662   1.810   6.899
 9879TIP3    H129580   4.691   1.787   6.988
 9879TIP3    H229581   4.732   1.776   6.842
 9880TIP3   OH229582   4.861   1.690   6.759
 9880TIP3    H129583   4.875   1.606   6.803
 9880TIP3    H229584   4.948   1.731   6.758
 9881TIP3   OH229585   5.130   1.778   6.779
 9881TIP3    H129586   5.147   1.685   6.764
 9881TIP3    H229587   5.188   1.801   6.852
 9882TIP3   OH229588   4.425   1.599   6.301
 9882TIP3    H129589   4.340   1.566   6.269
 9882TIP3    H229590   4.435   1.684   6.259
 9883TIP3   OH229591   5.230   1.756   5.872
 9883TIP3    H129592   5.314   1.784   5.834
 9883TIP3    H229593   5.200   1.685   5.815
 9884TIP3   OH229594   5.939   1.898   5.975
 9884TIP3    H129595   5.930   1.802   5.969
 9884TIP3    H229596   5.892   1.931   5.898
 9885TIP3   OH229597   4.533   1.601   5.924
 9885TIP3    H129598   4.534   1.623   6.017
 9885TIP3    H229599   4.615   1.554   5.910
 9886TIP3   OH229600   0.480   6.049   0.221
 9886TIP3    H129601   0.407   6.016   0.169
 9886TIP3    H229602   0.464   6.143   0.229
 9887TIP3   OH229603   7.405   1.425   5.941
 9887TIP3    H129604   7.382   1.515   5.918
 9887TIP3    H229605   7.353   1.371   5.882
 9888TIP3   OH229606   7.425   1.446   6.292
 9888TIP3    H129607   7.436   1.442   6.387
 9888TIP3    H229608   7.376   1.366   6.271
 9889TIP3   OH229609   6.720   1.264   6.660
 9889TIP3    H129610   6.743   1.214   6.738
 9889TIP3    H229611   6.803   1.296   6.626
 9890TIP3   OH229612   7.684   1.757   6.035
 9890TIP3    H129613   7.664   1.682   6.091
 9890TIP3    H229614   7.774   1.743   6.007
 9891TIP3   OH229615   6.770   1.694   6.396
 9891TIP3    H129616   6.724   1.610   6.400
 9891TIP3    H229617   6.836   1.682   6.327
 9892TIP3   OH229618   6.369   0.970   6.138
 9892TIP3    H129619   6.329   1.051   6.171
 9892TIP3    H229620   6.295   0.914   6.115
 9893TIP3   OH229621   6.456   1.284   6.345
 9893TIP3    H129622   6.518   1.213   6.357
 9893TIP3    H229623   6.511   1.360   6.324
 9894TIP3   OH229624   7.349   2.146   6.016
 9894TIP3    H129625   7.379   2.094   5.941
 9894TIP3    H229626   7.323   2.080   6.081
 9895TIP3   OH229627   7.226   1.655   6.356
 9895TIP3    H129628   7.239   1.593   6.285
 9895TIP3    H229629   7.314   1.685   6.379
 9896TIP3   OH229630   7.590   1.173   6.394
 9896TIP3    H129631   7.586   1.079   6.407
 9896TIP3    H229632   7.563   1.187   6.303
 9897TIP3   OH229633   7.043   0.704   6.288
 9897TIP3    H129634   7.004   0.752   6.361
 9897TIP3    H229635   6.969   0.682   6.231
 9898TIP3   OH229636   7.575   0.853   6.037
 9898TIP3    H129637   7.670   0.846   6.029
 9898TIP3    H229638   7.544   0.867   5.947
 9899TIP3   OH229639   6.649   1.107   6.410
 9899TIP3    H129640   6.678   1.110   6.501
 9899TIP3    H229641   6.717   1.056   6.365
 9900TIP3   OH229642   7.043   1.261   6.264
 9900TIP3    H129643   7.137   1.245   6.270
 9900TIP3    H229644   7.008   1.182   6.224
 9901TIP3   OH229645   7.319   1.641   5.785
 9901TIP3    H129646   7.286   1.608   5.702
 9901TIP3    H229647   7.263   1.717   5.804
 9902TIP3   OH229648   7.084   1.559   6.569
 9902TIP3    H129649   7.019   1.624   6.597
 9902TIP3    H229650   7.126   1.600   6.493
 9903TIP3   OH229651   6.761   0.951   6.611
 9903TIP3    H129652   6.834   0.946   6.672
 9903TIP3    H229653   6.795   0.915   6.529
 9904TIP3   OH229654   6.895   1.752   6.637
 9904TIP3    H129655   6.849   1.744   6.553
 9904TIP3    H229656   6.825   1.758   6.702
 9905TIP3   OH229657   6.284   1.483   5.904
 9905TIP3    H129658   6.251   1.496   5.815
 9905TIP3    H229659   6.306   1.571   5.934
 9906TIP3   OH229660   7.662   2.004   6.178
 9906TIP3    H129661   7.663   1.926   6.123
 9906TIP3    H229662   7.683   2.076   6.118
 9907TIP3   OH229663   7.431   2.012   5.789
 9907TIP3    H129664   7.482   1.931   5.782
 9907TIP3    H229665   7.491   2.081   5.760
 9908TIP3   OH229666   7.562   1.776   5.777
 9908TIP3    H129667   7.491   1.712   5.771
 9908TIP3    H229668   7.604   1.757   5.861
 9909TIP3   OH229669   7.933   1.851   6.499
 9909TIP3    H129670   7.941   1.777   6.438
 9909TIP3    H229671   7.947   1.928   6.444
 9910TIP3   OH229672   7.270   1.295   5.738
 9910TIP3    H129673   7.182   1.327   5.720
 9910TIP3    H229674   7.313   1.293   5.652
 9911TIP3   OH229675   7.197   1.070   5.464
 9911TIP3    H129676   7.268   1.130   5.442
 9911TIP3    H229677   7.241   0.988   5.488
 9912TIP3   OH229678   8.166   1.551   6.337
 9912TIP3    H129679   8.075   1.580   6.327
 9912TIP3    H229680   8.199   1.545   6.248
 9913TIP3   OH229681   7.610   1.323   5.781
 9913TIP3    H129682   7.551   1.376   5.835
 9913TIP3    H229683   7.697   1.358   5.800
 9914TIP3   OH229684   7.904   1.382   6.469
 9914TIP3    H129685   7.984   1.429   6.494
 9914TIP3    H229686   7.859   1.442   6.410
 9915TIP3   OH229687   6.821   1.361   6.119
 9915TIP3    H129688   6.785   1.296   6.058
 9915TIP3    H229689   6.900   1.319   6.154
 9916TIP3   OH229690   6.953   1.320   6.516
 9916TIP3    H129691   6.983   1.299   6.428
 9916TIP3    H229692   6.998   1.402   6.538
 9917TIP3   OH229693   7.402   1.972   6.309
 9917TIP3    H129694   7.487   1.996   6.271
 9917TIP3    H229695   7.414   1.882   6.340
 9918TIP3   OH229696   7.102   1.874   6.777
 9918TIP3    H129697   7.045   1.928   6.832
 9918TIP3    H229698   7.041   1.823   6.724
 9919TIP3   OH229699   6.853   1.458   6.907
 9919TIP3    H129700   6.847   1.543   6.950
 9919TIP3    H229701   6.766   1.420   6.918
 9920TIP3   OH229702   7.186   1.884   5.812
 9920TIP3    H129703   7.265   1.937   5.806
 9920TIP3    H229704   7.125   1.925   5.751
 9921TIP3   OH229705   6.891   2.016   6.904
 9921TIP3    H129706   6.843   2.032   6.823
 9921TIP3    H229707   6.822   1.995   6.968
 9922TIP3   OH229708   6.697   1.192   5.930
 9922TIP3    H129709   6.622   1.239   5.892
 9922TIP3    H229710   6.663   1.105   5.950
 9923TIP3   OH229711   7.771   1.820   5.168
 9923TIP3    H129712   7.764   1.911   5.139
 9923TIP3    H229713   7.860   1.794   5.146
 9924TIP3   OH229714   6.494   1.591   6.845
 9924TIP3    H129715   6.421   1.568   6.786
 9924TIP3    H229716   6.527   1.506   6.875
 9925TIP3   OH229717   6.332   1.793   6.517
 9925TIP3    H129718   6.415   1.825   6.552
 9925TIP3    H229719   6.271   1.865   6.531
 9926TIP3   OH229720   8.185   2.266   6.521
 9926TIP3    H129721   8.213   2.175   6.511
 9926TIP3    H229722   8.107   2.261   6.576
 9927TIP3   OH229723   7.236   2.061   6.578
 9927TIP3    H129724   7.239   2.132   6.643
 9927TIP3    H229725   7.192   1.989   6.624
 9928TIP3   OH229726   7.080   2.107   5.627
 9928TIP3    H129727   7.037   2.085   5.545
 9928TIP3    H229728   7.041   2.191   5.652
 9929TIP3   OH229729   6.512   1.965   6.012
 9929TIP3    H129730   6.547   1.946   6.099
 9929TIP3    H229731   6.458   1.888   5.991
 9930TIP3   OH229732   7.288   2.021   5.254
 9930TIP3    H129733   7.337   1.944   5.225
 9930TIP3    H229734   7.323   2.040   5.341
 9931TIP3   OH229735   7.333   2.082   5.522
 9931TIP3    H129736   7.246   2.086   5.564
 9931TIP3    H229737   7.389   2.043   5.589
 9932TIP3   OH229738   6.683   1.787   6.814
 9932TIP3    H129739   6.734   1.775   6.895
 9932TIP3    H229740   6.615   1.720   6.818
 9933TIP3   OH229741   7.030   1.108   6.683
 9933TIP3    H129742   6.964   1.115   6.752
 9933TIP3    H229743   7.004   1.172   6.617
 9934TIP3   OH229744   6.907   1.069   6.132
 9934TIP3    H129745   6.814   1.047   6.127
 9934TIP3    H229746   6.944   1.038   6.050
 9935TIP3   OH229747   7.409   1.093   5.869
 9935TIP3    H129748   7.346   1.159   5.842
 9935TIP3    H229749   7.465   1.079   5.793
 9936TIP3   OH229750   7.516   1.211   6.098
 9936TIP3    H129751   7.483   1.297   6.072
 9936TIP3    H229752   7.477   1.150   6.035
 9937TIP3   OH229753   6.828   1.107   6.870
 9937TIP3    H129754   6.844   1.138   6.959
 9937TIP3    H229755   6.818   1.012   6.879
 9938TIP3   OH229756   6.501   0.802   5.959
 9938TIP3    H129757   6.480   0.733   6.022
 9938TIP3    H229758   6.449   0.878   5.988
 9939TIP3   OH229759   7.487   1.379   6.553
 9939TIP3    H129760   7.509   1.300   6.503
 9939TIP3    H229761   7.558   1.387   6.617
 9940TIP3   OH229762   6.654   0.953   6.133
 9940TIP3    H129763   6.564   0.976   6.158
 9940TIP3    H229764   6.643   0.887   6.064
 9941TIP3   OH229765   6.978   0.965   5.897
 9941TIP3    H129766   7.063   0.925   5.879
 9941TIP3    H229767   6.928   0.953   5.816
 9942TIP3   OH229768   6.800   0.927   5.689
 9942TIP3    H129769   6.717   0.913   5.645
 9942TIP3    H229770   6.857   0.967   5.623
 9943TIP3   OH229771   7.917   2.563   6.604
 9943TIP3    H129772   7.911   2.584   6.511
 9943TIP3    H229773   7.989   2.617   6.636
 9944TIP3   OH229774   1.164   5.711   0.101
 9944TIP3    H129775   1.244   5.727   0.150
 9944TIP3    H229776   1.096   5.701   0.168
 9945TIP3   OH229777   7.306   1.195   6.306
 9945TIP3    H129778   7.359   1.127   6.264
 9945TIP3    H229779   7.308   1.172   6.399
 9946TIP3   OH229780   7.292   1.114   6.564
 9946TIP3    H129781   7.223   1.115   6.630
 9946TIP3    H229782   7.373   1.108   6.615
 9947TIP3   OH229783   7.013   1.417   5.704
 9947TIP3    H129784   6.939   1.360   5.682
 9947TIP3    H229785   6.988   1.458   5.786
 9948TIP3   OH229786   7.911   1.652   6.301
 9948TIP3    H129787   7.949   1.703   6.230
 9948TIP3    H229788   7.825   1.626   6.268
 9949TIP3   OH229789   7.372   0.857   5.501
 9949TIP3    H129790   7.396   0.770   5.468
 9949TIP3    H229791   7.456   0.898   5.523
 9950TIP3   OH229792   7.428   1.790   6.685
 9950TIP3    H129793   7.489   1.749   6.747
 9950TIP3    H229794   7.343   1.786   6.730
 9951TIP3   OH229795   7.548   1.103   5.638
 9951TIP3    H129796   7.585   1.181   5.678
 9951TIP3    H229797   7.524   1.131   5.549
 9952TIP3   OH229798   6.702   1.430   6.359
 9952TIP3    H129799   6.739   1.408   6.273
 9952TIP3    H229800   6.743   1.368   6.420
 9953TIP3   OH229801   7.176   1.570   5.547
 9953TIP3    H129802   7.130   1.654   5.545
 9953TIP3    H229803   7.118   1.512   5.596
 9954TIP3   OH229804   0.926   5.376   0.038
 9954TIP3    H129805   0.952   5.366   0.130
 9954TIP3    H229806   0.856   5.312   0.026
 9955TIP3   OH229807   1.664   5.531   0.045
 9955TIP3    H129808   1.652   5.498  -0.044
 9955TIP3    H229809   1.650   5.455   0.101
 9956TIP3   OH229810   7.558   2.016   6.573
 9956TIP3    H129811   7.496   1.944   6.586
 9956TIP3    H229812   7.560   2.062   6.657
 9957TIP3   OH229813   7.926   1.098   5.469
 9957TIP3    H129814   7.852   1.074   5.413
 9957TIP3    H229815   7.947   1.188   5.445
 9958TIP3   OH229816   7.696   1.883   5.428
 9958TIP3    H129817   7.693   1.807   5.486
 9958TIP3    H229818   7.717   1.848   5.342
 9959TIP3   OH229819   7.672   1.542   6.214
 9959TIP3    H129820   7.581   1.517   6.234
 9959TIP3    H229821   7.711   1.461   6.179
 9960TIP3   OH229822   6.787   1.778   6.027
 9960TIP3    H129823   6.797   1.851   5.966
 9960TIP3    H229824   6.726   1.718   5.983
 9961TIP3   OH229825   6.392   1.052   5.773
 9961TIP3    H129826   6.434   1.138   5.771
 9961TIP3    H229827   6.307   1.068   5.814
 9962TIP3   OH229828   6.913   1.539   5.927
 9962TIP3    H129829   6.916   1.624   5.970
 9962TIP3    H229830   6.880   1.479   5.994
 9963TIP3   OH229831   6.745   2.001   5.867
 9963TIP3    H129832   6.658   2.004   5.907
 9963TIP3    H229833   6.781   2.089   5.883
 9964TIP3   OH229834   7.482   1.732   6.421
 9964TIP3    H129835   7.476   1.737   6.516
 9964TIP3    H229836   7.564   1.684   6.405
 9965TIP3   OH229837   7.455   1.547   5.318
 9965TIP3    H129838   7.471   1.454   5.330
 9965TIP3    H229839   7.377   1.565   5.370
 9966TIP3   OH229840   7.706   2.242   6.491
 9966TIP3    H129841   7.643   2.170   6.493
 9966TIP3    H229842   7.689   2.287   6.407
 9967TIP3   OH229843   7.765   2.092   5.113
 9967TIP3    H129844   7.769   2.145   5.033
 9967TIP3    H229845   7.698   2.134   5.166
 9968TIP3   OH229846   6.540   1.962   6.631
 9968TIP3    H129847   6.589   1.906   6.692
 9968TIP3    H229848   6.548   2.050   6.666
 9969TIP3   OH229849   6.803   1.597   5.335
 9969TIP3    H129850   6.818   1.508   5.305
 9969TIP3    H229851   6.790   1.589   5.429
 9970TIP3   OH229852   6.753   1.609   5.607
 9970TIP3    H129853   6.823   1.580   5.666
 9970TIP3    H229854   6.756   1.705   5.612
 9971TIP3   OH229855   6.483   1.314   5.810
 9971TIP3    H129856   6.416   1.363   5.860
 9971TIP3    H229857   6.501   1.369   5.735
 9972TIP3   OH229858   7.030   1.800   5.549
 9972TIP3    H129859   6.943   1.822   5.581
 9972TIP3    H229860   7.048   1.865   5.481
 9973TIP3   OH229861   7.240   0.882   5.903
 9973TIP3    H129862   7.300   0.955   5.888
 9973TIP3    H229863   7.231   0.877   5.998
 9974TIP3   OH229864   7.512   1.110   6.735
 9974TIP3    H129865   7.440   1.126   6.796
 9974TIP3    H229866   7.555   1.031   6.768
 9975TIP3   OH229867   6.777   1.883   5.621
 9975TIP3    H129868   6.758   1.950   5.556
 9975TIP3    H229869   6.764   1.926   5.705
 9976TIP3   OH229870   7.773   1.297   6.134
 9976TIP3    H129871   7.689   1.252   6.136
 9976TIP3    H229872   7.829   1.246   6.192
 9977TIP3   OH229873   6.506   1.485   5.590
 9977TIP3    H129874   6.581   1.543   5.599
 9977TIP3    H229875   6.535   1.419   5.526
 9978TIP3   OH229876   6.262   0.851   5.639
 9978TIP3    H129877   6.309   0.920   5.685
 9978TIP3    H229878   6.263   0.776   5.698
 9979TIP3   OH229879   7.743   2.231   6.041
 9979TIP3    H129880   7.698   2.288   5.977
 9979TIP3    H229881   7.836   2.247   6.026
 9980TIP3   OH229882   6.333   1.752   5.977
 9980TIP3    H129883   6.286   1.784   6.053
 9980TIP3    H229884   6.287   1.791   5.902
 9981TIP3   OH229885   0.862   6.279   0.111
 9981TIP3    H129886   0.944   6.280   0.160
 9981TIP3    H229887   0.836   6.186   0.109
 9982TIP3   OH229888   1.323   6.197   0.155
 9982TIP3    H129889   1.416   6.177   0.154
 9982TIP3    H229890   1.286   6.143   0.086
 9983TIP3   OH229891   6.965   1.787   5.222
 9983TIP3    H129892   6.915   1.718   5.266
 9983TIP3    H229893   7.039   1.742   5.182
 9984TIP3   OH229894   7.576   2.134   6.816
 9984TIP3    H129895   7.579   2.073   6.890
 9984TIP3    H229896   7.656   2.187   6.826
 9985TIP3   OH229897   7.418   1.796   5.155
 9985TIP3    H129898   7.449   1.721   5.206
 9985TIP3    H229899   7.473   1.797   5.077
 9986TIP3   OH229900   0.973   5.674   0.296
 9986TIP3    H129901   0.991   5.581   0.305
 9986TIP3    H229902   0.886   5.678   0.256
 9987TIP3   OH229903   6.626   1.291   5.441
 9987TIP3    H129904   6.676   1.268   5.520
 9987TIP3    H229905   6.693   1.306   5.374
 9988TIP3   OH229906   1.579   5.793   0.060
 9988TIP3    H129907   1.531   5.808  -0.021
 9988TIP3    H229908   1.611   5.703   0.052
 9989TIP3   OH229909   7.140   1.520   5.274
 9989TIP3    H129910   7.149   1.525   5.369
 9989TIP3    H229911   7.146   1.427   5.253
 9990TIP3   OH229912   7.730   1.798   6.676
 9990TIP3    H129913   7.814   1.801   6.630
 9990TIP3    H229914   7.679   1.868   6.638
 9991TIP3   OH229915   1.086   5.411   0.280
 9991TIP3    H129916   1.154   5.349   0.254
 9991TIP3    H229917   1.104   5.428   0.373
 9992TIP3   OH229918   6.798   1.246   5.662
 9992TIP3    H129919   6.779   1.209   5.748
 9992TIP3    H229920   6.845   1.177   5.616
 9993TIP3   OH229921   7.091   1.324   6.907
 9993TIP3    H129922   7.010   1.373   6.898
 9993TIP3    H229923   7.148   1.360   6.838
 9994TIP3   OH229924   6.929   1.067   5.501
 9994TIP3    H129925   6.896   1.066   5.411
 9994TIP3    H229926   7.024   1.070   5.491
 9995TIP3   OH229927   7.783   1.348   5.144
 9995TIP3    H129928   7.740   1.294   5.078
 9995TIP3    H229929   7.736   1.431   5.141
 9996TIP3   OH229930   7.254   1.091   6.858
 9996TIP3    H129931   7.220   1.164   6.911
 9996TIP3    H229932   7.177   1.053   6.816
 9997TIP3   OH229933   7.273   1.438   6.726
 9997TIP3    H129934   7.342   1.408   6.667
 9997TIP3    H229935   7.208   1.480   6.670
 9998TIP3   OH229936   1.297   5.194   0.168
 9998TIP3    H129937   1.342   5.110   0.167
 9998TIP3    H229938   1.347   5.248   0.107
 9999TIP3   OH229939   6.780   2.091   5.437
 9999TIP3    H129940   6.866   2.067   5.404
 9999TIP3    H229941   6.736   2.132   5.362
10000TIP3   OH229942   6.234   1.476   5.623
10000TIP3    H129943   6.328   1.491   5.612
10000TIP3    H229944   6.218   1.394   5.577
10001TIP3   OH229945   6.140   2.055   6.073
10001TIP3    H129946   6.076   2.000   6.027
10001TIP3    H229947   6.184   1.995   6.133
10002TIP3   OH229948   6.286   1.888   6.239
10002TIP3    H129949   6.276   1.820   6.306
10002TIP3    H229950   6.342   1.954   6.280
10003TIP3   OH229951   8.002   2.308   6.021
10003TIP3    H129952   8.037   2.333   6.107
10003TIP3    H229953   8.071   2.333   5.959
10004TIP3   OH229954   8.012   2.333   6.308
10004TIP3    H129955   7.973   2.246   6.302
10004TIP3    H229956   8.086   2.322   6.367
10005TIP3   OH229957   7.919   1.579   5.487
10005TIP3    H129958   7.987   1.637   5.455
10005TIP3    H229959   7.944   1.560   5.578
10006TIP3   OH229960   8.020   1.526   5.736
10006TIP3    H129961   7.959   1.471   5.784
10006TIP3    H229962   8.106   1.502   5.769
10007TIP3   OH229963   8.061   1.787   6.114
10007TIP3    H129964   8.122   1.720   6.084
10007TIP3    H229965   8.082   1.865   6.062
10008TIP3   OH229966   7.886   2.084   6.339
10008TIP3    H129967   7.828   2.120   6.406
10008TIP3    H229968   7.827   2.044   6.275
10009TIP3   OH229969   7.955   1.343   5.353
10009TIP3    H129970   7.891   1.338   5.283
10009TIP3    H229971   7.932   1.422   5.402
10010TIP3   OH229972   7.718   1.061   5.291
10010TIP3    H129973   7.655   1.133   5.297
10010TIP3    H229974   7.708   1.027   5.202
10011TIP3   OH229975   7.864   1.359   5.881
10011TIP3    H129976   7.893   1.277   5.841
10011TIP3    H229977   7.843   1.335   5.971
10012TIP3   OH229978   6.458   1.332   6.618
10012TIP3    H129979   6.445   1.308   6.526
10012TIP3    H229980   6.550   1.315   6.635
10013TIP3   OH229981   7.945   1.130   5.744
10013TIP3    H129982   7.882   1.074   5.790
10013TIP3    H229983   7.935   1.108   5.652
10014TIP3   OH229984   7.956   1.172   6.289
10014TIP3    H129985   8.050   1.154   6.284
10014TIP3    H229986   7.946   1.227   6.367
10015TIP3   OH229987   0.981   4.985   0.311
10015TIP3    H129988   1.073   4.960   0.323
10015TIP3    H229989   0.938   4.959   0.393
10016TIP3   OH229990   6.415   0.965   6.711
10016TIP3    H129991   6.481   0.981   6.644
10016TIP3    H229992   6.453   1.002   6.791
10017TIP3   OH229993   7.583   2.209   5.690
10017TIP3    H129994   7.635   2.193   5.612
10017TIP3    H229995   7.627   2.282   5.734
10018TIP3   OH229996   1.006   6.004   0.131
10018TIP3    H129997   0.915   5.989   0.107
10018TIP3    H229998   1.009   5.988   0.225
10019TIP3   OH229999   7.275   2.278   6.744
10019TIP3    H130000   7.309   2.269   6.833
10019TIP3    H230001   7.342   2.328   6.698
10020TIP3   OH230002   7.470   2.420   6.610
10020TIP3    H130003   7.521   2.365   6.551
10020TIP3    H230004   7.535   2.470   6.658
10021TIP3   OH230005   6.549   2.263   6.668
10021TIP3    H130006   6.459   2.281   6.640
10021TIP3    H230007   6.570   2.333   6.729
10022TIP3   OH230008   6.790   2.285   6.522
10022TIP3    H130009   6.708   2.267   6.568
10022TIP3    H230010   6.764   2.296   6.431
10023TIP3   OH230011   7.161   2.237   6.328
10023TIP3    H130012   7.094   2.242   6.260
10023TIP3    H230013   7.161   2.323   6.369
10024TIP3   OH230014   7.433   2.257   6.348
10024TIP3    H130015   7.364   2.308   6.305
10024TIP3    H230016   7.514   2.288   6.308
10025TIP3   OH230017   7.659   2.380   6.254
10025TIP3    H130018   7.659   2.469   6.220
10025TIP3    H230019   7.692   2.327   6.181
10026TIP3   OH230020   6.476   2.056   6.369
10026TIP3    H130021   6.487   2.032   6.461
10026TIP3    H230022   6.547   2.010   6.324
10027TIP3   OH230023   6.659   1.897   6.242
10027TIP3    H130024   6.680   1.839   6.316
10027TIP3    H230025   6.715   1.866   6.171
10028TIP3   OH230026   6.216   1.865   5.756
10028TIP3    H130027   6.132   1.835   5.721
10028TIP3    H230028   6.222   1.957   5.729
10029TIP3   OH230029   7.031   2.010   5.360
10029TIP3    H130030   7.116   2.033   5.321
10029TIP3    H230031   6.998   1.940   5.304
10030TIP3   OH230032   7.725   2.153   5.461
10030TIP3    H130033   7.718   2.058   5.453
10030TIP3    H230034   7.682   2.186   5.382
10031TIP3   OH230035   6.337   1.857   5.421
10031TIP3    H130036   6.335   1.858   5.517
10031TIP3    H230037   6.416   1.809   5.399
10032TIP3   OH230038   7.932   2.294   6.637
10032TIP3    H130039   7.858   2.265   6.584
10032TIP3    H230040   7.938   2.388   6.621
10033TIP3   OH230041  -0.028   1.961   5.909
10033TIP3    H130042  -0.008   1.887   5.851
10033TIP3    H230043   0.046   1.964   5.970
10034TIP3   OH230044   8.203   1.225   5.742
10034TIP3    H130045   8.114   1.191   5.751
10034TIP3    H230046   8.228   1.204   5.652
10035TIP3   OH230047   8.282   1.467   5.830
10035TIP3    H130048   8.261   1.375   5.814
10035TIP3    H230049   8.331   1.494   5.752
10036TIP3   OH230050   8.116   1.743   5.381
10036TIP3    H130051   8.069   1.761   5.299
10036TIP3    H230052   8.130   1.829   5.420
10037TIP3   OH230053   8.250   1.831   6.330
10037TIP3    H130054   8.185   1.828   6.261
10037TIP3    H230055   8.251   1.742   6.365
10038TIP3   OH230056   8.171   2.008   5.979
10038TIP3    H130057   8.262   1.993   5.954
10038TIP3    H230058   8.173   2.091   6.028
10039TIP3   OH230059   8.306   2.234   5.516
10039TIP3    H130060   8.372   2.216   5.583
10039TIP3    H230061   8.271   2.148   5.492
10040TIP3   OH230062   8.256   1.146   5.488
10040TIP3    H130063   8.256   1.168   5.395
10040TIP3    H230064   8.232   1.053   5.490
10041TIP3   OH230065   8.201   1.304   5.242
10041TIP3    H130066   8.248   1.387   5.243
10041TIP3    H230067   8.120   1.322   5.289
10042TIP3   OH230068   8.297   2.246   6.110
10042TIP3    H130069   8.367   2.196   6.152
10042TIP3    H230070   8.308   2.335   6.143
10043TIP3   OH230071   8.299   1.567   5.262
10043TIP3    H130072   8.244   1.610   5.327
10043TIP3    H230073   8.308   1.631   5.191
10044TIP3   OH230074   8.302   1.787   5.088
10044TIP3    H130075   8.336   1.862   5.136
10044TIP3    H230076   8.348   1.789   5.004
10045TIP3   OH230077   8.072   1.113   5.091
10045TIP3    H130078   8.110   1.182   5.144
10045TIP3    H230079   8.068   1.037   5.149
10046TIP3   OH230080   8.138   2.006   5.472
10046TIP3    H130081   8.096   2.040   5.551
10046TIP3    H230082   8.089   2.045   5.400
10047TIP3   OH230083   8.318   2.516   6.556
10047TIP3    H130084   8.372   2.493   6.632
10047TIP3    H230085   8.276   2.434   6.531
10048TIP3   OH230086   8.029   1.739   5.105
10048TIP3    H130087   8.124   1.753   5.098
10048TIP3    H230088   8.014   1.653   5.067
10049TIP3   OH230089   7.934   2.305   5.552
10049TIP3    H130090   7.868   2.252   5.507
10049TIP3    H230091   7.977   2.244   5.611
10050TIP3   OH230092   8.065   2.128   5.720
10050TIP3    H130093   8.056   2.063   5.790
10050TIP3    H230094   8.123   2.194   5.757
10051TIP3   OH230095   8.255   1.593   6.072
10051TIP3    H130096   8.253   1.544   5.990
10051TIP3    H230097   8.347   1.610   6.088
10052TIP3   OH230098   8.318   2.515   6.177
10052TIP3    H130099   8.237   2.549   6.139
10052TIP3    H230100   8.345   2.581   6.241
10053TIP3   OH230101   0.038   2.463   6.013
10053TIP3    H130102  -0.031   2.484   6.076
10053TIP3    H230103   0.019   2.520   5.938
10054TIP3   OH230104   8.238   2.307   5.848
10054TIP3    H130105   8.265   2.292   5.939
10054TIP3    H230106   8.314   2.281   5.796
10055TIP3   OH230107   8.464   2.188   5.747
10055TIP3    H130108   8.462   2.104   5.793
10055TIP3    H230109   8.546   2.228   5.772
10056TIP3   OH230110   8.008   2.109   5.253
10056TIP3    H130111   7.924   2.082   5.217
10056TIP3    H230112   8.018   2.200   5.225
10057TIP3   OH230113   8.082   2.122   4.938
10057TIP3    H130114   8.057   2.179   5.010
10057TIP3    H230115   8.122   2.046   4.981
10058TIP3   OH230116   4.519   6.485   0.152
10058TIP3    H130117   4.489   6.563   0.106
10058TIP3    H230118   4.439   6.450   0.193
10059TIP3   OH230119   4.540   6.470   0.485
10059TIP3    H130120   4.608   6.413   0.521
10059TIP3    H230121   4.469   6.410   0.460
10060TIP3   OH230122   4.772   6.774   0.158
10060TIP3    H130123   4.785   6.702   0.220
10060TIP3    H230124   4.818   6.848   0.199
10061TIP3   OH230125   3.728   6.729   0.668
10061TIP3    H130126   3.694   6.650   0.710
10061TIP3    H230127   3.823   6.721   0.674
10062TIP3   OH230128   3.496   6.324   0.603
10062TIP3    H130129   3.556   6.284   0.666
10062TIP3    H230130   3.490   6.260   0.532
10063TIP3   OH230131   4.417   7.227   0.165
10063TIP3    H130132   4.468   7.169   0.108
10063TIP3    H230133   4.375   7.169   0.228
10064TIP3   OH230134   4.396   6.714   0.452
10064TIP3    H130135   4.451   6.636   0.446
10064TIP3    H230136   4.426   6.759   0.531
10065TIP3   OH230137   5.366   5.993   0.465
10065TIP3    H130138   5.281   6.036   0.472
10065TIP3    H230139   5.408   6.035   0.390
10066TIP3   OH230140   4.709   6.241   0.549
10066TIP3    H130141   4.719   6.165   0.607
10066TIP3    H230142   4.671   6.205   0.469
10067TIP3   OH230143   4.081   5.812   0.587
10067TIP3    H130144   4.116   5.893   0.623
10067TIP3    H230145   4.002   5.837   0.541
10068TIP3   OH230146   4.757   5.992   0.153
10068TIP3    H130147   4.828   5.990   0.217
10068TIP3    H230148   4.800   6.008   0.069
10069TIP3   OH230149   4.092   6.280   0.460
10069TIP3    H130150   4.183   6.305   0.442
10069TIP3    H230151   4.098   6.220   0.535
10070TIP3   OH230152   5.372   6.189   0.849
10070TIP3    H130153   5.313   6.237   0.790
10070TIP3    H230154   5.452   6.241   0.849
10071TIP3   OH230155   1.557   2.679   6.947
10071TIP3    H130156   1.513   2.646   6.869
10071TIP3    H230157   1.507   2.757   6.972
10072TIP3   OH230158   4.976   6.003   0.311
10072TIP3    H130159   4.972   5.948   0.390
10072TIP3    H230160   5.038   6.072   0.333
10073TIP3   OH230161   3.385   6.570   0.067
10073TIP3    H130162   3.328   6.581  -0.008
10073TIP3    H230163   3.400   6.658   0.100
10074TIP3   OH230164   4.848   7.009   0.285
10074TIP3    H130165   4.762   7.011   0.326
10074TIP3    H230166   4.857   7.096   0.246
10075TIP3   OH230167   4.964   5.832   0.807
10075TIP3    H130168   4.888   5.888   0.796
10075TIP3    H230169   5.031   5.889   0.844
10076TIP3   OH230170   1.708   3.040   6.939
10076TIP3    H130171   1.747   2.955   6.916
10076TIP3    H230172   1.777   3.103   6.920
10077TIP3   OH230173   1.797   2.788   6.872
10077TIP3    H130174   1.716   2.745   6.900
10077TIP3    H230175   1.856   2.779   6.946
10078TIP3   OH230176   5.080   6.897   0.647
10078TIP3    H130177   5.062   6.816   0.599
10078TIP3    H230178   5.006   6.954   0.625
10079TIP3   OH230179   1.498   2.283   6.896
10079TIP3    H130180   1.414   2.326   6.882
10079TIP3    H230181   1.552   2.311   6.823
10080TIP3   OH230182   1.484   2.119   6.595
10080TIP3    H130183   1.541   2.167   6.655
10080TIP3    H230184   1.540   2.050   6.559
10081TIP3   OH230185   5.218   6.538   0.472
10081TIP3    H130186   5.133   6.580   0.484
10081TIP3    H230187   5.257   6.585   0.398
10082TIP3   OH230188   1.850   2.414   6.876
10082TIP3    H130189   1.801   2.434   6.956
10082TIP3    H230190   1.934   2.381   6.907
10083TIP3   OH230191   4.916   6.485   0.977
10083TIP3    H130192   4.904   6.577   0.950
10083TIP3    H230193   4.840   6.440   0.942
10084TIP3   OH230194   3.909   6.391   0.299
10084TIP3    H130195   3.870   6.321   0.247
10084TIP3    H230196   3.980   6.349   0.348
10085TIP3   OH230197   3.998   6.708   0.639
10085TIP3    H130198   4.029   6.640   0.579
10085TIP3    H230199   4.063   6.778   0.630
10086TIP3   OH230200   4.057   6.343   0.755
10086TIP3    H130201   4.080   6.251   0.742
10086TIP3    H230202   4.138   6.384   0.787
10087TIP3   OH230203   4.619   7.039   0.432
10087TIP3    H130204   4.587   7.129   0.435
10087TIP3    H230205   4.678   7.031   0.507
10088TIP3   OH230206   1.700   2.265   6.704
10088TIP3    H130207   1.755   2.327   6.752
10088TIP3    H230208   1.729   2.271   6.613
10089TIP3   OH230209   4.273   6.939   0.030
10089TIP3    H130210   4.357   6.982   0.044
10089TIP3    H230211   4.221   7.001  -0.020
10090TIP3   OH230212   2.257   1.482   6.771
10090TIP3    H130213   2.175   1.520   6.803
10090TIP3    H230214   2.303   1.555   6.730
10091TIP3   OH230215   3.760   6.212   0.142
10091TIP3    H130216   3.691   6.275   0.121
10091TIP3    H230217   3.780   6.169   0.058
10092TIP3   OH230218   5.220   7.241   0.654
10092TIP3    H130219   5.258   7.162   0.692
10092TIP3    H230220   5.140   7.211   0.612
10093TIP3   OH230221   4.338   7.095   0.944
10093TIP3    H130222   4.377   7.171   0.986
10093TIP3    H230223   4.249   7.090   0.981
10094TIP3   OH230224   1.325   3.140   6.811
10094TIP3    H130225   1.282   3.119   6.728
10094TIP3    H230226   1.295   3.229   6.832
10095TIP3   OH230227   3.545   7.030   0.179
10095TIP3    H130228   3.525   7.033   0.273
10095TIP3    H230229   3.489   6.960   0.145
10096TIP3   OH230230   1.520   3.086   6.440
10096TIP3    H130231   1.572   3.013   6.405
10096TIP3    H230232   1.561   3.106   6.524
10097TIP3   OH230233   1.580   3.134   6.709
10097TIP3    H130234   1.492   3.135   6.746
10097TIP3    H230235   1.635   3.095   6.776
10098TIP3   OH230236   1.778   2.242   6.445
10098TIP3    H130237   1.732   2.237   6.362
10098TIP3    H230238   1.856   2.293   6.427
10099TIP3   OH230239   1.465   1.666   6.731
10099TIP3    H130240   1.451   1.665   6.826
10099TIP3    H230241   1.431   1.582   6.701
10100TIP3   OH230242   3.956   6.043   0.316
10100TIP3    H130243   3.934   5.963   0.364
10100TIP3    H230244   3.938   6.021   0.224
10101TIP3   OH230245   4.462   6.086   0.071
10101TIP3    H130246   4.416   6.164   0.039
10101TIP3    H230247   4.529   6.069   0.005
10102TIP3   OH230248   4.614   6.187   0.298
10102TIP3    H130249   4.559   6.228   0.231
10102TIP3    H230250   4.648   6.108   0.255
10103TIP3   OH230251   1.105   1.639   6.718
10103TIP3    H130252   1.115   1.628   6.812
10103TIP3    H230253   1.030   1.699   6.709
10104TIP3   OH230254   4.695   6.380   0.851
10104TIP3    H130255   4.718   6.449   0.788
10104TIP3    H230256   4.617   6.339   0.813
10105TIP3   OH230257   4.371   5.723   0.508
10105TIP3    H130258   4.276   5.728   0.511
10105TIP3    H230259   4.400   5.767   0.588
10106TIP3   OH230260   3.861   5.816   0.424
10106TIP3    H130261   3.778   5.863   0.414
10106TIP3    H230262   3.849   5.734   0.377
10107TIP3   OH230263   3.956   5.936   0.061
10107TIP3    H130264   4.044   5.955   0.030
10107TIP3    H230265   3.898   5.973  -0.005
10108TIP3   OH230266   4.764   6.016   0.738
10108TIP3    H130267   4.751   6.043   0.828
10108TIP3    H230268   4.694   5.953   0.721
10109TIP3   OH230269   5.054   7.567   0.936
10109TIP3    H130270   4.979   7.577   0.878
10109TIP3    H230271   5.093   7.654   0.942
10110TIP3   OH230272   4.373   6.249   0.475
10110TIP3    H130273   4.431   6.193   0.424
10110TIP3    H230274   4.321   6.189   0.528
10111TIP3   OH230275   3.886   5.541   0.522
10111TIP3    H130276   3.804   5.502   0.492
10111TIP3    H230277   3.954   5.481   0.491
10112TIP3   OH230278   1.257   2.410   6.848
10112TIP3    H130279   1.177   2.358   6.837
10112TIP3    H230280   1.243   2.458   6.930
10113TIP3   OH230281   4.992   6.709   0.461
10113TIP3    H130282   5.032   6.771   0.399
10113TIP3    H230283   4.923   6.666   0.410
10114TIP3   OH230284   1.719   1.770   6.763
10114TIP3    H130285   1.624   1.759   6.751
10114TIP3    H230286   1.731   1.865   6.767
10115TIP3   OH230287   1.801   2.028   6.803
10115TIP3    H130288   1.897   2.031   6.810
10115TIP3    H230289   1.778   2.110   6.760
10116TIP3   OH230290   3.849   6.432   0.592
10116TIP3    H130291   3.870   6.426   0.498
10116TIP3    H230292   3.925   6.394   0.636
10117TIP3   OH230293   1.410   2.598   6.722
10117TIP3    H130294   1.360   2.680   6.721
10117TIP3    H230295   1.350   2.535   6.761
10118TIP3   OH230296   4.597   7.086   0.781
10118TIP3    H130297   4.552   7.138   0.848
10118TIP3    H230298   4.681   7.064   0.821
10119TIP3   OH230299   2.225   2.140   6.660
10119TIP3    H130300   2.180   2.089   6.594
10119TIP3    H230301   2.217   2.231   6.630
10120TIP3   OH230302   5.330   7.010   0.744
10120TIP3    H130303   5.260   6.972   0.798
10120TIP3    H230304   5.325   6.962   0.661
10121TIP3   OH230305   4.772   6.566   0.342
10121TIP3    H130306   4.681   6.536   0.348
10121TIP3    H230307   4.822   6.488   0.320
10122TIP3   OH230308   3.953   6.795   0.063
10122TIP3    H130309   4.007   6.873   0.076
10122TIP3    H230310   3.867   6.820   0.097
10123TIP3   OH230311   0.627   2.146   6.830
10123TIP3    H130312   0.708   2.103   6.803
10123TIP3    H230313   0.655   2.228   6.871
10124TIP3   OH230314   4.059   6.559   0.136
10124TIP3    H130315   4.026   6.646   0.113
10124TIP3    H230316   3.991   6.522   0.192
10125TIP3   OH230317   4.281   7.157   0.581
10125TIP3    H130318   4.273   7.245   0.544
10125TIP3    H230319   4.207   7.149   0.641
10126TIP3   OH230320   3.800   7.062   0.064
10126TIP3    H130321   3.712   7.068   0.100
10126TIP3    H230322   3.835   7.151   0.071
10127TIP3   OH230323   4.638   6.785   0.789
10127TIP3    H130324   4.583   6.707   0.801
10127TIP3    H230325   4.622   6.811   0.698
10128TIP3   OH230326   1.723   2.648   6.458
10128TIP3    H130327   1.761   2.632   6.545
10128TIP3    H230328   1.636   2.608   6.463
10129TIP3   OH230329   4.750   7.318   0.685
10129TIP3    H130330   4.680   7.255   0.665
10129TIP3    H230331   4.760   7.368   0.604
10130TIP3   OH230332   1.878   2.605   6.679
10130TIP3    H130333   1.871   2.537   6.747
10130TIP3    H230334   1.871   2.687   6.728
10131TIP3   OH230335   1.063   2.626   6.511
10131TIP3    H130336   1.068   2.533   6.491
10131TIP3    H230337   1.047   2.630   6.605
10132TIP3   OH230338   0.987   2.653   6.774
10132TIP3    H130339   1.011   2.628   6.863
10132TIP3    H230340   0.988   2.749   6.774
10133TIP3   OH230341   3.554   6.362   0.032
10133TIP3    H130342   3.482   6.422   0.051
10133TIP3    H230343   3.629   6.419   0.017
10134TIP3   OH230344   4.646   5.723   0.074
10134TIP3    H130345   4.615   5.746  -0.014
10134TIP3    H230346   4.669   5.808   0.113
10135TIP3   OH230347   1.263   2.825   6.715
10135TIP3    H130348   1.178   2.842   6.757
10135TIP3    H230349   1.280   2.904   6.663
10136TIP3   OH230350   4.235   5.939   0.090
10136TIP3    H130351   4.315   5.987   0.067
10136TIP3    H230352   4.232   5.944   0.186
10137TIP3   OH230353   4.456   5.608   0.244
10137TIP3    H130354   4.454   5.644   0.332
10137TIP3    H230355   4.521   5.660   0.197
10138TIP3   OH230356   1.001   2.926   6.765
10138TIP3    H130357   0.989   2.998   6.703
10138TIP3    H230358   0.990   2.967   6.851
10139TIP3   OH230359   3.983   5.664   0.049
10139TIP3    H130360   3.970   5.759   0.060
10139TIP3    H230361   4.078   5.652   0.053
10140TIP3   OH230362   4.869   6.310   0.288
10140TIP3    H130363   4.786   6.266   0.305
10140TIP3    H230364   4.935   6.255   0.331
10141TIP3   OH230365   0.749   2.523   6.720
10141TIP3    H130366   0.824   2.578   6.742
10141TIP3    H230367   0.788   2.442   6.686
10142TIP3   OH230368   0.781   1.773   6.805
10142TIP3    H130369   0.819   1.859   6.821
10142TIP3    H230370   0.745   1.748   6.890
10143TIP3   OH230371   4.847   7.286   0.254
10143TIP3    H130372   4.793   7.338   0.195
10143TIP3    H230373   4.936   7.311   0.233
10144TIP3   OH230374   3.361   6.811   0.197
10144TIP3    H130375   3.297   6.795   0.265
10144TIP3    H230376   3.310   6.836   0.120
10145TIP3   OH230377   1.209   2.830   6.399
10145TIP3    H130378   1.163   2.761   6.446
10145TIP3    H230379   1.283   2.786   6.358
10146TIP3   OH230380   1.642   2.871   6.318
10146TIP3    H130381   1.683   2.802   6.371
10146TIP3    H230382   1.694   2.874   6.238
10147TIP3   OH230383   0.858   2.291   6.617
10147TIP3    H130384   0.887   2.222   6.677
10147TIP3    H230385   0.935   2.312   6.565
10148TIP3   OH230386   1.463   2.545   6.458
10148TIP3    H130387   1.439   2.561   6.549
10148TIP3    H230388   1.431   2.456   6.440
10149TIP3   OH230389   4.890   6.748   0.898
10149TIP3    H130390   4.943   6.710   0.828
10149TIP3    H230391   4.803   6.758   0.859
10150TIP3   OH230392   1.992   2.395   6.357
10150TIP3    H130393   1.982   2.355   6.270
10150TIP3    H230394   1.986   2.489   6.341
10151TIP3   OH230395   1.013   3.139   6.594
10151TIP3    H130396   1.105   3.117   6.577
10151TIP3    H230397   0.984   3.185   6.516
10152TIP3   OH230398   0.479   2.535   6.707
10152TIP3    H130399   0.574   2.541   6.718
10152TIP3    H230400   0.462   2.441   6.702
10153TIP3   OH230401   3.169   7.095   0.153
10153TIP3    H130402   3.090   7.042   0.158
10153TIP3    H230403   3.205   7.093   0.241
10154TIP3   OH230404   3.293   6.913   0.668
10154TIP3    H130405   3.352   6.837   0.664
10154TIP3    H230406   3.351   6.988   0.670
10155TIP3   OH230407   5.103   7.368   0.233
10155TIP3    H130408   5.116   7.414   0.316
10155TIP3    H230409   5.161   7.413   0.171
10156TIP3   OH230410   5.092   7.437   0.499
10156TIP3    H130411   5.038   7.358   0.503
10156TIP3    H230412   5.173   7.413   0.544
10157TIP3   OH230413   5.166   6.865   0.324
10157TIP3    H130414   5.223   6.807   0.275
10157TIP3    H230415   5.169   6.948   0.276
10158TIP3   OH230416   4.989   7.180   0.510
10158TIP3    H130417   4.920   7.130   0.554
10158TIP3    H230418   4.989   7.147   0.420
10159TIP3   OH230419   2.175   2.396   6.562
10159TIP3    H130420   2.109   2.388   6.493
10159TIP3    H230421   2.129   2.439   6.634
10160TIP3   OH230422   2.067   2.011   6.475
10160TIP3    H130423   2.011   2.033   6.401
10160TIP3    H230424   2.059   1.916   6.485
10161TIP3   OH230425   4.914   6.301   0.017
10161TIP3    H130426   4.924   6.207   0.001
10161TIP3    H230427   4.912   6.309   0.112
10162TIP3   OH230428   5.170   6.843   0.898
10162TIP3    H130429   5.096   6.834   0.959
10162TIP3    H230430   5.130   6.839   0.811
10163TIP3   OH230431   5.364   6.446   1.015
10163TIP3    H130432   5.285   6.398   1.040
10163TIP3    H230433   5.435   6.402   1.060
10164TIP3   OH230434   2.011   1.742   6.475
10164TIP3    H130435   2.067   1.667   6.497
10164TIP3    H230436   1.922   1.709   6.482
10165TIP3   OH230437   2.079   2.027   6.867
10165TIP3    H130438   2.121   1.945   6.894
10165TIP3    H230439   2.133   2.059   6.795
10166TIP3   OH230440   5.100   6.218   0.424
10166TIP3    H130441   5.188   6.247   0.402
10166TIP3    H230442   5.110   6.165   0.502
10167TIP3   OH230443   5.189   6.332   0.697
10167TIP3    H130444   5.103   6.292   0.708
10167TIP3    H230445   5.184   6.376   0.612
10168TIP3   OH230446   5.008   5.795   0.020
10168TIP3    H130447   5.084   5.770   0.072
10168TIP3    H230448   4.968   5.712  -0.006
10169TIP3   OH230449   1.876   3.238   6.863
10169TIP3    H130450   1.929   3.229   6.784
10169TIP3    H230451   1.892   3.328   6.893
10170TIP3   OH230452   3.873   6.961   0.813
10170TIP3    H130453   3.858   7.052   0.788
10170TIP3    H230454   3.934   6.927   0.747
10171TIP3   OH230455   4.636   7.517   0.851
10171TIP3    H130456   4.699   7.454   0.815
10171TIP3    H230457   4.681   7.556   0.926
10172TIP3   OH230458   3.823   7.234   0.762
10172TIP3    H130459   3.798   7.308   0.818
10172TIP3    H230460   3.796   7.259   0.674
10173TIP3   OH230461   4.314   7.394   0.436
10173TIP3    H130462   4.249   7.393   0.365
10173TIP3    H230463   4.297   7.476   0.482
10174TIP3   OH230464   4.553   7.295   0.486
10174TIP3    H130465   4.467   7.324   0.455
10174TIP3    H230466   4.614   7.358   0.448
10175TIP3   OH230467   4.754   7.477   0.435
10175TIP3    H130468   4.753   7.556   0.382
10175TIP3    H230469   4.795   7.411   0.379
10176TIP3   OH230470   3.446   7.133   0.705
10176TIP3    H130471   3.498   7.146   0.784
10176TIP3    H230472   3.507   7.146   0.633
10177TIP3   OH230473   3.752   6.946   0.491
10177TIP3    H130474   3.729   6.876   0.552
10177TIP3    H230475   3.827   6.911   0.442
10178TIP3   OH230476   4.056   7.095   0.377
10178TIP3    H130477   4.013   7.019   0.339
10178TIP3    H230478   4.129   7.059   0.428
10179TIP3   OH230479   4.683   5.714   0.702
10179TIP3    H130480   4.680   5.619   0.714
10179TIP3    H230481   4.676   5.727   0.608
10180TIP3   OH230482   5.152   5.653   0.420
10180TIP3    H130483   5.185   5.708   0.349
10180TIP3    H230484   5.156   5.710   0.498
10181TIP3   OH230485   5.228   5.786   0.203
10181TIP3    H130486   5.284   5.737   0.144
10181TIP3    H230487   5.248   5.878   0.185
10182TIP3   OH230488   4.283   5.441   0.448
10182TIP3    H130489   4.282   5.525   0.403
10182TIP3    H230490   4.221   5.452   0.520
10183TIP3   OH230491   4.689   5.639   0.441
10183TIP3    H130492   4.742   5.691   0.382
10183TIP3    H230493   4.749   5.573   0.476
10184TIP3   OH230494   2.019   1.571   6.887
10184TIP3    H130495   1.944   1.613   6.928
10184TIP3    H230496   2.015   1.480   6.915
10185TIP3   OH230497   0.433   2.859   6.888
10185TIP3    H130498   0.431   2.819   6.802
10185TIP3    H230499   0.432   2.953   6.871
10186TIP3   OH230500   4.257   5.668   0.059
10186TIP3    H130501   4.318   5.636   0.126
10186TIP3    H230502   4.252   5.762   0.074
10187TIP3   OH230503   1.269   3.052   6.546
10187TIP3    H130504   1.352   3.080   6.508
10187TIP3    H230505   1.239   2.982   6.489
10188TIP3   OH230506   0.583   2.899   6.621
10188TIP3    H130507   0.603   2.945   6.703
10188TIP3    H230508   0.665   2.854   6.599
10189TIP3   OH230509   4.985   7.322   0.808
10189TIP3    H130510   4.906   7.293   0.763
10189TIP3    H230511   4.991   7.416   0.789
10190TIP3   OH230512   3.466   2.723   6.569
10190TIP3    H130513   3.435   2.810   6.545
10190TIP3    H230514   3.396   2.664   6.542
10191TIP3   OH230515   6.294   6.726   0.029
10191TIP3    H130516   6.346   6.708   0.107
10191TIP3    H230517   6.252   6.642   0.009
10192TIP3   OH230518   5.595   6.599   0.321
10192TIP3    H130519   5.608   6.532   0.388
10192TIP3    H230520   5.684   6.625   0.295
10193TIP3   OH230521   3.740   3.028   6.663
10193TIP3    H130522   3.726   2.962   6.730
10193TIP3    H230523   3.758   3.108   6.712
10194TIP3   OH230524   5.599   7.018   0.082
10194TIP3    H130525   5.576   6.925   0.078
10194TIP3    H230526   5.694   7.019   0.069
10195TIP3   OH230527   2.429   2.184   6.850
10195TIP3    H130528   2.403   2.274   6.871
10195TIP3    H230529   2.366   2.155   6.784
10196TIP3   OH230530   5.363   6.543   0.016
10196TIP3    H130531   5.413   6.473   0.058
10196TIP3    H230532   5.428   6.611  -0.002
10197TIP3   OH230533   3.396   3.451   6.679
10197TIP3    H130534   3.419   3.387   6.611
10197TIP3    H230535   3.408   3.404   6.761
10198TIP3   OH230536   6.117   6.952   0.031
10198TIP3    H130537   6.161   6.871   0.004
10198TIP3    H230538   6.188   7.008   0.062
10199TIP3   OH230539   7.148   6.274   0.061
10199TIP3    H130540   7.163   6.359   0.102
10199TIP3    H230541   7.185   6.283  -0.027
10200TIP3   OH230542   6.519   6.433   0.083
10200TIP3    H130543   6.558   6.350   0.109
10200TIP3    H230544   6.477   6.415  -0.001
10201TIP3   OH230545   3.050   2.080   6.968
10201TIP3    H130546   3.032   2.153   6.910
10201TIP3    H230547   2.997   2.008   6.935
10202TIP3   OH230548   3.735   2.192   6.622
10202TIP3    H130549   3.803   2.184   6.689
10202TIP3    H230550   3.781   2.224   6.544
10203TIP3   OH230551   5.496   6.341   0.147
10203TIP3    H130552   5.585   6.343   0.182
10203TIP3    H230553   5.500   6.280   0.074
10204TIP3   OH230554   3.095   2.499   6.917
10204TIP3    H130555   3.190   2.483   6.918
10204TIP3    H230556   3.058   2.417   6.883
10205TIP3   OH230557   7.200   6.493   0.228
10205TIP3    H130558   7.111   6.529   0.223
10205TIP3    H230559   7.236   6.528   0.309
10206TIP3   OH230560   5.859   6.130   0.439
10206TIP3    H130561   5.805   6.188   0.385
10206TIP3    H230562   5.839   6.157   0.529
10207TIP3   OH230563   3.345   2.933   6.440
10207TIP3    H130564   3.313   2.912   6.353
10207TIP3    H230565   3.302   3.016   6.463
10208TIP3   OH230566   5.965   6.874   0.245
10208TIP3    H130567   5.906   6.941   0.277
10208TIP3    H230568   6.011   6.915   0.172
10209TIP3   OH230569   3.908   2.209   6.831
10209TIP3    H130570   3.862   2.188   6.913
10209TIP3    H230571   3.962   2.285   6.853
10210TIP3   OH230572   5.752   6.252   0.211
10210TIP3    H130573   5.816   6.321   0.228
10210TIP3    H230574   5.798   6.192   0.151
10211TIP3   OH230575   5.789   7.065   0.331
10211TIP3    H130576   5.756   7.148   0.298
10211TIP3    H230577   5.716   7.027   0.379
10212TIP3   OH230578   3.771   3.274   6.807
10212TIP3    H130579   3.682   3.268   6.843
10212TIP3    H230580   3.771   3.356   6.758
10213TIP3   OH230581   6.950   6.173   0.224
10213TIP3    H130582   6.865   6.210   0.198
10213TIP3    H230583   7.010   6.200   0.155
10214TIP3   OH230584   6.201   5.808   0.155
10214TIP3    H130585   6.211   5.718   0.188
10214TIP3    H230586   6.132   5.846   0.209
10215TIP3   OH230587   3.477   3.298   6.461
10215TIP3    H130588   3.530   3.219   6.450
10215TIP3    H230589   3.534   3.369   6.431
10216TIP3   OH230590   3.637   3.084   6.411
10216TIP3    H130591   3.616   3.001   6.368
10216TIP3    H230592   3.677   3.058   6.494
10217TIP3   OH230593   6.838   7.168   0.200
10217TIP3    H130594   6.822   7.095   0.141
10217TIP3    H230595   6.824   7.246   0.146
10218TIP3   OH230596   3.293   2.563   6.417
10218TIP3    H130597   3.210   2.608   6.400
10218TIP3    H230598   3.338   2.563   6.333
10219TIP3   OH230599   3.263   2.370   6.105
10219TIP3    H130600   3.329   2.419   6.154
10219TIP3    H230601   3.313   2.303   6.059
10220TIP3   OH230602   7.029   6.832   0.049
10220TIP3    H130603   6.944   6.877   0.055
10220TIP3    H230604   7.055   6.843  -0.042
10221TIP3   OH230605   3.646   2.656   6.375
10221TIP3    H130606   3.592   2.683   6.449
10221TIP3    H230607   3.727   2.624   6.414
10222TIP3   OH230608   6.712   6.709   0.332
10222TIP3    H130609   6.714   6.790   0.384
10222TIP3    H230610   6.626   6.709   0.291
10223TIP3   OH230611   2.888   2.630   6.784
10223TIP3    H130612   2.850   2.566   6.723
10223TIP3    H230613   2.965   2.585   6.819
10224TIP3   OH230614   3.025   3.056   6.916
10224TIP3    H130615   2.997   3.042   6.825
10224TIP3    H230616   3.114   3.020   6.919
10225TIP3   OH230617   5.833   6.642   0.195
10225TIP3    H130618   5.870   6.610   0.113
10225TIP3    H230619   5.878   6.725   0.211
10226TIP3   OH230620   6.359   7.281  -0.014
10226TIP3    H130621   6.351   7.358   0.042
10226TIP3    H230622   6.349   7.206   0.045
10227TIP3   OH230623   5.979   7.190   0.481
10227TIP3    H130624   5.917   7.243   0.531
10227TIP3    H230625   5.925   7.136   0.425
10228TIP3   OH230626   3.481   2.513   6.209
10228TIP3    H130627   3.540   2.571   6.257
10228TIP3    H230628   3.511   2.518   6.118
10229TIP3   OH230629   5.772   6.748   0.511
10229TIP3    H130630   5.756   6.842   0.519
10229TIP3    H230631   5.686   6.708   0.521
10230TIP3   OH230632   3.226   3.185   6.467
10230TIP3    H130633   3.311   3.228   6.473
10230TIP3    H230634   3.171   3.247   6.418
10231TIP3   OH230635   5.768   7.332   0.581
10231TIP3    H130636   5.752   7.339   0.487
10231TIP3    H230637   5.688   7.293   0.616
10232TIP3   OH230638   3.992   1.741   6.263
10232TIP3    H130639   3.919   1.764   6.320
10232TIP3    H230640   4.004   1.818   6.207
10233TIP3   OH230641   2.762   2.458   6.601
10233TIP3    H130642   2.682   2.498   6.566
10233TIP3    H230643   2.741   2.365   6.608
10234TIP3   OH230644   3.824   3.119   5.827
10234TIP3    H130645   3.823   3.212   5.806
10234TIP3    H230646   3.913   3.091   5.806
10235TIP3   OH230647   5.357   6.842   0.528
10235TIP3    H130648   5.283   6.856   0.469
10235TIP3    H230649   5.380   6.750   0.516
10236TIP3   OH230650   5.211   7.111   0.215
10236TIP3    H130651   5.298   7.140   0.240
10236TIP3    H230652   5.158   7.191   0.217
10237TIP3   OH230653   7.084   7.505   0.302
10237TIP3    H130654   7.074   7.412   0.322
10237TIP3    H230655   7.000   7.544   0.330
10238TIP3   OH230656   6.191   7.326   0.377
10238TIP3    H130657   6.181   7.416   0.409
10238TIP3    H230658   6.119   7.278   0.417
10239TIP3   OH230659   3.123   3.404   6.297
10239TIP3    H130660   3.079   3.385   6.214
10239TIP3    H230661   3.086   3.487   6.326
10240TIP3   OH230662   2.559   3.297   6.683
10240TIP3    H130663   2.612   3.279   6.761
10240TIP3    H230664   2.512   3.216   6.666
10241TIP3   OH230665   3.324   3.339   5.923
10241TIP3    H130666   3.374   3.265   5.888
10241TIP3    H230667   3.359   3.352   6.011
10242TIP3   OH230668   3.377   3.381   6.191
10242TIP3    H130669   3.292   3.383   6.235
10242TIP3    H230670   3.437   3.348   6.258
10243TIP3   OH230671   6.977   6.643   0.510
10243TIP3    H130672   6.886   6.634   0.480
10243TIP3    H230673   7.006   6.553   0.525
10244TIP3   OH230674   5.591   6.985   0.502
10244TIP3    H130675   5.562   7.073   0.526
10244TIP3    H230676   5.511   6.932   0.503
10245TIP3   OH230677   5.974   5.899   0.288
10245TIP3    H130678   5.890   5.891   0.241
10245TIP3    H230679   5.978   5.991   0.314
10246TIP3   OH230680   6.477   5.970   0.502
10246TIP3    H130681   6.565   5.966   0.537
10246TIP3    H230682   6.432   6.034   0.557
10247TIP3   OH230683   6.756   6.460   0.430
10247TIP3    H130684   6.684   6.433   0.486
10247TIP3    H230685   6.724   6.537   0.384
10248TIP3   OH230686   3.564   2.501   5.949
10248TIP3    H130687   3.517   2.501   5.865
10248TIP3    H230688   3.647   2.544   5.930
10249TIP3   OH230689   3.279   1.917   6.263
10249TIP3    H130690   3.238   1.928   6.349
10249TIP3    H230691   3.243   1.834   6.230
10250TIP3   OH230692   5.919   6.432   0.347
10250TIP3    H130693   5.843   6.423   0.404
10250TIP3    H230694   5.906   6.514   0.300
10251TIP3   OH230695   2.949   2.286   6.821
10251TIP3    H130696   2.859   2.264   6.847
10251TIP3    H230697   2.956   2.256   6.731
10252TIP3   OH230698   3.422   2.361   6.550
10252TIP3    H130699   3.374   2.433   6.509
10252TIP3    H230700   3.480   2.329   6.481
10253TIP3   OH230701   6.451   6.662   0.607
10253TIP3    H130702   6.469   6.622   0.692
10253TIP3    H230703   6.530   6.714   0.589
10254TIP3   OH230704   3.582   2.368   6.776
10254TIP3    H130705   3.519   2.391   6.708
10254TIP3    H230706   3.634   2.297   6.738
10255TIP3   OH230707   5.691   6.399   0.491
10255TIP3    H130708   5.694   6.459   0.565
10255TIP3    H230709   5.636   6.326   0.520
10256TIP3   OH230710   2.951   1.906   6.253
10256TIP3    H130711   2.927   1.890   6.345
10256TIP3    H230712   2.874   1.947   6.215
10257TIP3   OH230713   5.299   6.039   0.143
10257TIP3    H130714   5.387   6.063   0.172
10257TIP3    H230715   5.285   6.090   0.063
10258TIP3   OH230716   6.453   6.642   0.242
10258TIP3    H130717   6.486   6.576   0.180
10258TIP3    H230718   6.410   6.590   0.310
10259TIP3   OH230719   3.316   2.071   6.865
10259TIP3    H130720   3.238   2.067   6.921
10259TIP3    H230721   3.389   2.068   6.927
10260TIP3   OH230722   2.706   2.163   6.876
10260TIP3    H130723   2.615   2.153   6.848
10260TIP3    H230724   2.747   2.080   6.854
10261TIP3   OH230725   2.956   2.171   6.574
10261TIP3    H130726   3.051   2.182   6.563
10261TIP3    H230727   2.920   2.191   6.487
10262TIP3   OH230728   6.598   6.169   0.118
10262TIP3    H130729   6.588   6.182   0.212
10262TIP3    H230730   6.525   6.111   0.094
10263TIP3   OH230731   2.837   2.207   6.333
10263TIP3    H130732   2.783   2.148   6.282
10263TIP3    H230733   2.893   2.250   6.268
10264TIP3   OH230734   5.819   6.967   0.698
10264TIP3    H130735   5.868   7.018   0.763
10264TIP3    H230736   5.735   7.013   0.691
10265TIP3   OH230737   6.199   6.452   0.013
10265TIP3    H130738   6.267   6.411  -0.039
10265TIP3    H230739   6.202   6.408   0.097
10266TIP3   OH230740   2.856   1.936   6.819
10266TIP3    H130741   2.826   1.854   6.860
10266TIP3    H230742   2.873   1.912   6.728
10267TIP3   OH230743   6.174   6.352   0.272
10267TIP3    H130744   6.091   6.396   0.291
10267TIP3    H230745   6.239   6.398   0.325
10268TIP3   OH230746   3.053   2.696   6.364
10268TIP3    H130747   2.977   2.643   6.341
10268TIP3    H230748   3.027   2.741   6.445
10269TIP3   OH230749   3.952   2.955   6.964
10269TIP3    H130750   3.985   3.006   6.890
10269TIP3    H230751   3.872   2.914   6.930
10270TIP3   OH230752   3.531   2.018   6.270
10270TIP3    H130753   3.438   1.997   6.265
10270TIP3    H230754   3.534   2.113   6.280
10271TIP3   OH230755   6.324   7.052   0.418
10271TIP3    H130756   6.371   7.020   0.496
10271TIP3    H230757   6.295   7.140   0.441
10272TIP3   OH230758   3.586   2.284   6.335
10272TIP3    H130759   3.681   2.289   6.343
10272TIP3    H230760   3.562   2.360   6.282
10273TIP3   OH230761   5.576   6.736   0.053
10273TIP3    H130762   5.628   6.712  -0.024
10273TIP3    H230763   5.623   6.695   0.127
10274TIP3   OH230764   3.205   2.858   6.205
10274TIP3    H130765   3.158   2.941   6.203
10274TIP3    H230766   3.151   2.801   6.259
10275TIP3   OH230767   5.560   6.615   0.628
10275TIP3    H130768   5.575   6.682   0.695
10275TIP3    H230769   5.480   6.571   0.656
10276TIP3   OH230770   6.221   6.822   0.618
10276TIP3    H130771   6.151   6.760   0.603
10276TIP3    H230772   6.301   6.771   0.611
10277TIP3   OH230773   6.457   7.337   0.304
10277TIP3    H130774   6.362   7.324   0.307
10277TIP3    H230775   6.476   7.394   0.379
10278TIP3   OH230776   4.004   2.380   6.160
10278TIP3    H130777   3.951   2.332   6.096
10278TIP3    H230778   4.010   2.469   6.124
10279TIP3   OH230779   7.081   7.219   0.308
10279TIP3    H130780   6.987   7.216   0.290
10279TIP3    H230781   7.122   7.206   0.222
10280TIP3   OH230782   3.748   3.189   6.091
10280TIP3    H130783   3.716   3.120   6.148
10280TIP3    H230784   3.764   3.146   6.007
10281TIP3   OH230785   3.720   2.822   6.862
10281TIP3    H130786   3.628   2.803   6.879
10281TIP3    H230787   3.755   2.742   6.824
10282TIP3   OH230788   2.868   3.060   6.680
10282TIP3    H130789   2.866   3.135   6.622
10282TIP3    H230790   2.779   3.055   6.716
10283TIP3   OH230791   2.404   2.338   6.405
10283TIP3    H130792   2.467   2.410   6.415
10283TIP3    H230793   2.333   2.360   6.464
10284TIP3   OH230794   2.945   2.814   6.582
10284TIP3    H130795   2.929   2.903   6.613
10284TIP3    H230796   2.926   2.759   6.657
10285TIP3   OH230797   5.997   7.392   0.185
10285TIP3    H130798   6.029   7.469   0.138
10285TIP3    H230799   6.073   7.359   0.233
10286TIP3   OH230800   2.789   3.285   6.529
10286TIP3    H130801   2.703   3.298   6.570
10286TIP3    H230802   2.830   3.371   6.533
10287TIP3   OH230803   6.349   7.052   0.147
10287TIP3    H130804   6.337   7.052   0.242
10287TIP3    H230805   6.431   7.004   0.134
10288TIP3   OH230806   3.506   2.926   5.978
10288TIP3    H130807   3.547   2.907   6.062
10288TIP3    H230808   3.422   2.879   5.981
10289TIP3   OH230809   6.604   7.564   0.199
10289TIP3    H130810   6.535   7.499   0.209
10289TIP3    H230811   6.576   7.618   0.126
10290TIP3   OH230812   3.835   3.394   5.794
10290TIP3    H130813   3.877   3.463   5.744
10290TIP3    H230814   3.757   3.435   5.831
10291TIP3   OH230815   5.792   6.167   0.697
10291TIP3    H130816   5.699   6.180   0.715
10291TIP3    H230817   5.827   6.129   0.778
10292TIP3   OH230818   3.665   2.867   6.197
10292TIP3    H130819   3.652   2.794   6.258
10292TIP3    H230820   3.759   2.866   6.179
10293TIP3   OH230821   5.409   7.280   0.320
10293TIP3    H130822   5.447   7.238   0.398
10293TIP3    H230823   5.424   7.373   0.334
10294TIP3   OH230824   2.854   2.889   5.993
10294TIP3    H130825   2.864   2.797   5.966
10294TIP3    H230826   2.836   2.884   6.087
10295TIP3   OH230827   2.785   2.906   6.264
10295TIP3    H130828   2.848   2.879   6.331
10295TIP3    H230829   2.786   3.001   6.267
10296TIP3   OH230830   2.562   2.566   6.441
10296TIP3    H130831   2.497   2.635   6.436
10296TIP3    H230832   2.635   2.599   6.388
10297TIP3   OH230833   6.547   6.206   0.377
10297TIP3    H130834   6.572   6.253   0.456
10297TIP3    H230835   6.524   6.118   0.408
10298TIP3   OH230836   3.593   1.969   6.535
10298TIP3    H130837   3.573   1.987   6.443
10298TIP3    H230838   3.635   2.049   6.566
10299TIP3   OH230839   3.061   3.087   6.199
10299TIP3    H130840   2.977   3.113   6.238
10299TIP3    H230841   3.087   3.162   6.146
10300TIP3   OH230842   3.234   2.175   6.622
10300TIP3    H130843   3.296   2.242   6.595
10300TIP3    H230844   3.262   2.149   6.709
10301TIP3   OH230845   6.361   6.467   0.435
10301TIP3    H130846   6.371   6.534   0.502
10301TIP3    H230847   6.432   6.406   0.451
10302TIP3   OH230848   3.402   1.862   6.698
10302TIP3    H130849   3.383   1.936   6.756
10302TIP3    H230850   3.474   1.891   6.644
10303TIP3   OH230851   2.812   3.179   6.277
10303TIP3    H130852   2.793   3.251   6.217
10303TIP3    H230853   2.802   3.217   6.364
10304TIP3   OH230854   2.918   1.896   6.546
10304TIP3    H130855   2.911   1.991   6.553
10304TIP3    H230856   3.012   1.879   6.539
10305TIP3   OH230857   7.004   6.363   0.453
10305TIP3    H130858   6.912   6.390   0.453
10305TIP3    H230859   7.013   6.309   0.375
10306TIP3   OH230860   3.812   2.562   6.776
10306TIP3    H130861   3.736   2.506   6.791
10306TIP3    H230862   3.881   2.524   6.831
10307TIP3   OH230863   2.524   2.788   6.241
10307TIP3    H130864   2.593   2.853   6.253
10307TIP3    H230865   2.562   2.724   6.181
10308TIP3   OH230866   2.489   2.084   6.310
10308TIP3    H130867   2.471   2.168   6.354
10308TIP3    H230868   2.467   2.018   6.375
10309TIP3   OH230869   3.786   3.535   6.712
10309TIP3    H130870   3.743   3.587   6.644
10309TIP3    H230871   3.879   3.554   6.701
10310TIP3   OH230872   5.708   5.863   0.219
10310TIP3    H130873   5.674   5.826   0.137
10310TIP3    H230874   5.715   5.787   0.278
10311TIP3   OH230875   2.442   3.064   6.617
10311TIP3    H130876   2.366   3.014   6.650
10311TIP3    H230877   2.438   3.052   6.522
10312TIP3   OH230878   5.486   7.502   0.624
10312TIP3    H130879   5.563   7.537   0.670
10312TIP3    H230880   5.415   7.513   0.687
10313TIP3   OH230881   5.917   7.536   0.689
10313TIP3    H130882   5.942   7.470   0.753
10313TIP3    H230883   5.863   7.489   0.625
10314TIP3   OH230884   3.008   3.090   5.881
10314TIP3    H130885   2.961   3.020   5.926
10314TIP3    H230886   3.083   3.045   5.841
10315TIP3   OH230887   6.491   7.488   0.532
10315TIP3    H130888   6.488   7.403   0.576
10315TIP3    H230889   6.577   7.523   0.553
10316TIP3   OH230890   3.450   3.129   5.802
10316TIP3    H130891   3.486   3.065   5.863
10316TIP3    H230892   3.507   3.123   5.725
10317TIP3   OH230893   5.413   6.988   1.047
10317TIP3    H130894   5.413   6.893   1.033
10317TIP3    H230895   5.385   7.024   0.962
10318TIP3   OH230896   2.668   2.594   6.107
10318TIP3    H130897   2.719   2.563   6.182
10318TIP3    H230898   2.733   2.605   6.037
10319TIP3   OH230899   6.152   7.081   0.652
10319TIP3    H130900   6.092   7.111   0.584
10319TIP3    H230901   6.178   6.993   0.625
10320TIP3   OH230902   3.257   2.801   5.943
10320TIP3    H130903   3.230   2.812   6.034
10320TIP3    H230904   3.237   2.710   5.923
10321TIP3   OH230905   6.618   7.113   0.351
10321TIP3    H130906   6.694   7.143   0.300
10321TIP3    H230907   6.551   7.179   0.336
10322TIP3   OH230908   5.636   6.570   0.982
10322TIP3    H130909   5.702   6.613   0.927
10322TIP3    H230910   5.604   6.639   1.039
10323TIP3   OH230911   2.837   2.522   6.321
10323TIP3    H130912   2.830   2.480   6.407
10323TIP3    H230913   2.890   2.462   6.269
10324TIP3   OH230914   6.013   6.641   0.574
10324TIP3    H130915   5.928   6.681   0.559
10324TIP3    H230916   6.056   6.644   0.488
10325TIP3   OH230917   2.990   2.355   6.160
10325TIP3    H130918   2.961   2.351   6.069
10325TIP3    H230919   3.086   2.358   6.154
10326TIP3   OH230920   6.497   6.984   0.648
10326TIP3    H130921   6.576   6.961   0.600
10326TIP3    H230922   6.514   6.954   0.738
10327TIP3   OH230923   3.787   2.626   5.841
10327TIP3    H130924   3.773   2.586   5.755
10327TIP3    H230925   3.764   2.719   5.828
10328TIP3   OH230926   6.055   6.362   0.582
10328TIP3    H130927   6.020   6.362   0.493
10328TIP3    H230928   6.051   6.453   0.610
10329TIP3   OH230929   6.132   6.116   0.405
10329TIP3    H130930   6.153   6.190   0.348
10329TIP3    H230931   6.044   6.135   0.437
10330TIP3   OH230932   6.144   6.691   0.342
10330TIP3    H130933   6.229   6.733   0.334
10330TIP3    H230934   6.082   6.756   0.308
10331TIP3   OH230935   6.809   6.675   0.760
10331TIP3    H130936   6.873   6.607   0.782
10331TIP3    H230937   6.863   6.747   0.727
10332TIP3   OH230938   6.740   6.932   0.505
10332TIP3    H130939   6.695   6.996   0.450
10332TIP3    H230940   6.832   6.942   0.481
10333TIP3   OH230941   5.931   6.503   1.020
10333TIP3    H130942   5.888   6.417   1.024
10333TIP3    H230943   5.965   6.508   0.931
10334TIP3   OH230944   6.167   5.963   0.716
10334TIP3    H130945   6.211   6.041   0.683
10334TIP3    H230946   6.128   5.923   0.638
10335TIP3   OH230947   6.369   6.417   0.776
10335TIP3    H130948   6.411   6.419   0.862
10335TIP3    H230949   6.285   6.461   0.789
10336TIP3   OH230950   6.565   6.366   0.596
10336TIP3    H130951   6.489   6.385   0.652
10336TIP3    H230952   6.633   6.338   0.657
10337TIP3   OH230953   7.001   6.264   0.863
10337TIP3    H130954   6.942   6.204   0.817
10337TIP3    H230955   6.942   6.320   0.914
10338TIP3   OH230956   5.853   6.252   1.111
10338TIP3    H130957   5.773   6.208   1.082
10338TIP3    H230958   5.843   6.261   1.206
10339TIP3   OH230959   6.253   5.842   0.944
10339TIP3    H130960   6.342   5.832   0.909
10339TIP3    H230961   6.207   5.893   0.876
10340TIP3   OH230962   6.358   6.133   1.051
10340TIP3    H130963   6.409   6.112   0.973
10340TIP3    H230964   6.297   6.201   1.022
10341TIP3   OH230965   2.815   3.390   6.095
10341TIP3    H130966   2.904   3.367   6.068
10341TIP3    H230967   2.778   3.434   6.018
10342TIP3   OH230968   2.286   2.686   6.339
10342TIP3    H130969   2.361   2.740   6.314
10342TIP3    H230970   2.274   2.625   6.266
10343TIP3   OH230971   2.163   3.334   6.687
10343TIP3    H130972   2.152   3.263   6.624
10343TIP3    H230973   2.210   3.293   6.760
10344TIP3   OH230974   2.300   3.223   6.892
10344TIP3    H130975   2.305   3.135   6.929
10344TIP3    H230976   2.372   3.271   6.933
10345TIP3   OH230977   4.054   3.597   6.704
10345TIP3    H130978   4.077   3.602   6.797
10345TIP3    H230979   4.083   3.681   6.667
10346TIP3   OH230980   6.947   7.612   0.030
10346TIP3    H130981   6.900   7.530   0.047
10346TIP3    H230982   6.992   7.632   0.112
10347TIP3   OH230983   6.967   7.343   0.589
10347TIP3    H130984   6.895   7.357   0.651
10347TIP3    H230985   7.020   7.423   0.594
10348TIP3   OH230986   3.942   2.848   6.171
10348TIP3    H130987   4.004   2.914   6.140
10348TIP3    H230988   3.973   2.824   6.258
10349TIP3   OH230989   4.036   2.744   6.407
10349TIP3    H130990   3.968   2.689   6.446
10349TIP3    H230991   4.114   2.688   6.405
10350TIP3   OH230992   4.136   3.099   6.809
10350TIP3    H130993   4.183   3.034   6.757
10350TIP3    H230994   4.133   3.176   6.753
10351TIP3   OH230995   6.776   7.392   0.058
10351TIP3    H130996   6.715   7.446   0.107
10351TIP3    H230997   6.724   7.354  -0.013
10352TIP3   OH230998   3.994   2.620   6.023
10352TIP3    H130999   3.923   2.614   5.958
10352TIP3    H231000   3.974   2.698   6.074
10353TIP3   OH231001   3.853   2.269   5.959
10353TIP3    H131002   3.805   2.306   5.885
10353TIP3    H231003   3.841   2.174   5.951
10354TIP3   OH231004   3.865   2.550   6.505
10354TIP3    H131005   3.877   2.456   6.488
10354TIP3    H231006   3.852   2.556   6.599
10355TIP3   OH231007   5.337   6.660   0.262
10355TIP3    H131008   5.324   6.629   0.172
10355TIP3    H231009   5.431   6.652   0.277
10356TIP3   OH231010   7.005   6.979   0.437
10356TIP3    H131011   7.073   6.915   0.417
10356TIP3    H231012   7.027   7.056   0.385
10357TIP3   OH231013   7.186   6.777   0.404
10357TIP3    H131014   7.109   6.728   0.432
10357TIP3    H231015   7.260   6.723   0.432
10358TIP3   OH231016   3.801   2.000   5.929
10358TIP3    H131017   3.870   1.971   5.989
10358TIP3    H231018   3.723   1.955   5.960
10359TIP3   OH231019   3.874   2.282   6.391
10359TIP3    H131020   3.918   2.199   6.406
10359TIP3    H231021   3.919   2.320   6.316
10360TIP3   OH231022   4.029   2.445   6.917
10360TIP3    H131023   4.109   2.463   6.867
10360TIP3    H231024   4.043   2.487   7.002
10361TIP3   OH231025   6.945   6.610   0.194
10361TIP3    H131026   6.869   6.643   0.242
10361TIP3    H231027   6.976   6.687   0.145
10362TIP3   OH231028   5.612   6.319   0.877
10362TIP3    H131029   5.609   6.396   0.934
10362TIP3    H231030   5.628   6.246   0.937
10363TIP3   OH231031   7.410   6.182   0.720
10363TIP3    H131032   7.467   6.122   0.671
10363TIP3    H231033   7.368   6.235   0.652
10364TIP3   OH231034   3.984   2.037   6.454
10364TIP3    H131035   4.038   2.026   6.533
10364TIP3    H231036   3.930   1.958   6.451
10365TIP3   OH231037   5.544   6.073   0.268
10365TIP3    H131038   5.596   5.994   0.253
10365TIP3    H231039   5.604   6.146   0.252
10366TIP3   OH231040   5.355   6.311   0.391
10366TIP3    H131041   5.397   6.321   0.306
10366TIP3    H231042   5.325   6.399   0.413
10367TIP3   OH231043   7.260   6.310   0.533
10367TIP3    H131044   7.174   6.349   0.548
10367TIP3    H231045   7.245   6.240   0.470
10368TIP3   OH231046   4.026   1.946   6.081
10368TIP3    H131047   4.074   1.886   6.024
10368TIP3    H231048   4.086   2.019   6.094
10369TIP3   OH231049   3.615   3.500   6.350
10369TIP3    H131050   3.676   3.492   6.277
10369TIP3    H231051   3.653   3.568   6.406
10370TIP3   OH231052   5.457   5.952   0.745
10370TIP3    H131053   5.420   6.028   0.791
10370TIP3    H231054   5.395   5.934   0.675
10371TIP3   OH231055   5.624   7.369   0.861
10371TIP3    H131056   5.598   7.277   0.850
10371TIP3    H231057   5.572   7.400   0.935
10372TIP3   OH231058   5.758   7.346   0.311
10372TIP3    H131059   5.713   7.424   0.280
10372TIP3    H231060   5.846   7.353   0.274
10373TIP3   OH231061   6.169   7.594   0.452
10373TIP3    H131062   6.196   7.595   0.544
10373TIP3    H231063   6.237   7.643   0.407
10374TIP3   OH231064   6.373   7.751   0.345
10374TIP3    H131065   6.428   7.690   0.296
10374TIP3    H231066   6.435   7.810   0.388
10375TIP3   OH231067   7.159   6.088   0.398
10375TIP3    H131068   7.077   6.100   0.350
10375TIP3    H231069   7.180   5.995   0.386
10376TIP3   OH231070   5.428   7.547   0.359
10376TIP3    H131071   5.353   7.603   0.338
10376TIP3    H231072   5.438   7.554   0.454
10377TIP3   OH231073   5.661   7.586   0.224
10377TIP3    H131074   5.578   7.582   0.271
10377TIP3    H231075   5.637   7.611   0.135
10378TIP3   OH231076   6.070   7.606   0.029
10378TIP3    H131077   5.999   7.616  -0.034
10378TIP3    H231078   6.082   7.694   0.066
10379TIP3   OH231079   6.329   7.536   0.090
10379TIP3    H131080   6.239   7.557   0.066
10379TIP3    H231081   6.383   7.600   0.042
10380TIP3   OH231082   3.687   3.694   6.916
10380TIP3    H131083   3.699   3.784   6.886
10380TIP3    H231084   3.719   3.640   6.844
10381TIP3   OH231085   5.338   7.379   0.075
10381TIP3    H131086   5.357   7.348   0.164
10381TIP3    H231087   5.411   7.346   0.022
10382TIP3   OH231088   2.717   3.250   6.902
10382TIP3    H131089   2.725   3.167   6.949
10382TIP3    H231090   2.805   3.289   6.907
10383TIP3   OH231091   5.816   7.341  -0.017
10383TIP3    H131092   5.834   7.248  -0.033
10383TIP3    H231093   5.873   7.364   0.057
10384TIP3   OH231094   6.382   5.996   0.062
10384TIP3    H131095   6.325   5.927   0.097
10384TIP3    H231096   6.445   5.950   0.007
10385TIP3   OH231097   4.039   1.912   6.886
10385TIP3    H131098   4.083   1.963   6.818
10385TIP3    H231099   3.950   1.947   6.888
10386TIP3   OH231100   4.166   1.998   6.657
10386TIP3    H131101   4.226   1.926   6.636
10386TIP3    H231102   4.214   2.077   6.633
10387TIP3   OH231103   5.614   5.720   0.012
10387TIP3    H131104   5.521   5.700   0.011
10387TIP3    H231105   5.658   5.635   0.014
10388TIP3   OH231106   3.228   1.727   6.870
10388TIP3    H131107   3.277   1.768   6.799
10388TIP3    H231108   3.273   1.756   6.949
10389TIP3   OH231109   3.748   1.853   6.871
10389TIP3    H131110   3.780   1.821   6.787
10389TIP3    H231111   3.757   1.778   6.931
10390TIP3   OH231112   3.812   1.816   6.458
10390TIP3    H131113   3.732   1.864   6.480
10390TIP3    H231114   3.798   1.729   6.494
10391TIP3   OH231115   2.725   1.744   6.366
10391TIP3    H131116   2.771   1.662   6.345
10391TIP3    H231117   2.750   1.763   6.456
10392TIP3   OH231118   3.191   1.923   6.525
10392TIP3    H131119   3.257   1.874   6.575
10392TIP3    H231120   3.203   2.014   6.552
10393TIP3   OH231121   3.070   3.312   6.027
10393TIP3    H131122   3.154   3.339   5.989
10393TIP3    H231123   3.039   3.241   5.970
10394TIP3   OH231124   3.778   3.458   6.128
10394TIP3    H131125   3.772   3.363   6.121
10394TIP3    H231126   3.735   3.491   6.048
10395TIP3   OH231127   5.882   5.881   1.128
10395TIP3    H131128   5.961   5.917   1.169
10395TIP3    H231129   5.913   5.839   1.048
10396TIP3   OH231130   2.360   3.166   6.073
10396TIP3    H131131   2.349   3.220   6.152
10396TIP3    H231132   2.447   3.128   6.081
10397TIP3   OH231133   6.906   6.006   0.793
10397TIP3    H131134   6.928   6.006   0.886
10397TIP3    H231135   6.989   6.020   0.748
10398TIP3   OH231136   6.837   7.620   0.350
10398TIP3    H131137   6.758   7.608   0.297
10398TIP3    H231138   6.856   7.714   0.343
10399TIP3   OH231139   5.267   2.985   6.050
10399TIP3    H131140   5.234   3.072   6.027
10399TIP3    H231141   5.197   2.925   6.024
10400TIP3   OH231142   5.263   2.975   6.479
10400TIP3    H131143   5.318   2.957   6.556
10400TIP3    H231144   5.220   2.892   6.461
10401TIP3   OH231145   4.555   2.834   6.797
10401TIP3    H131146   4.588   2.788   6.874
10401TIP3    H231147   4.633   2.856   6.746
10402TIP3   OH231148   5.537   3.282   6.150
10402TIP3    H131149   5.521   3.216   6.217
10402TIP3    H231150   5.554   3.362   6.199
10403TIP3   OH231151   4.237   2.533   6.318
10403TIP3    H131152   4.170   2.478   6.278
10403TIP3    H231153   4.314   2.477   6.326
10404TIP3   OH231154   4.372   2.738   6.440
10404TIP3    H131155   4.401   2.683   6.513
10404TIP3    H231156   4.318   2.681   6.386
10405TIP3   OH231157   5.191   3.707   6.161
10405TIP3    H131158   5.216   3.643   6.095
10405TIP3    H231159   5.193   3.659   6.244
10406TIP3   OH231160   5.075   3.199   6.482
10406TIP3    H131161   5.120   3.119   6.456
10406TIP3    H231162   5.145   3.256   6.514
10407TIP3   OH231163   6.111   2.513   6.501
10407TIP3    H131164   6.125   2.598   6.543
10407TIP3    H231165   6.126   2.530   6.408
10408TIP3   OH231166   5.479   2.683   6.516
10408TIP3    H131167   5.509   2.597   6.545
10408TIP3    H231168   5.441   2.668   6.429
10409TIP3   OH231169   4.822   2.344   6.463
10409TIP3    H131170   4.808   2.420   6.407
10409TIP3    H231171   4.749   2.285   6.444
10410TIP3   OH231172   5.530   2.444   6.113
10410TIP3    H131173   5.593   2.437   6.184
10410TIP3    H231174   5.581   2.478   6.039
10411TIP3   OH231175   4.452   2.548   6.615
10411TIP3    H131176   4.538   2.533   6.654
10411TIP3    H231177   4.449   2.489   6.540
10412TIP3   OH231178   4.886   2.763   6.424
10412TIP3    H131179   4.980   2.746   6.431
10412TIP3    H231180   4.850   2.681   6.390
10413TIP3   OH231181   6.160   2.738   6.662
10413TIP3    H131182   6.071   2.771   6.656
10413TIP3    H231183   6.193   2.772   6.745
10414TIP3   OH231184   4.813   2.350   6.924
10414TIP3    H131185   4.762   2.379   6.849
10414TIP3    H231186   4.757   2.368   7.000
10415TIP3   OH231187   5.148   3.199   5.923
10415TIP3    H131188   5.111   3.173   5.839
10415TIP3    H231189   5.100   3.278   5.947
10416TIP3   OH231190   4.908   3.124   6.689
10416TIP3    H131191   4.854   3.195   6.724
10416TIP3    H231192   4.958   3.164   6.619
10417TIP3   OH231193   5.686   2.465   6.337
10417TIP3    H131194   5.643   2.442   6.419
10417TIP3    H231195   5.741   2.540   6.358
10418TIP3   OH231196   4.701   2.450   6.694
10418TIP3    H131197   4.759   2.523   6.713
10418TIP3    H231198   4.739   2.409   6.616
10419TIP3   OH231199   4.751   3.325   6.797
10419TIP3    H131200   4.740   3.416   6.769
10419TIP3    H231201   4.675   3.307   6.852
10420TIP3   OH231202   4.131   3.023   6.058
10420TIP3    H131203   4.096   3.042   5.971
10420TIP3    H231204   4.152   3.109   6.094
10421TIP3   OH231205   5.567   3.528   6.292
10421TIP3    H131206   5.480   3.521   6.331
10421TIP3    H231207   5.566   3.612   6.245
10422TIP3   OH231208   5.905   2.409   6.668
10422TIP3    H131209   5.821   2.428   6.627
10422TIP3    H231210   5.970   2.435   6.602
10423TIP3   OH231211   5.158   2.042   6.661
10423TIP3    H131212   5.148   1.949   6.682
10423TIP3    H231213   5.081   2.084   6.699
10424TIP3   OH231214   5.274   3.556   5.943
10424TIP3    H131215   5.326   3.477   5.933
10424TIP3    H231216   5.333   3.627   5.918
10425TIP3   OH231217   5.430   3.338   5.901
10425TIP3    H131218   5.386   3.258   5.873
10425TIP3    H231219   5.474   3.314   5.982
10426TIP3   OH231220   5.806   3.415   6.635
10426TIP3    H131221   5.786   3.341   6.578
10426TIP3    H231222   5.790   3.492   6.581
10427TIP3   OH231223   5.091   2.823   5.905
10427TIP3    H131224   5.007   2.866   5.886
10427TIP3    H231225   5.136   2.820   5.821
10428TIP3   OH231226   5.063   2.627   5.589
10428TIP3    H131227   5.128   2.675   5.641
10428TIP3    H231228   5.113   2.559   5.544
10429TIP3   OH231229   5.981   3.079   6.500
10429TIP3    H131230   5.896   3.123   6.498
10429TIP3    H231231   6.016   3.092   6.412
10430TIP3   OH231232   5.451   2.910   5.863
10430TIP3    H131233   5.397   2.938   5.937
10430TIP3    H231234   5.534   2.884   5.904
10431TIP3   OH231235   5.681   2.939   6.812
10431TIP3    H131236   5.676   3.022   6.859
10431TIP3    H231237   5.600   2.934   6.762
10432TIP3   OH231238   4.684   2.877   6.282
10432TIP3    H131239   4.677   2.815   6.209
10432TIP3    H231240   4.762   2.848   6.330
10433TIP3   OH231241   4.838   3.334   6.388
10433TIP3    H131242   4.813   3.294   6.305
10433TIP3    H231243   4.920   3.290   6.412
10434TIP3   OH231244   4.781   2.886   6.646
10434TIP3    H131245   4.821   2.851   6.567
10434TIP3    H231246   4.828   2.967   6.663
10435TIP3   OH231247   5.330   3.524   6.423
10435TIP3    H131248   5.316   3.604   6.472
10435TIP3    H231249   5.315   3.454   6.487
10436TIP3   OH231250   7.784   7.425   0.028
10436TIP3    H131251   7.723   7.483   0.073
10436TIP3    H231252   7.728   7.374  -0.031
10437TIP3   OH231253   5.281   2.769   5.698
10437TIP3    H131254   5.340   2.827   5.746
10437TIP3    H231255   5.310   2.774   5.607
10438TIP3   OH231256   7.537   6.973   0.168
10438TIP3    H131257   7.544   7.066   0.192
10438TIP3    H231258   7.443   6.958   0.160
10439TIP3   OH231259   5.020   3.447   5.957
10439TIP3    H131260   5.106   3.490   5.960
10439TIP3    H231261   4.966   3.505   5.905
10440TIP3   OH231262   7.574   7.584   0.110
10440TIP3    H131263   7.547   7.598   0.019
10440TIP3    H231264   7.493   7.566   0.156
10441TIP3   OH231265   5.794   1.997   5.760
10441TIP3    H131266   5.717   2.017   5.814
10441TIP3    H231267   5.803   2.073   5.702
10442TIP3   OH231268   4.470   2.753   6.168
10442TIP3    H131269   4.424   2.783   6.090
10442TIP3    H231270   4.476   2.658   6.157
10443TIP3   OH231271   5.619   3.374   5.312
10443TIP3    H131272   5.611   3.467   5.289
10443TIP3    H231273   5.708   3.351   5.288
10444TIP3   OH231274   7.171   7.147   0.061
10444TIP3    H131275   7.099   7.130  -0.000
10444TIP3    H231276   7.204   7.061   0.083
10445TIP3   OH231277   4.167   3.344   6.668
10445TIP3    H131278   4.249   3.377   6.705
10445TIP3    H231279   4.105   3.416   6.679
10446TIP3   OH231280   6.034   3.787   6.704
10446TIP3    H131281   6.040   3.692   6.714
10446TIP3    H231282   5.955   3.811   6.751
10447TIP3   OH231283   5.139   3.565   6.832
10447TIP3    H131284   5.130   3.656   6.861
10447TIP3    H231285   5.071   3.518   6.879
10448TIP3   OH231286   4.918   3.663   5.784
10448TIP3    H131287   4.875   3.641   5.701
10448TIP3    H231288   4.879   3.746   5.810
10449TIP3   OH231289   4.356   3.527   6.179
10449TIP3    H131290   4.409   3.519   6.259
10449TIP3    H231291   4.305   3.447   6.176
10450TIP3   OH231292   5.124   3.595   5.414
10450TIP3    H131293   5.175   3.521   5.380
10450TIP3    H231294   5.158   3.608   5.503
10451TIP3   OH231295   5.173   3.643   5.683
10451TIP3    H131296   5.086   3.646   5.722
10451TIP3    H231297   5.229   3.605   5.752
10452TIP3   OH231298   0.259   6.897   0.026
10452TIP3    H131299   0.175   6.908  -0.019
10452TIP3    H231300   0.276   6.803   0.024
10453TIP3   OH231301   7.366   7.335   0.022
10453TIP3    H131302   7.409   7.339   0.108
10453TIP3    H231303   7.295   7.272   0.035
10454TIP3   OH231304   4.922   2.135   6.784
10454TIP3    H131305   4.837   2.100   6.754
10454TIP3    H231306   4.899   2.216   6.829
10455TIP3   OH231307   8.294   6.263   0.042
10455TIP3    H131308   8.360   6.237   0.106
10455TIP3    H231309   8.211   6.246   0.086
10456TIP3   OH231310   5.683   2.675   6.906
10456TIP3    H131311   5.642   2.671   6.992
10456TIP3    H231312   5.665   2.764   6.875
10457TIP3   OH231313   5.362   2.755   5.438
10457TIP3    H131314   5.313   2.757   5.355
10457TIP3    H231315   5.445   2.800   5.417
10458TIP3   OH231316   5.065   2.173   5.765
10458TIP3    H131317   5.018   2.184   5.848
10458TIP3    H231318   5.030   2.091   5.729
10459TIP3   OH231319   4.853   2.661   6.789
10459TIP3    H131320   4.804   2.667   6.871
10459TIP3    H231321   4.834   2.743   6.743
10460TIP3   OH231322   4.743   2.560   6.306
10460TIP3    H131323   4.663   2.511   6.323
10460TIP3    H231324   4.757   2.549   6.212
10461TIP3   OH231325   5.218   2.620   6.043
10461TIP3    H131326   5.168   2.692   6.002
10461TIP3    H231327   5.274   2.587   5.973
10462TIP3   OH231328   8.232   6.888   0.175
10462TIP3    H131329   8.206   6.819   0.236
10462TIP3    H231330   8.324   6.904   0.194
10463TIP3   OH231331   5.386   2.631   6.264
10463TIP3    H131332   5.318   2.652   6.200
10463TIP3    H231333   5.432   2.557   6.225
10464TIP3   OH231334   7.517   6.691   0.063
10464TIP3    H131335   7.529   6.758   0.131
10464TIP3    H231336   7.503   6.610   0.112
10465TIP3   OH231337   4.736   2.157   5.738
10465TIP3    H131338   4.723   2.159   5.832
10465TIP3    H231339   4.657   2.198   5.702
10466TIP3   OH231340   4.320   2.207   6.573
10466TIP3    H131341   4.375   2.236   6.646
10466TIP3    H231342   4.367   2.235   6.495
10467TIP3   OH231343   4.190   2.175   6.107
10467TIP3    H131344   4.236   2.210   6.031
10467TIP3    H231345   4.134   2.247   6.136
10468TIP3   OH231346   5.431   2.885   6.690
10468TIP3    H131347   5.455   2.818   6.626
10468TIP3    H231348   5.385   2.837   6.759
10469TIP3   OH231349   5.097   2.327   6.366
10469TIP3    H131350   5.015   2.324   6.417
10469TIP3    H231351   5.166   2.319   6.432
10470TIP3   OH231352   4.775   2.525   6.039
10470TIP3    H131353   4.861   2.484   6.035
10470TIP3    H231354   4.727   2.487   5.966
10471TIP3   OH231355   5.545   2.421   6.577
10471TIP3    H131356   5.526   2.439   6.669
10471TIP3    H231357   5.477   2.359   6.551
10472TIP3   OH231358   4.630   2.454   5.815
10472TIP3    H131359   4.569   2.395   5.771
10472TIP3    H231360   4.685   2.488   5.744
10473TIP3   OH231361   5.747   4.125   6.794
10473TIP3    H131362   5.744   4.142   6.700
10473TIP3    H231363   5.826   4.171   6.824
10474TIP3   OH231364   7.527   7.240   0.264
10474TIP3    H131365   7.606   7.259   0.314
10474TIP3    H231366   7.455   7.257   0.325
10475TIP3   OH231367   5.153   2.706   6.472
10475TIP3    H131368   5.216   2.654   6.424
10475TIP3    H231369   5.148   2.665   6.558
10476TIP3   OH231370   5.120   2.609   6.734
10476TIP3    H131371   5.032   2.638   6.757
10476TIP3    H231372   5.178   2.662   6.788
10477TIP3   OH231373   4.847   2.955   5.850
10477TIP3    H131374   4.778   2.892   5.830
10477TIP3    H231375   4.821   2.993   5.934
10478TIP3   OH231376   5.745   3.215   6.455
10478TIP3    H131377   5.780   3.264   6.381
10478TIP3    H231378   5.666   3.173   6.421
10479TIP3   OH231379   5.318   2.274   5.759
10479TIP3    H131380   5.225   2.251   5.759
10479TIP3    H231381   5.320   2.369   5.771
10480TIP3   OH231382   5.267   3.300   6.871
10480TIP3    H131383   5.314   3.289   6.953
10480TIP3    H231384   5.224   3.385   6.879
10481TIP3   OH231385   5.378   2.539   5.827
10481TIP3    H131386   5.473   2.543   5.836
10481TIP3    H231387   5.356   2.616   5.774
10482TIP3   OH231388   4.526   2.988   6.486
10482TIP3    H131389   4.618   3.014   6.486
10482TIP3    H231390   4.496   3.007   6.575
10483TIP3   OH231391   5.004   3.116   5.695
10483TIP3    H131392   4.956   3.199   5.691
10483TIP3    H231393   4.947   3.058   5.746
10484TIP3   OH231394   7.265   6.909   0.175
10484TIP3    H131395   7.260   6.882   0.266
10484TIP3    H231396   7.190   6.867   0.133
10485TIP3   OH231397   8.002   7.045   0.216
10485TIP3    H131398   7.931   6.985   0.190
10485TIP3    H231399   8.082   7.001   0.186
10486TIP3   OH231400   5.410   3.588   6.756
10486TIP3    H131401   5.315   3.573   6.760
10486TIP3    H231402   5.432   3.623   6.842
10487TIP3   OH231403   5.795   2.627   5.641
10487TIP3    H131404   5.738   2.582   5.579
10487TIP3    H231405   5.800   2.717   5.608
10488TIP3   OH231406   6.050   3.509   6.722
10488TIP3    H131407   5.956   3.489   6.720
10488TIP3    H231408   6.084   3.475   6.639
10489TIP3   OH231409   5.543   3.445   5.578
10489TIP3    H131410   5.512   3.376   5.636
10489TIP3    H231411   5.559   3.401   5.494
10490TIP3   OH231412   5.517   3.078   6.352
10490TIP3    H131413   5.427   3.057   6.377
10490TIP3    H231414   5.551   2.997   6.314
10491TIP3   OH231415   4.656   3.309   6.143
10491TIP3    H131416   4.688   3.393   6.111
10491TIP3    H231417   4.564   3.307   6.117
10492TIP3   OH231418   4.230   2.595   5.881
10492TIP3    H131419   4.274   2.679   5.900
10492TIP3    H231420   4.149   2.599   5.932
10493TIP3   OH231421   4.750   3.060   6.080
10493TIP3    H131422   4.725   3.150   6.099
10493TIP3    H231423   4.732   3.012   6.161
10494TIP3   OH231424   4.959   3.644   6.624
10494TIP3    H131425   4.995   3.719   6.576
10494TIP3    H231426   5.032   3.611   6.675
10495TIP3   OH231427   4.573   3.550   6.010
10495TIP3    H131428   4.491   3.556   6.059
10495TIP3    H231429   4.612   3.638   6.017
10496TIP3   OH231430   5.307   3.303   6.598
10496TIP3    H131431   5.294   3.300   6.692
10496TIP3    H231432   5.385   3.249   6.582
10497TIP3   OH231433   5.307   3.181   5.464
10497TIP3    H131434   5.351   3.158   5.545
10497TIP3    H231435   5.223   3.134   5.468
10498TIP3   OH231436   5.563   3.796   6.636
10498TIP3    H131437   5.493   3.734   6.656
10498TIP3    H231438   5.528   3.850   6.565
10499TIP3   OH231439   5.608   3.647   5.262
10499TIP3    H131440   5.609   3.700   5.182
10499TIP3    H231441   5.541   3.688   5.317
10500TIP3   OH231442   7.476   6.437   0.188
10500TIP3    H131443   7.381   6.444   0.195
10500TIP3    H231444   7.501   6.384   0.264
10501TIP3   OH231445   5.472   3.111   5.674
10501TIP3    H131446   5.458   3.044   5.741
10501TIP3    H231447   5.567   3.115   5.662
10502TIP3   OH231448   4.375   3.495   6.782
10502TIP3    H131449   4.433   3.444   6.839
10502TIP3    H231450   4.366   3.579   6.825
10503TIP3   OH231451   4.654   3.141   5.476
10503TIP3    H131452   4.662   3.050   5.449
10503TIP3    H231453   4.636   3.137   5.570
10504TIP3   OH231454   4.594   3.161   5.748
10504TIP3    H131455   4.668   3.136   5.804
10504TIP3    H231456   4.591   3.256   5.752
10505TIP3   OH231457   4.323   2.849   5.958
10505TIP3    H131458   4.253   2.897   6.003
10505TIP3    H231459   4.346   2.904   5.884
10506TIP3   OH231460   5.489   2.488   6.838
10506TIP3    H131461   5.567   2.532   6.871
10506TIP3    H231462   5.480   2.410   6.892
10507TIP3   OH231463   5.381   2.225   6.026
10507TIP3    H131464   5.359   2.243   5.935
10507TIP3    H231465   5.424   2.305   6.056
10508TIP3   OH231466   4.860   3.346   5.691
10508TIP3    H131467   4.776   3.373   5.727
10508TIP3    H231468   4.884   3.417   5.631
10509TIP3   OH231469   5.038   2.422   6.112
10509TIP3    H131470   5.100   2.491   6.089
10509TIP3    H231471   5.057   2.402   6.203
10510TIP3   OH231472   5.327   2.721   6.885
10510TIP3    H131473   5.350   2.762   6.969
10510TIP3    H231474   5.376   2.639   6.884
10511TIP3   OH231475   5.188   2.121   6.197
10511TIP3    H131476   5.164   2.198   6.248
10511TIP3    H231477   5.256   2.152   6.137
10512TIP3   OH231478   4.610   3.434   5.766
10512TIP3    H131479   4.592   3.503   5.702
10512TIP3    H231480   4.595   3.475   5.851
10513TIP3   OH231481   4.680   2.144   6.009
10513TIP3    H131482   4.642   2.194   6.081
10513TIP3    H231483   4.774   2.148   6.026
10514TIP3   OH231484   5.944   2.610   6.878
10514TIP3    H131485   5.851   2.624   6.893
10514TIP3    H231486   5.948   2.548   6.805
10515TIP3   OH231487   5.609   2.819   6.264
10515TIP3    H131488   5.532   2.764   6.274
10515TIP3    H231489   5.675   2.779   6.321
10516TIP3   OH231490   4.350   3.025   5.743
10516TIP3    H131491   4.420   3.090   5.749
10516TIP3    H231492   4.382   2.962   5.679
10517TIP3   OH231493   4.258   2.317   5.880
10517TIP3    H131494   4.271   2.412   5.887
10517TIP3    H231495   4.189   2.307   5.815
10518TIP3   OH231496   5.588   3.795   6.208
10518TIP3    H131497   5.545   3.847   6.140
10518TIP3    H231498   5.682   3.807   6.193
10519TIP3   OH231499   4.657   2.054   6.765
10519TIP3    H131500   4.627   2.021   6.680
10519TIP3    H231501   4.651   1.979   6.823
10520TIP3   OH231502   4.189   3.289   6.155
10520TIP3    H131503   4.148   3.325   6.233
10520TIP3    H231504   4.146   3.333   6.082
10521TIP3   OH231505   7.186   7.860   0.187
10521TIP3    H131506   7.252   7.841   0.254
10521TIP3    H231507   7.105   7.872   0.236
10522TIP3   OH231508   7.672   7.744   0.311
10522TIP3    H131509   7.765   7.721   0.319
10522TIP3    H231510   7.641   7.692   0.237
10523TIP3   OH231511   4.808   3.345   5.372
10523TIP3    H131512   4.760   3.274   5.413
10523TIP3    H231513   4.881   3.303   5.327
10524TIP3   OH231514   8.299   7.690   0.067
10524TIP3    H131515   8.314   7.621   0.131
10524TIP3    H231516   8.372   7.751   0.079
10525TIP3   OH231517   5.251   3.386   5.291
10525TIP3    H131518   5.286   3.320   5.352
10525TIP3    H231519   5.305   3.377   5.213
10526TIP3   OH231520   7.315   7.248   0.453
10526TIP3    H131521   7.344   7.157   0.460
10526TIP3    H231522   7.229   7.243   0.412
10527TIP3   OH231523   4.475   2.832   5.597
10527TIP3    H131524   4.528   2.804   5.672
10527TIP3    H231525   4.539   2.846   5.527
10528TIP3   OH231526   7.939   7.322   0.232
10528TIP3    H131527   7.892   7.343   0.151
10528TIP3    H231528   7.971   7.233   0.218
10529TIP3   OH231529   5.058   3.058   5.432
10529TIP3    H131530   5.030   3.069   5.523
10529TIP3    H231531   5.036   2.967   5.411
10530TIP3   OH231532   5.580   3.363   6.789
10530TIP3    H131533   5.657   3.391   6.740
10530TIP3    H231534   5.515   3.431   6.773
10531TIP3   OH231535   7.426   6.999   0.456
10531TIP3    H131536   7.494   6.954   0.406
10531TIP3    H231537   7.466   7.013   0.543
10532TIP3   OH231538   4.656   2.759   5.803
10532TIP3    H131539   4.631   2.699   5.873
10532TIP3    H231540   4.708   2.705   5.743
10533TIP3   OH231541   7.796   6.869   0.121
10533TIP3    H131542   7.710   6.909   0.131
10533TIP3    H231543   7.825   6.897   0.034
10534TIP3   OH231544   4.791   2.591   5.635
10534TIP3    H131545   4.762   2.594   5.544
10534TIP3    H231546   4.887   2.598   5.630
10535TIP3   OH231547   8.293   7.244   0.199
10535TIP3    H131548   8.360   7.204   0.144
10535TIP3    H231549   8.289   7.187   0.276
10536TIP3   OH231550   5.583   2.882   5.325
10536TIP3    H131551   5.568   2.841   5.239
10536TIP3    H231552   5.560   2.974   5.312
10537TIP3   OH231553   7.900   6.635   0.222
10537TIP3    H131554   7.901   6.566   0.156
10537TIP3    H231555   7.864   6.711   0.177
10538TIP3   OH231556   5.073   2.432   6.957
10538TIP3    H131557   5.098   2.471   6.873
10538TIP3    H231558   4.981   2.408   6.945
10539TIP3   OH231559   5.073   2.957   6.832
10539TIP3    H131560   5.162   2.991   6.822
10539TIP3    H231561   5.019   3.018   6.783
10540TIP3   OH231562   0.000   6.927   0.271
10540TIP3    H131563   0.042   6.841   0.274
10540TIP3    H231564   0.073   6.988   0.261
10541TIP3   OH231565   5.698   3.183   6.955
10541TIP3    H131566   5.645   3.245   6.905
10541TIP3    H231567   5.787   3.197   6.924
10542TIP3   OH231568   7.797   6.724   0.470
10542TIP3    H131569   7.710   6.690   0.490
10542TIP3    H231570   7.814   6.692   0.381
10543TIP3   OH231571   8.028   6.207   0.110
10543TIP3    H131572   7.986   6.287   0.079
10543TIP3    H231573   7.961   6.140   0.101
10544TIP3   OH231574   8.153   6.674   0.329
10544TIP3    H131575   8.139   6.663   0.423
10544TIP3    H231576   8.068   6.654   0.290
10545TIP3   OH231577   8.401   6.638   0.205
10545TIP3    H131578   8.321   6.634   0.258
10545TIP3    H231579   8.471   6.609   0.264
10546TIP3   OH231580   0.139   6.596   0.348
10546TIP3    H131581   0.151   6.501   0.356
10546TIP3    H231582   0.134   6.627   0.438
10547TIP3   OH231583   7.608   6.504   0.512
10547TIP3    H131584   7.615   6.416   0.473
10547TIP3    H231585   7.663   6.500   0.589
10548TIP3   OH231586   8.110   6.199   0.368
10548TIP3    H131587   8.173   6.127   0.369
10548TIP3    H231588   8.079   6.203   0.278
10549TIP3   OH231589   8.194   6.397   0.542
10549TIP3    H131590   8.168   6.330   0.478
10549TIP3    H231591   8.123   6.460   0.541
10550TIP3   OH231592   4.612   3.641   5.583
10550TIP3    H131593   4.701   3.623   5.555
10550TIP3    H231594   4.571   3.685   5.508
10551TIP3   OH231595   4.077   3.020   5.773
10551TIP3    H131596   4.172   3.033   5.762
10551TIP3    H231597   4.059   2.937   5.730
10552TIP3   OH231598   3.984   3.609   6.227
10552TIP3    H131599   3.920   3.555   6.182
10552TIP3    H231600   4.030   3.548   6.285
10553TIP3   OH231601   4.135   3.439   6.393
10553TIP3    H131602   4.123   3.378   6.465
10553TIP3    H231603   4.187   3.510   6.430
10554TIP3   OH231604   5.860   3.845   6.202
10554TIP3    H131605   5.877   3.869   6.293
10554TIP3    H231606   5.909   3.909   6.151
10555TIP3   OH231607   5.877   3.875   6.480
10555TIP3    H131608   5.829   3.792   6.477
10555TIP3    H231609   5.946   3.860   6.545
10556TIP3   OH231610   0.269   7.584   0.110
10556TIP3    H131611   0.196   7.593   0.170
10556TIP3    H231612   0.315   7.668   0.114
10557TIP3   OH231613   5.751   3.094   5.659
10557TIP3    H131614   5.809   3.165   5.628
10557TIP3    H231615   5.797   3.056   5.733
10558TIP3   OH231616   5.881   2.951   5.859
10558TIP3    H131617   5.813   2.912   5.915
10558TIP3    H231618   5.945   2.986   5.921
10559TIP3   OH231619   5.930   3.355   6.297
10559TIP3    H131620   5.981   3.287   6.252
10559TIP3    H231621   5.930   3.428   6.236
10560TIP3   OH231622   5.735   3.636   6.487
10560TIP3    H131623   5.668   3.681   6.538
10560TIP3    H231624   5.687   3.596   6.415
10561TIP3   OH231625   5.790   2.868   5.506
10561TIP3    H131626   5.719   2.866   5.441
10561TIP3    H231627   5.772   2.946   5.558
10562TIP3   OH231628   5.645   2.514   5.442
10562TIP3    H131629   5.598   2.552   5.368
10562TIP3    H231630   5.635   2.420   5.432
10563TIP3   OH231631   5.678   2.811   5.995
10563TIP3    H131632   5.681   2.717   5.980
10563TIP3    H231633   5.659   2.820   6.088
10564TIP3   OH231634   4.295   2.880   6.732
10564TIP3    H131635   4.284   2.834   6.649
10564TIP3    H231636   4.387   2.865   6.756
10565TIP3   OH231637   5.955   3.226   6.858
10565TIP3    H131638   6.023   3.162   6.841
10565TIP3    H231639   5.959   3.286   6.783
10566TIP3   OH231640   6.137   3.018   6.849
10566TIP3    H131641   6.062   2.975   6.891
10566TIP3    H231642   6.211   2.962   6.871
10567TIP3   OH231643   5.604   2.243   5.416
10567TIP3    H131644   5.668   2.216   5.482
10567TIP3    H231645   5.521   2.207   5.447
10568TIP3   OH231646   5.672   2.535   5.883
10568TIP3    H131647   5.717   2.452   5.895
10568TIP3    H231648   5.713   2.573   5.805
10569TIP3   OH231649   5.824   2.696   6.408
10569TIP3    H131650   5.905   2.713   6.359
10569TIP3    H231651   5.838   2.738   6.493
10570TIP3   OH231652   5.899   2.849   6.633
10570TIP3    H131653   5.827   2.877   6.689
10570TIP3    H231654   5.929   2.930   6.590
10571TIP3   OH231655   7.346   6.563   0.462
10571TIP3    H131656   7.440   6.568   0.479
10571TIP3    H231657   7.319   6.480   0.502
10572TIP3   OH231658   0.695   6.457   0.232
10572TIP3    H131659   0.756   6.397   0.189
10572TIP3    H231660   0.654   6.506   0.160
10573TIP3   OH231661   5.788   2.285   5.934
10573TIP3    H131662   5.832   2.270   6.018
10573TIP3    H231663   5.725   2.214   5.927
10574TIP3   OH231664   4.494   2.275   6.784
10574TIP3    H131665   4.545   2.194   6.786
10574TIP3    H231666   4.553   2.341   6.750
10575TIP3   OH231667   4.271   2.535   6.823
10575TIP3    H131668   4.321   2.526   6.742
10575TIP3    H231669   4.321   2.597   6.876
10576TIP3   OH231670   0.543   6.569   0.034
10576TIP3    H131671   0.461   6.608   0.063
10576TIP3    H231672   0.517   6.496  -0.022
10577TIP3   OH231673   5.833   2.195   5.572
10577TIP3    H131674   5.881   2.135   5.516
10577TIP3    H231675   5.886   2.274   5.575
10578TIP3   OH231676   4.249   1.988   6.299
10578TIP3    H131677   4.180   2.004   6.363
10578TIP3    H231678   4.248   2.065   6.243
10579TIP3   OH231679   5.423   3.758   5.845
10579TIP3    H131680   5.478   3.748   5.768
10579TIP3    H231681   5.462   3.830   5.894
10580TIP3   OH231682   7.337   6.112   0.184
10580TIP3    H131683   7.283   6.106   0.264
10580TIP3    H231684   7.282   6.160   0.122
10581TIP3   OH231685   7.356   7.537   0.272
10581TIP3    H131686   7.261   7.531   0.267
10581TIP3    H231687   7.374   7.556   0.364
10582TIP3   OH231688   4.728   3.599   6.767
10582TIP3    H131689   4.674   3.674   6.741
10582TIP3    H231690   4.812   3.614   6.722
10583TIP3   OH231691   5.123   3.832   6.908
10583TIP3    H131692   5.160   3.825   6.997
10583TIP3    H231693   5.185   3.887   6.861
10584TIP3   OH231694   5.314   3.989   6.784
10584TIP3    H131695   5.375   3.937   6.733
10584TIP3    H231696   5.369   4.046   6.838
10585TIP3   OH231697   6.126   2.313   6.865
10585TIP3    H131698   6.039   2.308   6.827
10585TIP3    H231699   6.159   2.223   6.862
10586TIP3   OH231700   4.374   3.790   6.835
10586TIP3    H131701   4.289   3.823   6.805
10586TIP3    H231702   4.374   3.807   6.929
10587TIP3   OH231703   4.608   3.832   6.680
10587TIP3    H131704   4.525   3.827   6.728
10587TIP3    H231705   4.582   3.858   6.592
10588TIP3   OH231706   5.034   3.856   6.460
10588TIP3    H131707   4.962   3.867   6.398
10588TIP3    H231708   5.043   3.941   6.502
10589TIP3   OH231709   5.295   3.785   6.509
10589TIP3    H131710   5.204   3.806   6.489
10589TIP3    H231711   5.346   3.852   6.462
10590TIP3   OH231712   5.497   3.956   6.412
10590TIP3    H131713   5.494   4.043   6.372
10590TIP3    H231714   5.527   3.899   6.341
10591TIP3   OH231715   4.314   3.618   6.522
10591TIP3    H131716   4.320   3.593   6.614
10591TIP3    H231717   4.393   3.582   6.482
10592TIP3   OH231718   4.530   3.504   6.397
10592TIP3    H131719   4.561   3.416   6.422
10592TIP3    H231720   4.609   3.558   6.396
10593TIP3   OH231721   4.789   3.605   6.408
10593TIP3    H131722   4.811   3.514   6.387
10593TIP3    H231723   4.838   3.624   6.487
10594TIP3   OH231724   5.326   2.240   6.513
10594TIP3    H131725   5.285   2.169   6.562
10594TIP3    H231726   5.394   2.197   6.461
10595TIP3   OH231727   5.827   2.160   6.398
10595TIP3    H131728   5.861   2.209   6.323
10595TIP3    H231729   5.733   2.176   6.395
10596TIP3   OH231730   5.943   2.231   6.158
10596TIP3    H131731   6.013   2.171   6.131
10596TIP3    H231732   5.981   2.318   6.146
10597TIP3   OH231733   4.567   1.925   6.547
10597TIP3    H131734   4.476   1.900   6.534
10597TIP3    H231735   4.618   1.851   6.513
10598TIP3   OH231736   4.372   1.812   6.126
10598TIP3    H131737   4.404   1.868   6.056
10598TIP3    H231738   4.334   1.872   6.190
10599TIP3   OH231739   5.052   1.976   6.397
10599TIP3    H131740   5.095   2.024   6.327
10599TIP3    H231741   5.089   2.013   6.478
10600TIP3   OH231742   5.541   2.125   6.378
10600TIP3    H131743   5.543   2.092   6.289
10600TIP3    H231744   5.548   2.047   6.434
10601TIP3   OH231745   5.602   2.075   5.943
10601TIP3    H131746   5.522   2.122   5.967
10601TIP3    H231747   5.592   1.988   5.981
10602TIP3   OH231748   4.069   3.416   5.945
10602TIP3    H131749   3.986   3.381   5.914
10602TIP3    H231750   4.076   3.503   5.906
10603TIP3   OH231751   4.486   1.967   5.912
10603TIP3    H131752   4.537   1.911   5.853
10603TIP3    H231753   4.550   2.027   5.949
10604TIP3   OH231754   4.956   2.178   6.023
10604TIP3    H131755   5.013   2.118   6.072
10604TIP3    H231756   4.983   2.265   6.051
10605TIP3   OH231757   4.868   3.568   5.515
10605TIP3    H131758   4.952   3.596   5.477
10605TIP3    H231759   4.838   3.498   5.458
10606TIP3   OH231760   5.574   3.714   5.615
10606TIP3    H131761   5.567   3.619   5.608
10606TIP3    H231762   5.528   3.747   5.538
10607TIP3   OH231763   7.628   6.235   0.424
10607TIP3    H131764   7.605   6.165   0.484
10607TIP3    H231765   7.721   6.251   0.440
10608TIP3   OH231766   7.885   6.279   0.505
10608TIP3    H131767   7.960   6.259   0.449
10608TIP3    H231768   7.899   6.225   0.583
10609TIP3   OH231769   4.176   3.413   5.565
10609TIP3    H131770   4.181   3.430   5.659
10609TIP3    H231771   4.255   3.364   5.545
10610TIP3   OH231772   0.199   6.324   0.354
10610TIP3    H131773   0.217   6.295   0.443
10610TIP3    H231774   0.284   6.320   0.310
10611TIP3   OH231775   5.784   3.851   6.799
10611TIP3    H131776   5.709   3.821   6.748
10611TIP3    H231777   5.770   3.946   6.808
10612TIP3   OH231778   7.061   3.232   5.542
10612TIP3    H131779   7.028   3.319   5.523
10612TIP3    H231780   6.991   3.172   5.514
10613TIP3   OH231781   7.058   3.231   5.961
10613TIP3    H131782   7.112   3.214   6.038
10613TIP3    H231783   7.014   3.148   5.944
10614TIP3   OH231784   6.357   3.091   6.306
10614TIP3    H131785   6.396   3.040   6.377
10614TIP3    H231786   6.432   3.116   6.251
10615TIP3   OH231787   7.328   3.540   5.634
10615TIP3    H131788   7.315   3.474   5.701
10615TIP3    H231789   7.349   3.620   5.682
10616TIP3   OH231790   6.352   3.518   5.993
10616TIP3    H131791   6.333   3.424   6.001
10616TIP3    H231792   6.447   3.522   5.984
10617TIP3   OH231793   6.033   2.726   5.778
10617TIP3    H131794   5.993   2.809   5.802
10617TIP3    H231795   5.961   2.676   5.737
10618TIP3   OH231796   6.111   3.033   6.002
10618TIP3    H131797   6.162   2.955   6.028
10618TIP3    H231798   6.177   3.096   5.975
10619TIP3   OH231799   6.972   3.974   5.643
10619TIP3    H131800   7.002   3.914   5.575
10619TIP3    H231801   6.987   3.927   5.725
10620TIP3   OH231802   6.868   3.452   5.968
10620TIP3    H131803   6.913   3.372   5.938
10620TIP3    H231804   6.938   3.509   5.998
10621TIP3   OH231805   7.874   2.768   5.990
10621TIP3    H131806   7.887   2.855   6.026
10621TIP3    H231807   7.913   2.772   5.903
10622TIP3   OH231808   7.272   2.938   6.004
10622TIP3    H131809   7.310   2.854   6.029
10622TIP3    H231810   7.236   2.922   5.916
10623TIP3   OH231811   6.629   2.591   5.954
10623TIP3    H131812   6.609   2.668   5.901
10623TIP3    H231813   6.567   2.524   5.924
10624TIP3   OH231814   7.326   2.702   5.601
10624TIP3    H131815   7.390   2.696   5.671
10624TIP3    H231816   7.375   2.734   5.526
10625TIP3   OH231817   6.253   2.811   6.094
10625TIP3    H131818   6.336   2.793   6.136
10625TIP3    H231819   6.255   2.760   6.013
10626TIP3   OH231820   6.672   3.012   5.910
10626TIP3    H131821   6.767   2.998   5.913
10626TIP3    H231822   6.637   2.930   5.874
10627TIP3   OH231823   7.926   2.985   6.166
10627TIP3    H131824   7.848   3.037   6.147
10627TIP3    H231825   7.968   3.031   6.238
10628TIP3   OH231826   6.610   2.601   6.413
10628TIP3    H131827   6.560   2.635   6.339
10628TIP3    H231828   6.554   2.618   6.489
10629TIP3   OH231829   6.925   3.442   5.428
10629TIP3    H131830   6.902   3.425   5.336
10629TIP3    H231831   6.884   3.526   5.448
10630TIP3   OH231832   6.699   3.380   6.175
10630TIP3    H131833   6.647   3.452   6.209
10630TIP3    H231834   6.749   3.417   6.103
10631TIP3   OH231835   7.483   2.725   5.824
10631TIP3    H131836   7.445   2.703   5.909
10631TIP3    H231837   7.540   2.800   5.841
10632TIP3   OH231838   6.503   2.706   6.179
10632TIP3    H131839   6.558   2.781   6.202
10632TIP3    H231840   6.550   2.664   6.107
10633TIP3   OH231841   6.547   3.585   6.284
10633TIP3    H131842   6.532   3.675   6.254
10633TIP3    H231843   6.469   3.563   6.335
10634TIP3   OH231844   5.923   3.283   5.539
10634TIP3    H131845   5.888   3.299   5.451
10634TIP3    H231846   5.943   3.370   5.572
10635TIP3   OH231847   7.358   3.789   5.776
10635TIP3    H131848   7.270   3.781   5.813
10635TIP3    H231849   7.355   3.872   5.728
10636TIP3   OH231850   7.687   2.641   6.152
10636TIP3    H131851   7.601   2.662   6.118
10636TIP3    H231852   7.748   2.677   6.087
10637TIP3   OH231853   6.968   2.322   6.142
10637TIP3    H131854   6.933   2.282   6.063
10637TIP3    H231855   6.891   2.349   6.192
10638TIP3   OH231856   7.065   3.815   5.433
10638TIP3    H131857   7.116   3.735   5.422
10638TIP3    H231858   7.124   3.885   5.407
10639TIP3   OH231859   7.222   3.598   5.384
10639TIP3    H131860   7.226   3.520   5.328
10639TIP3    H231861   7.261   3.571   5.467
10640TIP3   OH231862   7.587   3.676   6.121
10640TIP3    H131863   7.573   3.601   6.063
10640TIP3    H231864   7.575   3.752   6.065
10641TIP3   OH231865   6.886   3.073   5.392
10641TIP3    H131866   6.805   3.120   5.374
10641TIP3    H231867   6.933   3.073   5.309
10642TIP3   OH231868   6.856   2.884   5.079
10642TIP3    H131869   6.922   2.933   5.129
10642TIP3    H231870   6.906   2.818   5.032
10643TIP3   OH231871   7.763   3.329   5.995
10643TIP3    H131872   7.682   3.380   5.991
10643TIP3    H231873   7.805   3.344   5.910
10644TIP3   OH231874   7.245   3.168   5.350
10644TIP3    H131875   7.191   3.193   5.424
10644TIP3    H231876   7.328   3.142   5.389
10645TIP3   OH231877   7.468   3.183   6.315
10645TIP3    H131878   7.466   3.271   6.353
10645TIP3    H231879   7.389   3.179   6.261
10646TIP3   OH231880   6.471   3.142   5.759
10646TIP3    H131881   6.435   3.082   5.694
10646TIP3    H231882   6.545   3.095   5.797
10647TIP3   OH231883   6.615   3.565   5.897
10647TIP3    H131884   6.591   3.550   5.806
10647TIP3    H231885   6.703   3.527   5.905
10648TIP3   OH231886   6.571   3.141   6.132
10648TIP3    H131887   6.610   3.105   6.053
10648TIP3    H231888   6.618   3.223   6.147
10649TIP3   OH231889   7.118   3.781   5.906
10649TIP3    H131890   7.112   3.860   5.960
10649TIP3    H231891   7.105   3.709   5.968
10650TIP3   OH231892   6.744   3.676   6.458
10650TIP3    H131893   6.683   3.733   6.504
10650TIP3    H231894   6.689   3.626   6.397
10651TIP3   OH231895   7.076   3.025   5.185
10651TIP3    H131896   7.136   3.083   5.232
10651TIP3    H231897   7.105   3.030   5.094
10652TIP3   OH231898   6.496   3.220   6.603
10652TIP3    H131899   6.501   3.314   6.619
10652TIP3    H231900   6.403   3.202   6.596
10653TIP3   OH231901   6.814   3.699   5.446
10653TIP3    H131902   6.900   3.742   5.449
10653TIP3    H231903   6.762   3.754   5.388
10654TIP3   OH231904   6.534   3.834   6.542
10654TIP3    H131905   6.508   3.848   6.451
10654TIP3    H231906   6.452   3.821   6.589
10655TIP3   OH231907   7.588   2.257   5.243
10655TIP3    H131908   7.512   2.279   5.297
10655TIP3    H231909   7.599   2.333   5.186
10656TIP3   OH231910   6.346   2.985   5.558
10656TIP3    H131911   6.270   3.035   5.528
10656TIP3    H231912   6.313   2.896   5.570
10657TIP3   OH231913   7.389   3.637   4.794
10657TIP3    H131914   7.391   3.730   4.773
10657TIP3    H231915   7.476   3.605   4.770
10658TIP3   OH231916   6.131   3.392   6.490
10658TIP3    H131917   6.061   3.375   6.427
10658TIP3    H231918   6.164   3.305   6.513
10659TIP3   OH231919   5.971   3.592   6.147
10659TIP3    H131920   6.061   3.618   6.169
10659TIP3    H231921   5.918   3.668   6.172
10660TIP3   OH231922   7.829   4.023   6.195
10660TIP3    H131923   7.831   3.929   6.211
10660TIP3    H231924   7.749   4.053   6.240
10661TIP3   OH231925   6.933   3.820   6.322
10661TIP3    H131926   6.925   3.912   6.349
10661TIP3    H231927   6.866   3.774   6.372
10662TIP3   OH231928   6.706   3.915   5.265
10662TIP3    H131929   6.672   3.891   5.179
10662TIP3    H231930   6.682   4.008   5.275
10663TIP3   OH231931   6.146   3.768   5.650
10663TIP3    H131932   6.187   3.761   5.737
10663TIP3    H231933   6.091   3.691   5.643
10664TIP3   OH231934   6.916   3.853   4.898
10664TIP3    H131935   6.966   3.779   4.863
10664TIP3    H231936   6.952   3.867   4.985
10665TIP3   OH231937   6.965   3.899   5.168
10665TIP3    H131938   6.880   3.898   5.211
10665TIP3    H231939   7.026   3.867   5.235
10666TIP3   OH231940   7.704   3.153   6.479
10666TIP3    H131941   7.627   3.166   6.424
10666TIP3    H231942   7.728   3.062   6.465
10667TIP3   OH231943   6.329   3.580   6.454
10667TIP3    H131944   6.380   3.569   6.535
10667TIP3    H231945   6.258   3.517   6.461
10668TIP3   OH231946   6.722   2.386   6.270
10668TIP3    H131947   6.639   2.350   6.240
10668TIP3    H231948   6.697   2.464   6.320
10669TIP3   OH231949   7.249   2.485   6.448
10669TIP3    H131950   7.317   2.467   6.513
10669TIP3    H231951   7.167   2.485   6.497
10670TIP3   OH231952   7.471   2.918   6.429
10670TIP3    H131953   7.437   2.921   6.519
10670TIP3    H231954   7.455   3.005   6.394
10671TIP3   OH231955   7.155   3.013   4.924
10671TIP3    H131956   7.107   3.014   4.841
10671TIP3    H231957   7.238   3.057   4.904
10672TIP3   OH231958   6.864   2.426   5.240
10672TIP3    H131959   6.824   2.435   5.326
10672TIP3    H231960   6.829   2.344   5.205
10673TIP3   OH231961   6.652   2.919   6.278
10673TIP3    H131962   6.606   2.925   6.362
10673TIP3    H231963   6.630   3.000   6.233
10674TIP3   OH231964   6.532   2.797   5.802
10674TIP3    H131965   6.443   2.775   5.826
10674TIP3    H231966   6.541   2.767   5.712
10675TIP3   OH231967   7.011   2.870   5.528
10675TIP3    H131968   6.963   2.942   5.488
10675TIP3    H231969   7.069   2.838   5.460
10676TIP3   OH231970   7.212   3.132   6.585
10676TIP3    H131971   7.177   3.080   6.656
10676TIP3    H231972   7.298   3.161   6.617
10677TIP3   OH231973   7.177   2.885   5.752
10677TIP3    H131974   7.110   2.908   5.688
10677TIP3    H231975   7.226   2.813   5.712
10678TIP3   OH231976   6.491   2.937   6.500
10678TIP3    H131977   6.496   3.003   6.570
10678TIP3    H231978   6.471   2.856   6.546
10679TIP3   OH231979   6.533   2.408   5.220
10679TIP3    H131980   6.522   2.414   5.315
10679TIP3    H231981   6.454   2.450   5.184
10680TIP3   OH231982   6.076   2.453   6.084
10680TIP3    H131983   6.152   2.486   6.131
10680TIP3    H231984   6.108   2.434   5.996
10681TIP3   OH231985   5.983   2.430   5.583
10681TIP3    H131986   6.028   2.465   5.506
10681TIP3    H231987   5.919   2.497   5.607
10682TIP3   OH231988   7.224   3.141   6.175
10682TIP3    H131989   7.249   3.075   6.110
10682TIP3    H231990   7.174   3.093   6.241
10683TIP3   OH231991   6.899   2.579   5.854
10683TIP3    H131992   6.823   2.590   5.910
10683TIP3    H231993   6.974   2.579   5.914
10684TIP3   OH231994   6.291   2.673   5.859
10684TIP3    H131995   6.203   2.681   5.823
10684TIP3    H231996   6.317   2.583   5.840
10685TIP3   OH231997   6.546   2.678   5.555
10685TIP3    H131998   6.641   2.687   5.544
10685TIP3    H231999   6.510   2.695   5.468
10686TIP3   OH232000   7.352   2.680   6.070
10686TIP3    H132001   7.327   2.700   6.161
10686TIP3    H232002   7.282   2.623   6.039
10687TIP3   OH232003   6.434   2.698   5.307
10687TIP3    H132004   6.371   2.648   5.254
10687TIP3    H232005   6.488   2.744   5.242
10688TIP3   OH232006   7.545   4.377   6.285
10688TIP3    H132007   7.540   4.395   6.191
10688TIP3    H232008   7.622   4.425   6.315
10689TIP3   OH232009   6.483   3.489   6.689
10689TIP3    H132010   6.563   3.510   6.737
10689TIP3    H232011   6.413   3.500   6.754
10690TIP3   OH232012   6.947   2.960   5.953
10690TIP3    H132013   7.016   2.915   5.905
10690TIP3    H232014   6.945   2.917   6.039
10691TIP3   OH232015   6.439   2.420   5.837
10691TIP3    H132016   6.408   2.346   5.889
10691TIP3    H232017   6.442   2.387   5.747
10692TIP3   OH232018   6.915   2.859   6.216
10692TIP3    H132019   6.828   2.890   6.240
10692TIP3    H232020   6.975   2.912   6.269
10693TIP3   OH232021   6.649   3.212   5.335
10693TIP3    H132022   6.575   3.157   5.311
10693TIP3    H232023   6.625   3.252   5.418
10694TIP3   OH232024   7.535   3.474   5.942
10694TIP3    H132025   7.574   3.522   5.869
10694TIP3    H232026   7.458   3.432   5.904
10695TIP3   OH232027   7.117   2.528   5.249
10695TIP3    H132028   7.024   2.507   5.242
10695TIP3    H232029   7.120   2.623   5.257
10696TIP3   OH232030   7.056   3.554   6.355
10696TIP3    H132031   7.113   3.550   6.432
10696TIP3    H232032   7.017   3.641   6.358
10697TIP3   OH232033   7.175   2.795   5.313
10697TIP3    H132034   7.270   2.799   5.322
10697TIP3    H232035   7.153   2.871   5.260
10698TIP3   OH232036   6.340   3.230   5.986
10698TIP3    H132037   6.378   3.210   5.900
10698TIP3    H232038   6.406   3.200   6.048
10699TIP3   OH232039   6.805   3.373   5.178
10699TIP3    H132040   6.758   3.456   5.177
10699TIP3    H232041   6.749   3.315   5.231
10700TIP3   OH232042   6.223   3.154   6.618
10700TIP3    H132043   6.221   3.127   6.710
10700TIP3    H232044   6.147   3.110   6.579
10701TIP3   OH232045   6.971   3.292   6.642
10701TIP3    H132046   6.898   3.236   6.614
10701TIP3    H232047   7.047   3.254   6.598
10702TIP3   OH232048   7.202   3.844   6.241
10702TIP3    H132049   7.107   3.832   6.249
10702TIP3    H232050   7.228   3.882   6.325
10703TIP3   OH232051   7.581   2.884   5.126
10703TIP3    H132052   7.525   2.838   5.063
10703TIP3    H232053   7.586   2.973   5.092
10704TIP3   OH232054   7.833   3.742   6.215
10704TIP3    H132055   7.738   3.733   6.203
10704TIP3    H232056   7.870   3.717   6.131
10705TIP3   OH232057   7.327   3.703   5.060
10705TIP3    H132058   7.299   3.629   5.115
10705TIP3    H232059   7.341   3.664   4.974
10706TIP3   OH232060   7.311   3.337   5.835
10706TIP3    H132061   7.221   3.315   5.859
10706TIP3    H232062   7.346   3.256   5.797
10707TIP3   OH232063   6.467   3.568   5.656
10707TIP3    H132064   6.463   3.642   5.596
10707TIP3    H232065   6.377   3.557   5.687
10708TIP3   OH232066   6.031   2.856   5.371
10708TIP3    H132067   6.072   2.940   5.393
10708TIP3    H232068   5.949   2.857   5.420
10709TIP3   OH232069   6.550   3.322   5.561
10709TIP3    H132070   6.535   3.411   5.591
10709TIP3    H232071   6.525   3.266   5.634
10710TIP3   OH232072   6.750   3.890   6.115
10710TIP3    H132073   6.788   3.962   6.064
10710TIP3    H232074   6.823   3.856   6.166
10711TIP3   OH232075   6.372   3.797   5.502
10711TIP3    H132076   6.287   3.783   5.543
10711TIP3    H232077   6.383   3.892   5.499
10712TIP3   OH232078   7.100   3.560   6.081
10712TIP3    H132079   7.087   3.554   6.175
10712TIP3    H232080   7.181   3.512   6.064
10713TIP3   OH232081   7.099   3.438   4.960
10713TIP3    H132082   7.140   3.421   5.045
10713TIP3    H232083   7.015   3.393   4.964
10714TIP3   OH232084   7.359   4.060   6.118
10714TIP3    H132085   7.284   4.002   6.129
10714TIP3    H232086   7.333   4.119   6.047
10715TIP3   OH232087   7.413   3.908   4.758
10715TIP3    H132088   7.450   3.975   4.701
10715TIP3    H232089   7.339   3.951   4.801
10716TIP3   OH232090   6.435   2.683   6.617
10716TIP3    H132091   6.340   2.694   6.622
10716TIP3    H232092   6.457   2.633   6.696
10717TIP3   OH232093   7.264   3.389   5.184
10717TIP3    H132094   7.247   3.313   5.240
10717TIP3    H232095   7.357   3.383   5.163
10718TIP3   OH232096   6.181   3.779   6.272
10718TIP3    H132097   6.233   3.718   6.323
10718TIP3    H232098   6.195   3.864   6.313
10719TIP3   OH232099   6.448   3.398   4.964
10719TIP3    H132100   6.458   3.307   4.936
10719TIP3    H232101   6.434   3.393   5.059
10720TIP3   OH232102   6.392   3.413   5.236
10720TIP3    H132103   6.458   3.387   5.300
10720TIP3    H232104   6.391   3.509   5.241
10721TIP3   OH232105   6.123   3.109   5.450
10721TIP3    H132106   6.057   3.157   5.500
10721TIP3    H232107   6.142   3.166   5.375
10722TIP3   OH232108   7.280   2.740   6.332
10722TIP3    H132109   7.359   2.777   6.371
10722TIP3    H232110   7.271   2.654   6.373
10723TIP3   OH232111   7.178   2.481   5.515
10723TIP3    H132112   7.156   2.499   5.424
10723TIP3    H232113   7.221   2.561   5.545
10724TIP3   OH232114   6.662   3.603   5.175
10724TIP3    H132115   6.577   3.627   5.211
10724TIP3    H232116   6.684   3.674   5.115
10725TIP3   OH232117   6.827   2.678   5.602
10725TIP3    H132118   6.888   2.747   5.574
10725TIP3    H232119   6.853   2.658   5.692
10726TIP3   OH232120   7.118   2.974   6.367
10726TIP3    H132121   7.148   3.020   6.445
10726TIP3    H232122   7.170   2.893   6.365
10727TIP3   OH232123   6.989   2.374   5.684
10727TIP3    H132124   6.967   2.450   5.738
10727TIP3    H232125   7.059   2.404   5.627
10728TIP3   OH232126   6.410   3.686   5.251
10728TIP3    H132127   6.390   3.757   5.190
10728TIP3    H232128   6.396   3.725   5.337
10729TIP3   OH232129   6.500   2.404   5.502
10729TIP3    H132130   6.489   2.496   5.527
10729TIP3    H232131   6.594   2.388   5.505
10730TIP3   OH232132   7.744   2.893   6.390
10730TIP3    H132133   7.650   2.879   6.392
10730TIP3    H232134   7.768   2.889   6.298
10731TIP3   OH232135   7.402   3.078   5.749
10731TIP3    H132136   7.326   3.021   5.761
10731TIP3    H232137   7.470   3.039   5.805
10732TIP3   OH232138   6.146   3.282   5.231
10732TIP3    H132139   6.219   3.344   5.239
10732TIP3    H232140   6.176   3.219   5.166
10733TIP3   OH232141   6.051   2.578   5.363
10733TIP3    H132142   6.064   2.672   5.373
10733TIP3    H232143   5.993   2.569   5.287
10734TIP3   OH232144   7.373   4.059   5.689
10734TIP3    H132145   7.335   4.109   5.617
10734TIP3    H232146   7.468   4.066   5.675
10735TIP3   OH232147   6.463   2.295   6.226
10735TIP3    H132148   6.428   2.265   6.142
10735TIP3    H232149   6.459   2.218   6.283
10736TIP3   OH232150   5.964   3.556   5.616
10736TIP3    H132151   5.912   3.588   5.690
10736TIP3    H232152   5.924   3.597   5.539
10737TIP3   OH232153   6.177   4.091   6.692
10737TIP3    H132154   6.259   4.095   6.740
10737TIP3    H232155   6.159   3.997   6.682
10738TIP3   OH232156   6.641   3.998   6.737
10738TIP3    H132157   6.734   3.975   6.743
10738TIP3    H232158   6.608   3.944   6.665
10739TIP3   OH232159   6.601   3.602   4.858
10739TIP3    H132160   6.554   3.531   4.901
10739TIP3    H232161   6.676   3.560   4.816
10740TIP3   OH232162   7.261   3.942   6.492
10740TIP3    H132163   7.276   3.872   6.556
10740TIP3    H232164   7.336   4.001   6.503
10741TIP3   OH232165   7.043   3.641   4.780
10741TIP3    H132166   7.080   3.578   4.843
10741TIP3    H232167   7.102   3.637   4.705
10742TIP3   OH232168   6.278   3.494   6.880
10742TIP3    H132169   6.295   3.400   6.893
10742TIP3    H232170   6.191   3.497   6.840
10743TIP3   OH232171   6.268   3.092   5.076
10743TIP3    H132172   6.319   3.068   5.154
10743TIP3    H232173   6.333   3.106   5.008
10744TIP3   OH232174   6.901   3.571   6.659
10744TIP3    H132175   6.855   3.592   6.577
10744TIP3    H232176   6.937   3.483   6.643
10745TIP3   OH232177   6.848   3.315   4.915
10745TIP3    H132178   6.823   3.325   5.006
10745TIP3    H232179   6.828   3.223   4.895
10746TIP3   OH232180   7.365   3.618   6.272
10746TIP3    H132181   7.443   3.643   6.223
10746TIP3    H232182   7.303   3.689   6.257
10747TIP3   OH232183   6.392   3.238   6.893
10747TIP3    H132184   6.467   3.221   6.835
10747TIP3    H232185   6.432   3.258   6.978
10748TIP3   OH232186   6.440   3.035   5.290
10748TIP3    H132187   6.420   3.003   5.378
10748TIP3    H232188   6.490   2.963   5.249
10749TIP3   OH232189   6.759   3.126   6.546
10749TIP3    H132190   6.672   3.162   6.557
10749TIP3    H232191   6.789   3.156   6.461
10750TIP3   OH232192   6.585   2.853   5.136
10750TIP3    H132193   6.554   2.856   5.046
10750TIP3    H232194   6.680   2.861   5.130
10751TIP3   OH232195   7.251   3.494   6.625
10751TIP3    H132196   7.319   3.455   6.570
10751TIP3    H232197   7.248   3.438   6.703
10752TIP3   OH232198   7.374   3.141   4.812
10752TIP3    H132199   7.360   3.100   4.726
10752TIP3    H232200   7.350   3.232   4.799
10753TIP3   OH232201   6.854   2.889   6.649
10753TIP3    H132202   6.856   2.820   6.583
10753TIP3    H232203   6.820   2.966   6.602
10754TIP3   OH232204   6.867   2.691   6.447
10754TIP3    H132205   6.893   2.727   6.362
10754TIP3    H232206   6.777   2.661   6.435
10755TIP3   OH232207   6.874   3.228   6.322
10755TIP3    H132208   6.961   3.266   6.306
10755TIP3    H232209   6.814   3.282   6.271
10756TIP3   OH232210   7.473   3.207   6.690
10756TIP3    H132211   7.541   3.141   6.674
10756TIP3    H232212   7.520   3.290   6.688
10757TIP3   OH232213   7.494   3.439   6.429
10757TIP3    H132214   7.439   3.500   6.380
10757TIP3    H232215   7.582   3.456   6.398
10758TIP3   OH232216   6.743   2.966   6.896
10758TIP3    H132217   6.671   2.906   6.916
10758TIP3    H232218   6.767   2.944   6.806
10759TIP3   OH232219   6.995   2.465   6.549
10759TIP3    H132220   6.951   2.544   6.518
10759TIP3    H232221   6.929   2.396   6.540
10760TIP3   OH232222   7.105   2.942   6.750
10760TIP3    H132223   7.092   2.928   6.844
10760TIP3    H232224   7.020   2.921   6.711
10761TIP3   OH232225   7.370   2.875   6.693
10761TIP3    H132226   7.277   2.896   6.684
10761TIP3    H232227   7.380   2.851   6.786
10762TIP3   OH232228   7.631   2.802   6.822
10762TIP3    H132229   7.581   2.818   6.742
10762TIP3    H232230   7.609   2.876   6.879
10763TIP3   OH232231   0.908   6.754   0.018
10763TIP3    H132232   0.914   6.665  -0.018
10763TIP3    H232233   0.946   6.747   0.105
10764TIP3   OH232234   7.050   2.429   6.816
10764TIP3    H132235   7.120   2.364   6.806
10764TIP3    H232236   7.020   2.446   6.727
10765TIP3   OH232237   7.148   2.654   6.940
10765TIP3    H132238   7.114   2.578   6.892
10765TIP3    H232239   7.074   2.714   6.946
10766TIP3   OH232240   6.407   3.902   5.075
10766TIP3    H132241   6.496   3.881   5.046
10766TIP3    H232242   6.366   3.944   4.999
10767TIP3   OH232243   5.872   3.283   5.248
10767TIP3    H132244   5.968   3.293   5.244
10767TIP3    H232245   5.855   3.197   5.208
10768TIP3   OH232246   5.777   3.870   5.709
10768TIP3    H132247   5.712   3.816   5.664
10768TIP3    H232248   5.821   3.810   5.769
10769TIP3   OH232249   5.918   3.703   5.879
10769TIP3    H132250   5.909   3.631   5.942
10769TIP3    H232251   5.970   3.769   5.925
10770TIP3   OH232252   7.648   4.097   5.687
10770TIP3    H132253   7.674   4.122   5.776
10770TIP3    H232254   7.703   4.150   5.629
10771TIP3   OH232255   7.687   4.121   5.967
10771TIP3    H132256   7.637   4.039   5.961
10771TIP3    H232257   7.755   4.102   6.032
10772TIP3   OH232258   7.728   3.825   6.541
10772TIP3    H132259   7.653   3.835   6.600
10772TIP3    H232260   7.770   3.911   6.542
10773TIP3   OH232261   7.537   3.350   5.149
10773TIP3    H132262   7.592   3.422   5.119
10773TIP3    H232263   7.586   3.310   5.220
10774TIP3   OH232264   7.674   3.206   5.341
10774TIP3    H132265   7.609   3.168   5.400
10774TIP3    H232266   7.740   3.244   5.399
10775TIP3   OH232267   7.714   3.610   5.780
10775TIP3    H132268   7.763   3.538   5.740
10775TIP3    H232269   7.723   3.682   5.717
10776TIP3   OH232270   7.529   3.895   5.970
10776TIP3    H132271   7.462   3.942   6.020
10776TIP3    H232272   7.480   3.855   5.897
10777TIP3   OH232273   7.577   3.125   4.994
10777TIP3    H132274   7.507   3.125   4.929
10777TIP3    H232275   7.561   3.203   5.047
10778TIP3   OH232276   7.431   2.775   4.927
10778TIP3    H132277   7.387   2.808   4.848
10778TIP3    H232278   7.423   2.680   4.920
10779TIP3   OH232279   7.472   3.069   5.480
10779TIP3    H132280   7.478   2.974   5.467
10779TIP3    H232281   7.454   3.079   5.574
10780TIP3   OH232282   6.093   3.130   6.257
10780TIP3    H132283   6.083   3.099   6.167
10780TIP3    H232284   6.187   3.127   6.273
10781TIP3   OH232285   7.752   3.490   6.345
10781TIP3    H132286   7.812   3.419   6.321
10781TIP3    H232287   7.776   3.562   6.287
10782TIP3   OH232288   7.906   3.266   6.324
10782TIP3    H132289   7.839   3.231   6.383
10782TIP3    H232290   7.986   3.220   6.348
10783TIP3   OH232291   7.393   2.505   4.906
10783TIP3    H132292   7.462   2.476   4.966
10783TIP3    H232293   7.314   2.462   4.938
10784TIP3   OH232294   7.466   2.791   5.369
10784TIP3    H132295   7.513   2.709   5.383
10784TIP3    H232296   7.505   2.829   5.291
10785TIP3   OH232297   7.614   2.961   5.895
10785TIP3    H132298   7.696   2.981   5.849
10785TIP3    H232299   7.625   3.001   5.981
10786TIP3   OH232300   7.679   3.106   6.129
10786TIP3    H132301   7.606   3.138   6.183
10786TIP3    H232302   7.711   3.185   6.085
10787TIP3   OH232303   6.311   2.809   6.899
10787TIP3    H132304   6.405   2.805   6.917
10787TIP3    H232305   6.276   2.728   6.936
10788TIP3   OH232306   8.147   2.708   6.667
10788TIP3    H132307   8.216   2.650   6.634
10788TIP3    H232308   8.121   2.759   6.590
10789TIP3   OH232309   7.583   2.544   5.423
10789TIP3    H132310   7.631   2.527   5.505
10789TIP3    H232311   7.522   2.470   5.417
10790TIP3   OH232312   6.296   2.519   6.240
10790TIP3    H132313   6.350   2.441   6.248
10790TIP3    H232314   6.359   2.590   6.223
10791TIP3   OH232315   6.070   2.782   6.310
10791TIP3    H132316   6.121   2.774   6.230
10791TIP3    H232317   6.092   2.869   6.343
10792TIP3   OH232318   8.003   2.813   6.458
10792TIP3    H132319   7.917   2.854   6.474
10792TIP3    H232320   7.985   2.743   6.395
10793TIP3   OH232321   7.625   2.455   5.055
10793TIP3    H132322   7.675   2.395   4.999
10793TIP3    H232323   7.680   2.533   5.061
10794TIP3   OH232324   6.059   2.313   5.818
10794TIP3    H132325   5.974   2.293   5.856
10794TIP3    H232326   6.039   2.361   5.737
10795TIP3   OH232327   7.208   4.019   5.332
10795TIP3    H132328   7.266   4.010   5.256
10795TIP3    H232329   7.239   4.098   5.377
10796TIP3   OH232330   6.284   2.333   6.624
10796TIP3    H132331   6.238   2.335   6.709
10796TIP3    H232332   6.232   2.392   6.568
10797TIP3   OH232333   6.310   3.808   6.707
10797TIP3    H132334   6.217   3.790   6.699
10797TIP3    H232335   6.328   3.800   6.801
10798TIP3   OH232336   6.518   3.862   6.260
10798TIP3    H132337   6.468   3.936   6.225
10798TIP3    H232338   6.604   3.870   6.219
10799TIP3   OH232339   6.919   4.088   6.393
10799TIP3    H132340   6.957   4.083   6.480
10799TIP3    H232341   6.980   4.142   6.343
10800TIP3   OH232342   7.109   4.240   6.264
10800TIP3    H132343   7.170   4.186   6.214
10800TIP3    H232344   7.166   4.293   6.320
10801TIP3   OH232345   7.903   2.587   6.327
10801TIP3    H132346   7.823   2.598   6.277
10801TIP3    H232347   7.926   2.495   6.315
10802TIP3   OH232348   6.183   4.104   6.300
10802TIP3    H132349   6.091   4.117   6.278
10802TIP3    H232350   6.202   4.169   6.367
10803TIP3   OH232351   6.411   4.093   6.148
10803TIP3    H132352   6.331   4.097   6.199
10803TIP3    H232353   6.385   4.119   6.060
10804TIP3   OH232354   6.832   4.095   5.949
10804TIP3    H132355   6.759   4.106   5.887
10804TIP3    H232356   6.843   4.182   5.988
10805TIP3   OH232357   7.098   4.043   5.997
10805TIP3    H132358   7.005   4.057   5.979
10805TIP3    H232359   7.143   4.110   5.945
10806TIP3   OH232360   7.305   4.226   5.896
10806TIP3    H132361   7.269   4.301   5.850
10806TIP3    H232362   7.332   4.166   5.826
10807TIP3   OH232363   6.096   3.876   6.022
10807TIP3    H132364   6.117   3.850   6.112
10807TIP3    H232365   6.168   3.841   5.969
10808TIP3   OH232366   6.298   3.760   5.883
10808TIP3    H132367   6.307   3.674   5.925
10808TIP3    H232368   6.385   3.799   5.889
10809TIP3   OH232369   6.567   3.839   5.912
10809TIP3    H132370   6.585   3.747   5.895
10809TIP3    H232371   6.621   3.861   5.988
10810TIP3   OH232372   7.135   2.512   5.997
10810TIP3    H132373   7.094   2.446   6.053
10810TIP3    H232374   7.198   2.463   5.944
10811TIP3   OH232375   7.624   2.421   5.882
10811TIP3    H132376   7.664   2.469   5.809
10811TIP3    H232377   7.531   2.443   5.876
10812TIP3   OH232378   7.746   2.488   5.642
10812TIP3    H132379   7.814   2.426   5.615
10812TIP3    H232380   7.784   2.574   5.624
10813TIP3   OH232381   6.365   2.198   5.986
10813TIP3    H132382   6.275   2.168   5.998
10813TIP3    H232383   6.417   2.118   5.980
10814TIP3   OH232384   6.198   2.119   5.655
10814TIP3    H132385   6.216   2.164   5.572
10814TIP3    H232386   6.156   2.186   5.710
10815TIP3   OH232387   6.839   2.263   5.898
10815TIP3    H132388   6.896   2.282   5.824
10815TIP3    H232389   6.774   2.333   5.897
10816TIP3   OH232390   7.336   2.376   5.865
10816TIP3    H132391   7.351   2.342   5.776
10816TIP3    H232392   7.344   2.299   5.921
10817TIP3   OH232393   7.398   2.333   5.428
10817TIP3    H132394   7.318   2.379   5.453
10817TIP3    H232395   7.386   2.244   5.462
10818TIP3   OH232396   5.855   3.676   5.393
10818TIP3    H132397   5.770   3.648   5.358
10818TIP3    H232398   5.861   3.769   5.368
10819TIP3   OH232399   6.292   2.236   5.406
10819TIP3    H132400   6.337   2.174   5.349
10819TIP3    H232401   6.361   2.291   5.441
10820TIP3   OH232402   6.774   2.429   5.503
10820TIP3    H132403   6.838   2.376   5.551
10820TIP3    H232404   6.792   2.519   5.532
10821TIP3   OH232405   6.661   3.826   5.000
10821TIP3    H132406   6.745   3.853   4.961
10821TIP3    H232407   6.630   3.756   4.943
10822TIP3   OH232408   7.359   3.971   5.102
10822TIP3    H132409   7.353   3.876   5.094
10822TIP3    H232410   7.319   4.004   5.021
10823TIP3   OH232411   6.590   2.474   6.870
10823TIP3    H132412   6.554   2.407   6.928
10823TIP3    H232413   6.682   2.483   6.896
10824TIP3   OH232414   1.171   6.495   0.055
10824TIP3    H132415   1.247   6.467   0.004
10824TIP3    H232416   1.160   6.426   0.121
10825TIP3   OH232417   5.973   3.665   5.057
10825TIP3    H132418   5.971   3.669   5.152
10825TIP3    H232419   6.054   3.618   5.036
10826TIP3   OH232420   7.698   2.518   6.753
10826TIP3    H132421   7.717   2.428   6.781
10826TIP3    H232422   7.766   2.538   6.689
10827TIP3   OH232423   7.580   4.104   6.286
10827TIP3    H132424   7.505   4.077   6.232
10827TIP3    H232425   7.571   4.199   6.293
10828TIP3   OH232426   8.114   3.327   5.825
10828TIP3    H132427   8.154   3.290   5.903
10828TIP3    H232428   8.188   3.353   5.770
10829TIP3   OH232429   8.095   3.792   5.522
10829TIP3    H132430   8.082   3.697   5.521
10829TIP3    H232431   8.188   3.802   5.544
10830TIP3   OH232432   7.813   2.970   5.263
10830TIP3    H132433   7.784   3.058   5.287
10830TIP3    H232434   7.736   2.930   5.221
10831TIP3   OH232435   7.895   3.294   5.486
10831TIP3    H132436   7.944   3.214   5.505
10831TIP3    H232437   7.962   3.359   5.466
10832TIP3   OH232438   0.362   4.277   5.182
10832TIP3    H132439   0.432   4.216   5.205
10832TIP3    H232440   0.282   4.224   5.186
10833TIP3   OH232441   0.249   3.586   5.394
10833TIP3    H132442   0.259   3.600   5.300
10833TIP3    H232443   0.315   3.643   5.434
10834TIP3   OH232444   8.321   2.795   5.550
10834TIP3    H132445   8.344   2.867   5.491
10834TIP3    H232446   8.362   2.718   5.511
10835TIP3   OH232447   8.016   3.061   5.572
10835TIP3    H132448   8.094   3.046   5.627
10835TIP3    H232449   8.022   2.995   5.503
10836TIP3   OH232450   8.371   3.294   5.397
10836TIP3    H132451   8.464   3.316   5.396
10836TIP3    H232452   8.368   3.199   5.408
10837TIP3   OH232453   8.373   2.852   5.927
10837TIP3    H132454   8.325   2.892   5.854
10837TIP3    H232455   8.314   2.859   6.001
10838TIP3   OH232456   8.465   3.629   5.687
10838TIP3    H132457   8.404   3.694   5.724
10838TIP3    H232458   8.453   3.637   5.592
10839TIP3   OH232459   8.230   2.976   5.725
10839TIP3    H132460   8.294   3.046   5.735
10839TIP3    H232461   8.269   2.918   5.659
10840TIP3   OH232462   8.300   3.828   5.770
10840TIP3    H132463   8.299   3.920   5.743
10840TIP3    H232464   8.223   3.819   5.826
10841TIP3   OH232465   7.698   3.545   5.037
10841TIP3    H132466   7.662   3.569   4.952
10841TIP3    H232467   7.729   3.627   5.074
10842TIP3   OH232468   8.195   3.440   5.254
10842TIP3    H132469   8.159   3.387   5.182
10842TIP3    H232470   8.253   3.380   5.300
10843TIP3   OH232471   8.372   3.861   5.414
10843TIP3    H132472   8.369   3.765   5.411
10843TIP3    H232473   8.465   3.882   5.400
10844TIP3   OH232474   8.319   3.391   5.651
10844TIP3    H132475   8.348   3.357   5.566
10844TIP3    H232476   8.380   3.463   5.670
10845TIP3   OH232477   8.499   3.897   5.953
10845TIP3    H132478   8.447   3.967   5.992
10845TIP3    H232479   8.440   3.857   5.889
10846TIP3   OH232480   8.296   3.509   6.056
10846TIP3    H132481   8.293   3.596   6.095
10846TIP3    H232482   8.206   3.478   6.058
10847TIP3   OH232483   0.056   3.885   4.912
10847TIP3    H132484   0.126   3.942   4.943
10847TIP3    H232485  -0.003   3.942   4.864
10848TIP3   OH232486   8.319   4.091   6.022
10848TIP3    H132487   8.292   4.102   5.931
10848TIP3    H232488   8.237   4.082   6.071
10849TIP3   OH232489   8.126   3.274   5.047
10849TIP3    H132490   8.037   3.298   5.019
10849TIP3    H232491   8.113   3.200   5.106
10850TIP3   OH232492   7.916   3.649   5.974
10850TIP3    H132493   7.848   3.627   5.910
10850TIP3    H232494   7.952   3.565   6.001
10851TIP3   OH232495   7.779   3.835   5.622
10851TIP3    H132496   7.873   3.848   5.621
10851TIP3    H232497   7.744   3.915   5.661
10852TIP3   OH232498   0.155   4.071   5.775
10852TIP3    H132499   0.113   4.105   5.854
10852TIP3    H232500   0.136   3.977   5.776
10853TIP3   OH232501   8.475   4.237   4.860
10853TIP3    H132502   8.427   4.161   4.828
10853TIP3    H232503   8.415   4.310   4.846
10854TIP3   OH232504   7.938   4.025   5.125
10854TIP3    H132505   7.976   4.021   5.213
10854TIP3    H232506   7.889   3.944   5.116
10855TIP3   OH232507   0.398   4.158   4.757
10855TIP3    H132508   0.320   4.212   4.762
10855TIP3    H232509   0.392   4.099   4.832
10856TIP3   OH232510   8.096   3.854   5.951
10856TIP3    H132511   8.148   3.839   6.030
10856TIP3    H232512   8.029   3.785   5.954
10857TIP3   OH232513   8.446   2.615   5.806
10857TIP3    H132514   8.365   2.598   5.758
10857TIP3    H232515   8.436   2.704   5.840
10858TIP3   OH232516   8.401   3.173   5.809
10858TIP3    H132517   8.352   3.192   5.889
10858TIP3    H232518   8.391   3.252   5.756
10859TIP3   OH232519   8.161   3.097   5.248
10859TIP3    H132520   8.134   3.023   5.303
10859TIP3    H232521   8.256   3.091   5.245
10860TIP3   OH232522   8.242   3.188   6.033
10860TIP3    H132523   8.275   3.229   6.114
10860TIP3    H232524   8.215   3.100   6.060
10861TIP3   OH232525   8.316   2.621   4.664
10861TIP3    H132526   8.306   2.630   4.759
10861TIP3    H232527   8.260   2.689   4.627
10862TIP3   OH232528   7.871   2.716   5.566
10862TIP3    H132529   7.924   2.744   5.641
10862TIP3    H232530   7.918   2.750   5.489
10863TIP3   OH232531   7.777   2.691   5.073
10863TIP3    H132532   7.831   2.733   5.007
10863TIP3    H232533   7.711   2.756   5.095
10864TIP3   OH232534   8.044   2.873   5.373
10864TIP3    H132535   7.968   2.894   5.319
10864TIP3    H232536   8.086   2.800   5.327
10865TIP3   OH232537   8.382   2.900   4.975
10865TIP3    H132538   8.447   2.953   4.929
10865TIP3    H232539   8.299   2.946   4.961
10866TIP3   OH232540   8.133   2.990   4.918
10866TIP3    H132541   8.049   2.959   4.950
10866TIP3    H232542   8.142   2.951   4.831
10867TIP3   OH232543   8.249   3.764   6.177
10867TIP3    H132544   8.326   3.785   6.230
10867TIP3    H232545   8.178   3.757   6.241
10868TIP3   OH232546   8.195   2.661   5.263
10868TIP3    H132547   8.183   2.599   5.335
10868TIP3    H232548   8.190   2.607   5.184
10869TIP3   OH232549   0.161   3.114   5.869
10869TIP3    H132550   0.071   3.141   5.851
10869TIP3    H232551   0.202   3.112   5.783
10870TIP3   OH232552   8.505   3.426   4.927
10870TIP3    H132553   8.440   3.446   4.859
10870TIP3    H232554   8.467   3.461   5.008
10871TIP3   OH232555   0.404   3.772   5.764
10871TIP3    H132556   0.484   3.733   5.800
10871TIP3    H232557   0.359   3.809   5.840
10872TIP3   OH232558   8.102   3.509   5.503
10872TIP3    H132559   8.134   3.499   5.413
10872TIP3    H232560   8.170   3.469   5.557
10873TIP3   OH232561   0.088   3.545   4.621
10873TIP3    H132562  -0.003   3.551   4.652
10873TIP3    H232563   0.124   3.470   4.668
10874TIP3   OH232564   8.027   3.442   6.121
10874TIP3    H132565   8.065   3.450   6.208
10874TIP3    H232566   7.967   3.368   6.128
10875TIP3   OH232567   0.218   3.514   6.145
10875TIP3    H132568   0.146   3.459   6.114
10875TIP3    H232569   0.291   3.454   6.155
10876TIP3   OH232570   8.240   3.810   5.108
10876TIP3    H132571   8.229   3.898   5.071
10876TIP3    H232572   8.175   3.806   5.178
10877TIP3   OH232573   7.811   3.113   4.849
10877TIP3    H132574   7.852   3.197   4.870
10877TIP3    H232575   7.729   3.114   4.899
10878TIP3   OH232576   8.397   3.579   5.138
10878TIP3    H132577   8.363   3.668   5.127
10878TIP3    H232578   8.323   3.529   5.173
10879TIP3   OH232579   0.003   4.178   5.576
10879TIP3    H132580   0.039   4.263   5.550
10879TIP3    H232581   0.072   4.139   5.630
10880TIP3   OH232582   8.170   4.051   4.987
10880TIP3    H132583   8.085   4.049   5.030
10880TIP3    H232584   8.192   4.144   4.982
10881TIP3   OH232585   8.197   2.919   6.131
10881TIP3    H132586   8.103   2.936   6.131
10881TIP3    H232587   8.207   2.839   6.184
10882TIP3   OH232588   7.963   4.051   5.765
10882TIP3    H132589   8.008   3.993   5.826
10882TIP3    H232590   7.970   4.138   5.805
10883TIP3   OH232591   8.176   3.617   4.473
10883TIP3    H132592   8.112   3.562   4.517
10883TIP3    H232593   8.220   3.664   4.544
10884TIP3   OH232594   8.111   3.741   4.730
10884TIP3    H132595   8.193   3.745   4.780
10884TIP3    H232596   8.083   3.833   4.723
10885TIP3   OH232597   7.889   3.367   4.940
10885TIP3    H132598   7.823   3.406   4.997
10885TIP3    H232599   7.907   3.434   4.874
10886TIP3   OH232600   8.387   3.773   4.579
10886TIP3    H132601   8.381   3.837   4.650
10886TIP3    H232602   8.479   3.777   4.551
10887TIP3   OH232603   8.060   4.007   4.732
10887TIP3    H132604   8.099   4.070   4.672
10887TIP3    H232605   8.098   4.029   4.818
10888TIP3   OH232606   8.298   2.636   4.944
10888TIP3    H132607   8.302   2.731   4.953
10888TIP3    H232608   8.383   2.605   4.974
10889TIP3   OH232609   7.899   3.574   4.754
10889TIP3    H132610   7.960   3.647   4.760
10889TIP3    H232611   7.934   3.519   4.684
10890TIP3   OH232612   7.882   2.849   4.874
10890TIP3    H132613   7.855   2.941   4.866
10890TIP3    H232614   7.865   2.811   4.788
10891TIP3   OH232615   8.193   2.548   5.713
10891TIP3    H132616   8.182   2.528   5.620
10891TIP3    H232617   8.198   2.463   5.756
10892TIP3   OH232618   7.764   3.805   5.118
10892TIP3    H132619   7.727   3.845   5.196
10892TIP3    H232620   7.721   3.850   5.045
10893TIP3   OH232621   7.976   4.351   6.190
10893TIP3    H132622   8.053   4.363   6.245
10893TIP3    H232623   7.975   4.257   6.171
10894TIP3   OH232624   8.417   4.273   6.204
10894TIP3    H132625   8.499   4.232   6.232
10894TIP3    H232626   8.386   4.218   6.133
10895TIP3   OH232627   8.440   3.945   4.351
10895TIP3    H132628   8.370   3.891   4.387
10895TIP3    H232629   8.517   3.888   4.351
10896TIP3   OH232630   8.058   3.740   6.376
10896TIP3    H132631   8.081   3.647   6.384
10896TIP3    H232632   7.971   3.740   6.335
10897TIP3   OH232633   8.019   3.401   4.589
10897TIP3    H132634   8.055   3.352   4.663
10897TIP3    H232635   8.051   3.354   4.512
10898TIP3   OH232636   0.084   3.751   6.170
10898TIP3    H132637   0.051   3.785   6.087
10898TIP3    H232638   0.126   3.668   6.147
10899TIP3   OH232639   0.062   3.459   4.357
10899TIP3    H132640   0.104   3.495   4.436
10899TIP3    H232641  -0.005   3.399   4.391
10900TIP3   OH232642   8.167   3.476   6.359
10900TIP3    H132643   8.223   3.405   6.330
10900TIP3    H232644   8.204   3.504   6.443
10901TIP3   OH232645   8.168   3.270   4.774
10901TIP3    H132646   8.154   3.248   4.866
10901TIP3    H232647   8.218   3.196   4.739
10902TIP3   OH232648   0.022   3.350   6.054
10902TIP3    H132649  -0.060   3.398   6.062
10902TIP3    H232650   0.047   3.361   5.962
10903TIP3   OH232651   8.343   3.102   4.640
10903TIP3    H132652   8.353   3.169   4.572
10903TIP3    H232653   8.396   3.028   4.609
10904TIP3   OH232654   0.151   3.184   6.249
10904TIP3    H132655   0.104   3.106   6.219
10904TIP3    H232656   0.110   3.256   6.201
10905TIP3   OH232657   0.159   2.856   5.961
10905TIP3    H132658   0.163   2.945   5.927
10905TIP3    H232659   0.066   2.834   5.960
10906TIP3   OH232660   0.113   3.429   5.809
10906TIP3    H132661   0.202   3.460   5.823
10906TIP3    H232662   0.069   3.501   5.765
10907TIP3   OH232663   8.330   3.259   6.288
10907TIP3    H132664   8.353   3.179   6.337
10907TIP3    H232665   8.404   3.318   6.305
10908TIP3   OH232666   8.345   3.001   6.414
10908TIP3    H132667   8.355   2.909   6.391
10908TIP3    H232668   8.391   3.010   6.497
10909TIP3   OH232669   8.213   4.165   4.560
10909TIP3    H132670   8.298   4.194   4.526
10909TIP3    H232671   8.150   4.189   4.492
10910TIP3   OH232672   7.633   3.534   4.731
10910TIP3    H132673   7.726   3.552   4.742
10910TIP3    H232674   7.630   3.444   4.697
10911TIP3   OH232675   7.573   4.115   5.193
10911TIP3    H132676   7.506   4.063   5.149
10911TIP3    H232677   7.616   4.053   5.252
10912TIP3   OH232678   7.712   3.947   5.363
10912TIP3    H132679   7.706   3.878   5.429
10912TIP3    H232680   7.760   4.017   5.408
10913TIP3   OH232681   7.864   3.382   5.744
10913TIP3    H132682   7.860   3.353   5.653
10913TIP3    H232683   7.956   3.373   5.768
10914TIP3   OH232684   8.080   3.067   6.386
10914TIP3    H132685   8.175   3.076   6.392
10914TIP3    H232686   8.061   2.983   6.427
10915TIP3   OH232687   8.045   2.772   5.773
10915TIP3    H132688   8.100   2.696   5.754
10915TIP3    H232689   8.103   2.847   5.760
10916TIP3   OH232690   7.856   3.056   5.802
10916TIP3    H132691   7.899   3.044   5.718
10916TIP3    H232692   7.885   3.142   5.832
10917TIP3   OH232693   7.849   2.525   5.279
10917TIP3    H132694   7.773   2.529   5.337
10917TIP3    H232695   7.833   2.592   5.213
10918TIP3   OH232696   8.083   2.637   6.120
10918TIP3    H132697   8.025   2.620   6.194
10918TIP3    H232698   8.026   2.671   6.051
10919TIP3   OH232699   8.098   4.080   6.192
10919TIP3    H132700   8.007   4.049   6.188
10919TIP3    H232701   8.120   4.074   6.285
10920TIP3   OH232702   8.299   4.100   5.741
10920TIP3    H132703   8.232   4.159   5.707
10920TIP3    H232704   8.377   4.119   5.691
10921TIP3   OH232705   0.139   4.299   5.948
10921TIP3    H132706   0.206   4.238   5.980
10921TIP3    H232707   0.178   4.336   5.869
10922TIP3   OH232708   0.529   4.545   5.762
10922TIP3    H132709   0.486   4.583   5.685
10922TIP3    H232710   0.593   4.611   5.789
10923TIP3   OH232711   7.960   4.337   5.807
10923TIP3    H132712   7.870   4.358   5.782
10923TIP3    H232713   7.987   4.408   5.865
10924TIP3   OH232714   8.157   4.299   5.624
10924TIP3    H132715   8.079   4.313   5.677
10924TIP3    H232716   8.139   4.344   5.541
10925TIP3   OH232717   0.091   4.422   5.475
10925TIP3    H132718   0.059   4.440   5.387
10925TIP3    H232719   0.063   4.497   5.528
10926TIP3   OH232720   0.320   4.271   5.480
10926TIP3    H132721   0.248   4.334   5.478
10926TIP3    H232722   0.394   4.318   5.443
10927TIP3   OH232723   7.875   4.131   5.514
10927TIP3    H132724   7.904   4.109   5.602
10927TIP3    H232725   7.944   4.098   5.457
10928TIP3   OH232726   8.067   4.013   5.364
10928TIP3    H132727   8.079   3.935   5.417
10928TIP3    H232728   8.151   4.059   5.370
10929TIP3   OH232729   8.319   4.125   5.379
10929TIP3    H132730   8.337   4.031   5.375
10929TIP3    H232731   8.376   4.157   5.449
10930TIP3   OH232732   8.155   2.456   5.451
10930TIP3    H132733   8.067   2.421   5.464
10930TIP3    H232734   8.212   2.380   5.462
10931TIP3   OH232735   7.994   2.349   5.120
10931TIP3    H132736   8.007   2.405   5.043
10931TIP3    H232737   7.947   2.405   5.182
10932TIP3   OH232738   7.649   3.932   4.905
10932TIP3    H132739   7.568   3.897   4.869
10932TIP3    H232740   7.656   4.020   4.869
10933TIP3   OH232741   8.066   2.491   4.890
10933TIP3    H132742   8.099   2.422   4.833
10933TIP3    H232743   8.143   2.545   4.910
10934TIP3   OH232744   8.466   4.194   4.463
10934TIP3    H132745   8.539   4.203   4.524
10934TIP3    H232746   8.470   4.102   4.435
10935TIP3   OH232747   8.377   2.717   6.364
10935TIP3    H132748   8.362   2.655   6.435
10935TIP3    H232749   8.472   2.728   6.362
10936TIP3   OH232750   7.759   3.929   4.557
10936TIP3    H132751   7.774   3.950   4.649
10936TIP3    H232752   7.839   3.885   4.529
10937TIP3   OH232753   1.320   4.306   6.719
10937TIP3    H132754   1.282   4.389   6.688
10937TIP3    H232755   1.254   4.240   6.698
10938TIP3   OH232756   6.986   0.294   0.179
10938TIP3    H132757   7.041   0.265   0.251
10938TIP3    H232758   6.948   0.214   0.144
10939TIP3   OH232759   6.304   0.202   0.506
10939TIP3    H132760   6.269   0.113   0.509
10939TIP3    H232761   6.387   0.193   0.458
10940TIP3   OH232762   1.580   4.587   6.812
10940TIP3    H132763   1.571   4.514   6.874
10940TIP3    H232764   1.599   4.663   6.868
10941TIP3   OH232765   6.269   0.572   0.183
10941TIP3    H132766   6.244   0.481   0.200
10941TIP3    H232767   6.364   0.571   0.186
10942TIP3   OH232768   6.031   0.100   0.192
10942TIP3    H132769   6.074   0.031   0.242
10942TIP3    H232770   6.090   0.175   0.201
10943TIP3   OH232771   1.244   5.006   6.837
10943TIP3    H132772   1.263   4.944   6.767
10943TIP3    H232773   1.258   4.956   6.917
10944TIP3   OH232774   6.785   0.499   0.199
10944TIP3    H132775   6.829   0.418   0.170
10944TIP3    H232776   6.857   0.555   0.230
10945TIP3   OH232777   4.997   7.830   0.187
10945TIP3    H132778   5.008   7.916   0.228
10945TIP3    H232779   5.029   7.842   0.098
10946TIP3   OH232780   3.719   7.653   0.201
10946TIP3    H132781   3.702   7.721   0.136
10946TIP3    H232782   3.670   7.577   0.170
10947TIP3   OH232783   1.596   3.698   6.777
10947TIP3    H132784   1.638   3.716   6.861
10947TIP3    H232785   1.630   3.765   6.717
10948TIP3   OH232786   3.355   7.912   0.298
10948TIP3    H132787   3.411   7.860   0.356
10948TIP3    H232788   3.356   7.864   0.215
10949TIP3   OH232789   6.621   0.041   0.131
10949TIP3    H132790   6.716   0.029   0.126
10949TIP3    H232791   6.585  -0.040   0.094
10950TIP3   OH232792   7.870   0.029   0.368
10950TIP3    H132793   7.792   0.083   0.353
10950TIP3    H232794   7.854  -0.013   0.453
10951TIP3   OH232795   3.702   7.733   0.669
10951TIP3    H132796   3.642   7.785   0.616
10951TIP3    H232797   3.650   7.705   0.744
10952TIP3   OH232798   1.209   4.516   6.575
10952TIP3    H132799   1.174   4.486   6.491
10952TIP3    H232800   1.149   4.585   6.602
10953TIP3   OH232801   6.636   0.424   0.421
10953TIP3    H132802   6.575   0.490   0.455
10953TIP3    H232803   6.679   0.467   0.347
10954TIP3   OH232804   4.575   7.787   0.071
10954TIP3    H132805   4.499   7.813   0.122
10954TIP3    H232806   4.633   7.863   0.072
10955TIP3   OH232807   3.569   7.767   0.406
10955TIP3    H132808   3.611   7.850   0.428
10955TIP3    H232809   3.621   7.734   0.332
10956TIP3   OH232810   6.457   0.596   0.554
10956TIP3    H132811   6.404   0.667   0.517
10956TIP3    H232812   6.404   0.562   0.626
10957TIP3   OH232813   7.277   0.827   0.020
10957TIP3    H132814   7.188   0.820   0.054
10957TIP3    H232815   7.278   0.910  -0.028
10958TIP3   OH232816   4.768   7.727   0.303
10958TIP3    H132817   4.692   7.726   0.245
10958TIP3    H232818   4.840   7.758   0.247
10959TIP3   OH232819   4.096   7.352   0.279
10959TIP3    H132820   4.089   7.261   0.307
10959TIP3    H232821   4.032   7.399   0.333
10960TIP3   OH232822   1.317   4.868   6.606
10960TIP3    H132823   1.369   4.788   6.598
10960TIP3    H232824   1.376   4.938   6.578
10961TIP3   OH232825   1.459   4.640   6.570
10961TIP3    H132826   1.386   4.578   6.568
10961TIP3    H232827   1.510   4.613   6.646
10962TIP3   OH232828   7.528   0.700   0.354
10962TIP3    H132829   7.501   0.630   0.294
10962TIP3    H232830   7.515   0.780   0.303
10963TIP3   OH232831   1.148   4.145   6.573
10963TIP3    H132832   1.063   4.186   6.556
10963TIP3    H232833   1.187   4.135   6.486
10964TIP3   OH232834   1.122   3.924   6.265
10964TIP3    H132835   1.187   3.974   6.315
10964TIP3    H232836   1.173   3.856   6.221
10965TIP3   OH232837   7.698   0.388   0.215
10965TIP3    H132838   7.611   0.428   0.211
10965TIP3    H232839   7.731   0.396   0.126
10966TIP3   OH232840   1.502   4.221   6.533
10966TIP3    H132841   1.446   4.254   6.604
10966TIP3    H232842   1.580   4.189   6.578
10967TIP3   OH232843   7.394   0.276   0.493
10967TIP3    H132844   7.370   0.359   0.534
10967TIP3    H232845   7.318   0.255   0.437
10968TIP3   OH232846   6.403   0.175   0.022
10968TIP3    H132847   6.370   0.116  -0.046
10968TIP3    H232848   6.481   0.131   0.056
10969TIP3   OH232849   6.542   0.612   0.124
10969TIP3    H132850   6.522   0.589   0.033
10969TIP3    H232851   6.627   0.571   0.140
10970TIP3   OH232852   6.529   0.179   0.352
10970TIP3    H132853   6.566   0.142   0.273
10970TIP3    H232854   6.576   0.262   0.364
10971TIP3   OH232855   7.031   0.826   0.141
10971TIP3    H132856   7.035   0.900   0.202
10971TIP3    H232857   7.026   0.749   0.197
10972TIP3   OH232858   6.666   0.720   0.683
10972TIP3    H132859   6.607   0.780   0.728
10972TIP3    H232860   6.608   0.662   0.633
10973TIP3   OH232861   1.332   4.080   6.369
10973TIP3    H132862   1.391   4.137   6.417
10973TIP3    H232863   1.362   4.085   6.278
10974TIP3   OH232864   6.370   0.255   0.772
10974TIP3    H132865   6.368   0.345   0.804
10974TIP3    H232866   6.332   0.261   0.684
10975TIP3   OH232867   1.065   4.752   6.617
10975TIP3    H132868   1.149   4.799   6.621
10975TIP3    H232869   1.010   4.806   6.561
10976TIP3   OH232870   6.464   0.885   0.768
10976TIP3    H132871   6.444   0.904   0.676
10976TIP3    H232872   6.379   0.869   0.809
10977TIP3   OH232873   1.804   3.288   6.389
10977TIP3    H132874   1.755   3.317   6.466
10977TIP3    H232875   1.828   3.368   6.344
10978TIP3   OH232876   0.633   4.041   6.740
10978TIP3    H132877   0.588   4.114   6.698
10978TIP3    H232878   0.569   3.969   6.740
10979TIP3   OH232879   1.661   4.675   5.980
10979TIP3    H132880   1.656   4.768   5.958
10979TIP3    H232881   1.749   4.648   5.953
10980TIP3   OH232882   7.758   1.092   0.418
10980TIP3    H132883   7.764   0.996   0.426
10980TIP3    H232884   7.677   1.114   0.464
10981TIP3   OH232885   6.856   0.844   0.536
10981TIP3    H132886   6.855   0.935   0.567
10981TIP3    H232887   6.789   0.800   0.587
10982TIP3   OH232888   0.960   4.972   6.439
10982TIP3    H132889   0.906   4.953   6.362
10982TIP3    H232890   0.926   5.055   6.473
10983TIP3   OH232891   1.171   4.899   6.074
10983TIP3    H132892   1.219   4.823   6.041
10983TIP3    H232893   1.202   4.908   6.164
10984TIP3   OH232894   1.215   4.940   6.344
10984TIP3    H132895   1.127   4.946   6.380
10984TIP3    H232896   1.266   4.899   6.414
10985TIP3   OH232897   7.618   0.275   0.702
10985TIP3    H132898   7.545   0.276   0.640
10985TIP3    H232899   7.641   0.182   0.711
10986TIP3   OH232900   3.683   7.481   0.552
10986TIP3    H132901   3.666   7.458   0.460
10986TIP3    H232902   3.695   7.576   0.551
10987TIP3   OH232903   4.294   7.576   0.640
10987TIP3    H132904   4.389   7.587   0.635
10987TIP3    H232905   4.266   7.638   0.707
10988TIP3   OH232906   7.432   0.045   0.638
10988TIP3    H132907   7.363  -0.021   0.624
10988TIP3    H232908   7.404   0.120   0.586
10989TIP3   OH232909   1.421   4.063   6.114
10989TIP3    H132910   1.374   4.051   6.031
10989TIP3    H232911   1.499   4.113   6.090
10990TIP3   OH232912   1.122   3.476   6.423
10990TIP3    H132913   1.082   3.480   6.510
10990TIP3    H232914   1.088   3.395   6.384
10991TIP3   OH232915   6.526  -0.033   0.521
10991TIP3    H132916   6.545   0.005   0.607
10991TIP3    H232917   6.536   0.040   0.460
10992TIP3   OH232918   3.634   7.846   0.027
10992TIP3    H132919   3.541   7.836   0.051
10992TIP3    H232920   3.638   7.815  -0.063
10993TIP3   OH232921   1.240   3.898   6.657
10993TIP3    H132922   1.215   3.988   6.639
10993TIP3    H232923   1.317   3.883   6.602
10994TIP3   OH232924   7.112   0.250   0.833
10994TIP3    H132925   7.078   0.187   0.897
10994TIP3    H232926   7.207   0.249   0.847
10995TIP3   OH232927   6.318  -0.026   0.790
10995TIP3    H132928   6.340   0.068   0.784
10995TIP3    H232929   6.297  -0.039   0.882
10996TIP3   OH232930   0.802   3.454   6.407
10996TIP3    H132931   0.788   3.453   6.502
10996TIP3    H232932   0.726   3.500   6.372
10997TIP3   OH232933   3.176   7.613   0.194
10997TIP3    H132934   3.217   7.620   0.279
10997TIP3    H232935   3.179   7.520   0.173
10998TIP3   OH232936   0.275   3.500   6.792
10998TIP3    H132937   0.355   3.528   6.747
10998TIP3    H232938   0.239   3.581   6.829
10999TIP3   OH232939   7.162   0.193   0.368
10999TIP3    H132940   7.178   0.111   0.321
10999TIP3    H232941   7.122   0.166   0.450
11000TIP3   OH232942   3.959   7.707   0.062
11000TIP3    H132943   3.903   7.689   0.137
11000TIP3    H232944   4.045   7.674   0.087
11001TIP3   OH232945   3.388   7.739   0.082
11001TIP3    H132946   3.301   7.706   0.104
11001TIP3    H232947   3.437   7.661   0.056
11002TIP3   OH232948   0.778   3.716   6.715
11002TIP3    H132949   0.872   3.732   6.706
11002TIP3    H232950   0.741   3.747   6.633
11003TIP3   OH232951   0.666   3.776   6.466
11003TIP3    H132952   0.622   3.706   6.418
11003TIP3    H232953   0.735   3.806   6.406
11004TIP3   OH232954   7.465   1.414   0.519
11004TIP3    H132955   7.457   1.426   0.424
11004TIP3    H232956   7.545   1.460   0.542
11005TIP3   OH232957   6.373   0.519   0.866
11005TIP3    H132958   6.449   0.553   0.914
11005TIP3    H232959   6.301   0.526   0.927
11006TIP3   OH232960   6.900   0.026   0.169
11006TIP3    H132961   6.976  -0.031   0.158
11006TIP3    H232962   6.889   0.034   0.263
11007TIP3   OH232963   3.533   7.503   0.038
11007TIP3    H132964   3.489   7.428   0.079
11007TIP3    H232965   3.549   7.475  -0.053
11008TIP3   OH232966   6.861   0.054   0.443
11008TIP3    H132967   6.819  -0.032   0.447
11008TIP3    H232968   6.937   0.046   0.500
11009TIP3   OH232969   0.912   4.316   6.522
11009TIP3    H132970   0.872   4.229   6.513
11009TIP3    H232971   0.894   4.341   6.613
11010TIP3   OH232972   7.454   0.509   0.173
11010TIP3    H132973   7.487   0.558   0.098
11010TIP3    H232974   7.377   0.463   0.139
11011TIP3   OH232975   1.366   3.592   6.387
11011TIP3    H132976   1.274   3.569   6.401
11011TIP3    H232977   1.372   3.684   6.414
11012TIP3   OH232978   6.994   0.596   0.579
11012TIP3    H132979   7.030   0.580   0.666
11012TIP3    H232980   6.948   0.680   0.588
11013TIP3   OH232981   1.443   3.843   6.474
11013TIP3    H132982   1.537   3.849   6.494
11013TIP3    H232983   1.424   3.926   6.429
11014TIP3   OH232984   6.242   0.292   0.220
11014TIP3    H132985   6.299   0.251   0.155
11014TIP3    H232986   6.275   0.261   0.304
11015TIP3   OH232987   1.068   4.441   6.341
11015TIP3    H132988   1.023   4.525   6.337
11015TIP3    H232989   1.015   4.388   6.401
11016TIP3   OH232990   6.876   0.378   0.836
11016TIP3    H132991   6.836   0.346   0.755
11016TIP3    H232992   6.967   0.346   0.831
11017TIP3   OH232993   7.124   0.876   0.450
11017TIP3    H132994   7.031   0.852   0.456
11017TIP3    H232995   7.143   0.919   0.533
11018TIP3   OH232996   1.849   3.921   6.302
11018TIP3    H132997   1.793   3.873   6.241
11018TIP3    H232998   1.849   4.011   6.269
11019TIP3   OH232999   7.768   0.819   0.439
11019TIP3    H133000   7.678   0.788   0.450
11019TIP3    H233001   7.797   0.779   0.357
11020TIP3   OH233002   1.581   4.743   6.247
11020TIP3    H133003   1.552   4.675   6.308
11020TIP3    H233004   1.599   4.696   6.165
11021TIP3   OH233005   7.237   0.368   0.063
11021TIP3    H133006   7.145   0.354   0.085
11021TIP3    H233007   7.269   0.282   0.038
11022TIP3   OH233008   0.711   4.609   6.833
11022TIP3    H133009   0.696   4.678   6.769
11022TIP3    H233010   0.638   4.617   6.895
11023TIP3   OH233011   0.235   3.917   6.503
11023TIP3    H133012   0.236   3.999   6.551
11023TIP3    H233013   0.169   3.864   6.547
11024TIP3   OH233014   0.822   4.368   6.770
11024TIP3    H133015   0.782   4.452   6.791
11024TIP3    H233016   0.793   4.310   6.840
11025TIP3   OH233017   6.663   0.936   0.351
11025TIP3    H133018   6.706   1.004   0.299
11025TIP3    H233019   6.734   0.892   0.397
11026TIP3   OH233020   0.600   4.841   6.703
11026TIP3    H133021   0.566   4.844   6.793
11026TIP3    H233022   0.646   4.924   6.693
11027TIP3   OH233023   7.023   0.597   0.305
11027TIP3    H133024   7.016   0.592   0.400
11027TIP3    H233025   7.072   0.518   0.280
11028TIP3   OH233026   1.343   4.478   6.132
11028TIP3    H133027   1.400   4.452   6.205
11028TIP3    H233028   1.259   4.438   6.152
11029TIP3   OH233029   7.287   1.088   0.354
11029TIP3    H133030   7.217   1.025   0.371
11029TIP3    H233031   7.253   1.146   0.286
11030TIP3   OH233032   1.658   4.947   5.932
11030TIP3    H133033   1.675   5.009   5.861
11030TIP3    H233034   1.587   4.987   5.982
11031TIP3   OH233035   1.526   4.400   6.320
11031TIP3    H133036   1.509   4.347   6.398
11031TIP3    H233037   1.622   4.404   6.314
11032TIP3   OH233038   0.701   4.464   6.132
11032TIP3    H133039   0.723   4.375   6.106
11032TIP3    H233040   0.687   4.459   6.226
11033TIP3   OH233041   0.689   4.457   6.410
11033TIP3    H133042   0.775   4.436   6.446
11033TIP3    H233043   0.676   4.549   6.432
11034TIP3   OH233044   0.289   4.144   6.641
11034TIP3    H133045   0.265   4.188   6.723
11034TIP3    H233046   0.369   4.189   6.613
11035TIP3   OH233047   4.445   7.850   0.539
11035TIP3    H133048   4.427   7.868   0.446
11035TIP3    H233049   4.481   7.762   0.540
11036TIP3   OH233050   1.428   3.518   6.653
11036TIP3    H133051   1.410   3.548   6.564
11036TIP3    H233052   1.474   3.592   6.694
11037TIP3   OH233053   0.919   4.667   6.345
11037TIP3    H133054   0.838   4.687   6.393
11037TIP3    H233055   0.929   4.739   6.283
11038TIP3   OH233056   1.048   3.737   6.747
11038TIP3    H133057   1.113   3.795   6.709
11038TIP3    H233058   1.072   3.730   6.839
11039TIP3   OH233059   7.078   0.102   0.608
11039TIP3    H133060   7.072   0.172   0.673
11039TIP3    H233061   7.119   0.029   0.655
11040TIP3   OH233062   1.255   3.414   6.836
11040TIP3    H133063   1.279   3.469   6.911
11040TIP3    H233064   1.311   3.443   6.765
11041TIP3   OH233065   0.673   4.739   6.450
11041TIP3    H133066   0.655   4.810   6.389
11041TIP3    H233067   0.649   4.774   6.536
11042TIP3   OH233068   0.756   3.440   6.690
11042TIP3    H133069   0.736   3.533   6.699
11042TIP3    H233070   0.851   3.435   6.695
11043TIP3   OH233071   4.804   7.914   0.509
11043TIP3    H133072   4.738   7.982   0.518
11043TIP3    H233073   4.777   7.863   0.433
11044TIP3   OH233074   7.321   0.098   0.018
11044TIP3    H133075   7.260   0.046   0.071
11044TIP3    H233076   7.408   0.071   0.049
11045TIP3   OH233077   0.323   4.400   6.480
11045TIP3    H133078   0.326   4.486   6.521
11045TIP3    H233079   0.295   4.417   6.390
11046TIP3   OH233080   0.480   3.597   6.641
11046TIP3    H133081   0.491   3.690   6.661
11046TIP3    H233082   0.428   3.596   6.560
11047TIP3   OH233083   1.636   5.101   6.873
11047TIP3    H133084   1.594   5.153   6.804
11047TIP3    H233085   1.730   5.109   6.856
11048TIP3   OH233086   3.674   7.377   0.293
11048TIP3    H133087   3.591   7.352   0.252
11048TIP3    H233088   3.740   7.325   0.248
11049TIP3   OH233089   6.490   1.107   0.944
11049TIP3    H133090   6.551   1.092   1.016
11049TIP3    H233091   6.505   1.032   0.885
11050TIP3   OH233092   0.882   4.641   6.026
11050TIP3    H133093   0.827   4.578   6.074
11050TIP3    H233094   0.957   4.590   5.997
11051TIP3   OH233095   7.172   0.996   0.687
11051TIP3    H133096   7.168   0.919   0.744
11051TIP3    H233097   7.254   1.039   0.711
11052TIP3   OH233098   1.299   4.686   5.959
11052TIP3    H133099   1.327   4.619   6.023
11052TIP3    H233100   1.360   4.677   5.887
11053TIP3   OH233101   0.517   4.212   6.214
11053TIP3    H133102   0.524   4.154   6.289
11053TIP3    H233103   0.604   4.209   6.173
11054TIP3   OH233104   6.808   0.631   0.898
11054TIP3    H133105   6.768   0.656   0.815
11054TIP3    H233106   6.841   0.542   0.884
11055TIP3   OH233107   1.068   4.369   6.076
11055TIP3    H133108   1.056   4.380   6.170
11055TIP3    H233109   1.066   4.274   6.063
11056TIP3   OH233110   7.300   0.660   0.511
11056TIP3    H133111   7.374   0.685   0.456
11056TIP3    H233112   7.229   0.719   0.484
11057TIP3   OH233113   0.815   4.069   6.523
11057TIP3    H133114   0.769   4.031   6.599
11057TIP3    H233115   0.817   3.998   6.459
11058TIP3   OH233116   6.608   0.127   0.736
11058TIP3    H133117   6.532   0.181   0.758
11058TIP3    H233118   6.668   0.187   0.692
11059TIP3   OH233119   0.852   3.892   6.306
11059TIP3    H133120   0.827   3.908   6.215
11059TIP3    H233121   0.948   3.897   6.306
11060TIP3   OH233122   7.183   0.536   0.867
11060TIP3    H133123   7.254   0.504   0.812
11060TIP3    H233124   7.177   0.473   0.939
11061TIP3   OH233125   1.631   4.196   5.991
11061TIP3    H133126   1.617   4.151   5.908
11061TIP3    H233127   1.602   4.286   5.975
11062TIP3   OH233128   3.938   7.999   0.901
11062TIP3    H133129   3.942   7.926   0.839
11062TIP3    H233130   3.876   8.060   0.861
11063TIP3   OH233131   3.957   7.768   0.753
11063TIP3    H133132   4.023   7.788   0.686
11063TIP3    H233133   3.875   7.762   0.705
11064TIP3   OH233134   6.787   0.276   0.594
11064TIP3    H133135   6.821   0.207   0.538
11064TIP3    H233136   6.744   0.337   0.534
11065TIP3   OH233137   7.377   0.220   0.901
11065TIP3    H133138   7.385   0.137   0.853
11065TIP3    H233139   7.457   0.268   0.878
11066TIP3   OH233140   7.408   0.497   0.695
11066TIP3    H133141   7.358   0.558   0.641
11066TIP3    H233142   7.497   0.503   0.662
11067TIP3   OH233143   3.975   7.517   0.855
11067TIP3    H133144   3.972   7.603   0.815
11067TIP3    H233145   3.886   7.500   0.883
11068TIP3   OH233146   7.016   0.054   1.002
11068TIP3    H133147   7.000   0.102   1.083
11068TIP3    H233148   6.928   0.036   0.967
11069TIP3   OH233149   4.364   7.980   0.818
11069TIP3    H133150   4.308   8.009   0.890
11069TIP3    H233151   4.428   7.922   0.859
11070TIP3   OH233152   4.721   7.895   1.139
11070TIP3    H133153   4.734   7.802   1.158
11070TIP3    H233154   4.684   7.932   1.219
11071TIP3   OH233155   4.153   7.333   0.953
11071TIP3    H133156   4.231   7.383   0.978
11071TIP3    H233157   4.087   7.400   0.932
11072TIP3   OH233158   0.666   4.949   6.268
11072TIP3    H133159   0.741   4.927   6.213
11072TIP3    H233160   0.618   5.015   6.217
11073TIP3   OH233161   1.908   5.145   6.858
11073TIP3    H133162   1.930   5.170   6.947
11073TIP3    H233163   1.970   5.194   6.803
11074TIP3   OH233164   7.601   1.162   0.195
11074TIP3    H133165   7.553   1.079   0.192
11074TIP3    H233166   7.670   1.148   0.260
11075TIP3   OH233167   7.636   0.875   0.785
11075TIP3    H133168   7.568   0.882   0.852
11075TIP3    H233169   7.682   0.960   0.788
11076TIP3   OH233170   1.805   4.392   6.325
11076TIP3    H133171   1.865   4.462   6.300
11076TIP3    H233172   1.844   4.353   6.403
11077TIP3   OH233173   1.915   4.244   6.534
11077TIP3    H133174   1.849   4.207   6.592
11077TIP3    H233175   1.982   4.279   6.593
11078TIP3   OH233176   1.971   4.655   6.955
11078TIP3    H133177   2.025   4.586   6.917
11078TIP3    H233178   1.974   4.726   6.891
11079TIP3   OH233179   7.457   0.925   0.209
11079TIP3    H133180   7.391   0.972   0.261
11079TIP3    H233181   7.406   0.885   0.138
11080TIP3   OH233182   1.831   4.165   6.174
11080TIP3    H133183   1.761   4.168   6.110
11080TIP3    H233184   1.818   4.242   6.229
11081TIP3   OH233185   1.698   3.810   6.103
11081TIP3    H133186   1.652   3.846   6.028
11081TIP3    H233187   1.692   3.716   6.093
11082TIP3   OH233188   1.713   4.107   6.679
11082TIP3    H133189   1.717   4.014   6.656
11082TIP3    H233190   1.688   4.108   6.771
11083TIP3   OH233191   7.651   0.543   0.562
11083TIP3    H133192   7.721   0.482   0.536
11083TIP3    H233193   7.624   0.584   0.480
11084TIP3   OH233194   7.850   0.342   0.566
11084TIP3    H133195   7.776   0.313   0.620
11084TIP3    H233196   7.923   0.286   0.593
11085TIP3   OH233197   1.653   3.539   6.060
11085TIP3    H133198   1.716   3.518   6.129
11085TIP3    H233199   1.570   3.502   6.091
11086TIP3   OH233200   1.721   3.844   6.547
11086TIP3    H133201   1.762   3.759   6.563
11086TIP3    H233202   1.765   3.878   6.469
11087TIP3   OH233203   7.562   0.002   0.118
11087TIP3    H133204   7.646   0.021   0.076
11087TIP3    H233205   7.569   0.044   0.204
11088TIP3   OH233206   7.612   0.163   0.345
11088TIP3    H133207   7.535   0.197   0.391
11088TIP3    H233208   7.647   0.239   0.299
11089TIP3   OH233209   5.230   7.773   0.924
11089TIP3    H133210   5.308   7.730   0.888
11089TIP3    H233211   5.242   7.866   0.903
11090TIP3   OH233212   1.836   3.593   6.594
11090TIP3    H133213   1.877   3.577   6.679
11090TIP3    H233214   1.772   3.523   6.585
11091TIP3   OH233215   3.303   7.586   0.439
11091TIP3    H133216   3.354   7.506   0.453
11091TIP3    H233217   3.347   7.653   0.491
11092TIP3   OH233218   5.074   7.917   0.632
11092TIP3    H133219   5.003   7.964   0.676
11092TIP3    H233220   5.030   7.846   0.585
11093TIP3   OH233221   1.872   3.504   6.228
11093TIP3    H133222   1.916   3.438   6.175
11093TIP3    H233223   1.936   3.575   6.236
11094TIP3   OH233224   3.202   7.361   0.063
11094TIP3    H133225   3.139   7.295   0.091
11094TIP3    H233226   3.159   7.406  -0.010
11095TIP3   OH233227   1.464   5.069   6.505
11095TIP3    H133228   1.518   5.052   6.427
11095TIP3    H233229   1.513   5.136   6.553
11096TIP3   OH233230   6.427   0.912   0.496
11096TIP3    H133231   6.379   0.981   0.450
11096TIP3    H233232   6.512   0.910   0.452
11097TIP3   OH233233   6.847   1.105   0.614
11097TIP3    H133234   6.875   1.104   0.706
11097TIP3    H233235   6.911   1.162   0.571
11098TIP3   OH233236   7.030   1.272   0.497
11098TIP3    H133237   7.084   1.214   0.443
11098TIP3    H233238   7.093   1.315   0.555
11099TIP3   OH233239   4.992   7.688   0.495
11099TIP3    H133240   4.924   7.698   0.428
11099TIP3    H233241   5.025   7.599   0.482
11100TIP3   OH233242   6.309   1.112   0.329
11100TIP3    H133243   6.239   1.170   0.358
11100TIP3    H233244   6.267   1.053   0.266
11101TIP3   OH233245   6.764   1.129   0.181
11101TIP3    H133246   6.705   1.136   0.106
11101TIP3    H233247   6.764   1.217   0.220
11102TIP3   OH233248   7.027   1.092   0.239
11102TIP3    H133249   6.935   1.099   0.216
11102TIP3    H233250   7.070   1.158   0.185
11103TIP3   OH233251   7.229   1.265   0.135
11103TIP3    H133252   7.219   1.349   0.090
11103TIP3    H233253   7.253   1.203   0.066
11104TIP3   OH233254   6.237   0.815   0.051
11104TIP3    H133255   6.221   0.737   0.106
11104TIP3    H233256   6.323   0.846   0.079
11105TIP3   OH233257   6.496   0.885   0.136
11105TIP3    H133258   6.514   0.792   0.119
11105TIP3    H233259   6.545   0.906   0.215
11106TIP3   OH233260   4.180   7.557   0.118
11106TIP3    H133261   4.165   7.487   0.181
11106TIP3    H233262   4.275   7.570   0.119
11107TIP3   OH233263   4.717   7.482   0.119
11107TIP3    H133264   4.755   7.519   0.039
11107TIP3    H233265   4.624   7.502   0.114
11108TIP3   OH233266   1.993   3.515   6.812
11108TIP3    H133267   2.055   3.458   6.766
11108TIP3    H233268   2.033   3.602   6.807
11109TIP3   OH233269   3.434   7.287   0.186
11109TIP3    H133270   3.346   7.302   0.150
11109TIP3    H233271   3.453   7.195   0.165
11110TIP3   OH233272   0.457   3.121   6.803
11110TIP3    H133273   0.481   3.173   6.727
11110TIP3    H233274   0.427   3.185   6.868
11111TIP3   OH233275   3.902   7.316   0.088
11111TIP3    H133276   3.933   7.352   0.005
11111TIP3    H233277   3.975   7.327   0.148
11112TIP3   OH233278   4.446   7.483   0.082
11112TIP3    H133279   4.433   7.478  -0.013
11112TIP3    H233280   4.434   7.394   0.113
11113TIP3   OH233281   1.660   3.378   6.609
11113TIP3    H133282   1.576   3.423   6.621
11113TIP3    H233283   1.646   3.291   6.646
11114TIP3   OH233284   0.566   3.261   6.585
11114TIP3    H133285   0.621   3.204   6.532
11114TIP3    H233286   0.626   3.324   6.624
11115TIP3   OH233287   1.028   3.474   6.685
11115TIP3    H133288   1.101   3.435   6.733
11115TIP3    H233289   1.034   3.568   6.704
11116TIP3   OH233290   0.908   4.877   6.159
11116TIP3    H133291   0.994   4.905   6.129
11116TIP3    H233292   0.886   4.803   6.104
11117TIP3   OH233293   1.615   5.012   6.277
11117TIP3    H133294   1.608   4.917   6.272
11117TIP3    H233295   1.570   5.044   6.198
11118TIP3   OH233296   4.784   7.620   1.054
11118TIP3    H133297   4.787   7.591   1.146
11118TIP3    H233298   4.864   7.670   1.042
11119TIP3   OH233299   7.507   1.141   0.513
11119TIP3    H133300   7.432   1.112   0.462
11119TIP3    H233301   7.491   1.234   0.528
11120TIP3   OH233302   3.107   4.543   6.198
11120TIP3    H133303   3.072   4.629   6.178
11120TIP3    H233304   3.037   4.482   6.174
11121TIP3   OH233305   3.100   4.532   6.630
11121TIP3    H133306   3.155   4.515   6.706
11121TIP3    H233307   3.057   4.448   6.612
11122TIP3   OH233308   8.067   0.383   0.025
11122TIP3    H133309   8.106   0.335   0.098
11122TIP3    H233310   8.141   0.407  -0.031
11123TIP3   OH233311   3.363   4.842   6.300
11123TIP3    H133312   3.357   4.773   6.367
11123TIP3    H233313   3.388   4.920   6.349
11124TIP3   OH233314   2.396   4.826   6.660
11124TIP3    H133315   2.378   4.732   6.664
11124TIP3    H233316   2.491   4.832   6.653
11125TIP3   OH233317   2.075   4.028   6.442
11125TIP3    H133318   2.030   4.108   6.471
11125TIP3    H233319   2.007   3.976   6.400
11126TIP3   OH233320   2.151   4.328   6.663
11126TIP3    H133321   2.203   4.252   6.689
11126TIP3    H233322   2.215   4.389   6.626
11127TIP3   OH233323   3.038   5.269   6.319
11127TIP3    H133324   3.061   5.209   6.249
11127TIP3    H233325   3.049   5.217   6.399
11128TIP3   OH233326   2.913   4.754   6.631
11128TIP3    H133327   2.958   4.673   6.607
11128TIP3    H233328   2.983   4.813   6.661
11129TIP3   OH233329   3.946   4.056   6.648
11129TIP3    H133330   3.958   4.138   6.695
11129TIP3    H233331   3.976   4.075   6.559
11130TIP3   OH233332   3.314   4.246   6.665
11130TIP3    H133333   3.346   4.160   6.694
11130TIP3    H233334   3.279   4.230   6.578
11131TIP3   OH233335   2.676   3.900   6.622
11131TIP3    H133336   2.652   3.973   6.565
11131TIP3    H233337   2.621   3.827   6.593
11132TIP3   OH233338   3.371   4.001   6.263
11132TIP3    H133339   3.433   3.994   6.335
11132TIP3    H233340   3.423   4.033   6.190
11133TIP3   OH233341   2.305   4.117   6.750
11133TIP3    H133342   2.390   4.099   6.791
11133TIP3    H233343   2.305   4.063   6.670
11134TIP3   OH233344   2.715   4.314   6.572
11134TIP3    H133345   2.810   4.298   6.578
11134TIP3    H233346   2.679   4.232   6.539
11135TIP3   OH233347   3.978   4.271   6.823
11135TIP3    H133348   3.912   4.333   6.792
11135TIP3    H233349   3.942   4.237   6.905
11136TIP3   OH233350   5.490   7.910   0.132
11136TIP3    H133351   5.436   7.945   0.061
11136TIP3    H233352   5.438   7.927   0.211
11137TIP3   OH233353   2.996   4.762   6.069
11137TIP3    H133354   2.952   4.731   5.990
11137TIP3    H233355   2.945   4.839   6.096
11138TIP3   OH233356   2.748   4.679   6.840
11138TIP3    H133357   2.695   4.751   6.875
11138TIP3    H233358   2.797   4.719   6.769
11139TIP3   OH233359   3.526   4.024   6.486
11139TIP3    H133360   3.482   4.004   6.568
11139TIP3    H233361   3.583   4.098   6.506
11140TIP3   OH233362   2.551   4.015   6.842
11140TIP3    H133363   2.607   4.088   6.868
11140TIP3    H233364   2.598   3.971   6.772
11141TIP3   OH233365   8.260   0.877   0.007
11141TIP3    H133366   8.246   0.967  -0.023
11141TIP3    H233367   8.182   0.856   0.059
11142TIP3   OH233368   1.974   4.585   6.206
11142TIP3    H133369   1.933   4.604   6.122
11142TIP3    H233370   1.997   4.672   6.241
11143TIP3   OH233371   3.403   5.087   6.442
11143TIP3    H133372   3.315   5.082   6.478
11143TIP3    H233373   3.405   5.170   6.394
11144TIP3   OH233374   3.728   3.944   6.799
11144TIP3    H133375   3.649   3.987   6.767
11144TIP3    H233376   3.798   3.977   6.743
11145TIP3   OH233377   3.001   3.596   6.807
11145TIP3    H133378   2.994   3.504   6.832
11145TIP3    H233379   2.922   3.637   6.844
11146TIP3   OH233380   3.117   5.114   6.100
11146TIP3    H133381   3.169   5.035   6.087
11146TIP3    H233382   3.174   5.185   6.070
11147TIP3   OH233383   3.250   4.878   6.051
11147TIP3    H133384   3.171   4.824   6.059
11147TIP3    H233385   3.300   4.859   6.131
11148TIP3   OH233386   3.634   4.980   6.781
11148TIP3    H133387   3.619   4.904   6.725
11148TIP3    H233388   3.623   5.055   6.724
11149TIP3   OH233389   2.937   4.378   6.048
11149TIP3    H133390   2.851   4.418   6.034
11149TIP3    H233391   2.977   4.376   5.962
11150TIP3   OH233392   2.910   4.184   5.737
11150TIP3    H133393   2.976   4.228   5.789
11150TIP3    H233394   2.959   4.116   5.690
11151TIP3   OH233395   3.824   4.643   6.645
11151TIP3    H133396   3.740   4.688   6.645
11151TIP3    H233397   3.857   4.654   6.556
11152TIP3   OH233398   3.290   4.470   6.010
11152TIP3    H133399   3.237   4.499   6.084
11152TIP3    H233400   3.373   4.443   6.049
11153TIP3   OH233401   0.689   0.487   0.021
11153TIP3    H133402   0.686   0.570   0.069
11153TIP3    H233403   0.605   0.484  -0.026
11154TIP3   OH233404   2.520   4.447   6.417
11154TIP3    H133405   2.483   4.385   6.354
11154TIP3    H233406   2.591   4.399   6.459
11155TIP3   OH233407   2.660   4.873   6.561
11155TIP3    H133408   2.635   4.856   6.470
11155TIP3    H233409   2.746   4.834   6.571
11156TIP3   OH233410   2.615   4.443   6.795
11156TIP3    H133411   2.655   4.406   6.716
11156TIP3    H233412   2.665   4.524   6.811
11157TIP3   OH233413   3.160   5.086   6.567
11157TIP3    H133414   3.151   5.164   6.622
11157TIP3    H233415   3.150   5.013   6.627
11158TIP3   OH233416   8.459   0.972   0.177
11158TIP3    H133417   8.398   1.029   0.223
11158TIP3    H233418   8.404   0.920   0.118
11159TIP3   OH233419   3.132   4.331   5.834
11159TIP3    H133420   3.188   4.380   5.895
11159TIP3    H233421   3.170   4.349   5.748
11160TIP3   OH233422   8.211   0.522   0.322
11160TIP3    H133423   8.214   0.616   0.339
11160TIP3    H233424   8.118   0.503   0.314
11161TIP3   OH233425   2.864   5.003   6.102
11161TIP3    H133426   2.947   5.050   6.111
11161TIP3    H233427   2.808   5.064   6.055
11162TIP3   OH233428   8.251   1.131   0.260
11162TIP3    H133429   8.223   1.140   0.169
11162TIP3    H233430   8.169   1.115   0.308
11163TIP3   OH233431   3.638   3.555   5.906
11163TIP3    H133432   3.561   3.573   5.960
11163TIP3    H233433   3.645   3.629   5.847
11164TIP3   OH233434   2.392   4.287   6.219
11164TIP3    H133435   2.313   4.331   6.190
11164TIP3    H233436   2.365   4.197   6.238
11165TIP3   OH233437   3.465   4.929   5.501
11165TIP3    H133438   3.456   5.017   5.463
11165TIP3    H233439   3.546   4.895   5.465
11166TIP3   OH233440   7.841   0.692   0.209
11166TIP3    H133441   7.771   0.672   0.147
11166TIP3    H233442   7.876   0.607   0.234
11167TIP3   OH233443   2.028   4.881   6.795
11167TIP3    H133444   2.123   4.891   6.802
11167TIP3    H233445   1.992   4.959   6.836
11168TIP3   OH233446   3.866   5.325   6.858
11168TIP3    H133447   3.871   5.231   6.872
11168TIP3    H233448   3.784   5.352   6.899
11169TIP3   OH233449   0.146   1.119   0.039
11169TIP3    H133450   0.137   1.209   0.069
11169TIP3    H233451   0.080   1.070   0.088
11170TIP3   OH233452   2.752   5.211   5.933
11170TIP3    H133453   2.708   5.197   5.849
11170TIP3    H233454   2.720   5.297   5.962
11171TIP3   OH233455   2.193   5.079   6.313
11171TIP3    H133456   2.238   5.070   6.398
11171TIP3    H233457   2.143   4.997   6.304
11172TIP3   OH233458   2.992   5.141   5.568
11172TIP3    H133459   3.077   5.104   5.545
11172TIP3    H233460   3.001   5.165   5.661
11173TIP3   OH233461   3.008   5.203   5.835
11173TIP3    H133462   2.923   5.200   5.879
11173TIP3    H233463   3.071   5.177   5.902
11174TIP3   OH233464   0.938   0.449   0.180
11174TIP3    H133465   0.854   0.455   0.134
11174TIP3    H233466   0.962   0.357   0.173
11175TIP3   OH233467   8.040   0.879   0.177
11175TIP3    H133468   8.092   0.866   0.256
11175TIP3    H233469   7.969   0.815   0.183
11176TIP3   OH233470   2.762   3.692   6.923
11176TIP3    H133471   2.679   3.660   6.888
11176TIP3    H233472   2.738   3.771   6.973
11177TIP3   OH233473   6.143   7.824   0.189
11177TIP3    H133474   6.213   7.800   0.249
11177TIP3    H233475   6.062   7.802   0.235
11178TIP3   OH233476   0.718   0.219   0.101
11178TIP3    H133477   0.670   0.214   0.183
11178TIP3    H233478   0.698   0.306   0.066
11179TIP3   OH233479   3.213   4.428   5.576
11179TIP3    H133480   3.168   4.375   5.511
11179TIP3    H233481   3.304   4.430   5.546
11180TIP3   OH233482   2.908   3.732   5.899
11180TIP3    H133483   2.875   3.739   5.989
11180TIP3    H233484   2.872   3.649   5.867
11181TIP3   OH233485   8.368   0.218   0.004
11181TIP3    H133486   8.320   0.224   0.087
11181TIP3    H233487   8.345   0.298  -0.042
11182TIP3   OH233488   2.574   4.101   6.465
11182TIP3    H133489   2.485   4.074   6.490
11182TIP3    H233490   2.585   4.067   6.376
11183TIP3   OH233491   3.059   4.175   6.190
11183TIP3    H133492   3.012   4.247   6.148
11183TIP3    H233493   3.117   4.141   6.122
11184TIP3   OH233494   0.421   0.455   0.312
11184TIP3    H133495   0.390   0.385   0.369
11184TIP3    H233496   0.515   0.463   0.333
11185TIP3   OH233497   3.226   4.190   6.412
11185TIP3    H133498   3.158   4.208   6.348
11185TIP3    H233499   3.274   4.115   6.376
11186TIP3   OH233500   8.202   0.239   0.221
11186TIP3    H133501   8.209   0.302   0.293
11186TIP3    H233502   8.185   0.156   0.265
11187TIP3   OH233503   2.578   3.716   5.875
11187TIP3    H133504   2.573   3.719   5.970
11187TIP3    H233505   2.498   3.759   5.845
11188TIP3   OH233506   2.114   3.751   6.763
11188TIP3    H133507   2.194   3.791   6.797
11188TIP3    H233508   2.133   3.736   6.671
11189TIP3   OH233509   2.043   3.724   6.247
11189TIP3    H133510   2.086   3.759   6.169
11189TIP3    H233511   1.979   3.791   6.271
11190TIP3   OH233512   3.267   4.445   6.842
11190TIP3    H133513   3.292   4.379   6.777
11190TIP3    H233514   3.226   4.395   6.912
11191TIP3   OH233515   2.943   3.891   6.514
11191TIP3    H133516   2.865   3.888   6.569
11191TIP3    H233517   3.015   3.879   6.576
11192TIP3   OH233518   2.335   3.974   6.519
11192TIP3    H133519   2.246   3.979   6.484
11192TIP3    H233520   2.362   3.883   6.505
11193TIP3   OH233521   2.592   3.980   6.220
11193TIP3    H133522   2.687   3.989   6.210
11193TIP3    H233523   2.557   3.998   6.132
11194TIP3   OH233524   3.379   3.982   6.719
11194TIP3    H133525   3.366   3.998   6.813
11194TIP3    H233526   3.312   3.918   6.696
11195TIP3   OH233527   2.481   4.008   5.971
11195TIP3    H133528   2.415   3.958   5.923
11195TIP3    H233529   2.536   4.047   5.902
11196TIP3   OH233530   3.580   5.692   6.930
11196TIP3    H133531   3.571   5.688   6.835
11196TIP3    H233532   3.636   5.768   6.946
11197TIP3   OH233533   8.195   0.791   0.410
11197TIP3    H133534   8.275   0.808   0.458
11197TIP3    H233535   8.125   0.798   0.475
11198TIP3   OH233536   2.988   4.263   6.621
11198TIP3    H133537   3.054   4.212   6.573
11198TIP3    H233538   2.986   4.224   6.708
11199TIP3   OH233539   2.483   3.728   6.507
11199TIP3    H133540   2.445   3.657   6.559
11199TIP3    H233541   2.506   3.688   6.424
11200TIP3   OH233542   2.966   4.168   6.884
11200TIP3    H133543   2.879   4.200   6.910
11200TIP3    H233544   3.027   4.216   6.939
11201TIP3   OH233545   2.695   4.507   6.000
11201TIP3    H133546   2.621   4.452   5.975
11201TIP3    H233547   2.667   4.550   6.080
11202TIP3   OH233548   3.585   4.775   6.603
11202TIP3    H133549   3.622   4.823   6.529
11202TIP3    H233550   3.507   4.732   6.567
11203TIP3   OH233551   3.163   3.829   5.914
11203TIP3    H133552   3.070   3.808   5.905
11203TIP3    H233553   3.166   3.924   5.922
11204TIP3   OH233554   0.273   0.850   0.074
11204TIP3    H133555   0.327   0.837   0.152
11204TIP3    H233556   0.234   0.937   0.086
11205TIP3   OH233557   3.222   4.097   5.975
11205TIP3    H133558   3.317   4.095   5.989
11205TIP3    H233559   3.208   4.172   5.916
11206TIP3   OH233560   2.393   4.543   6.644
11206TIP3    H133561   2.430   4.519   6.559
11206TIP3    H233562   2.455   4.508   6.708
11207TIP3   OH233563   2.843   4.678   5.849
11207TIP3    H133564   2.793   4.759   5.844
11207TIP3    H233565   2.787   4.618   5.898
11208TIP3   OH233566   7.939   0.459   0.333
11208TIP3    H133567   7.935   0.434   0.425
11208TIP3    H233568   7.865   0.415   0.292
11209TIP3   OH233569   0.181   0.594   0.366
11209TIP3    H133570   0.113   0.533   0.338
11209TIP3    H233571   0.262   0.558   0.331
11210TIP3   OH233572   3.250   5.148   6.903
11210TIP3    H133573   3.155   5.134   6.906
11210TIP3    H233574   3.271   5.182   6.990
11211TIP3   OH233575   3.633   4.185   5.797
11211TIP3    H133576   3.572   4.144   5.736
11211TIP3    H233577   3.646   4.274   5.762
11212TIP3   OH233578   3.881   5.040   6.879
11212TIP3    H133579   3.787   5.030   6.866
11212TIP3    H233580   3.920   5.018   6.795
11213TIP3   OH233581   3.324   5.006   5.726
11213TIP3    H133582   3.334   4.944   5.799
11213TIP3    H233583   3.374   4.967   5.654
11214TIP3   OH233584   3.358   4.637   6.499
11214TIP3    H133585   3.269   4.614   6.526
11214TIP3    H233586   3.393   4.555   6.463
11215TIP3   OH233587   2.512   4.873   6.319
11215TIP3    H133588   2.506   4.949   6.261
11215TIP3    H233589   2.423   4.862   6.353
11216TIP3   OH233590   2.065   4.151   6.032
11216TIP3    H133591   2.110   4.233   6.055
11216TIP3    H233592   1.985   4.152   6.085
11217TIP3   OH233593   2.592   4.629   6.217
11217TIP3    H133594   2.577   4.718   6.251
11217TIP3    H233595   2.569   4.572   6.290
11218TIP3   OH233596   2.796   5.197   6.772
11218TIP3    H133597   2.833   5.270   6.723
11218TIP3    H233598   2.870   5.164   6.823
11219TIP3   OH233599   2.426   5.095   6.167
11219TIP3    H133600   2.339   5.099   6.207
11219TIP3    H233601   2.458   5.185   6.170
11220TIP3   OH233602   3.146   4.864   6.740
11220TIP3    H133603   3.132   4.860   6.835
11220TIP3    H233604   3.224   4.810   6.725
11221TIP3   OH233605   3.405   5.354   6.787
11221TIP3    H133606   3.337   5.291   6.809
11221TIP3    H233607   3.369   5.405   6.715
11222TIP3   OH233608   3.450   5.197   5.422
11222TIP3    H133609   3.472   5.251   5.347
11222TIP3    H233610   3.379   5.244   5.466
11223TIP3   OH233611   5.324   8.007   0.340
11223TIP3    H133612   5.230   8.008   0.357
11223TIP3    H233613   5.360   7.948   0.406
11224TIP3   OH233614   3.303   4.628   5.784
11224TIP3    H133615   3.293   4.592   5.872
11224TIP3    H233616   3.395   4.652   5.777
11225TIP3   OH233617   7.891   1.078  -0.001
11225TIP3    H133618   7.941   1.013   0.049
11225TIP3    H233619   7.907   1.161   0.043
11226TIP3   OH233620   2.489   4.704   5.632
11226TIP3    H133621   2.497   4.613   5.603
11226TIP3    H233622   2.474   4.698   5.726
11227TIP3   OH233623   2.431   4.718   5.904
11227TIP3    H133624   2.485   4.691   5.978
11227TIP3    H233625   2.431   4.813   5.908
11228TIP3   OH233626   2.164   4.404   6.111
11228TIP3    H133627   2.101   4.453   6.163
11228TIP3    H233628   2.183   4.461   6.036
11229TIP3   OH233629   0.505   0.041   0.043
11229TIP3    H133630   0.588   0.078   0.071
11229TIP3    H233631   0.494  -0.038   0.097
11230TIP3   OH233632   3.226   3.779   6.179
11230TIP3    H133633   3.204   3.797   6.088
11230TIP3    H233634   3.269   3.859   6.209
11231TIP3   OH233635   2.701   4.906   5.830
11231TIP3    H133636   2.617   4.928   5.870
11231TIP3    H233637   2.728   4.986   5.785
11232TIP3   OH233638   2.872   3.986   6.264
11232TIP3    H133639   2.935   4.053   6.239
11232TIP3    H233640   2.895   3.964   6.354
11233TIP3   OH233641   0.341   0.267   0.096
11233TIP3    H133642   0.372   0.309   0.176
11233TIP3    H233643   0.393   0.187   0.090
11234TIP3   OH233644   3.037   3.678   6.352
11234TIP3    H133645   3.015   3.756   6.403
11234TIP3    H233646   3.109   3.706   6.295
11235TIP3   OH233647   2.454   4.991   5.915
11235TIP3    H133648   2.438   5.064   5.855
11235TIP3    H233649   2.443   5.029   6.002
11236TIP3   OH233650   2.555   3.707   6.153
11236TIP3    H133651   2.541   3.796   6.186
11236TIP3    H233652   2.649   3.693   6.162
11237TIP3   OH233653   0.994   0.182   0.103
11237TIP3    H133654   0.900   0.174   0.089
11237TIP3    H233655   1.019   0.098   0.143
11238TIP3   OH233656   3.450   4.379   6.411
11238TIP3    H133657   3.374   4.322   6.423
11238TIP3    H233658   3.518   4.340   6.465
11239TIP3   OH233659   2.188   4.581   5.894
11239TIP3    H133660   2.259   4.645   5.903
11239TIP3    H233661   2.220   4.519   5.829
11240TIP3   OH233662   2.095   3.871   6.021
11240TIP3    H133663   2.092   3.967   6.025
11240TIP3    H233664   2.022   3.847   5.963
11241TIP3   OH233665   3.430   5.350   6.352
11241TIP3    H133666   3.390   5.401   6.281
11241TIP3    H233667   3.524   5.363   6.341
11242TIP3   OH233668   2.500   3.613   6.878
11242TIP3    H133669   2.463   3.582   6.795
11242TIP3    H233670   2.495   3.536   6.935
11243TIP3   OH233671   2.019   4.859   6.284
11243TIP3    H133672   1.971   4.892   6.360
11243TIP3    H233673   1.976   4.899   6.209
11244TIP3   OH233674   7.892   1.381   0.414
11244TIP3    H133675   7.975   1.383   0.462
11244TIP3    H233676   7.872   1.288   0.405
11245TIP3   OH233677   8.355   1.295   0.455
11245TIP3    H133678   8.445   1.266   0.467
11245TIP3    H233679   8.322   1.241   0.383
11246TIP3   OH233680   2.664   4.885   5.521
11246TIP3    H133681   2.598   4.830   5.563
11246TIP3    H233682   2.747   4.840   5.537
11247TIP3   OH233683   0.469   1.234   0.215
11247TIP3    H133684   0.483   1.163   0.279
11247TIP3    H233685   0.543   1.293   0.230
11248TIP3   OH233686   7.990   0.792   0.601
11248TIP3    H133687   8.009   0.699   0.610
11248TIP3    H233688   7.905   0.795   0.557
11249TIP3   OH233689   2.315   4.397   5.738
11249TIP3    H133690   2.365   4.370   5.815
11249TIP3    H233691   2.381   4.411   5.670
11250TIP3   OH233692   0.111   0.869   0.383
11250TIP3    H133693   0.068   0.889   0.301
11250TIP3    H233694   0.147   0.781   0.370
11251TIP3   OH233695   2.980   4.603   5.629
11251TIP3    H133696   2.922   4.632   5.699
11251TIP3    H233697   2.931   4.534   5.584
11252TIP3   OH233698   3.418   4.922   6.942
11252TIP3    H133699   3.495   4.947   6.891
11252TIP3    H233700   3.354   4.991   6.924
11253TIP3   OH233701   8.110   0.543   0.603
11253TIP3    H133702   8.182   0.516   0.545
11253TIP3    H233703   8.152   0.559   0.687
11254TIP3   OH233704   2.486   4.333   5.951
11254TIP3    H133705   2.462   4.304   6.039
11254TIP3    H233706   2.533   4.259   5.913
11255TIP3   OH233707   8.471   0.422   0.272
11255TIP3    H133708   8.383   0.461   0.281
11255TIP3    H233709   8.500   0.449   0.185
11256TIP3   OH233710   2.634   4.153   5.793
11256TIP3    H133711   2.605   4.160   5.702
11256TIP3    H233712   2.730   4.158   5.788
11257TIP3   OH233713   0.470   0.786   0.350
11257TIP3    H133714   0.538   0.750   0.293
11257TIP3    H233715   0.468   0.727   0.425
11258TIP3   OH233716   3.454   4.483   5.459
11258TIP3    H133717   3.427   4.435   5.381
11258TIP3    H233718   3.515   4.549   5.426
11259TIP3   OH233719   0.072   0.186   0.364
11259TIP3    H133720   0.072   0.113   0.303
11259TIP3    H233721   0.036   0.259   0.315
11260TIP3   OH233722   5.747   7.999   0.166
11260TIP3    H133723   5.772   8.036   0.082
11260TIP3    H233724   5.656   7.971   0.154
11261TIP3   OH233725   0.084   0.509   0.042
11261TIP3    H133726   0.174   0.540   0.027
11261TIP3    H233727   0.030   0.570  -0.008
11262TIP3   OH233728   0.686   0.459   0.426
11262TIP3    H133729   0.718   0.369   0.429
11262TIP3    H233730   0.764   0.512   0.410
11263TIP3   OH233731   0.709   0.734   0.161
11263TIP3    H133732   0.656   0.796   0.112
11263TIP3    H233733   0.798   0.748   0.131
11264TIP3   OH233734   8.462   0.299   0.601
11264TIP3    H133735   8.391   0.237   0.620
11264TIP3    H233736   8.486   0.281   0.511
11265TIP3   OH233737   5.873   7.765   0.248
11265TIP3    H133738   5.830   7.846   0.219
11265TIP3    H233739   5.805   7.698   0.239
11266TIP3   OH233740   0.328   0.242   0.450
11266TIP3    H133741   0.316   0.232   0.544
11266TIP3    H233742   0.243   0.217   0.413
11267TIP3   OH233743   0.571   0.183   0.326
11267TIP3    H133744   0.490   0.186   0.377
11267TIP3    H233745   0.638   0.153   0.388
11268TIP3   OH233746   0.787   0.134   0.489
11268TIP3    H133747   0.826   0.046   0.487
11268TIP3    H233748   0.799   0.163   0.579
11269TIP3   OH233749   8.308   0.076   0.652
11269TIP3    H133750   8.314   0.002   0.592
11269TIP3    H233751   8.363   0.052   0.726
11270TIP3   OH233752   5.949   7.767   0.506
11270TIP3    H133753   6.005   7.689   0.511
11270TIP3    H233754   5.917   7.768   0.416
11271TIP3   OH233755   6.050   7.994   0.614
11271TIP3    H133756   6.025   7.916   0.566
11271TIP3    H233757   5.972   8.050   0.611
11272TIP3   OH233758   2.467   5.200   5.732
11272TIP3    H133759   2.554   5.179   5.697
11272TIP3    H233760   2.423   5.245   5.660
11273TIP3   OH233761   1.913   4.584   5.906
11273TIP3    H133762   2.009   4.592   5.906
11273TIP3    H233763   1.897   4.497   5.869
11274TIP3   OH233764   1.818   5.168   6.374
11274TIP3    H133765   1.754   5.114   6.328
11274TIP3    H233766   1.863   5.108   6.433
11275TIP3   OH233767   1.963   5.002   6.540
11275TIP3    H133768   1.954   4.930   6.603
11275TIP3    H233769   2.015   5.068   6.586
11276TIP3   OH233770   3.701   5.403   6.345
11276TIP3    H133771   3.723   5.436   6.432
11276TIP3    H233772   3.760   5.448   6.285
11277TIP3   OH233773   3.717   5.440   6.628
11277TIP3    H133774   3.673   5.355   6.621
11277TIP3    H233775   3.789   5.424   6.689
11278TIP3   OH233776   0.930   1.120   0.257
11278TIP3    H133777   0.857   1.127   0.318
11278TIP3    H233778   0.980   1.200   0.268
11279TIP3   OH233779   3.579   4.655   5.802
11279TIP3    H133780   3.638   4.724   5.772
11279TIP3    H233781   3.623   4.619   5.880
11280TIP3   OH233782   3.715   4.514   6.003
11280TIP3    H133783   3.651   4.474   6.062
11280TIP3    H233784   3.783   4.549   6.061
11281TIP3   OH233785   3.770   4.909   6.442
11281TIP3    H133786   3.823   4.841   6.402
11281TIP3    H233787   3.775   4.982   6.381
11282TIP3   OH233788   3.577   5.200   6.630
11282TIP3    H133789   3.511   5.244   6.683
11282TIP3    H233790   3.527   5.159   6.559
11283TIP3   OH233791   3.635   4.424   5.661
11283TIP3    H133792   3.568   4.430   5.593
11283TIP3    H233793   3.621   4.502   5.715
11284TIP3   OH233794   3.462   4.094   5.603
11284TIP3    H133795   3.457   4.117   5.511
11284TIP3    H233796   3.451   3.999   5.606
11285TIP3   OH233797   3.515   4.369   6.141
11285TIP3    H133798   3.523   4.275   6.129
11285TIP3    H233799   3.498   4.380   6.234
11286TIP3   OH233800   2.140   4.443   6.910
11286TIP3    H133801   2.128   4.403   6.824
11286TIP3    H233802   2.233   4.434   6.928
11287TIP3   OH233803   0.967   0.782   0.070
11287TIP3    H133804   1.033   0.715   0.053
11287TIP3    H233805   0.994   0.856   0.016
11288TIP3   OH233806   1.148   0.577   0.058
11288TIP3    H133807   1.075   0.529   0.096
11288TIP3    H233808   1.226   0.534   0.093
11289TIP3   OH233809   3.430   3.825   5.586
11289TIP3    H133810   3.504   3.790   5.634
11289TIP3    H233811   3.356   3.769   5.612
11290TIP3   OH233812   3.510   4.089   6.032
11290TIP3    H133813   3.555   4.006   6.045
11290TIP3    H233814   3.554   4.128   5.956
11291TIP3   OH233815   3.664   4.259   6.552
11291TIP3    H133816   3.746   4.275   6.504
11291TIP3    H233817   3.677   4.300   6.637
11292TIP3   OH233818   3.734   4.416   6.774
11292TIP3    H133819   3.664   4.444   6.833
11292TIP3    H233820   3.766   4.496   6.734
11293TIP3   OH233821   8.045   0.158   0.644
11293TIP3    H133822   8.138   0.136   0.638
11293TIP3    H233823   8.000   0.074   0.649
11294TIP3   OH233824   3.626   3.842   6.084
11294TIP3    H133825   3.674   3.828   6.166
11294TIP3    H233826   3.566   3.768   6.077
11295TIP3   OH233827   2.341   3.835   6.904
11295TIP3    H133828   2.393   3.755   6.905
11295TIP3    H233829   2.403   3.905   6.884
11296TIP3   OH233830   7.810   0.094   0.039
11296TIP3    H133831   7.851   0.083  -0.047
11296TIP3    H233832   7.856   0.168   0.078
11297TIP3   OH233833   3.666   3.756   5.719
11297TIP3    H133834   3.709   3.695   5.659
11297TIP3    H233835   3.725   3.831   5.725
11298TIP3   OH233836   2.101   3.645   6.504
11298TIP3    H133837   2.012   3.619   6.526
11298TIP3    H233838   2.097   3.670   6.412
11299TIP3   OH233839   3.253   5.316   5.989
11299TIP3    H133840   3.311   5.311   5.913
11299TIP3    H233841   3.288   5.388   6.042
11300TIP3   OH233842   5.204   7.690   0.308
11300TIP3    H133843   5.171   7.707   0.396
11300TIP3    H233844   5.140   7.731   0.250
11301TIP3   OH233845   8.033   1.104   0.430
11301TIP3    H133846   7.939   1.088   0.420
11301TIP3    H233847   8.049   1.090   0.523
11302TIP3   OH233848   2.567   5.160   6.919
11302TIP3    H133849   2.517   5.236   6.888
11302TIP3    H233850   2.652   5.168   6.876
11303TIP3   OH233851   0.129   1.385   0.119
11303TIP3    H133852   0.168   1.377   0.205
11303TIP3    H233853   0.190   1.440   0.069
11304TIP3   OH233854   3.148   5.549   6.927
11304TIP3    H133855   3.208   5.494   6.877
11304TIP3    H233856   3.206   5.604   6.981
11305TIP3   OH233857   7.895   1.400   0.025
11305TIP3    H133858   7.803   1.417   0.005
11305TIP3    H233859   7.917   1.463   0.093
11306TIP3   OH233860   2.460   5.394   6.819
11306TIP3    H133861   2.377   5.398   6.866
11306TIP3    H233862   2.436   5.414   6.728
11307TIP3   OH233863   2.870   5.410   6.609
11307TIP3    H133864   2.799   5.421   6.545
11307TIP3    H233865   2.880   5.496   6.649
11308TIP3   OH233866   3.131   5.342   6.668
11308TIP3    H133867   3.041   5.364   6.643
11308TIP3    H233868   3.185   5.404   6.619
11309TIP3   OH233869   3.328   5.500   6.558
11309TIP3    H133870   3.336   5.589   6.525
11309TIP3    H233871   3.363   5.445   6.488
11310TIP3   OH233872   2.141   5.176   6.690
11310TIP3    H133873   2.167   5.151   6.778
11310TIP3    H233874   2.211   5.145   6.633
11311TIP3   OH233875   2.343   5.066   6.545
11311TIP3    H133876   2.354   4.982   6.589
11311TIP3    H233877   2.430   5.106   6.549
11312TIP3   OH233878   2.611   5.149   6.569
11312TIP3    H133879   2.630   5.057   6.553
11312TIP3    H233880   2.666   5.172   6.644
11313TIP3   OH233881   3.165   3.795   6.658
11313TIP3    H133882   3.125   3.724   6.708
11313TIP3    H233883   3.233   3.753   6.606
11314TIP3   OH233884   3.671   3.705   6.531
11314TIP3    H133885   3.710   3.757   6.461
11314TIP3    H233886   3.584   3.743   6.543
11315TIP3   OH233887   3.790   3.794   6.301
11315TIP3    H133888   3.859   3.731   6.279
11315TIP3    H233889   3.830   3.879   6.287
11316TIP3   OH233890   2.390   3.510   6.648
11316TIP3    H133891   2.302   3.472   6.646
11316TIP3    H233892   2.449   3.434   6.649
11317TIP3   OH233893   2.289   3.364   6.256
11317TIP3    H133894   2.296   3.434   6.191
11317TIP3    H233895   2.231   3.400   6.323
11318TIP3   OH233896   2.896   3.535   6.548
11318TIP3    H133897   2.943   3.583   6.480
11318TIP3    H233898   2.936   3.563   6.630
11319TIP3   OH233899   3.375   3.677   6.525
11319TIP3    H133900   3.399   3.643   6.439
11319TIP3    H233901   3.386   3.602   6.585
11320TIP3   OH233902   3.445   3.629   6.090
11320TIP3    H133903   3.366   3.676   6.116
11320TIP3    H233904   3.435   3.542   6.128
11321TIP3   OH233905   1.903   4.978   6.064
11321TIP3    H133906   1.819   4.944   6.033
11321TIP3    H233907   1.905   5.068   6.034
11322TIP3   OH233908   2.354   3.541   6.050
11322TIP3    H133909   2.402   3.481   5.993
11322TIP3    H233910   2.422   3.596   6.090
11323TIP3   OH233911   2.829   3.734   6.165
11323TIP3    H133912   2.887   3.681   6.219
11323TIP3    H233913   2.844   3.824   6.195
11324TIP3   OH233914   2.720   5.124   5.652
11324TIP3    H133915   2.806   5.148   5.618
11324TIP3    H233916   2.691   5.052   5.596
11325TIP3   OH233917   3.399   5.269   5.758
11325TIP3    H133918   3.378   5.176   5.751
11325TIP3    H233919   3.364   5.308   5.679
11326TIP3   OH233920   5.491   7.852   0.524
11326TIP3    H133921   5.424   7.792   0.556
11326TIP3    H233922   5.572   7.819   0.561
11327TIP3   OH233923   5.724   7.781   0.672
11327TIP3    H133924   5.803   7.771   0.618
11327TIP3    H233925   5.739   7.723   0.747
11328TIP3   OH233926   2.015   4.972   5.723
11328TIP3    H133927   2.013   4.974   5.819
11328TIP3    H233928   2.095   4.923   5.702
11329TIP3   OH233929   6.593   7.907   0.472
11329TIP3    H133930   6.608   7.872   0.560
11329TIP3    H233931   6.680   7.908   0.432
11330TIP3   OH233932   3.622   5.416   6.955
11330TIP3    H133933   3.550   5.384   6.900
11330TIP3    H233934   3.612   5.511   6.954
11331TIP3   OH233935   4.902   4.798   5.692
11331TIP3    H133936   4.872   4.885   5.665
11331TIP3    H233937   4.832   4.739   5.664
11332TIP3   OH233938   4.903   4.789   6.115
11332TIP3    H133939   4.956   4.770   6.193
11332TIP3    H233940   4.857   4.707   6.097
11333TIP3   OH233941   4.194   4.643   6.457
11333TIP3    H133942   4.233   4.593   6.529
11333TIP3    H233943   4.269   4.669   6.403
11334TIP3   OH233944   5.173   5.095   5.789
11334TIP3    H133945   5.159   5.029   5.858
11334TIP3    H233946   5.192   5.175   5.837
11335TIP3   OH233947   4.187   5.076   6.146
11335TIP3    H133948   4.170   4.982   6.151
11335TIP3    H233949   4.282   5.082   6.138
11336TIP3   OH233950   3.873   4.286   5.930
11336TIP3    H133951   3.833   4.370   5.950
11336TIP3    H233952   3.801   4.233   5.895
11337TIP3   OH233953   3.949   4.590   6.145
11337TIP3    H133954   4.000   4.514   6.172
11337TIP3    H233955   4.016   4.655   6.121
11338TIP3   OH233956   4.827   5.522   5.798
11338TIP3    H133957   4.854   5.460   5.731
11338TIP3    H233958   4.829   5.472   5.880
11339TIP3   OH233959   4.706   5.010   6.117
11339TIP3    H133960   4.752   4.931   6.088
11339TIP3    H233961   4.776   5.067   6.150
11340TIP3   OH233962   5.737   4.333   6.140
11340TIP3    H133963   5.757   4.415   6.186
11340TIP3    H233964   5.743   4.356   6.047
11341TIP3   OH233965   5.114   4.496   6.152
11341TIP3    H133966   5.146   4.411   6.180
11341TIP3    H233967   5.076   4.481   6.066
11342TIP3   OH233968   4.470   4.155   6.112
11342TIP3    H133969   4.449   4.229   6.054
11342TIP3    H233970   4.414   4.085   6.080
11343TIP3   OH233971   5.168   4.259   5.751
11343TIP3    H133972   5.232   4.252   5.822
11343TIP3    H233973   5.218   4.294   5.677
11344TIP3   OH233974   4.093   4.373   6.242
11344TIP3    H133975   4.176   4.355   6.286
11344TIP3    H233976   4.098   4.322   6.161
11345TIP3   OH233977   4.512   4.572   6.062
11345TIP3    H133978   4.606   4.558   6.067
11345TIP3    H233979   4.478   4.490   6.026
11346TIP3   OH233980   5.797   4.552   6.302
11346TIP3    H133981   5.708   4.588   6.297
11346TIP3    H233982   5.833   4.588   6.383
11347TIP3   OH233983   4.446   4.164   6.572
11347TIP3    H133984   4.394   4.199   6.499
11347TIP3    H233985   4.391   4.178   6.649
11348TIP3   OH233986   4.803   5.017   5.553
11348TIP3    H133987   4.763   4.985   5.472
11348TIP3    H233988   4.749   5.092   5.579
11349TIP3   OH233989   4.540   4.935   6.326
11349TIP3    H133990   4.489   5.008   6.361
11349TIP3    H233991   4.590   4.974   6.254
11350TIP3   OH233992   5.326   4.279   5.973
11350TIP3    H133993   5.282   4.257   6.056
11350TIP3    H233994   5.380   4.355   5.994
11351TIP3   OH233995   4.341   4.267   6.335
11351TIP3    H133996   4.396   4.341   6.358
11351TIP3    H233997   4.388   4.223   6.263
11352TIP3   OH233998   4.389   5.141   6.434
11352TIP3    H133999   4.376   5.231   6.404
11352TIP3    H234000   4.311   5.121   6.485
11353TIP3   OH234001   3.758   4.838   5.693
11353TIP3    H134002   3.731   4.857   5.603
11353TIP3    H234003   3.784   4.923   5.729
11354TIP3   OH234004   5.205   5.341   5.930
11354TIP3    H134005   5.118   5.335   5.968
11354TIP3    H234006   5.204   5.424   5.882
11355TIP3   OH234007   5.539   4.220   6.307
11355TIP3    H134008   5.453   4.240   6.269
11355TIP3    H234009   5.601   4.249   6.240
11356TIP3   OH234010   4.796   3.864   6.296
11356TIP3    H134011   4.793   3.772   6.321
11356TIP3    H234012   4.719   3.903   6.338
11357TIP3   OH234013   4.914   5.374   5.580
11357TIP3    H134014   4.967   5.295   5.570
11357TIP3    H234015   4.972   5.445   5.552
11358TIP3   OH234016   5.054   5.144   5.544
11358TIP3    H134017   4.981   5.082   5.542
11358TIP3    H234018   5.104   5.119   5.622
11359TIP3   OH234019   5.443   5.229   6.274
11359TIP3    H134020   5.423   5.155   6.216
11359TIP3    H234021   5.427   5.307   6.220
11360TIP3   OH234022   4.727   4.637   5.546
11360TIP3    H134023   4.643   4.679   5.525
11360TIP3    H234024   4.774   4.634   5.462
11361TIP3   OH234025   4.696   4.444   5.250
11361TIP3    H134026   4.766   4.492   5.294
11361TIP3    H234027   4.742   4.382   5.194
11362TIP3   OH234028   5.616   4.892   6.139
11362TIP3    H134029   5.532   4.937   6.138
11362TIP3    H234030   5.653   4.906   6.052
11363TIP3   OH234031   5.091   4.730   5.506
11363TIP3    H134032   5.036   4.758   5.579
11363TIP3    H234033   5.174   4.705   5.546
11364TIP3   OH234034   5.318   4.752   6.450
11364TIP3    H134035   5.313   4.836   6.496
11364TIP3    H234036   5.237   4.748   6.399
11365TIP3   OH234037   4.312   4.703   5.909
11365TIP3    H134038   4.277   4.642   5.844
11365TIP3    H234039   4.386   4.656   5.949
11366TIP3   OH234040   4.450   5.125   6.051
11366TIP3    H134041   4.427   5.114   5.959
11366TIP3    H234042   4.538   5.088   6.058
11367TIP3   OH234043   4.408   4.699   6.284
11367TIP3    H134044   4.447   4.662   6.205
11367TIP3    H234045   4.456   4.781   6.299
11368TIP3   OH234046   4.967   5.338   6.061
11368TIP3    H134047   4.952   5.418   6.110
11368TIP3    H234048   4.950   5.267   6.123
11369TIP3   OH234049   4.585   5.236   6.607
11369TIP3    H134050   4.525   5.294   6.654
11369TIP3    H234051   4.529   5.186   6.548
11370TIP3   OH234052   4.921   4.586   5.344
11370TIP3    H134053   4.979   4.644   5.393
11370TIP3    H234054   4.951   4.593   5.254
11371TIP3   OH234055   4.339   4.778   6.751
11371TIP3    H134056   4.344   4.872   6.768
11371TIP3    H234057   4.245   4.760   6.744
11372TIP3   OH234058   4.665   5.256   5.591
11372TIP3    H134059   4.747   5.304   5.594
11372TIP3    H234060   4.605   5.314   5.543
11373TIP3   OH234061   4.375   5.397   6.690
11373TIP3    H134062   4.354   5.408   6.597
11373TIP3    H234063   4.291   5.382   6.733
11374TIP3   OH234064   5.432   3.811   5.398
11374TIP3    H134065   5.354   3.832   5.449
11374TIP3    H234066   5.445   3.887   5.341
11375TIP3   OH234067   4.188   4.544   5.708
11375TIP3    H134068   4.109   4.590   5.678
11375TIP3    H234069   4.159   4.454   5.722
11376TIP3   OH234070   5.254   5.189   4.949
11376TIP3    H134071   5.246   5.282   4.928
11376TIP3    H234072   5.345   5.167   4.928
11377TIP3   OH234073   3.971   4.951   6.639
11377TIP3    H134074   3.902   4.932   6.575
11377TIP3    H234075   4.006   4.865   6.662
11378TIP3   OH234076   3.825   5.138   6.286
11378TIP3    H134077   3.920   5.152   6.289
11378TIP3    H234078   3.788   5.217   6.325
11379TIP3   OH234079   5.672   5.605   6.339
11379TIP3    H134080   5.678   5.510   6.349
11379TIP3    H234081   5.592   5.629   6.385
11380TIP3   OH234082   4.775   5.379   6.469
11380TIP3    H134083   4.766   5.471   6.497
11380TIP3    H234084   4.707   5.333   6.518
11381TIP3   OH234085   4.556   5.477   5.420
11381TIP3    H134086   4.512   5.457   5.338
11381TIP3    H234087   4.519   5.560   5.448
11382TIP3   OH234088   3.989   5.330   5.797
11382TIP3    H134089   4.034   5.324   5.881
11382TIP3    H234090   3.943   5.247   5.788
11383TIP3   OH234091   4.756   5.413   5.044
11383TIP3    H134092   4.805   5.339   5.008
11383TIP3    H234093   4.792   5.426   5.132
11384TIP3   OH234094   4.809   5.455   5.315
11384TIP3    H134095   4.723   5.457   5.356
11384TIP3    H234096   4.867   5.418   5.382
11385TIP3   OH234097   5.561   4.707   6.608
11385TIP3    H134098   5.478   4.718   6.561
11385TIP3    H234099   5.579   4.613   6.604
11386TIP3   OH234100   4.171   5.137   6.602
11386TIP3    H134101   4.221   5.127   6.683
11386TIP3    H234102   4.099   5.075   6.611
11387TIP3   OH234103   4.556   3.947   6.430
11387TIP3    H134104   4.473   3.914   6.395
11387TIP3    H234105   4.532   4.027   6.476
11388TIP3   OH234106   5.093   4.070   6.626
11388TIP3    H134107   5.162   4.045   6.688
11388TIP3    H234108   5.011   4.053   6.673
11389TIP3   OH234109   5.319   4.488   6.542
11389TIP3    H134110   5.278   4.484   6.629
11389TIP3    H234111   5.302   4.577   6.512
11390TIP3   OH234112   5.018   4.589   5.091
11390TIP3    H134113   4.964   4.583   5.013
11390TIP3    H234114   5.098   4.633   5.062
11391TIP3   OH234115   4.711   3.976   5.393
11391TIP3    H134116   4.670   3.986   5.479
11391TIP3    H234117   4.672   3.897   5.357
11392TIP3   OH234118   4.493   4.478   6.433
11392TIP3    H134119   4.447   4.484   6.517
11392TIP3    H234120   4.471   4.559   6.388
11393TIP3   OH234121   4.375   4.357   5.951
11393TIP3    H134122   4.286   4.334   5.976
11393TIP3    H234123   4.384   4.324   5.861
11394TIP3   OH234124   4.851   4.430   5.678
11394TIP3    H134125   4.804   4.503   5.638
11394TIP3    H234126   4.908   4.397   5.608
11395TIP3   OH234127   5.037   4.695   6.751
11395TIP3    H134128   5.011   4.627   6.814
11395TIP3    H234129   5.129   4.711   6.771
11396TIP3   OH234130   5.020   4.444   5.900
11396TIP3    H134131   4.951   4.466   5.837
11396TIP3    H234132   5.067   4.371   5.861
11397TIP3   OH234133   4.329   4.491   6.654
11397TIP3    H134134   4.340   4.557   6.722
11397TIP3    H234135   4.308   4.411   6.701
11398TIP3   OH234136   4.377   3.969   5.358
11398TIP3    H134137   4.365   3.974   5.453
11398TIP3    H234138   4.299   4.012   5.323
11399TIP3   OH234139   3.925   4.015   6.227
11399TIP3    H134140   3.993   4.049   6.284
11399TIP3    H234141   3.970   3.998   6.144
11400TIP3   OH234142   3.821   3.987   5.740
11400TIP3    H134143   3.865   4.024   5.664
11400TIP3    H234144   3.757   4.054   5.766
11401TIP3   OH234145   5.069   4.698   6.328
11401TIP3    H134146   5.092   4.631   6.263
11401TIP3    H234147   5.022   4.650   6.396
11402TIP3   OH234148   4.739   4.144   6.002
11402TIP3    H134149   4.661   4.144   6.057
11402TIP3    H234150   4.812   4.137   6.064
11403TIP3   OH234151   4.134   4.235   6.008
11403TIP3    H134152   4.046   4.239   5.971
11403TIP3    H234153   4.163   4.145   5.991
11404TIP3   OH234154   4.386   4.235   5.705
11404TIP3    H134155   4.481   4.243   5.694
11404TIP3    H234156   4.350   4.252   5.617
11405TIP3   OH234157   5.184   4.235   6.212
11405TIP3    H134158   5.165   4.253   6.305
11405TIP3    H234159   5.115   4.174   6.185
11406TIP3   OH234160   4.272   4.257   5.457
11406TIP3    H134161   4.212   4.206   5.403
11406TIP3    H234162   4.326   4.304   5.394
11407TIP3   OH234163   5.384   5.939   6.425
11407TIP3    H134164   5.379   5.956   6.331
11407TIP3    H234165   5.462   5.987   6.453
11408TIP3   OH234166   4.324   5.048   6.838
11408TIP3    H134167   4.404   5.067   6.887
11408TIP3    H234168   4.254   5.057   6.902
11409TIP3   OH234169   4.785   4.520   6.109
11409TIP3    H134170   4.850   4.470   6.060
11409TIP3    H234171   4.783   4.479   6.196
11410TIP3   OH234172   4.274   3.986   5.992
11410TIP3    H134173   4.247   3.909   6.043
11410TIP3    H234174   4.295   3.951   5.906
11411TIP3   OH234175   4.758   4.421   6.373
11411TIP3    H134176   4.671   4.453   6.397
11411TIP3    H234177   4.818   4.473   6.426
11412TIP3   OH234178   4.487   4.769   5.487
11412TIP3    H134179   4.412   4.715   5.462
11412TIP3    H234180   4.461   4.810   5.569
11413TIP3   OH234181   5.382   5.029   6.093
11413TIP3    H134182   5.417   5.079   6.020
11413TIP3    H234183   5.303   4.988   6.059
11414TIP3   OH234184   4.962   4.082   5.394
11414TIP3    H134185   4.870   4.057   5.388
11414TIP3    H234186   4.961   4.177   5.401
11415TIP3   OH234187   4.901   5.114   6.508
11415TIP3    H134188   4.952   5.104   6.588
11415TIP3    H234189   4.861   5.200   6.514
11416TIP3   OH234190   5.016   4.351   5.463
11416TIP3    H134191   5.111   4.357   5.472
11416TIP3    H234192   4.992   4.428   5.412
11417TIP3   OH234193   4.176   4.785   6.136
11417TIP3    H134194   4.216   4.767   6.050
11417TIP3    H234195   4.243   4.757   6.199
11418TIP3   OH234196   4.645   4.932   5.336
11418TIP3    H134197   4.596   5.015   5.331
11418TIP3    H234198   4.588   4.874   5.386
11419TIP3   OH234199   4.064   4.716   6.766
11419TIP3    H134200   4.063   4.686   6.857
11419TIP3    H234201   3.989   4.673   6.726
11420TIP3   OH234202   4.807   4.852   6.793
11420TIP3    H134203   4.736   4.792   6.766
11420TIP3    H234204   4.887   4.809   6.763
11421TIP3   OH234205   5.046   5.401   6.394
11421TIP3    H134206   4.952   5.387   6.397
11421TIP3    H234207   5.068   5.438   6.480
11422TIP3   OH234208   5.433   4.439   5.278
11422TIP3    H134209   5.378   4.391   5.216
11422TIP3    H234210   5.435   4.528   5.244
11423TIP3   OH234211   5.687   5.327   6.359
11423TIP3    H134212   5.593   5.305   6.358
11423TIP3    H234213   5.720   5.293   6.276
11424TIP3   OH234214   5.175   5.257   5.215
11424TIP3    H134215   5.144   5.188   5.273
11424TIP3    H234216   5.192   5.213   5.132
11425TIP3   OH234217   5.154   4.893   5.991
11425TIP3    H134218   5.065   4.871   6.016
11425TIP3    H234219   5.188   4.812   5.952
11426TIP3   OH234220   4.312   5.130   5.806
11426TIP3    H134221   4.312   5.206   5.748
11426TIP3    H234222   4.221   5.120   5.833
11427TIP3   OH234223   3.867   4.410   5.508
11427TIP3    H134224   3.912   4.492   5.531
11427TIP3    H234225   3.790   4.408   5.566
11428TIP3   OH234226   4.391   4.883   5.711
11428TIP3    H134227   4.377   4.973   5.741
11428TIP3    H234228   4.365   4.829   5.786
11429TIP3   OH234229   4.593   5.452   6.259
11429TIP3    H134230   4.627   5.526   6.209
11429TIP3    H234231   4.668   5.420   6.309
11430TIP3   OH234232   4.227   5.352   5.656
11430TIP3    H134233   4.140   5.361   5.694
11430TIP3    H234234   4.264   5.440   5.660
11431TIP3   OH234235   4.938   5.117   6.233
11431TIP3    H134236   4.926   5.113   6.328
11431TIP3    H234237   5.015   5.062   6.217
11432TIP3   OH234238   4.943   4.993   5.096
11432TIP3    H134239   4.992   4.967   5.173
11432TIP3    H234240   4.860   4.947   5.102
11433TIP3   OH234241   5.200   5.610   6.272
11433TIP3    H134242   5.128   5.549   6.291
11433TIP3    H234243   5.166   5.664   6.200
11434TIP3   OH234244   5.246   5.461   4.904
11434TIP3    H134245   5.257   5.520   4.829
11434TIP3    H234246   5.177   5.502   4.956
11435TIP3   OH234247   4.273   4.245   6.785
11435TIP3    H134248   4.179   4.248   6.802
11435TIP3    H234249   4.309   4.193   6.857
11436TIP3   OH234250   5.114   4.912   5.294
11436TIP3    H134251   5.097   4.858   5.371
11436TIP3    H234252   5.209   4.918   5.289
11437TIP3   OH234253   4.018   5.352   6.421
11437TIP3    H134254   4.070   5.292   6.475
11437TIP3    H234255   4.035   5.439   6.459
11438TIP3   OH234256   4.286   4.960   5.117
11438TIP3    H134257   4.297   4.870   5.089
11438TIP3    H234258   4.272   4.955   5.211
11439TIP3   OH234259   4.227   4.973   5.390
11439TIP3    H134260   4.296   4.947   5.451
11439TIP3    H234261   4.226   5.068   5.394
11440TIP3   OH234262   3.958   4.661   5.599
11440TIP3    H134263   3.894   4.710   5.651
11440TIP3    H234264   3.980   4.720   5.527
11441TIP3   OH234265   5.128   4.297   6.474
11441TIP3    H134266   5.205   4.342   6.508
11441TIP3    H234267   5.117   4.221   6.531
11442TIP3   OH234268   5.019   4.040   5.663
11442TIP3    H134269   4.997   4.057   5.572
11442TIP3    H234270   5.061   4.120   5.693
11443TIP3   OH234271   4.497   5.159   5.325
11443TIP3    H134272   4.412   5.184   5.363
11443TIP3    H234273   4.521   5.232   5.269
11444TIP3   OH234274   4.666   4.238   5.750
11444TIP3    H134275   4.727   4.306   5.723
11444TIP3    H234276   4.690   4.218   5.841
11445TIP3   OH234277   4.965   4.533   6.523
11445TIP3    H134278   4.989   4.576   6.606
11445TIP3    H234279   5.015   4.451   6.524
11446TIP3   OH234280   4.830   3.934   5.837
11446TIP3    H134281   4.806   4.012   5.888
11446TIP3    H234282   4.899   3.965   5.778
11447TIP3   OH234283   4.247   5.245   5.404
11447TIP3    H134284   4.229   5.316   5.343
11447TIP3    H234285   4.238   5.285   5.491
11448TIP3   OH234286   4.341   3.962   5.640
11448TIP3    H134287   4.329   4.052   5.668
11448TIP3    H234288   4.435   3.946   5.647
11449TIP3   OH234289   5.582   4.429   6.518
11449TIP3    H134290   5.488   4.440   6.531
11449TIP3    H234291   5.588   4.370   6.443
11450TIP3   OH234292   5.245   4.634   5.901
11450TIP3    H134293   5.167   4.579   5.911
11450TIP3    H234294   5.310   4.593   5.958
11451TIP3   OH234295   3.983   4.839   5.383
11451TIP3    H134296   4.053   4.903   5.393
11451TIP3    H234297   4.015   4.777   5.318
11452TIP3   OH234298   3.901   4.132   5.524
11452TIP3    H134299   3.903   4.228   5.520
11452TIP3    H234300   3.921   4.104   5.435
11453TIP3   OH234301   5.224   5.606   5.842
11453TIP3    H134302   5.181   5.659   5.775
11453TIP3    H234303   5.318   5.620   5.827
11454TIP3   OH234304   4.296   3.859   6.379
11454TIP3    H134305   4.265   3.828   6.294
11454TIP3    H234306   4.292   3.781   6.435
11455TIP3   OH234307   3.812   5.105   5.778
11455TIP3    H134308   3.777   5.145   5.858
11455TIP3    H234309   3.767   5.151   5.707
11456TIP3   OH234310   4.466   5.598   6.858
11456TIP3    H134311   4.555   5.572   6.884
11456TIP3    H234312   4.436   5.528   6.801
11457TIP3   OH234313   4.439   5.161   5.005
11457TIP3    H134314   4.392   5.091   5.050
11457TIP3    H234315   4.513   5.118   4.963
11458TIP3   OH234316   5.099   5.499   6.645
11458TIP3    H134317   5.116   5.429   6.708
11458TIP3    H234318   5.174   5.559   6.656
11459TIP3   OH234319   4.882   5.200   4.926
11459TIP3    H134320   4.918   5.136   4.987
11459TIP3    H234321   4.940   5.196   4.850
11460TIP3   OH234322   1.282   1.046   0.087
11460TIP3    H134323   1.308   0.954   0.098
11460TIP3    H234324   1.195   1.041   0.047
11461TIP3   OH234325   4.102   4.651   5.227
11461TIP3    H134326   4.154   4.625   5.303
11461TIP3    H234327   4.166   4.667   5.158
11462TIP3   OH234328   4.738   5.127   6.810
11462TIP3    H134329   4.694   5.150   6.728
11462TIP3    H234330   4.773   5.039   6.795
11463TIP3   OH234331   4.694   4.870   5.073
11463TIP3    H134332   4.669   4.883   5.164
11463TIP3    H234333   4.676   4.777   5.056
11464TIP3   OH234334   5.216   5.176   6.427
11464TIP3    H134335   5.293   5.204   6.377
11464TIP3    H234336   5.152   5.245   6.411
11465TIP3   OH234337   1.401   0.798   0.096
11465TIP3    H134338   1.473   0.765   0.043
11465TIP3    H234339   1.439   0.810   0.183
11466TIP3   OH234340   4.276   4.594   5.439
11466TIP3    H134341   4.260   4.562   5.527
11466TIP3    H234342   4.327   4.524   5.397
11467TIP3   OH234343   4.600   4.678   6.699
11467TIP3    H134344   4.513   4.717   6.709
11467TIP3    H234345   4.629   4.707   6.612
11468TIP3   OH234346   4.422   4.412   5.288
11468TIP3    H134347   4.392   4.416   5.197
11468TIP3    H234348   4.517   4.418   5.283
11469TIP3   OH234349   5.097   5.051   6.776
11469TIP3    H134350   5.164   5.011   6.720
11469TIP3    H234351   5.092   4.994   6.853
11470TIP3   OH234352   5.231   4.700   4.949
11470TIP3    H134353   5.207   4.658   4.866
11470TIP3    H234354   5.205   4.791   4.938
11471TIP3   OH234355   4.703   4.446   6.804
11471TIP3    H134356   4.703   4.375   6.740
11471TIP3    H234357   4.668   4.521   6.756
11472TIP3   OH234358   4.707   4.246   6.602
11472TIP3    H134359   4.733   4.283   6.517
11472TIP3    H234360   4.616   4.221   6.590
11473TIP3   OH234361   4.711   4.775   6.470
11473TIP3    H134362   4.799   4.811   6.459
11473TIP3    H234363   4.654   4.834   6.420
11474TIP3   OH234364   5.306   4.733   6.847
11474TIP3    H134365   5.348   4.647   6.852
11474TIP3    H234366   5.378   4.795   6.836
11475TIP3   OH234367   5.335   4.997   6.592
11475TIP3    H134368   5.282   5.059   6.542
11475TIP3    H234369   5.424   5.010   6.561
11476TIP3   OH234370   1.760   0.529   0.109
11476TIP3    H134371   1.689   0.470   0.133
11476TIP3    H234372   1.784   0.503   0.020
11477TIP3   OH234373   4.827   4.014   6.705
11477TIP3    H134374   4.787   4.094   6.672
11477TIP3    H234375   4.759   3.947   6.695
11478TIP3   OH234376   4.957   4.484   6.908
11478TIP3    H134377   4.946   4.471   7.002
11478TIP3    H234378   4.872   4.464   6.870
11479TIP3   OH234379   5.204   4.442   6.781
11479TIP3    H134380   5.125   4.441   6.835
11479TIP3    H234381   5.274   4.416   6.842
11480TIP3   OH234382   2.608   0.398  -0.013
11480TIP3    H134383   2.621   0.303  -0.006
11480TIP3    H234384   2.602   0.428   0.078
11481TIP3   OH234385   1.591   0.322   0.185
11481TIP3    H134386   1.592   0.239   0.137
11481TIP3    H234387   1.633   0.302   0.268
11482TIP3   OH234388   4.896   3.990   6.970
11482TIP3    H134389   4.964   3.923   6.962
11482TIP3    H234390   4.864   4.002   6.881
11483TIP3   OH234391   2.159   0.196   0.176
11483TIP3    H134392   2.127   0.124   0.122
11483TIP3    H234393   2.087   0.259   0.177
11484TIP3   OH234394   4.245   5.450   5.221
11484TIP3    H134395   4.336   5.434   5.193
11484TIP3    H234396   4.205   5.495   5.146
11485TIP3   OH234397   3.709   4.833   5.409
11485TIP3    H134398   3.804   4.845   5.399
11485TIP3    H234399   3.691   4.749   5.366
11486TIP3   OH234400   3.615   5.410   5.856
11486TIP3    H134401   3.552   5.357   5.808
11486TIP3    H234402   3.660   5.348   5.914
11487TIP3   OH234403   3.761   5.245   6.025
11487TIP3    H134404   3.757   5.179   6.094
11487TIP3    H234405   3.811   5.317   6.063
11488TIP3   OH234406   5.495   5.661   5.835
11488TIP3    H134407   5.512   5.688   5.925
11488TIP3    H234408   5.545   5.722   5.781
11489TIP3   OH234409   5.509   5.693   6.115
11489TIP3    H134410   5.464   5.609   6.112
11489TIP3    H234411   5.580   5.679   6.178
11490TIP3   OH234412   5.570   5.384   6.686
11490TIP3    H134413   5.498   5.397   6.748
11490TIP3    H234414   5.615   5.468   6.683
11491TIP3   OH234415   5.394   4.905   5.294
11491TIP3    H134416   5.449   4.978   5.265
11491TIP3    H234417   5.439   4.869   5.370
11492TIP3   OH234418   5.524   4.766   5.498
11492TIP3    H134419   5.456   4.729   5.554
11492TIP3    H234420   5.587   4.805   5.559
11493TIP3   OH234421   5.567   5.170   5.935
11493TIP3    H134422   5.617   5.103   5.890
11493TIP3    H234423   5.567   5.245   5.876
11494TIP3   OH234424   5.373   5.450   6.125
11494TIP3    H134425   5.305   5.496   6.175
11494TIP3    H234426   5.325   5.410   6.052
11495TIP3   OH234427   5.426   4.679   5.141
11495TIP3    H134428   5.358   4.680   5.074
11495TIP3    H234429   5.410   4.757   5.194
11496TIP3   OH234430   5.288   4.317   5.080
11496TIP3    H134431   5.236   4.357   5.010
11496TIP3    H234432   5.279   4.223   5.064
11497TIP3   OH234433   5.320   4.628   5.634
11497TIP3    H134434   5.321   4.534   5.617
11497TIP3    H234435   5.298   4.636   5.727
11498TIP3   OH234436   3.933   4.691   6.400
11498TIP3    H134437   3.924   4.657   6.311
11498TIP3    H234438   4.027   4.683   6.418
11499TIP3   OH234439   5.591   5.039   6.493
11499TIP3    H134440   5.660   4.975   6.475
11499TIP3    H234441   5.594   5.099   6.418
11500TIP3   OH234442   5.773   4.831   6.485
11500TIP3    H134443   5.699   4.789   6.530
11500TIP3    H234444   5.848   4.776   6.508
11501TIP3   OH234445   5.256   4.041   5.052
11501TIP3    H134446   5.316   4.025   5.125
11501TIP3    H234447   5.171   4.012   5.085
11502TIP3   OH234448   5.311   4.350   5.521
11502TIP3    H134449   5.356   4.267   5.533
11502TIP3    H234450   5.350   4.388   5.443
11503TIP3   OH234451   5.461   4.513   6.044
11503TIP3    H134452   5.542   4.530   5.995
11503TIP3    H234453   5.476   4.554   6.129
11504TIP3   OH234454   5.536   4.663   6.271
11504TIP3    H134455   5.463   4.690   6.327
11504TIP3    H234456   5.565   4.743   6.229
11505TIP3   OH234457   1.336   0.417   0.178
11505TIP3    H134458   1.426   0.386   0.174
11505TIP3    H234459   1.286   0.342   0.211
11506TIP3   OH234460   5.999   4.260   6.810
11506TIP3    H134461   6.064   4.205   6.767
11506TIP3    H234462   5.959   4.310   6.739
11507TIP3   OH234463   5.428   4.099   5.570
11507TIP3    H134464   5.469   4.083   5.655
11507TIP3    H234465   5.363   4.029   5.562
11508TIP3   OH234466   4.131   4.082   6.401
11508TIP3    H134467   4.185   4.004   6.407
11508TIP3    H234468   4.193   4.153   6.383
11509TIP3   OH234469   3.909   4.348   6.456
11509TIP3    H134470   3.961   4.336   6.376
11509TIP3    H234471   3.941   4.429   6.494
11510TIP3   OH234472   5.847   4.376   6.614
11510TIP3    H134473   5.766   4.416   6.645
11510TIP3    H234474   5.819   4.304   6.558
11511TIP3   OH234475   5.481   4.009   5.214
11511TIP3    H134476   5.527   3.951   5.153
11511TIP3    H234477   5.534   4.089   5.214
11512TIP3   OH234478   3.900   3.840   5.957
11512TIP3    H134479   3.816   3.831   6.002
11512TIP3    H234480   3.882   3.898   5.883
11513TIP3   OH234481   5.059   5.575   5.479
11513TIP3    H134482   5.114   5.565   5.402
11513TIP3    H234483   5.099   5.648   5.527
11514TIP3   OH234484   4.115   3.874   6.775
11514TIP3    H134485   4.068   3.857   6.856
11514TIP3    H234486   4.059   3.936   6.728
11515TIP3   OH234487   4.143   5.364   6.840
11515TIP3    H134488   4.048   5.357   6.833
11515TIP3    H234489   4.161   5.350   6.933
11516TIP3   OH234490   4.365   5.417   6.408
11516TIP3    H134491   4.313   5.490   6.375
11516TIP3    H234492   4.450   5.426   6.364
11517TIP3   OH234493   4.759   5.646   6.545
11517TIP3    H134494   4.795   5.640   6.634
11517TIP3    H234495   4.822   5.699   6.497
11518TIP3   OH234496   4.948   5.800   6.417
11518TIP3    H134497   5.007   5.747   6.363
11518TIP3    H234498   5.005   5.857   6.468
11519TIP3   OH234499   5.760   4.129   6.504
11519TIP3    H134500   5.673   4.124   6.465
11519TIP3    H234501   5.793   4.039   6.500
11520TIP3   OH234502   4.028   5.652   6.459
11520TIP3    H134503   3.937   5.674   6.438
11520TIP3    H234504   4.056   5.720   6.520
11521TIP3   OH234505   4.254   5.644   6.300
11521TIP3    H134506   4.171   5.650   6.348
11521TIP3    H234507   4.231   5.669   6.210
11522TIP3   OH234508   4.668   5.663   6.096
11522TIP3    H134509   4.597   5.673   6.033
11522TIP3    H234510   4.679   5.751   6.133
11523TIP3   OH234511   4.930   5.598   6.150
11523TIP3    H134512   4.839   5.618   6.128
11523TIP3    H234513   4.981   5.662   6.101
11524TIP3   OH234514   5.131   5.764   6.047
11524TIP3    H134515   5.132   5.852   6.009
11524TIP3    H234516   5.160   5.707   5.976
11525TIP3   OH234517   3.930   5.430   6.170
11525TIP3    H134518   3.958   5.410   6.259
11525TIP3    H234519   4.002   5.400   6.114
11526TIP3   OH234520   4.135   5.318   6.031
11526TIP3    H134521   4.148   5.234   6.075
11526TIP3    H234522   4.221   5.360   6.035
11527TIP3   OH234523   4.403   5.403   6.057
11527TIP3    H134524   4.423   5.311   6.043
11527TIP3    H234525   4.458   5.429   6.131
11528TIP3   OH234526   4.967   4.057   6.146
11528TIP3    H134527   4.924   3.987   6.196
11528TIP3    H234528   5.034   4.012   6.095
11529TIP3   OH234529   5.466   3.969   6.035
11529TIP3    H134530   5.500   4.019   5.961
11529TIP3    H234531   5.372   3.988   6.035
11530TIP3   OH234532   5.580   4.045   5.797
11530TIP3    H134533   5.650   3.986   5.769
11530TIP3    H234534   5.616   4.132   5.784
11531TIP3   OH234535   4.205   3.758   6.137
11531TIP3    H134536   4.116   3.724   6.149
11531TIP3    H234537   4.260   3.680   6.136
11532TIP3   OH234538   4.026   3.645   5.792
11532TIP3    H134539   4.055   3.695   5.716
11532TIP3    H234540   3.989   3.711   5.852
11533TIP3   OH234541   4.686   3.797   6.038
11533TIP3    H134542   4.734   3.841   5.968
11533TIP3    H234543   4.727   3.828   6.119
11534TIP3   OH234544   5.179   3.937   6.014
11534TIP3    H134545   5.185   3.903   5.925
11534TIP3    H234546   5.185   3.859   6.070
11535TIP3   OH234547   5.240   3.890   5.579
11535TIP3    H134548   5.160   3.938   5.601
11535TIP3    H234549   5.228   3.803   5.617
11536TIP3   OH234550   3.687   5.232   5.570
11536TIP3    H134551   3.606   5.199   5.530
11536TIP3    H234552   3.700   5.319   5.532
11537TIP3   OH234553   4.134   3.786   5.560
11537TIP3    H134554   4.179   3.727   5.499
11537TIP3    H234555   4.203   3.845   5.591
11538TIP3   OH234556   4.615   3.986   5.654
11538TIP3    H134557   4.675   3.934   5.707
11538TIP3    H234558   4.632   4.077   5.682
11539TIP3   OH234559   4.503   5.382   5.151
11539TIP3    H134560   4.585   5.411   5.112
11539TIP3    H234561   4.472   5.313   5.093
11540TIP3   OH234562   5.209   5.527   5.250
11540TIP3    H134563   5.202   5.432   5.243
11540TIP3    H234564   5.163   5.560   5.172
11541TIP3   OH234565   1.594   0.080   0.061
11541TIP3    H134566   1.551   0.003   0.097
11541TIP3    H234567   1.686   0.070   0.085
11542TIP3   OH234568   1.839   0.044   0.200
11542TIP3    H134569   1.917   0.016   0.152
11542TIP3    H234570   1.816  -0.030   0.255
11543TIP3   OH234571   3.803   5.215   5.204
11543TIP3    H134572   3.812   5.248   5.293
11543TIP3    H234573   3.887   5.174   5.185
11544TIP3   OH234574   2.671   0.127  -0.008
11544TIP3    H134575   2.687   0.098   0.082
11544TIP3    H234576   2.756   0.121  -0.051
11545TIP3   OH234577   5.420   5.666   6.435
11545TIP3    H134578   5.346   5.635   6.383
11545TIP3    H234579   5.408   5.760   6.441
11546TIP3   OH234580   6.690   5.049   5.178
11546TIP3    H134581   6.661   5.135   5.149
11546TIP3    H234582   6.620   4.990   5.150
11547TIP3   OH234583   6.703   5.059   5.578
11547TIP3    H134584   6.750   5.018   5.651
11547TIP3    H234585   6.672   4.986   5.525
11548TIP3   OH234586   5.996   4.907   5.944
11548TIP3    H134587   6.032   4.855   6.015
11548TIP3    H234588   6.072   4.935   5.893
11549TIP3   OH234589   6.966   5.356   5.274
11549TIP3    H134590   6.959   5.287   5.340
11549TIP3    H234591   6.988   5.434   5.323
11550TIP3   OH234592   5.992   5.330   5.627
11550TIP3    H134593   5.972   5.237   5.637
11550TIP3    H234594   6.087   5.334   5.619
11551TIP3   OH234595   5.674   4.544   5.411
11551TIP3    H134596   5.633   4.626   5.438
11551TIP3    H234597   5.602   4.494   5.372
11552TIP3   OH234598   5.752   4.855   5.640
11552TIP3    H134599   5.802   4.777   5.663
11552TIP3    H234600   5.819   4.920   5.618
11553TIP3   OH234601   6.628   5.777   5.289
11553TIP3    H134602   6.652   5.715   5.220
11553TIP3    H234603   6.635   5.726   5.370
11554TIP3   OH234604   6.506   5.267   5.603
11554TIP3    H134605   6.556   5.190   5.577
11554TIP3    H234606   6.573   5.329   5.634
11555TIP3   OH234607   7.576   4.609   5.616
11555TIP3    H134608   7.582   4.676   5.684
11555TIP3    H234609   7.561   4.658   5.535
11556TIP3   OH234610   6.306   4.380   5.564
11556TIP3    H134611   6.282   4.463   5.523
11556TIP3    H234612   6.234   4.321   5.543
11557TIP3   OH234613   6.967   4.519   5.257
11557TIP3    H134614   7.030   4.512   5.329
11557TIP3    H234615   7.018   4.555   5.184
11558TIP3   OH234616   5.888   4.627   5.722
11558TIP3    H134617   5.971   4.608   5.766
11558TIP3    H234618   5.892   4.577   5.641
11559TIP3   OH234619   6.312   4.816   5.542
11559TIP3    H134620   6.406   4.800   5.549
11559TIP3    H234621   6.276   4.734   5.508
11560TIP3   OH234622   7.617   4.811   5.802
11560TIP3    H134623   7.529   4.847   5.787
11560TIP3    H234624   7.643   4.847   5.887
11561TIP3   OH234625   6.240   4.418   6.048
11561TIP3    H134626   6.190   4.457   5.976
11561TIP3    H234627   6.186   4.433   6.126
11562TIP3   OH234628   6.596   5.269   5.038
11562TIP3    H134629   6.556   5.241   4.956
11562TIP3    H234630   6.544   5.345   5.065
11563TIP3   OH234631   6.344   5.192   5.815
11563TIP3    H134632   6.290   5.264   5.848
11563TIP3    H234633   6.393   5.230   5.743
11564TIP3   OH234634   7.145   4.523   5.477
11564TIP3    H134635   7.111   4.582   5.544
11564TIP3    H234636   7.232   4.557   5.457
11565TIP3   OH234637   6.140   4.522   5.807
11565TIP3    H134638   6.190   4.598   5.835
11565TIP3    H234639   6.189   4.487   5.733
11566TIP3   OH234640   6.186   5.396   5.920
11566TIP3    H134641   6.172   5.485   5.890
11566TIP3    H234642   6.108   5.375   5.972
11567TIP3   OH234643   5.563   5.098   5.178
11567TIP3    H134644   5.527   5.117   5.092
11567TIP3    H234645   5.585   5.184   5.215
11568TIP3   OH234646   7.000   5.602   5.417
11568TIP3    H134647   6.911   5.595   5.452
11568TIP3    H234648   7.001   5.685   5.370
11569TIP3   OH234649   6.583   4.095   5.799
11569TIP3    H134650   6.581   4.003   5.827
11569TIP3    H234651   6.507   4.134   5.842
11570TIP3   OH234652   6.708   5.631   5.066
11570TIP3    H134653   6.761   5.552   5.056
11570TIP3    H234654   6.767   5.702   5.038
11571TIP3   OH234655   6.848   5.401   5.028
11571TIP3    H134656   6.776   5.337   5.026
11571TIP3    H234657   6.898   5.379   5.106
11572TIP3   OH234658   7.243   5.478   5.760
11572TIP3    H134659   7.223   5.405   5.702
11572TIP3    H234660   7.229   5.556   5.707
11573TIP3   OH234661   6.517   4.885   5.028
11573TIP3    H134662   6.437   4.934   5.007
11573TIP3    H234663   6.569   4.888   4.947
11574TIP3   OH234664   6.491   4.696   4.728
11574TIP3    H134665   6.559   4.745   4.774
11574TIP3    H234666   6.540   4.631   4.676
11575TIP3   OH234667   7.413   5.129   5.627
11575TIP3    H134668   7.328   5.172   5.624
11575TIP3    H234669   7.453   5.149   5.542
11576TIP3   OH234670   6.884   4.978   4.997
11576TIP3    H134671   6.827   5.007   5.069
11576TIP3    H234672   6.967   4.955   5.040
11577TIP3   OH234673   7.093   4.996   5.975
11577TIP3    H134674   7.077   5.086   6.004
11577TIP3    H234675   7.055   4.991   5.888
11578TIP3   OH234676   6.113   4.957   5.395
11578TIP3    H134677   6.076   4.897   5.331
11578TIP3    H234678   6.187   4.908   5.433
11579TIP3   OH234679   6.254   5.382   5.533
11579TIP3    H134680   6.230   5.369   5.441
11579TIP3    H234681   6.341   5.343   5.541
11580TIP3   OH234682   6.212   4.956   5.765
11580TIP3    H134683   6.252   4.920   5.685
11580TIP3    H234684   6.260   5.037   5.781
11581TIP3   OH234685   6.756   5.601   5.542
11581TIP3    H134686   6.746   5.679   5.596
11581TIP3    H234687   6.746   5.528   5.602
11582TIP3   OH234688   6.381   5.492   6.092
11582TIP3    H134689   6.319   5.549   6.138
11582TIP3    H234690   6.326   5.441   6.032
11583TIP3   OH234691   6.714   4.841   4.827
11583TIP3    H134692   6.775   4.898   4.874
11583TIP3    H234693   6.743   4.846   4.736
11584TIP3   OH234694   6.131   5.040   6.238
11584TIP3    H134695   6.133   5.135   6.254
11584TIP3    H234696   6.038   5.019   6.231
11585TIP3   OH234697   6.461   5.510   5.077
11585TIP3    H134698   6.543   5.560   5.081
11585TIP3    H234699   6.401   5.567   5.030
11586TIP3   OH234700   6.173   5.651   6.180
11586TIP3    H134701   6.148   5.662   6.088
11586TIP3    H234702   6.091   5.635   6.226
11587TIP3   OH234703   7.225   4.069   4.878
11587TIP3    H134704   7.149   4.089   4.933
11587TIP3    H234705   7.234   4.145   4.821
11588TIP3   OH234706   5.979   4.799   5.197
11588TIP3    H134707   5.908   4.853   5.164
11588TIP3    H234708   5.936   4.716   5.222
11589TIP3   OH234709   7.050   5.445   4.436
11589TIP3    H134710   7.045   5.538   4.416
11589TIP3    H234711   7.140   5.420   4.413
11590TIP3   OH234712   5.769   5.210   6.127
11590TIP3    H134713   5.698   5.192   6.065
11590TIP3    H234714   5.801   5.123   6.152
11591TIP3   OH234715   5.608   5.408   5.787
11591TIP3    H134716   5.697   5.436   5.808
11591TIP3    H234717   5.553   5.483   5.809
11592TIP3   OH234718   7.465   5.865   5.818
11592TIP3    H134719   7.475   5.770   5.824
11592TIP3    H234720   7.383   5.884   5.865
11593TIP3   OH234721   6.570   5.637   5.955
11593TIP3    H134722   6.561   5.727   5.985
11593TIP3    H234723   6.502   5.589   6.003
11594TIP3   OH234724   6.352   5.734   4.906
11594TIP3    H134725   6.304   5.714   4.826
11594TIP3    H234726   6.314   5.817   4.937
11595TIP3   OH234727   5.786   5.590   5.283
11595TIP3    H134728   5.829   5.581   5.368
11595TIP3    H234729   5.736   5.509   5.274
11596TIP3   OH234730   6.554   5.669   4.532
11596TIP3    H134731   6.603   5.595   4.498
11596TIP3    H234732   6.588   5.683   4.620
11597TIP3   OH234733   6.605   5.711   4.802
11597TIP3    H134734   6.519   5.714   4.842
11597TIP3    H234735   6.661   5.672   4.869
11598TIP3   OH234736   7.335   4.977   6.116
11598TIP3    H134737   7.261   4.980   6.056
11598TIP3    H234738   7.364   4.885   6.113
11599TIP3   OH234739   5.969   5.396   6.091
11599TIP3    H134740   6.018   5.384   6.173
11599TIP3    H234741   5.896   5.335   6.098
11600TIP3   OH234742   6.349   4.210   5.899
11600TIP3    H134743   6.265   4.171   5.876
11600TIP3    H234744   6.326   4.287   5.951
11601TIP3   OH234745   6.895   4.317   6.098
11601TIP3    H134746   6.965   4.299   6.160
11601TIP3    H234747   6.814   4.307   6.149
11602TIP3   OH234748   7.125   4.723   6.043
11602TIP3    H134749   7.082   4.732   6.129
11602TIP3    H234750   7.106   4.806   5.999
11603TIP3   OH234751   6.793   4.821   4.563
11603TIP3    H134752   6.747   4.825   4.479
11603TIP3    H234753   6.874   4.869   4.548
11604TIP3   OH234754   6.502   4.240   4.894
11604TIP3    H134755   6.463   4.247   4.982
11604TIP3    H234756   6.465   4.159   4.859
11605TIP3   OH234757   6.283   4.732   5.909
11605TIP3    H134758   6.241   4.740   5.995
11605TIP3    H234759   6.265   4.815   5.865
11606TIP3   OH234760   6.189   4.589   5.434
11606TIP3    H134761   6.096   4.570   5.450
11606TIP3    H234762   6.201   4.572   5.341
11607TIP3   OH234763   6.630   4.668   5.157
11607TIP3    H134764   6.586   4.744   5.119
11607TIP3    H234765   6.691   4.640   5.089
11608TIP3   OH234766   6.824   4.958   6.229
11608TIP3    H134767   6.806   4.887   6.291
11608TIP3    H234768   6.918   4.974   6.236
11609TIP3   OH234769   6.782   4.697   5.385
11609TIP3    H134770   6.720   4.698   5.311
11609TIP3    H234771   6.847   4.631   5.360
11610TIP3   OH234772   6.124   4.744   6.134
11610TIP3    H134773   6.153   4.805   6.202
11610TIP3    H234774   6.104   4.663   6.181
11611TIP3   OH234775   6.169   4.221   4.855
11611TIP3    H134776   6.157   4.224   4.950
11611TIP3    H234777   6.091   4.263   4.819
11612TIP3   OH234778   5.707   4.268   5.718
11612TIP3    H134779   5.786   4.300   5.762
11612TIP3    H234780   5.737   4.245   5.630
11613TIP3   OH234781   5.627   4.247   5.222
11613TIP3    H134782   5.670   4.284   5.145
11613TIP3    H234783   5.560   4.312   5.244
11614TIP3   OH234784   6.843   4.926   5.771
11614TIP3    H134785   6.916   4.872   5.739
11614TIP3    H234786   6.812   4.879   5.849
11615TIP3   OH234787   5.934   4.489   5.483
11615TIP3    H134788   5.845   4.502   5.452
11615TIP3    H234789   5.950   4.395   5.475
11616TIP3   OH234790   6.241   4.519   5.168
11616TIP3    H134791   6.305   4.584   5.138
11616TIP3    H234792   6.176   4.516   5.099
11617TIP3   OH234793   6.071   4.503   4.956
11617TIP3    H134794   6.003   4.455   4.907
11617TIP3    H234795   6.120   4.550   4.889
11618TIP3   OH234796   7.170   6.190   5.907
11618TIP3    H134797   7.166   6.205   5.812
11618TIP3    H234798   7.247   6.239   5.936
11619TIP3   OH234799   6.117   5.307   6.326
11619TIP3    H134800   6.198   5.327   6.373
11619TIP3    H234801   6.048   5.317   6.392
11620TIP3   OH234802   6.578   4.740   5.577
11620TIP3    H134803   6.655   4.724   5.523
11620TIP3    H234804   6.603   4.708   5.664
11621TIP3   OH234805   6.090   4.228   5.474
11621TIP3    H134806   6.057   4.157   5.528
11621TIP3    H234807   6.088   4.194   5.385
11622TIP3   OH234808   6.548   4.655   5.871
11622TIP3    H134809   6.462   4.696   5.882
11622TIP3    H234810   6.609   4.715   5.912
11623TIP3   OH234811   6.283   5.026   4.973
11623TIP3    H134812   6.207   4.973   4.949
11623TIP3    H234813   6.257   5.068   5.055
11624TIP3   OH234814   7.184   5.280   5.581
11624TIP3    H134815   7.221   5.329   5.508
11624TIP3    H234816   7.105   5.239   5.545
11625TIP3   OH234817   6.752   4.348   4.867
11625TIP3    H134818   6.660   4.324   4.873
11625TIP3    H234819   6.754   4.442   4.881
11626TIP3   OH234820   6.700   5.374   5.986
11626TIP3    H134821   6.747   5.358   6.068
11626TIP3    H234822   6.658   5.459   5.998
11627TIP3   OH234823   6.813   4.607   4.951
11627TIP3    H134824   6.907   4.613   4.966
11627TIP3    H234825   6.792   4.687   4.902
11628TIP3   OH234826   5.977   5.037   5.622
11628TIP3    H134827   6.015   5.021   5.536
11628TIP3    H234828   6.044   5.010   5.685
11629TIP3   OH234829   6.438   5.189   4.818
11629TIP3    H134830   6.391   5.272   4.815
11629TIP3    H234831   6.381   5.132   4.870
11630TIP3   OH234832   5.857   4.974   6.257
11630TIP3    H134833   5.861   4.946   6.348
11630TIP3    H234834   5.782   4.927   6.220
11631TIP3   OH234835   6.603   5.118   6.272
11631TIP3    H134836   6.533   5.067   6.230
11631TIP3    H234837   6.684   5.075   6.244
11632TIP3   OH234838   6.840   5.661   5.874
11632TIP3    H134839   6.746   5.644   5.877
11632TIP3    H234840   6.860   5.697   5.961
11633TIP3   OH234841   7.223   4.697   4.769
11633TIP3    H134842   7.168   4.651   4.706
11633TIP3    H234843   7.229   4.786   4.735
11634TIP3   OH234844   7.486   5.590   5.839
11634TIP3    H134845   7.396   5.558   5.845
11634TIP3    H234846   7.519   5.552   5.758
11635TIP3   OH234847   6.971   5.516   4.702
11635TIP3    H134848   6.943   5.447   4.762
11635TIP3    H234849   6.988   5.470   4.620
11636TIP3   OH234850   6.955   5.153   5.473
11636TIP3    H134851   6.865   5.139   5.502
11636TIP3    H234852   6.984   5.068   5.441
11637TIP3   OH234853   6.105   5.387   5.292
11637TIP3    H134854   6.102   5.461   5.233
11637TIP3    H234855   6.017   5.382   5.330
11638TIP3   OH234856   5.660   4.672   4.997
11638TIP3    H134857   5.703   4.755   5.018
11638TIP3    H234858   5.581   4.671   5.050
11639TIP3   OH234859   6.185   5.141   5.197
11639TIP3    H134860   6.168   5.230   5.226
11639TIP3    H234861   6.161   5.086   5.272
11640TIP3   OH234862   6.388   5.709   5.746
11640TIP3    H134863   6.423   5.782   5.696
11640TIP3    H234864   6.463   5.676   5.796
11641TIP3   OH234865   6.022   5.608   5.141
11641TIP3    H134866   5.935   5.614   5.179
11641TIP3    H234867   6.058   5.697   5.146
11642TIP3   OH234868   6.738   5.379   5.713
11642TIP3    H134869   6.727   5.374   5.808
11642TIP3    H234870   6.805   5.313   5.693
11643TIP3   OH234871   6.738   5.250   4.589
11643TIP3    H134872   6.786   5.221   4.666
11643TIP3    H234873   6.654   5.204   4.595
11644TIP3   OH234874   6.998   5.864   5.755
11644TIP3    H134875   6.926   5.804   5.775
11644TIP3    H234876   6.963   5.919   5.685
11645TIP3   OH234877   7.047   5.718   4.395
11645TIP3    H134878   7.070   5.781   4.328
11645TIP3    H234879   6.974   5.759   4.443
11646TIP3   OH234880   6.072   4.493   6.258
11646TIP3    H134881   5.977   4.504   6.264
11646TIP3    H234882   6.096   4.446   6.337
11647TIP3   OH234883   6.908   5.160   4.785
11647TIP3    H134884   6.893   5.108   4.864
11647TIP3    H234885   7.003   5.169   4.780
11648TIP3   OH234886   5.816   5.603   5.906
11648TIP3    H134887   5.871   5.546   5.960
11648TIP3    H234888   5.829   5.690   5.943
11649TIP3   OH234889   6.087   5.215   4.601
11649TIP3    H134890   6.096   5.123   4.574
11649TIP3    H234891   6.072   5.210   4.696
11650TIP3   OH234892   6.028   5.233   4.873
11650TIP3    H134893   6.091   5.209   4.941
11650TIP3    H234894   6.024   5.328   4.876
11651TIP3   OH234895   5.759   4.923   5.082
11651TIP3    H134896   5.694   4.970   5.134
11651TIP3    H234897   5.777   4.981   5.009
11652TIP3   OH234898   6.888   4.579   5.997
11652TIP3    H134899   6.978   4.607   5.980
11652TIP3    H234900   6.896   4.487   6.023
11653TIP3   OH234901   6.823   4.309   5.133
11653TIP3    H134902   6.806   4.330   5.041
11653TIP3    H234903   6.864   4.388   5.168
11654TIP3   OH234904   6.295   5.419   4.811
11654TIP3    H134905   6.210   5.442   4.848
11654TIP3    H234906   6.318   5.492   4.755
11655TIP3   OH234907   6.741   4.807   6.002
11655TIP3    H134908   6.767   4.858   6.079
11655TIP3    H234909   6.792   4.726   6.008
11656TIP3   OH234910   6.663   4.191   5.319
11656TIP3    H134911   6.731   4.188   5.387
11656TIP3    H234912   6.706   4.232   5.244
11657TIP3   OH234913   6.045   5.505   4.888
11657TIP3    H134914   6.025   5.577   4.828
11657TIP3    H234915   6.034   5.543   4.975
11658TIP3   OH234916   6.141   4.221   5.135
11658TIP3    H134917   6.126   4.314   5.147
11658TIP3    H234918   6.235   4.210   5.147
11659TIP3   OH234919   7.392   4.720   6.002
11659TIP3    H134920   7.301   4.697   6.021
11659TIP3    H234921   7.389   4.762   5.916
11660TIP3   OH234922   7.002   4.882   5.401
11660TIP3    H134923   6.920   4.833   5.398
11660TIP3    H234924   7.044   4.853   5.482
11661TIP3   OH234925   5.784   5.099   4.867
11661TIP3    H134926   5.855   5.163   4.875
11661TIP3    H234927   5.814   5.037   4.801
11662TIP3   OH234928   5.694   4.394   5.001
11662TIP3    H134929   5.699   4.490   5.005
11662TIP3    H234930   5.640   4.376   4.924
11663TIP3   OH234931   7.023   5.867   5.329
11663TIP3    H134932   6.981   5.919   5.261
11663TIP3    H234933   7.117   5.877   5.313
11664TIP3   OH234934   6.097   4.108   5.864
11664TIP3    H134935   6.064   4.075   5.781
11664TIP3    H234936   6.084   4.035   5.925
11665TIP3   OH234937   5.609   5.369   5.259
11665TIP3    H134938   5.566   5.405   5.337
11665TIP3    H234939   5.565   5.410   5.185
11666TIP3   OH234940   5.807   5.904   6.327
11666TIP3    H134941   5.891   5.905   6.372
11666TIP3    H234942   5.785   5.811   6.319
11667TIP3   OH234943   6.281   5.810   6.377
11667TIP3    H134944   6.374   5.787   6.381
11667TIP3    H234945   6.246   5.757   6.305
11668TIP3   OH234946   6.238   5.416   4.489
11668TIP3    H134947   6.191   5.346   4.534
11668TIP3    H234948   6.313   5.372   4.448
11669TIP3   OH234949   6.892   5.759   6.126
11669TIP3    H134950   6.909   5.684   6.183
11669TIP3    H234951   6.967   5.816   6.137
11670TIP3   OH234952   6.681   5.456   4.417
11670TIP3    H134953   6.715   5.392   4.480
11670TIP3    H234954   6.739   5.449   4.341
11671TIP3   OH234955   5.914   5.305   6.517
11671TIP3    H134956   5.931   5.212   6.527
11671TIP3    H234957   5.827   5.310   6.476
11672TIP3   OH234958   5.906   4.909   4.714
11672TIP3    H134959   5.957   4.886   4.791
11672TIP3    H234960   5.972   4.923   4.645
11673TIP3   OH234961   6.539   5.391   6.293
11673TIP3    H134962   6.492   5.411   6.212
11673TIP3    H234963   6.573   5.303   6.280
11674TIP3   OH234964   6.486   5.129   4.555
11674TIP3    H134965   6.460   5.142   4.646
11674TIP3    H234966   6.467   5.037   4.537
11675TIP3   OH234967   7.016   5.442   5.919
11675TIP3    H134968   7.092   5.463   5.864
11675TIP3    H234969   6.950   5.507   5.894
11676TIP3   OH234970   6.027   5.049   6.524
11676TIP3    H134971   6.102   5.034   6.467
11676TIP3    H234972   6.066   5.066   6.610
11677TIP3   OH234973   6.075   4.847   4.928
11677TIP3    H134974   6.052   4.815   5.015
11677TIP3    H234975   6.124   4.775   4.888
11678TIP3   OH234976   6.373   4.915   6.183
11678TIP3    H134977   6.295   4.968   6.198
11678TIP3    H234978   6.411   4.951   6.104
11679TIP3   OH234979   6.219   4.659   4.782
11679TIP3    H134980   6.188   4.663   4.692
11679TIP3    H234981   6.314   4.669   4.775
11680TIP3   OH234982   6.899   5.302   6.261
11680TIP3    H134983   6.971   5.270   6.206
11680TIP3    H234984   6.899   5.243   6.337
11681TIP3   OH234985   7.011   4.956   4.456
11681TIP3    H134986   6.998   4.914   4.371
11681TIP3    H234987   6.989   5.048   4.441
11682TIP3   OH234988   6.497   4.698   6.294
11682TIP3    H134989   6.501   4.626   6.232
11682TIP3    H234990   6.458   4.770   6.246
11683TIP3   OH234991   6.500   4.495   6.098
11683TIP3    H134992   6.530   4.537   6.017
11683TIP3    H234993   6.409   4.473   6.080
11684TIP3   OH234994   6.501   5.032   5.977
11684TIP3    H134995   6.590   5.029   5.943
11684TIP3    H234996   6.455   5.095   5.922
11685TIP3   OH234997   7.110   4.999   6.318
11685TIP3    H134998   7.095   4.904   6.315
11685TIP3    H234999   7.191   5.012   6.267
11686TIP3   OH235000   7.124   5.263   6.091
11686TIP3    H135001   7.077   5.326   6.037
11686TIP3    H235002   7.213   5.264   6.057
11687TIP3   OH235003   6.381   4.781   6.534
11687TIP3    H135004   6.310   4.720   6.554
11687TIP3    H235005   6.410   4.757   6.446
11688TIP3   OH235006   6.631   4.268   6.187
11688TIP3    H135007   6.590   4.349   6.159
11688TIP3    H235008   6.563   4.201   6.175
11689TIP3   OH235009   6.755   4.745   6.393
11689TIP3    H135010   6.744   4.732   6.487
11689TIP3    H235011   6.669   4.723   6.356
11690TIP3   OH235012   7.023   4.742   6.297
11690TIP3    H135013   6.940   4.717   6.340
11690TIP3    H235014   7.089   4.689   6.341
11691TIP3   OH235015   7.248   4.635   6.415
11691TIP3    H135016   7.259   4.540   6.422
11691TIP3    H235017   7.242   4.665   6.505
11692TIP3   OH235018   6.211   4.563   6.596
11692TIP3    H135019   6.218   4.475   6.560
11692TIP3    H235020   6.249   4.557   6.683
11693TIP3   OH235021   6.691   4.243   6.454
11693TIP3    H135022   6.761   4.178   6.448
11693TIP3    H235023   6.664   4.257   6.363
11694TIP3   OH235024   6.787   4.459   6.597
11694TIP3    H135025   6.755   4.387   6.543
11694TIP3    H235026   6.715   4.522   6.599
11695TIP3   OH235027   6.046   5.716   4.707
11695TIP3    H135028   6.134   5.694   4.677
11695TIP3    H235029   6.006   5.761   4.632
11696TIP3   OH235030   5.511   5.104   4.890
11696TIP3    H135031   5.606   5.115   4.885
11696TIP3    H235032   5.496   5.018   4.851
11697TIP3   OH235033   5.415   5.679   5.347
11697TIP3    H135034   5.350   5.627   5.300
11697TIP3    H235035   5.458   5.617   5.405
11698TIP3   OH235036   5.558   5.508   5.513
11698TIP3    H135037   5.549   5.440   5.579
11698TIP3    H235038   5.609   5.577   5.555
11699TIP3   OH235039   7.295   5.912   5.317
11699TIP3    H135040   7.311   5.944   5.406
11699TIP3    H235041   7.351   5.967   5.262
11700TIP3   OH235042   7.302   5.946   5.597
11700TIP3    H135043   7.258   5.862   5.592
11700TIP3    H235044   7.375   5.932   5.658
11701TIP3   OH235045   7.365   5.655   6.199
11701TIP3    H135046   7.292   5.663   6.261
11701TIP3    H235047   7.405   5.742   6.197
11702TIP3   OH235048   7.188   5.163   4.786
11702TIP3    H135049   7.246   5.234   4.758
11702TIP3    H235050   7.231   5.125   4.862
11703TIP3   OH235051   7.310   5.019   4.992
11703TIP3    H135052   7.245   4.985   5.054
11703TIP3    H235053   7.377   5.059   5.048
11704TIP3   OH235054   7.358   5.424   5.419
11704TIP3    H135055   7.410   5.353   5.380
11704TIP3    H235056   7.363   5.495   5.355
11705TIP3   OH235057   7.171   5.701   5.612
11705TIP3    H135058   7.103   5.747   5.661
11705TIP3    H235059   7.125   5.661   5.539
11706TIP3   OH235060   7.221   4.937   4.633
11706TIP3    H135061   7.148   4.937   4.570
11706TIP3    H235062   7.207   5.015   4.686
11707TIP3   OH235063   7.076   4.585   4.566
11707TIP3    H135064   7.029   4.623   4.491
11707TIP3    H235065   7.068   4.491   4.554
11708TIP3   OH235066   7.107   4.884   5.141
11708TIP3    H135067   7.116   4.790   5.124
11708TIP3    H235068   7.080   4.890   5.232
11709TIP3   OH235069   5.730   4.943   5.898
11709TIP3    H135070   5.721   4.915   5.807
11709TIP3    H235071   5.825   4.941   5.914
11710TIP3   OH235072   7.375   5.296   5.974
11710TIP3    H135073   7.441   5.228   5.961
11710TIP3    H235074   7.360   5.332   5.886
11711TIP3   OH235075   7.557   5.090   5.988
11711TIP3    H135076   7.482   5.047   6.028
11711TIP3    H235077   7.632   5.035   6.013
11712TIP3   OH235078   7.038   4.314   4.531
11712TIP3    H135079   7.102   4.289   4.598
11712TIP3    H235080   6.956   4.275   4.562
11713TIP3   OH235081   7.103   4.605   5.016
11713TIP3    H135082   7.149   4.522   5.026
11713TIP3    H235083   7.143   4.645   4.939
11714TIP3   OH235084   7.358   4.891   5.776
11714TIP3    H135085   7.278   4.851   5.744
11714TIP3    H235086   7.367   4.972   5.725
11715TIP3   OH235087   5.948   4.622   6.536
11715TIP3    H135088   6.042   4.619   6.554
11715TIP3    H235089   5.914   4.542   6.574
11716TIP3   OH235090   7.788   4.520   6.294
11716TIP3    H135091   7.855   4.465   6.255
11716TIP3    H235092   7.748   4.565   6.219
11717TIP3   OH235093   7.222   4.355   5.060
11717TIP3    H135094   7.271   4.338   5.141
11717TIP3    H235095   7.161   4.281   5.053
11718TIP3   OH235096   5.934   4.334   5.859
11718TIP3    H135097   5.987   4.256   5.876
11718TIP3    H235098   5.998   4.404   5.848
11719TIP3   OH235099   5.709   4.594   5.945
11719TIP3    H135100   5.757   4.587   5.863
11719TIP3    H235101   5.729   4.681   5.978
11720TIP3   OH235102   7.632   4.617   6.088
11720TIP3    H135103   7.548   4.662   6.079
11720TIP3    H235104   7.622   4.536   6.038
11721TIP3   OH235105   7.261   4.270   4.695
11721TIP3    H135106   7.307   4.210   4.637
11721TIP3    H235107   7.317   4.348   4.698
11722TIP3   OH235108   5.698   4.129   5.457
11722TIP3    H135109   5.612   4.108   5.493
11722TIP3    H235110   5.679   4.177   5.376
11723TIP3   OH235111   6.853   5.834   4.965
11723TIP3    H135112   6.908   5.823   4.888
11723TIP3    H235113   6.895   5.904   5.015
11724TIP3   OH235114   5.916   4.161   6.266
11724TIP3    H135115   5.868   4.157   6.349
11724TIP3    H235116   5.861   4.214   6.209
11725TIP3   OH235117   5.950   5.620   6.344
11725TIP3    H135118   5.856   5.606   6.334
11725TIP3    H235119   5.965   5.611   6.439
11726TIP3   OH235120   6.161   5.673   5.897
11726TIP3    H135121   6.109   5.747   5.865
11726TIP3    H235122   6.245   5.682   5.852
11727TIP3   OH235123   6.554   5.901   6.038
11727TIP3    H135124   6.592   5.899   6.126
11727TIP3    H235125   6.614   5.955   5.987
11728TIP3   OH235126   6.738   6.055   5.904
11728TIP3    H135127   6.796   6.003   5.847
11728TIP3    H235128   6.798   6.110   5.954
11729TIP3   OH235129   7.556   4.362   5.994
11729TIP3    H135130   7.467   4.335   5.969
11729TIP3    H235131   7.608   4.282   5.988
11730TIP3   OH235132   5.820   5.904   5.944
11730TIP3    H135133   5.729   5.921   5.918
11730TIP3    H235134   5.840   5.973   6.008
11731TIP3   OH235135   6.050   5.903   5.793
11731TIP3    H135136   5.967   5.906   5.840
11731TIP3    H235137   6.028   5.927   5.703
11732TIP3   OH235138   6.463   5.921   5.584
11732TIP3    H135139   6.392   5.929   5.521
11732TIP3    H235140   6.471   6.008   5.623
11733TIP3   OH235141   6.726   5.861   5.639
11733TIP3    H135142   6.635   5.878   5.616
11733TIP3    H235143   6.777   5.924   5.588
11734TIP3   OH235144   6.927   6.025   5.532
11734TIP3    H135145   6.924   6.112   5.491
11734TIP3    H235146   6.958   5.967   5.463
11735TIP3   OH235147   5.731   5.689   5.653
11735TIP3    H135148   5.754   5.665   5.743
11735TIP3    H235149   5.803   5.655   5.600
11736TIP3   OH235150   5.935   5.572   5.516
11736TIP3    H135151   5.946   5.488   5.561
11736TIP3    H235152   6.021   5.614   5.521
11737TIP3   OH235153   6.202   5.659   5.543
11737TIP3    H135154   6.223   5.567   5.527
11737TIP3    H235155   6.256   5.683   5.618
11738TIP3   OH235156   6.670   4.310   5.625
11738TIP3    H135157   6.691   4.247   5.695
11738TIP3    H235158   6.752   4.321   5.577
11739TIP3   OH235159   7.254   4.247   5.509
11739TIP3    H135160   7.310   4.271   5.435
11739TIP3    H235161   7.201   4.325   5.525
11740TIP3   OH235162   7.387   4.297   5.279
11740TIP3    H135163   7.455   4.236   5.251
11740TIP3    H235164   7.422   4.384   5.260
11741TIP3   OH235165   6.006   4.008   5.623
11741TIP3    H135166   5.915   3.980   5.633
11741TIP3    H235167   6.055   3.926   5.616
11742TIP3   OH235168   5.837   3.933   5.296
11742TIP3    H135169   5.854   3.977   5.212
11742TIP3    H235170   5.794   3.999   5.349
11743TIP3   OH235171   6.477   4.120   5.529
11743TIP3    H135172   6.524   4.105   5.446
11743TIP3    H235173   6.523   4.065   5.592
11744TIP3   OH235174   6.889   4.186   5.486
11744TIP3    H135175   6.968   4.206   5.436
11744TIP3    H235176   6.914   4.116   5.545
11745TIP3   OH235177   7.037   4.145   5.065
11745TIP3    H135178   6.958   4.195   5.086
11745TIP3    H235179   7.024   4.060   5.105
11746TIP3   OH235180   5.491   5.487   5.041
11746TIP3    H135181   5.407   5.457   5.007
11746TIP3    H235182   5.499   5.577   5.010
11747TIP3   OH235183   5.931   4.048   5.045
11747TIP3    H135184   5.974   3.985   4.987
11747TIP3    H235185   6.001   4.103   5.079
11748TIP3   OH235186   6.415   4.267   5.163
11748TIP3    H135187   6.493   4.245   5.214
11748TIP3    H235188   6.401   4.360   5.181
11749TIP3   OH235189   6.299   5.639   4.635
11749TIP3    H135190   6.383   5.666   4.597
11749TIP3    H235191   6.269   5.568   4.578
11750TIP3   OH235192   7.003   5.785   4.736
11750TIP3    H135193   6.997   5.690   4.729
11750TIP3    H235194   6.959   5.818   4.657
11751TIP3   OH235195   6.228   4.294   6.508
11751TIP3    H135196   6.193   4.227   6.568
11751TIP3    H235197   6.320   4.302   6.532
11752TIP3   OH235198   6.476   4.297   6.630
11752TIP3    H135199   6.553   4.275   6.578
11752TIP3    H235200   6.471   4.228   6.696
11753TIP3   OH235201   5.603   5.477   4.689
11753TIP3    H135202   5.602   5.493   4.784
11753TIP3    H235203   5.686   5.432   4.673
11754TIP3   OH235204   7.302   4.366   6.419
11754TIP3    H135205   7.321   4.341   6.509
11754TIP3    H235206   7.388   4.367   6.376
11755TIP3   OH235207   7.213   5.920   5.921
11755TIP3    H135208   7.143   5.886   5.866
11755TIP3    H235209   7.199   6.015   5.923
11756TIP3   OH235210   8.498   5.321   4.653
11756TIP3    H135211   8.456   5.405   4.636
11756TIP3    H235212   8.427   5.257   4.645
11757TIP3   OH235213   8.446   5.307   5.094
11757TIP3    H135214   8.490   5.299   5.178
11757TIP3    H235215   8.407   5.221   5.078
11758TIP3   OH235216   7.782   5.168   5.439
11758TIP3    H135217   7.817   5.112   5.508
11758TIP3    H235218   7.858   5.197   5.390
11759TIP3   OH235219   0.230   5.592   4.759
11759TIP3    H135220   0.210   5.545   4.840
11759TIP3    H235221   0.247   5.682   4.786
11760TIP3   OH235222   7.775   5.589   5.119
11760TIP3    H135223   7.757   5.496   5.126
11760TIP3    H235224   7.871   5.595   5.114
11761TIP3   OH235225   7.460   4.796   4.903
11761TIP3    H135226   7.421   4.879   4.931
11761TIP3    H235227   7.387   4.747   4.864
11762TIP3   OH235228   7.541   5.113   5.124
11762TIP3    H135229   7.592   5.036   5.149
11762TIP3    H235230   7.607   5.179   5.102
11763TIP3   OH235231   8.417   6.026   4.785
11763TIP3    H135232   8.446   5.964   4.719
11763TIP3    H235233   8.424   5.978   4.868
11764TIP3   OH235234   8.286   5.536   5.090
11764TIP3    H135235   8.328   5.451   5.072
11764TIP3    H235236   8.357   5.591   5.123
11765TIP3   OH235237   0.160   5.034   5.121
11765TIP3    H135238   0.165   4.948   5.164
11765TIP3    H235239   0.095   5.022   5.052
11766TIP3   OH235240   8.041   4.680   5.085
11766TIP3    H135241   8.010   4.748   5.026
11766TIP3    H235242   7.991   4.602   5.060
11767TIP3   OH235243   0.200   4.785   4.714
11767TIP3    H135244   0.242   4.742   4.788
11767TIP3    H235245   0.183   4.875   4.744
11768TIP3   OH235246   7.683   4.896   5.214
11768TIP3    H135247   7.763   4.875   5.261
11768TIP3    H235248   7.684   4.837   5.138
11769TIP3   OH235249   8.088   5.091   5.029
11769TIP3    H135250   8.181   5.075   5.044
11769TIP3    H235251   8.054   5.008   4.994
11770TIP3   OH235252   8.030   4.692   5.546
11770TIP3    H135253   7.977   4.729   5.475
11770TIP3    H235254   7.978   4.707   5.625
11771TIP3   OH235255   8.366   5.535   4.532
11771TIP3    H135256   8.324   5.502   4.453
11771TIP3    H235257   8.313   5.611   4.557
11772TIP3   OH235258   8.126   5.450   5.299
11772TIP3    H135259   8.068   5.518   5.331
11772TIP3    H235260   8.176   5.492   5.228
11773TIP3   OH235261   7.926   4.790   5.310
11773TIP3    H135262   7.981   4.865   5.332
11773TIP3    H235263   7.971   4.748   5.237
11774TIP3   OH235264   7.956   5.647   5.391
11774TIP3    H135265   7.943   5.737   5.362
11774TIP3    H235266   7.881   5.629   5.447
11775TIP3   OH235267   7.358   5.354   4.667
11775TIP3    H135268   7.322   5.373   4.580
11775TIP3    H235269   7.381   5.440   4.702
11776TIP3   OH235270   0.246   5.846   4.853
11776TIP3    H135271   0.163   5.860   4.898
11776TIP3    H235272   0.274   5.934   4.827
11777TIP3   OH235273   8.286   4.357   5.232
11777TIP3    H135274   8.300   4.273   5.277
11777TIP3    H235275   8.232   4.408   5.293
11778TIP3   OH235276   0.019   5.891   4.565
11778TIP3    H135277   0.076   5.815   4.575
11778TIP3    H235278   0.078   5.963   4.540
11779TIP3   OH235279   0.120   5.621   4.514
11779TIP3    H135280   0.029   5.591   4.521
11779TIP3    H235281   0.157   5.605   4.600
11780TIP3   OH235282   0.559   5.788   5.278
11780TIP3    H135283   0.616   5.710   5.275
11780TIP3    H235284   0.485   5.765   5.221
11781TIP3   OH235285   8.293   5.169   4.535
11781TIP3    H135286   8.211   5.216   4.516
11781TIP3    H235287   8.331   5.154   4.449
11782TIP3   OH235288   8.252   4.946   4.247
11782TIP3    H135289   8.319   4.997   4.294
11782TIP3    H235290   8.302   4.885   4.193
11783TIP3   OH235291   0.162   5.262   4.445
11783TIP3    H135292   0.109   5.292   4.519
11783TIP3    H235293   0.210   5.186   4.479
11784TIP3   OH235294   0.290   5.259   5.507
11784TIP3    H135295   0.307   5.350   5.533
11784TIP3    H235296   0.225   5.266   5.437
11785TIP3   OH235297   7.894   5.221   4.881
11785TIP3    H135298   7.859   5.160   4.817
11785TIP3    H235299   7.966   5.174   4.923
11786TIP3   OH235300   8.038   5.648   5.024
11786TIP3    H135301   8.013   5.632   4.933
11786TIP3    H235302   8.125   5.608   5.033
11787TIP3   OH235303   7.994   5.216   5.256
11787TIP3    H135304   8.030   5.180   5.175
11787TIP3    H235305   8.043   5.297   5.271
11788TIP3   OH235306   0.022   5.858   5.012
11788TIP3    H135307   0.017   5.933   5.070
11788TIP3    H235308   0.012   5.782   5.069
11789TIP3   OH235309   8.156   5.750   5.549
11789TIP3    H135310   8.097   5.805   5.600
11789TIP3    H235311   8.098   5.698   5.493
11790TIP3   OH235312   8.472   5.088   4.337
11790TIP3    H135313   8.515   5.166   4.372
11790TIP3    H235314   8.507   5.079   4.249
11791TIP3   OH235315   7.935   5.307   5.687
11791TIP3    H135316   7.942   5.396   5.720
11791TIP3    H235317   7.842   5.285   5.696
11792TIP3   OH235318   8.257   5.784   4.568
11792TIP3    H135319   8.338   5.835   4.572
11792TIP3    H235320   8.198   5.838   4.514
11793TIP3   OH235321   7.960   5.913   5.659
11793TIP3    H135322   7.933   5.919   5.567
11793TIP3    H235323   7.880   5.887   5.705
11794TIP3   OH235324   7.776   5.057   4.683
11794TIP3    H135325   7.696   5.102   4.654
11794TIP3    H235326   7.747   4.968   4.703
11795TIP3   OH235327   0.466   5.745   3.799
11795TIP3    H135328   0.377   5.764   3.827
11795TIP3    H235329   0.455   5.685   3.725
11796TIP3   OH235330   7.564   5.461   5.612
11796TIP3    H135331   7.494   5.440   5.550
11796TIP3    H235332   7.598   5.377   5.640
11797TIP3   OH235333   7.412   5.653   5.260
11797TIP3    H135334   7.505   5.669   5.270
11797TIP3    H235335   7.370   5.732   5.294
11798TIP3   OH235336   8.363   5.910   5.471
11798TIP3    H135337   8.388   5.933   5.560
11798TIP3    H235338   8.286   5.853   5.481
11799TIP3   OH235339   8.154   5.997   4.391
11799TIP3    H135340   8.106   5.972   4.312
11799TIP3    H235341   8.113   6.078   4.420
11800TIP3   OH235342   7.580   5.848   4.775
11800TIP3    H135343   7.626   5.839   4.859
11800TIP3    H235344   7.532   5.766   4.766
11801TIP3   OH235345   8.324   5.958   4.037
11801TIP3    H135346   8.350   5.876   3.995
11801TIP3    H235347   8.377   5.962   4.117
11802TIP3   OH235348   8.413   5.961   4.306
11802TIP3    H135349   8.321   5.965   4.332
11802TIP3    H235350   8.460   5.945   4.388
11803TIP3   OH235351   7.753   5.659   5.580
11803TIP3    H135352   7.811   5.639   5.654
11803TIP3    H235353   7.685   5.592   5.585
11804TIP3   OH235354   8.112   4.468   5.413
11804TIP3    H135355   8.028   4.436   5.381
11804TIP3    H235356   8.091   4.550   5.457
11805TIP3   OH235357   0.062   4.648   5.645
11805TIP3    H135358   0.082   4.620   5.735
11805TIP3    H235359  -0.033   4.663   5.646
11806TIP3   OH235360   0.523   5.137   5.584
11806TIP3    H135361   0.506   5.142   5.678
11806TIP3    H235362   0.450   5.183   5.544
11807TIP3   OH235363   0.123   5.072   4.117
11807TIP3    H135364   0.092   5.089   4.028
11807TIP3    H235365   0.203   5.124   4.125
11808TIP3   OH235366   8.257   4.482   4.353
11808TIP3    H135367   8.227   4.499   4.442
11808TIP3    H235368   8.222   4.396   4.332
11809TIP3   OH235369   8.077   4.998   5.404
11809TIP3    H135370   8.033   5.004   5.489
11809TIP3    H235371   8.053   5.078   5.358
11810TIP3   OH235372   7.949   4.877   4.921
11810TIP3    H135373   7.861   4.852   4.949
11810TIP3    H235374   7.957   4.843   4.832
11811TIP3   OH235375   8.410   4.952   4.656
11811TIP3    H135376   8.367   5.028   4.618
11811TIP3    H235377   8.466   4.918   4.586
11812TIP3   OH235378   0.103   5.249   5.734
11812TIP3    H135379   0.084   5.204   5.817
11812TIP3    H235380   0.194   5.225   5.714
11813TIP3   OH235381   0.038   4.939   4.898
11813TIP3    H135382  -0.002   4.968   4.816
11813TIP3    H235383   0.008   4.849   4.909
11814TIP3   OH235384   7.915   5.004   5.627
11814TIP3    H135385   7.942   5.069   5.692
11814TIP3    H235386   7.899   4.925   5.678
11815TIP3   OH235387   7.934   4.474   4.334
11815TIP3    H135388   7.927   4.483   4.429
11815TIP3    H235389   7.862   4.527   4.300
11816TIP3   OH235390   7.495   4.522   5.182
11816TIP3    H135391   7.570   4.560   5.227
11816TIP3    H235392   7.529   4.496   5.096
11817TIP3   OH235393   7.414   4.502   4.708
11817TIP3    H135394   7.460   4.538   4.632
11817TIP3    H235395   7.352   4.570   4.733
11818TIP3   OH235396   0.097   5.223   5.312
11818TIP3    H135397   0.129   5.158   5.249
11818TIP3    H235398   0.050   5.172   5.378
11819TIP3   OH235399   8.291   4.768   4.998
11819TIP3    H135400   8.210   4.740   5.040
11819TIP3    H235401   8.355   4.700   5.022
11820TIP3   OH235402   7.719   4.745   4.986
11820TIP3    H135403   7.630   4.749   4.950
11820TIP3    H235404   7.745   4.654   4.976
11821TIP3   OH235405   7.952   4.750   4.679
11821TIP3    H135406   8.046   4.759   4.669
11821TIP3    H235407   7.917   4.762   4.591
11822TIP3   OH235408   0.159   4.758   5.153
11822TIP3    H135409   0.134   4.758   5.245
11822TIP3    H235410   0.254   4.748   5.154
11823TIP3   OH235411   7.841   4.762   4.431
11823TIP3    H135412   7.776   4.717   4.378
11823TIP3    H235413   7.892   4.813   4.368
11824TIP3   OH235414   7.918   5.572   5.794
11824TIP3    H135415   7.998   5.603   5.836
11824TIP3    H235416   7.855   5.565   5.866
11825TIP3   OH235417   8.347   5.034   5.105
11825TIP3    H135418   8.358   4.956   5.051
11825TIP3    H235419   8.352   5.003   5.195
11826TIP3   OH235420   7.863   4.494   4.972
11826TIP3    H135421   7.835   4.419   5.025
11826TIP3    H235422   7.889   4.456   4.888
11827TIP3   OH235423   8.345   4.943   5.368
11827TIP3    H135424   8.256   4.975   5.385
11827TIP3    H235425   8.400   4.995   5.427
11828TIP3   OH235426   8.059   5.303   4.455
11828TIP3    H135427   7.987   5.243   4.436
11828TIP3    H235428   8.038   5.337   4.542
11829TIP3   OH235429   0.419   5.502   5.147
11829TIP3    H135430   0.466   5.442   5.089
11829TIP3    H235431   0.331   5.506   5.111
11830TIP3   OH235432   8.490   4.618   4.323
11830TIP3    H135433   8.402   4.587   4.344
11830TIP3    H235434   8.497   4.702   4.368
11831TIP3   OH235435   8.463   5.610   5.475
11831TIP3    H135436   8.518   5.584   5.549
11831TIP3    H235437   8.424   5.693   5.503
11832TIP3   OH235438   0.060   4.855   4.442
11832TIP3    H135439   0.154   4.862   4.455
11832TIP3    H235440   0.036   4.933   4.393
11833TIP3   OH235441   7.764   5.301   5.111
11833TIP3    H135442   7.802   5.283   5.026
11833TIP3    H235443   7.829   5.269   5.174
11834TIP3   OH235444   8.224   5.463   4.306
11834TIP3    H135445   8.174   5.545   4.303
11834TIP3    H235446   8.165   5.401   4.349
11835TIP3   OH235447   7.664   5.239   5.751
11835TIP3    H135448   7.688   5.224   5.843
11835TIP3    H235449   7.597   5.173   5.733
11836TIP3   OH235450   8.368   5.386   5.710
11836TIP3    H135451   8.302   5.329   5.749
11836TIP3    H235452   8.450   5.341   5.724
11837TIP3   OH235453   0.161   5.906   5.399
11837TIP3    H135454   0.078   5.931   5.359
11837TIP3    H235455   0.144   5.909   5.493
11838TIP3   OH235456   0.362   5.703   4.115
11838TIP3    H135457   0.301   5.707   4.189
11838TIP3    H235458   0.360   5.612   4.087
11839TIP3   OH235459   0.180   5.464   5.004
11839TIP3    H135460   0.090   5.449   5.033
11839TIP3    H235461   0.212   5.378   4.978
11840TIP3   OH235462   7.897   5.644   4.781
11840TIP3    H135463   7.892   5.719   4.721
11840TIP3    H235464   7.806   5.630   4.808
11841TIP3   OH235465   7.459   4.926   4.493
11841TIP3    H135466   7.501   5.009   4.515
11841TIP3    H235467   7.378   4.926   4.545
11842TIP3   OH235468   7.991   5.401   4.695
11842TIP3    H135469   7.970   5.490   4.723
11842TIP3    H235470   7.959   5.345   4.766
11843TIP3   OH235471   8.188   5.976   5.247
11843TIP3    H135472   8.219   6.042   5.185
11843TIP3    H235473   8.264   5.956   5.302
11844TIP3   OH235474   7.812   5.864   4.628
11844TIP3    H135475   7.726   5.870   4.669
11844TIP3    H235476   7.846   5.953   4.631
11845TIP3   OH235477   0.013   5.646   5.206
11845TIP3    H135478  -0.013   5.631   5.297
11845TIP3    H235479   0.107   5.631   5.206
11846TIP3   OH235480   8.491   5.603   4.124
11846TIP3    H135481   8.572   5.563   4.155
11846TIP3    H235482   8.423   5.539   4.145
11847TIP3   OH235483   7.881   4.754   5.764
11847TIP3    H135484   7.786   4.765   5.768
11847TIP3    H235485   7.901   4.698   5.839
11848TIP3   OH235486   0.182   5.475   4.277
11848TIP3    H135487   0.196   5.390   4.318
11848TIP3    H235488   0.146   5.530   4.346
11849TIP3   OH235489   7.610   5.859   5.397
11849TIP3    H135490   7.659   5.799   5.454
11849TIP3    H235491   7.626   5.946   5.434
11850TIP3   OH235492   7.866   5.475   4.093
11850TIP3    H135493   7.891   5.388   4.061
11850TIP3    H235494   7.856   5.464   4.187
11851TIP3   OH235495   7.819   5.487   4.366
11851TIP3    H135496   7.896   5.464   4.418
11851TIP3    H235497   7.815   5.583   4.370
11852TIP3   OH235498   7.552   5.177   4.573
11852TIP3    H135499   7.487   5.226   4.624
11852TIP3    H235500   7.573   5.235   4.500
11853TIP3   OH235501   0.140   4.790   5.417
11853TIP3    H135502   0.189   4.871   5.428
11853TIP3    H235503   0.096   4.776   5.501
11854TIP3   OH235504   0.046   4.572   4.638
11854TIP3    H135505   0.086   4.540   4.558
11854TIP3    H235506   0.090   4.656   4.655
11855TIP3   OH235507   8.080   5.690   4.311
11855TIP3    H135508   7.992   5.711   4.342
11855TIP3    H235509   8.098   5.756   4.244
11856TIP3   OH235510   8.226   4.763   4.723
11856TIP3    H135511   8.288   4.828   4.690
11856TIP3    H235512   8.241   4.762   4.818
11857TIP3   OH235513   0.035   5.061   5.536
11857TIP3    H135514   0.026   5.139   5.592
11857TIP3    H235515   0.099   5.007   5.582
11858TIP3   OH235516   8.369   4.484   4.820
11858TIP3    H135517   8.405   4.527   4.898
11858TIP3    H235518   8.423   4.516   4.748
11859TIP3   OH235519   7.824   5.762   4.375
11859TIP3    H135520   7.802   5.834   4.316
11859TIP3    H235521   7.816   5.800   4.463
11860TIP3   OH235522   7.912   4.476   4.615
11860TIP3    H135523   7.894   4.564   4.646
11860TIP3    H235524   8.007   4.468   4.618
11861TIP3   OH235525   0.271   5.213   4.945
11861TIP3    H135526   0.223   5.160   4.882
11861TIP3    H235527   0.253   5.171   5.030
11862TIP3   OH235528   7.577   5.354   4.356
11862TIP3    H135529   7.649   5.415   4.368
11862TIP3    H235530   7.608   5.293   4.289
11863TIP3   OH235531   7.483   4.648   4.487
11863TIP3    H135532   7.496   4.742   4.496
11863TIP3    H235533   7.420   4.640   4.415
11864TIP3   OH235534   0.330   6.116   4.822
11864TIP3    H135535   0.285   6.176   4.762
11864TIP3    H235536   0.420   6.150   4.826
11865TIP3   OH235537   7.870   4.362   5.355
11865TIP3    H135538   7.844   4.329   5.269
11865TIP3    H235539   7.856   4.288   5.414
11866TIP3   OH235540   7.407   5.625   4.748
11866TIP3    H135541   7.362   5.660   4.825
11866TIP3    H235542   7.364   5.668   4.674
11867TIP3   OH235543   7.571   6.133   5.809
11867TIP3    H135544   7.648   6.126   5.866
11867TIP3    H235545   7.540   6.043   5.800
11868TIP3   OH235546   8.011   6.103   5.851
11868TIP3    H135547   8.107   6.109   5.852
11868TIP3    H235548   7.992   6.034   5.788
11869TIP3   OH235549   8.015   5.683   3.992
11869TIP3    H135550   7.965   5.613   4.035
11869TIP3    H235551   8.080   5.636   3.940
11870TIP3   OH235552   8.384   5.729   3.908
11870TIP3    H135553   8.438   5.681   3.971
11870TIP3    H235554   8.437   5.732   3.829
11871TIP3   OH235555   7.719   5.553   5.991
11871TIP3    H135556   7.746   5.462   6.000
11871TIP3    H235557   7.633   5.548   5.948
11872TIP3   OH235558   7.699   5.169   4.197
11872TIP3    H135559   7.748   5.144   4.275
11872TIP3    H235560   7.766   5.186   4.131
11873TIP3   OH235561   8.312   5.654   5.749
11873TIP3    H135562   8.257   5.663   5.672
11873TIP3    H235563   8.340   5.562   5.748
11874TIP3   OH235564   8.208   5.385   4.034
11874TIP3    H135565   8.230   5.402   4.126
11874TIP3    H235566   8.207   5.290   4.027
11875TIP3   OH235567   0.267   5.654   5.357
11875TIP3    H135568   0.316   5.659   5.275
11875TIP3    H235569   0.232   5.743   5.369
11876TIP3   OH235570   7.863   5.311   5.994
11876TIP3    H135571   7.954   5.320   5.965
11876TIP3    H235572   7.869   5.309   6.090
11877TIP3   OH235573   7.861   5.113   4.419
11877TIP3    H135574   7.842   5.083   4.507
11877TIP3    H235575   7.905   5.039   4.377
11878TIP3   OH235576   8.173   5.171   5.648
11878TIP3    H135577   8.096   5.226   5.661
11878TIP3    H235578   8.216   5.209   5.571
11879TIP3   OH235579   7.981   4.922   4.262
11879TIP3    H135580   7.957   4.931   4.170
11879TIP3    H235581   8.077   4.926   4.263
11880TIP3   OH235582   0.127   5.567   5.698
11880TIP3    H135583   0.214   5.540   5.668
11880TIP3    H235584   0.101   5.500   5.761
11881TIP3   OH235585   8.281   4.954   5.770
11881TIP3    H135586   8.283   4.884   5.705
11881TIP3    H235587   8.243   5.029   5.724
11882TIP3   OH235588   8.295   4.751   5.570
11882TIP3    H135589   8.322   4.798   5.491
11882TIP3    H235590   8.201   4.736   5.558
11883TIP3   OH235591   8.304   5.286   5.434
11883TIP3    H135592   8.362   5.348   5.478
11883TIP3    H235593   8.245   5.341   5.382
11884TIP3   OH235594   0.388   5.208   5.839
11884TIP3    H135595   0.395   5.122   5.879
11884TIP3    H235596   0.329   5.257   5.897
11885TIP3   OH235597   0.367   5.519   5.566
11885TIP3    H135598   0.328   5.571   5.496
11885TIP3    H235599   0.450   5.488   5.529
11886TIP3   OH235600   8.177   5.000   6.025
11886TIP3    H135601   8.108   4.934   6.035
11886TIP3    H235602   8.204   4.993   5.933
11887TIP3   OH235603   8.321   4.502   5.713
11887TIP3    H135604   8.282   4.575   5.665
11887TIP3    H235605   8.273   4.425   5.683
11888TIP3   OH235606   8.532   5.003   5.871
11888TIP3    H135607   8.518   5.006   5.965
11888TIP3    H235608   8.445   4.988   5.834
11889TIP3   OH235609   0.229   4.937   5.697
11889TIP3    H135610   0.161   4.953   5.763
11889TIP3    H235611   0.307   4.915   5.748
11890TIP3   OH235612   0.394   4.926   5.958
11890TIP3    H135613   0.442   4.844   5.971
11890TIP3    H235614   0.330   4.928   6.029
11891TIP3   OH235615   7.992   4.805   6.086
11891TIP3    H135616   7.999   4.716   6.050
11891TIP3    H235617   8.030   4.799   6.173
11892TIP3   OH235618   8.468   4.514   5.941
11892TIP3    H135619   8.516   4.431   5.952
11892TIP3    H235620   8.415   4.500   5.862
11893TIP3   OH235621   0.059   4.716   6.099
11893TIP3    H135622   0.036   4.650   6.034
11893TIP3    H235623  -0.002   4.788   6.084
11894TIP3   OH235624   7.820   5.977   4.199
11894TIP3    H135625   7.910   5.956   4.177
11894TIP3    H235626   7.785   6.020   4.121
11895TIP3   OH235627   7.304   5.353   4.373
11895TIP3    H135628   7.399   5.364   4.370
11895TIP3    H235629   7.288   5.268   4.332
11896TIP3   OH235630   7.207   5.938   4.835
11896TIP3    H135631   7.143   5.884   4.788
11896TIP3    H235632   7.252   5.876   4.893
11897TIP3   OH235633   7.352   5.768   4.999
11897TIP3    H135634   7.343   5.698   5.065
11897TIP3    H235635   7.404   5.835   5.043
11898TIP3   OH235636   0.359   6.052   5.089
11898TIP3    H135637   0.451   6.041   5.112
11898TIP3    H235638   0.358   6.061   4.994
11899TIP3   OH235639   0.481   5.061   4.654
11899TIP3    H135640   0.574   5.043   4.669
11899TIP3    H235641   0.480   5.147   4.612
11900TIP3   OH235642   7.519   5.203   5.382
11900TIP3    H135643   7.512   5.172   5.292
11900TIP3    H235644   7.613   5.197   5.402
11901TIP3   OH235645   7.730   4.880   6.046
11901TIP3    H135646   7.825   4.872   6.058
11901TIP3    H235647   7.694   4.799   6.083
11902TIP3   OH235648   7.725   4.593   5.307
11902TIP3    H135649   7.771   4.515   5.339
11902TIP3    H235650   7.786   4.665   5.323
11903TIP3   OH235651   7.538   4.830   5.448
11903TIP3    H135652   7.576   4.849   5.363
11903TIP3    H235653   7.503   4.915   5.478
11904TIP3   OH235654   7.486   4.365   4.932
11904TIP3    H135655   7.400   4.354   4.972
11904TIP3    H235656   7.471   4.420   4.855
11905TIP3   OH235657   0.152   6.103   4.460
11905TIP3    H135658   0.206   6.094   4.381
11905TIP3    H235659   0.199   6.166   4.514
11906TIP3   OH235660   7.705   4.411   5.753
11906TIP3    H135661   7.645   4.410   5.828
11906TIP3    H235662   7.665   4.473   5.691
11907TIP3   OH235663   7.746   5.880   5.834
11907TIP3    H135664   7.654   5.862   5.812
11907TIP3    H235665   7.754   5.854   5.926
11908TIP3   OH235666   7.949   5.926   5.377
11908TIP3    H135667   7.902   6.001   5.342
11908TIP3    H235668   8.038   5.935   5.341
11909TIP3   OH235669   7.611   6.161   5.425
11909TIP3    H135670   7.520   6.178   5.402
11909TIP3    H235671   7.632   6.225   5.493
11910TIP3   OH235672   7.843   6.159   5.277
11910TIP3    H135673   7.759   6.161   5.323
11910TIP3    H235674   7.822   6.181   5.187
11911TIP3   OH235675   8.244   6.172   5.058
11911TIP3    H135676   8.174   6.175   4.993
11911TIP3    H235677   8.254   6.263   5.086
11912TIP3   OH235678   8.490   6.093   5.148
11912TIP3    H135679   8.408   6.120   5.106
11912TIP3    H235680   8.555   6.155   5.116
11913TIP3   OH235681   0.160   6.272   5.026
11913TIP3    H135682   0.206   6.355   5.013
11913TIP3    H235683   0.226   6.205   5.008
11914TIP3   OH235684   7.527   5.945   5.145
11914TIP3    H135685   7.551   5.921   5.235
11914TIP3    H235686   7.599   5.913   5.091
11915TIP3   OH235687   7.731   5.833   5.006
11915TIP3    H135688   7.741   5.748   5.048
11915TIP3    H235689   7.818   5.873   5.012
11916TIP3   OH235690   7.999   5.922   5.037
11916TIP3    H135691   8.017   5.829   5.023
11916TIP3    H235692   8.054   5.946   5.113
11917TIP3   OH235693  -0.014   4.583   5.041
11917TIP3    H135694  -0.002   4.507   5.098
11917TIP3    H235695   0.050   4.647   5.073
11918TIP3   OH235696   7.795   4.262   5.109
11918TIP3    H135697   7.706   4.227   5.120
11918TIP3    H235698   7.850   4.184   5.097
11919TIP3   OH235699   7.604   4.166   4.764
11919TIP3    H135700   7.634   4.215   4.687
11919TIP3    H235701   7.572   4.234   4.824
11920TIP3   OH235702   8.205   4.321   4.975
11920TIP3    H135703   8.242   4.392   4.923
11920TIP3    H235704   8.231   4.339   5.065
11921TIP3   OH235705   0.498   4.400   4.981
11921TIP3    H135706   0.427   4.422   4.921
11921TIP3    H235707   0.457   4.350   5.051
11922TIP3   OH235708   7.290   5.748   4.532
11922TIP3    H135709   7.207   5.713   4.500
11922TIP3    H235710   7.294   5.837   4.498
11923TIP3   OH235711   7.711   4.300   4.534
11923TIP3    H135712   7.758   4.240   4.476
11923TIP3    H235713   7.778   4.359   4.567
11924TIP3   OH235714   8.183   4.514   4.617
11924TIP3    H135715   8.237   4.462   4.678
11924TIP3    H235716   8.198   4.604   4.644
11925TIP3   OH235717   8.076   5.906   4.133
11925TIP3    H135718   8.156   5.940   4.093
11925TIP3    H235719   8.047   5.837   4.074
11926TIP3   OH235720   0.313   6.065   4.229
11926TIP3    H135721   0.349   5.979   4.209
11926TIP3    H235722   0.252   6.083   4.157
11927TIP3   OH235723   8.019   4.541   5.995
11927TIP3    H135724   7.987   4.477   6.058
11927TIP3    H235725   8.112   4.553   6.018
11928TIP3   OH235726   8.262   4.554   6.124
11928TIP3    H135727   8.341   4.541   6.072
11928TIP3    H235728   8.266   4.485   6.191
11929TIP3   OH235729   7.406   5.744   4.183
11929TIP3    H135730   7.409   5.750   4.278
11929TIP3    H235731   7.485   5.696   4.159
11930TIP3   OH235732   0.921   6.099   6.338
11930TIP3    H135733   0.902   6.101   6.432
11930TIP3    H235734   0.851   6.046   6.300
11931TIP3   OH235735   0.975   6.069   6.722
11931TIP3    H135736   1.024   6.061   6.804
11931TIP3    H235737   0.927   5.986   6.715
11932TIP3   OH235738   1.174   6.422   6.435
11932TIP3    H135739   1.180   6.343   6.489
11932TIP3    H235740   1.214   6.491   6.489
11933TIP3   OH235741   0.872   6.869   6.455
11933TIP3    H135742   0.905   6.779   6.458
11933TIP3    H235743   0.877   6.899   6.546
11934TIP3   OH235744   0.787   6.256   6.805
11934TIP3    H135745   0.843   6.197   6.754
11934TIP3    H235746   0.832   6.340   6.803
11935TIP3   OH235747   1.788   5.631   6.792
11935TIP3    H135748   1.808   5.715   6.834
11935TIP3    H235749   1.812   5.644   6.700
11936TIP3   OH235750   1.181   5.796   6.808
11936TIP3    H135751   1.214   5.711   6.836
11936TIP3    H235752   1.133   5.778   6.727
11937TIP3   OH235753   1.215   5.555   6.408
11937TIP3    H135754   1.280   5.548   6.478
11937TIP3    H235755   1.264   5.587   6.333
11938TIP3   OH235756   7.520   1.842   0.017
11938TIP3    H135757   7.430   1.875   0.013
11938TIP3    H235758   7.554   1.875   0.100
11939TIP3   OH235759   0.890   6.346   6.086
11939TIP3    H135760   0.811   6.308   6.046
11939TIP3    H235761   0.880   6.328   6.179
11940TIP3   OH235762   1.376   5.580   6.625
11940TIP3    H135763   1.336   5.555   6.708
11940TIP3    H235764   1.432   5.655   6.647
11941TIP3   OH235765   1.249   6.648   6.582
11941TIP3    H135766   1.155   6.643   6.601
11941TIP3    H235767   1.261   6.735   6.544
11942TIP3   OH235768   1.586   5.529   6.960
11942TIP3    H135769   1.501   5.550   6.922
11942TIP3    H235770   1.649   5.553   6.892
11943TIP3   OH235771   6.540   1.134   0.007
11943TIP3    H135772   6.531   1.042   0.032
11943TIP3    H235773   6.478   1.180   0.064
11944TIP3   OH235774   1.091   6.539   6.191
11944TIP3    H135775   1.116   6.514   6.280
11944TIP3    H235776   1.089   6.634   6.192
11945TIP3   OH235777   1.542   6.522   6.886
11945TIP3    H135778   1.516   6.452   6.826
11945TIP3    H235779   1.506   6.602   6.847
11946TIP3   OH235780   0.755   5.929   6.181
11946TIP3    H135781   0.676   5.886   6.148
11946TIP3    H235782   0.817   5.922   6.109
11947TIP3   OH235783   0.800   5.710   5.901
11947TIP3    H135784   0.864   5.769   5.941
11947TIP3    H235785   0.853   5.650   5.849
11948TIP3   OH235786   1.672   6.191   6.803
11948TIP3    H135787   1.584   6.226   6.793
11948TIP3    H235788   1.714   6.204   6.718
11949TIP3   OH235789   1.136   6.034   6.177
11949TIP3    H135790   1.076   6.057   6.248
11949TIP3    H235791   1.214   6.001   6.221
11950TIP3   OH235792   7.017   1.999   0.107
11950TIP3    H135793   7.035   2.078   0.158
11950TIP3    H235794   6.929   2.012   0.072
11951TIP3   OH235795   0.979   6.651   6.629
11951TIP3    H135796   0.952   6.729   6.677
11951TIP3    H235797   0.956   6.578   6.686
11952TIP3   OH235798   0.975   5.895   6.008
11952TIP3    H135799   1.033   5.949   6.062
11952TIP3    H235800   0.998   5.917   5.918
11953TIP3   OH235801   1.474   5.110   6.058
11953TIP3    H135802   1.397   5.129   6.111
11953TIP3    H235803   1.485   5.187   6.002
11954TIP3   OH235804   1.311   6.499   5.648
11954TIP3    H135805   1.302   6.588   5.613
11954TIP3    H235806   1.397   6.470   5.618
11955TIP3   OH235807   7.398   2.934   0.018
11955TIP3    H135808   7.397   2.843   0.046
11955TIP3    H235809   7.318   2.972   0.055
11956TIP3   OH235810   0.818   6.726   5.688
11956TIP3    H135811   0.872   6.648   5.672
11956TIP3    H235812   0.863   6.771   5.759
11957TIP3   OH235813   7.286   1.990   0.335
11957TIP3    H135814   7.212   2.028   0.287
11957TIP3    H235815   7.291   1.900   0.303
11958TIP3   OH235816   6.815   1.353   0.339
11958TIP3    H135817   6.884   1.330   0.401
11958TIP3    H235818   6.734   1.334   0.386
11959TIP3   OH235819   7.045   1.759   0.240
11959TIP3    H135820   7.003   1.757   0.326
11959TIP3    H235821   7.020   1.844   0.203
11960TIP3   OH235822   1.046   5.944   5.754
11960TIP3    H135823   0.992   5.915   5.681
11960TIP3    H235824   1.132   5.960   5.715
11961TIP3   OH235825   0.735   5.309   6.035
11961TIP3    H135826   0.712   5.318   6.127
11961TIP3    H235827   0.707   5.220   6.012
11962TIP3   OH235828   0.914   5.759   6.339
11962TIP3    H135829   0.853   5.816   6.292
11962TIP3    H235830   0.966   5.718   6.270
11963TIP3   OH235831   6.735   1.908   0.428
11963TIP3    H135832   6.712   1.839   0.490
11963TIP3    H235833   6.828   1.923   0.443
11964TIP3   OH235834   1.076   5.741   6.560
11964TIP3    H135835   1.011   5.765   6.493
11964TIP3    H235836   1.122   5.667   6.523
11965TIP3   OH235837   6.749   1.982   0.025
11965TIP3    H135838   6.789   1.920  -0.036
11965TIP3    H235839   6.715   1.927   0.096
11966TIP3   OH235840   0.818   5.471   6.677
11966TIP3    H135841   0.747   5.475   6.741
11966TIP3    H235842   0.894   5.440   6.727
11967TIP3   OH235843   1.239   5.530   6.861
11967TIP3    H135844   1.224   5.544   6.955
11967TIP3    H235845   1.173   5.466   6.835
11968TIP3   OH235846   7.077   3.288   0.086
11968TIP3    H135847   7.090   3.283  -0.009
11968TIP3    H235848   7.163   3.311   0.121
11969TIP3   OH235849   0.869   5.815   6.761
11969TIP3    H135850   0.910   5.751   6.703
11969TIP3    H235851   0.834   5.763   6.834
11970TIP3   OH235852   6.440   1.707   0.078
11970TIP3    H135853   6.386   1.786   0.085
11970TIP3    H235854   6.523   1.731   0.119
11971TIP3   OH235855   1.438   6.314   6.733
11971TIP3    H135856   1.472   6.364   6.659
11971TIP3    H235857   1.353   6.282   6.703
11972TIP3   OH235858   0.995   5.396   6.064
11972TIP3    H135859   0.901   5.380   6.054
11972TIP3    H235860   1.002   5.491   6.076
11973TIP3   OH235861   6.570   2.358   0.162
11973TIP3    H135862   6.558   2.275   0.209
11973TIP3    H235863   6.504   2.416   0.198
11974TIP3   OH235864   1.069   5.659   6.128
11974TIP3    H135865   1.165   5.655   6.137
11974TIP3    H235866   1.054   5.735   6.072
11975TIP3   OH235867   0.654   6.215   6.005
11975TIP3    H135868   0.567   6.255   6.013
11975TIP3    H235869   0.642   6.127   6.043
11976TIP3   OH235870   6.617   2.149   0.598
11976TIP3    H135871   6.607   2.146   0.503
11976TIP3    H235872   6.711   2.135   0.613
11977TIP3   OH235873   6.800   2.586   0.189
11977TIP3    H135874   6.721   2.634   0.216
11977TIP3    H235875   6.870   2.625   0.241
11978TIP3   OH235876   1.478   5.747   5.944
11978TIP3    H135877   1.421   5.702   5.881
11978TIP3    H235878   1.483   5.837   5.911
11979TIP3   OH235879   7.417   2.648   0.063
11979TIP3    H135880   7.331   2.610   0.046
11979TIP3    H235881   7.470   2.622  -0.013
11980TIP3   OH235882   1.145   6.516   5.882
11980TIP3    H135883   1.234   6.491   5.854
11980TIP3    H235884   1.095   6.523   5.801
11981TIP3   OH235885   1.207   6.194   6.616
11981TIP3    H135886   1.121   6.169   6.649
11981TIP3    H235887   1.248   6.112   6.590
11982TIP3   OH235888   0.977   6.461   6.852
11982TIP3    H135889   0.951   6.426   6.937
11982TIP3    H235890   1.072   6.455   6.850
11983TIP3   OH235891   0.993   6.272   5.760
11983TIP3    H135892   1.030   6.220   5.831
11983TIP3    H235893   0.904   6.237   5.748
11984TIP3   OH235894   1.224   6.918   6.875
11984TIP3    H135895   1.146   6.946   6.924
11984TIP3    H235896   1.227   6.976   6.799
11985TIP3   OH235897   1.292   6.762   5.570
11985TIP3    H135898   1.306   6.812   5.489
11985TIP3    H235899   1.223   6.810   5.615
11986TIP3   OH235900   1.165   6.255   6.020
11986TIP3    H135901   1.148   6.179   6.075
11986TIP3    H235902   1.257   6.246   5.994
11987TIP3   OH235903   6.850   1.571   0.182
11987TIP3    H135904   6.926   1.616   0.218
11987TIP3    H235905   6.837   1.496   0.240
11988TIP3   OH235906   1.064   5.335   6.327
11988TIP3    H135907   1.036   5.355   6.238
11988TIP3    H235908   1.107   5.415   6.356
11989TIP3   OH235909   0.763   5.538   6.416
11989TIP3    H135910   0.810   5.618   6.392
11989TIP3    H235911   0.778   5.528   6.510
11990TIP3   OH235912   6.674   1.782   0.196
11990TIP3    H135913   6.691   1.816   0.284
11990TIP3    H235914   6.730   1.705   0.188
11991TIP3   OH235915   0.877   5.239   6.508
11991TIP3    H135916   0.854   5.321   6.553
11991TIP3    H235917   0.944   5.265   6.445
11992TIP3   OH235918   7.308   1.721   0.230
11992TIP3    H135919   7.214   1.726   0.244
11992TIP3    H235920   7.318   1.661   0.156
11993TIP3   OH235921   1.297   5.932   6.561
11993TIP3    H135922   1.222   5.874   6.575
11993TIP3    H235923   1.366   5.895   6.616
11994TIP3   OH235924   1.284   6.906   6.502
11994TIP3    H135925   1.240   6.943   6.426
11994TIP3    H235926   1.377   6.916   6.483
11995TIP3   OH235927   6.710   2.840   0.337
11995TIP3    H135928   6.749   2.813   0.420
11995TIP3    H235929   6.755   2.921   0.314
11996TIP3   OH235930   0.964   6.504   5.616
11996TIP3    H135931   0.977   6.417   5.654
11996TIP3    H235932   0.995   6.496   5.526
11997TIP3   OH235933   0.734   6.191   5.735
11997TIP3    H135934   0.696   6.200   5.823
11997TIP3    H235935   0.727   6.097   5.716
11998TIP3   OH235936   1.242   6.492   6.904
11998TIP3    H135937   1.333   6.466   6.919
11998TIP3    H235938   1.215   6.535   6.985
11999TIP3   OH235939   0.569   5.799   6.020
11999TIP3    H135940   0.497   5.782   5.958
11999TIP3    H235941   0.642   5.748   5.986
12000TIP3   OH235942   6.751   2.467   0.459
12000TIP3    H135943   6.746   2.408   0.383
12000TIP3    H235944   6.785   2.412   0.530
12001TIP3   OH235945   1.279   6.008   5.618
12001TIP3    H135946   1.264   5.964   5.535
12001TIP3    H235947   1.260   6.100   5.600
12002TIP3   OH235948   6.397   1.502   0.280
12002TIP3    H135949   6.406   1.562   0.205
12002TIP3    H235950   6.361   1.557   0.350
12003TIP3   OH235951   6.477   2.067   0.076
12003TIP3    H135952   6.557   2.040   0.032
12003TIP3    H235953   6.436   2.130   0.016
12004TIP3   OH235954   7.011   1.962   0.470
12004TIP3    H135955   7.006   1.908   0.550
12004TIP3    H235956   7.105   1.975   0.457
12005TIP3   OH235957   7.107   2.203   0.256
12005TIP3    H135958   7.035   2.264   0.241
12005TIP3    H235959   7.185   2.252   0.231
12006TIP3   OH235960   6.535   1.272   0.341
12006TIP3    H135961   6.494   1.356   0.318
12006TIP3    H235962   6.464   1.209   0.336
12007TIP3   OH235963   6.685   1.698   0.604
12007TIP3    H135964   6.659   1.760   0.672
12007TIP3    H235965   6.655   1.613   0.635
12008TIP3   OH235966   6.934   1.671   0.471
12008TIP3    H135967   6.857   1.663   0.527
12008TIP3    H235968   7.008   1.654   0.529
12009TIP3   OH235969   7.176   1.656   0.623
12009TIP3    H135970   7.187   1.561   0.634
12009TIP3    H235971   7.172   1.691   0.712
12010TIP3   OH235972   6.609   1.240   0.602
12010TIP3    H135973   6.679   1.174   0.607
12010TIP3    H235974   6.579   1.236   0.511
12011TIP3   OH235975   6.700   1.434   0.761
12011TIP3    H135976   6.665   1.362   0.708
12011TIP3    H235977   6.622   1.479   0.794
12012TIP3   OH235978   1.548   6.950   6.462
12012TIP3    H135979   1.570   6.974   6.552
12012TIP3    H235980   1.601   7.010   6.408
12013TIP3   OH235981   1.580   6.976   6.730
12013TIP3    H135982   1.530   6.895   6.743
12013TIP3    H235983   1.653   6.969   6.791
12014TIP3   OH235984   7.320   2.614   0.326
12014TIP3    H135985   7.253   2.682   0.330
12014TIP3    H235986   7.373   2.637   0.250
12015TIP3   OH235987   1.431   6.218   5.966
12015TIP3    H135988   1.493   6.283   5.932
12015TIP3    H235989   1.478   6.174   6.036
12016TIP3   OH235990   1.561   6.069   6.159
12016TIP3    H135991   1.496   6.026   6.215
12016TIP3    H235992   1.627   6.102   6.220
12017TIP3   OH235993   1.620   6.471   6.591
12017TIP3    H135994   1.676   6.403   6.555
12017TIP3    H235995   1.626   6.543   6.528
12018TIP3   OH235996   1.423   6.748   6.775
12018TIP3    H135997   1.354   6.795   6.822
12018TIP3    H235998   1.378   6.700   6.706
12019TIP3   OH235999   1.473   5.989   5.812
12019TIP3    H136000   1.406   5.988   5.744
12019TIP3    H236001   1.452   6.068   5.863
12020TIP3   OH236002   1.327   5.636   5.748
12020TIP3    H136003   1.282   5.667   5.669
12020TIP3    H236004   1.320   5.541   5.744
12021TIP3   OH236005   1.362   5.921   6.294
12021TIP3    H136006   1.368   5.827   6.275
12021TIP3    H236007   1.348   5.926   6.388
12022TIP3   OH236008   7.332   2.335   0.154
12022TIP3    H136009   7.395   2.263   0.158
12022TIP3    H236010   7.332   2.361   0.062
12023TIP3   OH236011   7.491   2.116   0.199
12023TIP3    H136012   7.421   2.075   0.250
12023TIP3    H236013   7.569   2.064   0.220
12024TIP3   OH236014   1.290   5.367   5.726
12024TIP3    H136015   1.358   5.336   5.785
12024TIP3    H236016   1.210   5.324   5.756
12025TIP3   OH236017   1.357   5.648   6.180
12025TIP3    H136018   1.402   5.565   6.193
12025TIP3    H236019   1.399   5.686   6.102
12026TIP3   OH236020   1.512   5.811   6.698
12026TIP3    H136021   1.593   5.829   6.649
12026TIP3    H236022   1.529   5.845   6.786
12027TIP3   OH236023   1.596   5.952   6.926
12027TIP3    H136024   1.510   5.967   6.966
12027TIP3    H236025   1.620   6.036   6.889
12028TIP3   OH236026   7.709   1.554   0.517
12028TIP3    H136027   7.775   1.494   0.480
12028TIP3    H236028   7.672   1.599   0.441
12029TIP3   OH236029   1.469   5.399   6.235
12029TIP3    H136030   1.513   5.384   6.318
12029TIP3    H236031   1.407   5.327   6.227
12030TIP3   OH236032   7.562   1.657   0.313
12030TIP3    H136033   7.475   1.699   0.311
12030TIP3    H236034   7.548   1.573   0.270
12031TIP3   OH236035   1.517   5.312   5.876
12031TIP3    H136036   1.564   5.252   5.818
12031TIP3    H236037   1.572   5.391   5.879
12032TIP3   OH236038   1.099   6.812   6.144
12032TIP3    H136039   1.157   6.825   6.069
12032TIP3    H236040   1.119   6.885   6.202
12033TIP3   OH236041   6.673   3.047   0.035
12033TIP3    H136042   6.721   3.054   0.117
12033TIP3    H236043   6.611   3.120   0.036
12034TIP3   OH236044   7.474   1.404   0.230
12034TIP3    H136045   7.384   1.386   0.202
12034TIP3    H236046   7.519   1.320   0.223
12035TIP3   OH236047   0.924   6.928   6.719
12035TIP3    H136048   0.917   6.889   6.806
12035TIP3    H236049   0.977   7.006   6.732
12036TIP3   OH236050   1.215   7.108   6.676
12036TIP3    H136051   1.192   7.188   6.628
12036TIP3    H236052   1.228   7.043   6.608
12037TIP3   OH236053   1.025   5.345   6.806
12037TIP3    H136054   0.985   5.272   6.853
12037TIP3    H236055   1.092   5.304   6.751
12038TIP3   OH236056   1.515   5.276   6.699
12038TIP3    H136057   1.548   5.324   6.623
12038TIP3    H236058   1.420   5.287   6.695
12039TIP3   OH236059   1.625   5.349   6.458
12039TIP3    H136060   1.694   5.288   6.432
12039TIP3    H236061   1.664   5.436   6.444
12040TIP3   OH236062   0.745   5.078   6.699
12040TIP3    H136063   0.784   5.128   6.627
12040TIP3    H236064   0.798   5.100   6.775
12041TIP3   OH236065   1.234   5.226   6.673
12041TIP3    H136066   1.249   5.187   6.587
12041TIP3    H236067   1.240   5.152   6.734
12042TIP3   OH236068   1.284   5.188   6.242
12042TIP3    H136069   1.204   5.234   6.267
12042TIP3    H236070   1.274   5.101   6.281
12043TIP3   OH236071   0.686   5.305   6.299
12043TIP3    H136072   0.722   5.247   6.367
12043TIP3    H236073   0.698   5.393   6.334
12044TIP3   OH236074   1.249   6.810   5.910
12044TIP3    H136075   1.228   6.717   5.897
12044TIP3    H236076   1.210   6.854   5.834
12045TIP3   OH236077   7.227   1.388   0.659
12045TIP3    H136078   7.243   1.356   0.748
12045TIP3    H236079   7.313   1.390   0.618
12046TIP3   OH236080   7.116   3.008   0.065
12046TIP3    H136081   7.036   2.974   0.025
12046TIP3    H236082   7.094   3.098   0.089
12047TIP3   OH236083   2.703   6.285   5.916
12047TIP3    H136084   2.700   6.381   5.915
12047TIP3    H236085   2.657   6.259   5.836
12048TIP3   OH236086   2.044   6.202   6.612
12048TIP3    H136087   2.084   6.149   6.681
12048TIP3    H236088   2.118   6.230   6.557
12049TIP3   OH236089   2.992   6.677   5.911
12049TIP3    H136090   3.028   6.610   5.969
12049TIP3    H236091   3.015   6.760   5.954
12050TIP3   OH236092   2.022   6.636   6.301
12050TIP3    H136093   2.006   6.542   6.307
12050TIP3    H236094   2.118   6.643   6.294
12051TIP3   OH236095   1.713   5.844   6.078
12051TIP3    H136096   1.674   5.928   6.101
12051TIP3    H236097   1.642   5.793   6.038
12052TIP3   OH236098   1.791   6.149   6.303
12052TIP3    H136099   1.841   6.071   6.327
12052TIP3    H236100   1.857   6.213   6.276
12053TIP3   OH236101   2.661   7.091   5.940
12053TIP3    H136102   2.686   7.025   5.876
12053TIP3    H236103   2.666   7.045   6.024
12054TIP3   OH236104   2.541   6.603   6.263
12054TIP3    H136105   2.577   6.573   6.179
12054TIP3    H236106   2.618   6.630   6.313
12055TIP3   OH236107   3.583   5.874   6.283
12055TIP3    H136108   3.591   5.961   6.324
12055TIP3    H236109   3.617   5.886   6.195
12056TIP3   OH236110   2.306   5.720   6.259
12056TIP3    H136111   2.275   5.788   6.199
12056TIP3    H236112   2.257   5.642   6.233
12057TIP3   OH236113   2.988   5.831   5.891
12057TIP3    H136114   3.042   5.837   5.970
12057TIP3    H236115   3.046   5.858   5.820
12058TIP3   OH236116   1.935   5.930   6.390
12058TIP3    H136117   2.018   5.910   6.434
12058TIP3    H236118   1.936   5.876   6.311
12059TIP3   OH236119   2.347   6.118   6.206
12059TIP3    H136120   2.438   6.089   6.214
12059TIP3    H236121   2.300   6.042   6.172
12060TIP3   OH236122   3.632   6.089   6.460
12060TIP3    H136123   3.555   6.143   6.444
12060TIP3    H236124   3.675   6.130   6.535
12061TIP3   OH236125   2.291   5.716   6.712
12061TIP3    H136126   2.239   5.752   6.640
12061TIP3    H236127   2.238   5.729   6.790
12062TIP3   OH236128   2.620   6.519   5.766
12062TIP3    H136129   2.609   6.506   5.672
12062TIP3    H236130   2.586   6.607   5.782
12063TIP3   OH236131   2.384   6.495   6.466
12063TIP3    H136132   2.331   6.564   6.506
12063TIP3    H236133   2.433   6.539   6.397
12064TIP3   OH236134   3.147   5.862   6.113
12064TIP3    H136135   3.129   5.830   6.202
12064TIP3    H236136   3.211   5.931   6.126
12065TIP3   OH236137   2.181   5.826   6.483
12065TIP3    H136138   2.238   5.899   6.506
12065TIP3    H236139   2.226   5.783   6.410
12066TIP3   OH236140   2.234   6.696   6.580
12066TIP3    H136141   2.222   6.786   6.549
12066TIP3    H236142   2.158   6.680   6.636
12067TIP3   OH236143   1.605   6.398   5.846
12067TIP3    H136144   1.577   6.414   5.756
12067TIP3    H236145   1.630   6.485   5.878
12068TIP3   OH236146   3.041   6.905   6.070
12068TIP3    H136147   2.956   6.897   6.114
12068TIP3    H236148   3.039   6.992   6.030
12069TIP3   OH236149   3.383   5.751   6.446
12069TIP3    H136150   3.296   5.777   6.416
12069TIP3    H236151   3.443   5.790   6.382
12070TIP3   OH236152   2.626   5.407   6.445
12070TIP3    H136153   2.625   5.315   6.472
12070TIP3    H236154   2.549   5.445   6.487
12071TIP3   OH236155   2.747   6.931   5.729
12071TIP3    H136156   2.796   6.851   5.709
12071TIP3    H236157   2.805   7.002   5.704
12072TIP3   OH236158   2.887   6.711   5.659
12072TIP3    H136159   2.906   6.635   5.604
12072TIP3    H236160   2.929   6.691   5.743
12073TIP3   OH236161   3.273   6.812   6.429
12073TIP3    H136162   3.278   6.739   6.368
12073TIP3    H236163   3.260   6.889   6.374
12074TIP3   OH236164   2.580   6.181   5.695
12074TIP3    H136165   2.498   6.227   5.675
12074TIP3    H236166   2.627   6.180   5.612
12075TIP3   OH236167   2.543   6.001   5.378
12075TIP3    H136168   2.610   6.050   5.427
12075TIP3    H236169   2.593   5.935   5.330
12076TIP3   OH236170   3.477   6.439   6.287
12076TIP3    H136171   3.403   6.500   6.282
12076TIP3    H236172   3.508   6.431   6.197
12077TIP3   OH236173   2.932   6.276   5.668
12077TIP3    H136174   2.896   6.320   5.745
12077TIP3    H236175   3.013   6.236   5.700
12078TIP3   OH236176   3.179   6.306   6.611
12078TIP3    H136177   3.170   6.394   6.649
12078TIP3    H236178   3.098   6.293   6.561
12079TIP3   OH236179   2.149   6.261   6.060
12079TIP3    H136180   2.111   6.202   5.994
12079TIP3    H236181   2.221   6.210   6.097
12080TIP3   OH236182   2.281   6.699   6.203
12080TIP3    H136183   2.262   6.681   6.111
12080TIP3    H236184   2.370   6.668   6.216
12081TIP3   OH236185   2.254   6.256   6.431
12081TIP3    H136186   2.290   6.219   6.351
12081TIP3    H236187   2.302   6.337   6.445
12082TIP3   OH236188   2.812   6.881   6.218
12082TIP3    H136189   2.796   6.967   6.256
12082TIP3    H236190   2.794   6.819   6.289
12083TIP3   OH236191   2.432   6.790   6.753
12083TIP3    H136192   2.370   6.847   6.799
12083TIP3    H236193   2.378   6.738   6.694
12084TIP3   OH236194   2.763   6.143   5.489
12084TIP3    H136195   2.827   6.197   5.536
12084TIP3    H236196   2.789   6.150   5.398
12085TIP3   OH236197   2.193   6.343   6.883
12085TIP3    H136198   2.197   6.436   6.906
12085TIP3    H236199   2.099   6.324   6.877
12086TIP3   OH236200   2.516   6.781   5.762
12086TIP3    H136201   2.593   6.838   5.755
12086TIP3    H236202   2.452   6.820   5.702
12087TIP3   OH236203   2.223   6.948   6.834
12087TIP3    H136204   2.193   6.957   6.743
12087TIP3    H236205   2.143   6.933   6.884
12088TIP3   OH236206   3.262   5.366   5.537
12088TIP3    H136207   3.190   5.393   5.594
12088TIP3    H236208   3.277   5.441   5.480
12089TIP3   OH236209   2.028   6.103   5.858
12089TIP3    H136210   1.951   6.151   5.826
12089TIP3    H236211   1.997   6.014   5.871
12090TIP3   OH236212   3.097   6.740   5.096
12090TIP3    H136213   3.089   6.832   5.072
12090TIP3    H236214   3.187   6.717   5.071
12091TIP3   OH236215   1.837   6.513   6.782
12091TIP3    H136216   1.760   6.495   6.728
12091TIP3    H236217   1.866   6.426   6.811
12092TIP3   OH236218   1.667   6.699   6.432
12092TIP3    H136219   1.758   6.723   6.448
12092TIP3    H236220   1.617   6.778   6.454
12093TIP3   OH236221   3.504   7.142   6.490
12093TIP3    H136222   3.512   7.048   6.507
12093TIP3    H236223   3.425   7.169   6.536
12094TIP3   OH236224   2.612   6.944   6.613
12094TIP3    H136225   2.605   7.033   6.647
12094TIP3    H236226   2.549   6.894   6.665
12095TIP3   OH236227   2.399   7.034   5.566
12095TIP3    H136228   2.356   7.010   5.483
12095TIP3    H236229   2.354   7.114   5.594
12096TIP3   OH236230   1.831   6.891   5.943
12096TIP3    H136231   1.878   6.883   6.026
12096TIP3    H236232   1.784   6.808   5.934
12097TIP3   OH236233   2.595   6.964   5.192
12097TIP3    H136234   2.645   6.891   5.156
12097TIP3    H236235   2.634   6.980   5.278
12098TIP3   OH236236   2.652   7.008   5.461
12098TIP3    H136237   2.567   7.014   5.505
12098TIP3    H236238   2.710   6.969   5.526
12099TIP3   OH236239   3.404   6.261   6.772
12099TIP3    H136240   3.324   6.276   6.722
12099TIP3    H236241   3.425   6.168   6.758
12100TIP3   OH236242   2.024   6.708   6.757
12100TIP3    H136243   2.077   6.692   6.836
12100TIP3    H236244   1.958   6.640   6.758
12101TIP3   OH236245   2.393   5.499   6.571
12101TIP3    H136246   2.309   5.464   6.542
12101TIP3    H236247   2.370   5.579   6.619
12102TIP3   OH236248   2.932   5.632   6.765
12102TIP3    H136249   3.004   5.608   6.825
12102TIP3    H236250   2.853   5.615   6.815
12103TIP3   OH236251   3.168   6.030   6.679
12103TIP3    H136252   3.127   6.026   6.766
12103TIP3    H236253   3.165   6.123   6.656
12104TIP3   OH236254   2.830   6.144   5.226
12104TIP3    H136255   2.789   6.138   5.140
12104TIP3    H236256   2.917   6.180   5.209
12105TIP3   OH236257   2.543   5.545   5.550
12105TIP3    H136258   2.508   5.549   5.639
12105TIP3    H236259   2.507   5.463   5.514
12106TIP3   OH236260   2.346   6.031   6.570
12106TIP3    H136261   2.306   6.034   6.657
12106TIP3    H236262   2.321   6.114   6.530
12107TIP3   OH236263   2.202   5.914   6.096
12107TIP3    H136264   2.113   5.886   6.121
12107TIP3    H236265   2.213   5.881   6.007
12108TIP3   OH236266   2.718   6.000   5.851
12108TIP3    H136267   2.668   6.044   5.782
12108TIP3    H236268   2.784   5.948   5.804
12109TIP3   OH236269   2.874   6.254   6.898
12109TIP3    H136270   2.851   6.186   6.960
12109TIP3    H236271   2.966   6.274   6.915
12110TIP3   OH236272   2.183   6.040   6.796
12110TIP3    H136273   2.208   6.101   6.866
12110TIP3    H236274   2.163   5.959   6.842
12111TIP3   OH236275   2.215   5.524   5.516
12111TIP3    H136276   2.206   5.527   5.612
12111TIP3    H236277   2.137   5.567   5.483
12112TIP3   OH236278   1.759   5.570   6.378
12112TIP3    H136279   1.834   5.603   6.428
12112TIP3    H236280   1.796   5.543   6.294
12113TIP3   OH236281   1.666   5.548   5.888
12113TIP3    H136282   1.711   5.583   5.811
12113TIP3    H236283   1.601   5.615   5.910
12114TIP3   OH236284   2.952   6.218   6.485
12114TIP3    H136285   2.969   6.142   6.429
12114TIP3    H236286   2.886   6.188   6.547
12115TIP3   OH236287   2.568   5.784   6.175
12115TIP3    H136288   2.487   5.758   6.218
12115TIP3    H236289   2.632   5.717   6.202
12116TIP3   OH236290   1.970   5.784   6.161
12116TIP3    H136291   1.882   5.789   6.124
12116TIP3    H236292   1.996   5.693   6.147
12117TIP3   OH236293   2.230   5.794   5.851
12117TIP3    H136294   2.324   5.803   5.839
12117TIP3    H236295   2.193   5.810   5.764
12118TIP3   OH236296   3.098   5.758   6.365
12118TIP3    H136297   3.046   5.791   6.438
12118TIP3    H236298   3.051   5.680   6.336
12119TIP3   OH236299   2.117   5.819   5.603
12119TIP3    H136300   2.055   5.767   5.553
12119TIP3    H236301   2.171   5.863   5.537
12120TIP3   OH236302   3.228   7.495   6.584
12120TIP3    H136303   3.227   7.511   6.489
12120TIP3    H236304   3.308   7.538   6.615
12121TIP3   OH236305   7.846   2.601   0.042
12121TIP3    H136306   7.925   2.622   0.090
12121TIP3    H236307   7.777   2.598   0.108
12122TIP3   OH236308   2.673   6.040   6.174
12122TIP3    H136309   2.645   5.948   6.172
12122TIP3    H236310   2.674   6.062   6.268
12123TIP3   OH236311   2.119   5.537   6.149
12123TIP3    H136312   2.090   5.462   6.203
12123TIP3    H236313   2.142   5.498   6.065
12124TIP3   OH236314   2.613   6.045   6.458
12124TIP3    H136315   2.526   6.040   6.498
12124TIP3    H236316   2.672   6.066   6.530
12125TIP3   OH236317   2.343   6.320   5.644
12125TIP3    H136318   2.266   6.270   5.617
12125TIP3    H236319   2.315   6.365   5.725
12126TIP3   OH236320   3.269   6.618   6.238
12126TIP3    H136321   3.321   6.657   6.168
12126TIP3    H236322   3.189   6.590   6.195
12127TIP3   OH236323   2.797   5.643   5.545
12127TIP3    H136324   2.703   5.623   5.541
12127TIP3    H236325   2.801   5.738   5.554
12128TIP3   OH236326   2.732   6.660   6.677
12128TIP3    H136327   2.788   6.643   6.753
12128TIP3    H236328   2.700   6.749   6.690
12129TIP3   OH236329   2.857   5.908   5.618
12129TIP3    H136330   2.952   5.905   5.621
12129TIP3    H236331   2.837   5.983   5.561
12130TIP3   OH236332   2.019   6.345   6.290
12130TIP3    H136333   2.057   6.327   6.204
12130TIP3    H236334   2.085   6.315   6.352
12131TIP3   OH236335   2.499   6.486   5.492
12131TIP3    H136336   2.454   6.570   5.492
12131TIP3    H236337   2.442   6.428   5.543
12132TIP3   OH236338   1.920   6.282   6.916
12132TIP3    H136339   1.937   6.259   7.008
12132TIP3    H236340   1.850   6.222   6.890
12133TIP3   OH236341   2.646   6.411   6.941
12133TIP3    H136342   2.578   6.349   6.914
12133TIP3    H236343   2.728   6.370   6.914
12134TIP3   OH236344   2.880   6.951   6.535
12134TIP3    H136345   2.785   6.942   6.546
12134TIP3    H236346   2.910   6.994   6.615
12135TIP3   OH236347   3.250   5.999   5.429
12135TIP3    H136348   3.193   5.968   5.358
12135TIP3    H236349   3.276   6.087   5.403
12136TIP3   OH236350   3.526   6.859   6.518
12136TIP3    H136351   3.431   6.852   6.510
12136TIP3    H236352   3.560   6.834   6.432
12137TIP3   OH236353   3.010   6.818   5.351
12137TIP3    H136354   2.988   6.743   5.406
12137TIP3    H236355   3.038   6.779   5.268
12138TIP3   OH236356   2.152   6.687   5.954
12138TIP3    H136357   2.149   6.762   5.895
12138TIP3    H236358   2.062   6.679   5.986
12139TIP3   OH236359   1.710   5.971   5.671
12139TIP3    H136360   1.753   6.054   5.692
12139TIP3    H236361   1.629   5.972   5.722
12140TIP3   OH236362   2.239   6.440   5.865
12140TIP3    H136363   2.221   6.530   5.891
12140TIP3    H236364   2.207   6.386   5.937
12141TIP3   OH236365   2.433   7.013   6.407
12141TIP3    H136366   2.470   7.086   6.357
12141TIP3    H236367   2.506   6.982   6.461
12142TIP3   OH236368   2.069   6.910   5.803
12142TIP3    H136369   1.981   6.918   5.840
12142TIP3    H236370   2.105   6.998   5.806
12143TIP3   OH236371   2.778   6.660   6.405
12143TIP3    H136372   2.749   6.656   6.496
12143TIP3    H236373   2.873   6.649   6.409
12144TIP3   OH236374   2.783   6.554   5.269
12144TIP3    H136375   2.827   6.534   5.352
12144TIP3    H236376   2.697   6.513   5.278
12145TIP3   OH236377   3.027   7.179   6.422
12145TIP3    H136378   2.956   7.115   6.428
12145TIP3    H236379   3.001   7.236   6.349
12146TIP3   OH236380   3.079   7.010   5.050
12146TIP3    H136381   3.067   7.042   4.960
12146TIP3    H236382   3.025   7.067   5.104
12147TIP3   OH236383   7.793   1.784  -0.019
12147TIP3    H136384   7.698   1.793  -0.015
12147TIP3    H236385   7.816   1.733   0.058
12148TIP3   OH236386   2.949   6.495   5.490
12148TIP3    H136387   2.942   6.417   5.544
12148TIP3    H236388   3.040   6.496   5.460
12149TIP3   OH236389   1.863   6.913   6.559
12149TIP3    H136390   1.919   6.860   6.616
12149TIP3    H236391   1.871   7.002   6.594
12150TIP3   OH236392   2.126   6.515   5.267
12150TIP3    H136393   2.137   6.424   5.240
12150TIP3    H236394   2.111   6.510   5.361
12151TIP3   OH236395   2.068   6.534   5.538
12151TIP3    H136396   2.134   6.508   5.602
12151TIP3    H236397   2.068   6.629   5.541
12152TIP3   OH236398   1.803   6.224   5.749
12152TIP3    H136399   1.739   6.271   5.802
12152TIP3    H236400   1.821   6.282   5.675
12153TIP3   OH236401   2.968   5.852   6.599
12153TIP3    H136402   3.046   5.899   6.631
12153TIP3    H236403   2.958   5.779   6.660
12154TIP3   OH236404   2.859   5.600   5.811
12154TIP3    H136405   2.839   5.614   5.718
12154TIP3    H236406   2.901   5.681   5.839
12155TIP3   OH236407   2.349   6.717   5.488
12155TIP3    H136408   2.261   6.741   5.516
12155TIP3    H236409   2.373   6.785   5.425
12156TIP3   OH236410   2.513   5.804   5.903
12156TIP3    H136411   2.584   5.861   5.873
12156TIP3    H236412   2.528   5.794   5.997
12157TIP3   OH236413   2.797   6.088   6.673
12157TIP3    H136414   2.817   6.138   6.752
12157TIP3    H236415   2.848   6.007   6.681
12158TIP3   OH236416   2.684   5.480   5.987
12158TIP3    H136417   2.709   5.522   6.069
12158TIP3    H236418   2.744   5.517   5.922
12159TIP3   OH236419   2.094   6.806   5.550
12159TIP3    H136420   2.076   6.878   5.490
12159TIP3    H236421   2.083   6.844   5.637
12160TIP3   OH236422   2.188   5.518   5.795
12160TIP3    H136423   2.176   5.609   5.824
12160TIP3    H236424   2.282   5.503   5.806
12161TIP3   OH236425   3.447   5.999   6.683
12161TIP3    H136426   3.353   5.984   6.677
12161TIP3    H236427   3.479   5.989   6.594
12162TIP3   OH236428   1.824   6.400   5.532
12162TIP3    H136429   1.895   6.463   5.540
12162TIP3    H236430   1.856   6.337   5.467
12163TIP3   OH236431   1.735   5.693   5.667
12163TIP3    H136432   1.744   5.788   5.673
12163TIP3    H236433   1.682   5.679   5.588
12164TIP3   OH236434   3.064   7.173   5.993
12164TIP3    H136435   3.019   7.227   5.928
12164TIP3    H236436   3.156   7.195   5.982
12165TIP3   OH236437   2.133   5.413   6.535
12165TIP3    H136438   2.103   5.379   6.451
12165TIP3    H236439   2.124   5.338   6.595
12166TIP3   OH236440   1.655   6.665   5.926
12166TIP3    H136441   1.622   6.706   6.006
12166TIP3    H236442   1.609   6.711   5.855
12167TIP3   OH236443   7.538   3.196   0.027
12167TIP3    H136444   7.621   3.177   0.072
12167TIP3    H236445   7.494   3.111   0.022
12168TIP3   OH236446   8.010   3.103   0.078
12168TIP3    H136447   8.097   3.067   0.095
12168TIP3    H236448   7.975   3.048   0.007
12169TIP3   OH236449   2.281   6.715   5.157
12169TIP3    H136450   2.234   6.643   5.200
12169TIP3    H236451   2.356   6.672   5.116
12170TIP3   OH236452   2.943   7.062   6.776
12170TIP3    H136453   2.945   6.990   6.839
12170TIP3    H236454   3.019   7.116   6.797
12171TIP3   OH236455   2.723   6.750   5.081
12171TIP3    H136456   2.763   6.690   5.144
12171TIP3    H236457   2.780   6.745   5.004
12172TIP3   OH236458   7.639   2.573   0.225
12172TIP3    H136459   7.659   2.479   0.227
12172TIP3    H236460   7.558   2.579   0.175
12173TIP3   OH236461   1.949   6.212   5.378
12173TIP3    H136462   2.001   6.187   5.455
12173TIP3    H236463   2.013   6.224   5.309
12174TIP3   OH236464   2.581   6.687   6.963
12174TIP3    H136465   2.539   6.710   6.881
12174TIP3    H236466   2.616   6.599   6.949
12175TIP3   OH236467   2.517   6.434   5.219
12175TIP3    H136468   2.500   6.440   5.313
12175TIP3    H236469   2.504   6.341   5.199
12176TIP3   OH236470   3.039   6.720   6.537
12176TIP3    H136471   3.122   6.755   6.505
12176TIP3    H236472   2.981   6.797   6.541
12177TIP3   OH236473   7.751   2.321   0.225
12177TIP3    H136474   7.830   2.291   0.179
12177TIP3    H236475   7.781   2.341   0.313
12178TIP3   OH236476   2.127   6.152   5.588
12178TIP3    H136477   2.105   6.118   5.675
12178TIP3    H236478   2.174   6.081   5.545
12179TIP3   OH236479   2.441   6.228   6.843
12179TIP3    H136480   2.358   6.273   6.854
12179TIP3    H236481   2.475   6.260   6.759
12180TIP3   OH236482   2.267   5.971   5.428
12180TIP3    H136483   2.238   5.973   5.337
12180TIP3    H236484   2.363   5.977   5.422
12181TIP3   OH236485   2.929   6.605   6.926
12181TIP3    H136486   3.009   6.578   6.881
12181TIP3    H236487   2.929   6.555   7.007
12182TIP3   OH236488   3.057   6.259   5.119
12182TIP3    H136489   3.048   6.215   5.035
12182TIP3    H236490   3.032   6.350   5.102
12183TIP3   OH236491   2.541   6.001   6.959
12183TIP3    H136492   2.545   5.930   6.895
12183TIP3    H236493   2.510   6.076   6.910
12184TIP3   OH236494   2.546   5.805   6.757
12184TIP3    H136495   2.576   5.837   6.672
12184TIP3    H236496   2.456   5.776   6.742
12185TIP3   OH236497   2.550   6.341   6.623
12185TIP3    H136498   2.636   6.383   6.621
12185TIP3    H236499   2.495   6.398   6.569
12186TIP3   OH236500   0.307   2.290   0.056
12186TIP3    H136501   0.359   2.210   0.060
12186TIP3    H236502   0.372   2.360   0.051
12187TIP3   OH236503   3.180   6.565   6.721
12187TIP3    H136504   3.124   6.618   6.665
12187TIP3    H236505   3.269   6.583   6.690
12188TIP3   OH236506   8.091   2.079   0.258
12188TIP3    H136507   8.020   2.019   0.281
12188TIP3    H236508   8.121   2.050   0.172
12189TIP3   OH236509   2.672   5.575   6.854
12189TIP3    H136510   2.628   5.655   6.826
12189TIP3    H236511   2.607   5.506   6.842
12190TIP3   OH236512   8.467   2.036   0.115
12190TIP3    H136513   8.463   2.025   0.210
12190TIP3    H236514   8.379   2.013   0.085
12191TIP3   OH236515   0.208   1.990  -0.024
12191TIP3    H136516   0.130   1.992   0.032
12191TIP3    H236517   0.280   1.970   0.036
12192TIP3   OH236518   0.437   1.955   0.130
12192TIP3    H136519   0.452   1.860   0.137
12192TIP3    H236520   0.430   1.984   0.221
12193TIP3   OH236521   7.929   1.854   0.321
12193TIP3    H136522   7.934   1.766   0.283
12193TIP3    H236523   7.973   1.846   0.405
12194TIP3   OH236524   8.407   1.544   0.179
12194TIP3    H136525   8.475   1.477   0.174
12194TIP3    H236526   8.378   1.556   0.089
12195TIP3   OH236527   8.503   1.760   0.323
12195TIP3    H136528   8.473   1.687   0.268
12195TIP3    H236529   8.430   1.821   0.324
12196TIP3   OH236530   2.094   7.021   5.374
12196TIP3    H136531   2.181   6.995   5.343
12196TIP3    H236532   2.053   7.064   5.298
12197TIP3   OH236533   1.552   6.396   5.565
12197TIP3    H136534   1.646   6.409   5.552
12197TIP3    H236535   1.533   6.314   5.520
12198TIP3   OH236536   1.455   6.972   6.006
12198TIP3    H136537   1.393   6.916   5.959
12198TIP3    H236538   1.503   6.912   6.064
12199TIP3   OH236539   1.609   6.806   6.169
12199TIP3    H136540   1.605   6.740   6.238
12199TIP3    H236541   1.659   6.878   6.207
12200TIP3   OH236542   3.322   7.264   5.982
12200TIP3    H136543   3.361   7.267   6.069
12200TIP3    H236544   3.396   7.268   5.922
12201TIP3   OH236545   3.359   7.255   6.267
12201TIP3    H136546   3.311   7.173   6.257
12201TIP3    H236547   3.429   7.234   6.330
12202TIP3   OH236548   3.390   6.953   6.844
12202TIP3    H136549   3.326   6.963   6.914
12202TIP3    H236550   3.442   7.033   6.847
12203TIP3   OH236551   3.216   6.485   5.430
12203TIP3    H136552   3.282   6.547   5.399
12203TIP3    H236553   3.256   6.447   5.509
12204TIP3   OH236554   3.308   6.348   5.643
12204TIP3    H136555   3.250   6.282   5.681
12204TIP3    H236556   3.393   6.331   5.684
12205TIP3   OH236557   3.442   6.714   6.053
12205TIP3    H136558   3.485   6.636   6.018
12205TIP3    H236559   3.462   6.783   5.990
12206TIP3   OH236560   3.207   7.023   6.268
12206TIP3    H136561   3.138   7.067   6.317
12206TIP3    H236562   3.161   6.982   6.195
12207TIP3   OH236563   3.268   6.244   5.296
12207TIP3    H136564   3.196   6.241   5.233
12207TIP3    H236565   3.253   6.325   5.345
12208TIP3   OH236566   3.088   5.908   5.229
12208TIP3    H136567   3.049   5.927   5.144
12208TIP3    H236568   3.090   5.812   5.233
12209TIP3   OH236569   3.159   6.154   5.784
12209TIP3    H136570   3.163   6.065   5.750
12209TIP3    H236571   3.240   6.162   5.836
12210TIP3   OH236572   1.782   6.249   6.558
12210TIP3    H136573   1.770   6.214   6.470
12210TIP3    H236574   1.876   6.242   6.574
12211TIP3   OH236575   3.445   6.603   6.636
12211TIP3    H136576   3.506   6.530   6.625
12211TIP3    H236577   3.482   6.674   6.584
12212TIP3   OH236578   3.611   6.383   6.636
12212TIP3    H136579   3.541   6.342   6.686
12212TIP3    H236580   3.689   6.332   6.658
12213TIP3   OH236581   3.072   5.636   5.223
12213TIP3    H136582   3.144   5.603   5.276
12213TIP3    H236583   2.997   5.581   5.247
12214TIP3   OH236584   3.144   5.898   5.663
12214TIP3    H136585   3.193   5.818   5.680
12214TIP3    H236586   3.184   5.934   5.584
12215TIP3   OH236587   3.314   6.061   6.206
12215TIP3    H136588   3.395   6.079   6.159
12215TIP3    H236589   3.324   6.108   6.289
12216TIP3   OH236590   3.386   6.220   6.429
12216TIP3    H136591   3.319   6.258   6.486
12216TIP3    H236592   3.420   6.295   6.379
12217TIP3   OH236593   7.665   1.910   0.255
12217TIP3    H136594   7.757   1.915   0.280
12217TIP3    H236595   7.635   1.826   0.290
12218TIP3   OH236596   3.266   5.656   5.725
12218TIP3    H136597   3.316   5.641   5.806
12218TIP3    H236598   3.205   5.583   5.720
12219TIP3   OH236599   1.972   5.639   6.545
12219TIP3    H136600   2.024   5.559   6.553
12219TIP3    H236601   2.036   5.708   6.528
12220TIP3   OH236602   1.755   5.902   6.605
12220TIP3    H136603   1.805   5.895   6.524
12220TIP3    H236604   1.791   5.978   6.650
12221TIP3   OH236605   3.693   5.954   6.849
12221TIP3    H136606   3.627   5.999   6.902
12221TIP3    H236607   3.644   5.922   6.773
12222TIP3   OH236608   3.305   5.569   5.358
12222TIP3    H136609   3.357   5.511   5.303
12222TIP3    H236610   3.358   5.649   5.366
12223TIP3   OH236611   1.741   5.421   6.117
12223TIP3    H136612   1.655   5.402   6.156
12223TIP3    H236613   1.722   5.472   6.039
12224TIP3   OH236614   2.901   7.130   5.633
12224TIP3    H136615   2.949   7.114   5.552
12224TIP3    H236616   2.958   7.188   5.684
12225TIP3   OH236617   7.631   1.469   0.000
12225TIP3    H136618   7.574   1.450   0.075
12225TIP3    H236619   7.574   1.515  -0.062
12226TIP3   OH236620   7.675   2.916   0.068
12226TIP3    H136621   7.582   2.913   0.046
12226TIP3    H236622   7.678   2.895   0.161
12227TIP3   OH236623   2.205   6.970   6.552
12227TIP3    H136624   2.152   7.042   6.519
12227TIP3    H236625   2.290   6.982   6.510
12228TIP3   OH236626   2.605   7.208   6.699
12228TIP3    H136627   2.641   7.196   6.786
12228TIP3    H236628   2.673   7.256   6.651
12229TIP3   OH236629   2.806   7.349   6.573
12229TIP3    H136630   2.873   7.295   6.531
12229TIP3    H236631   2.855   7.411   6.627
12230TIP3   OH236632   3.589   5.689   6.652
12230TIP3    H136633   3.514   5.697   6.593
12230TIP3    H236634   3.622   5.601   6.638
12231TIP3   OH236635   1.864   7.201   6.595
12231TIP3    H136636   1.776   7.217   6.561
12231TIP3    H236637   1.881   7.273   6.655
12232TIP3   OH236638   2.094   7.196   6.444
12232TIP3    H136639   2.011   7.202   6.492
12232TIP3    H236640   2.072   7.226   6.356
12233TIP3   OH236641   2.510   7.224   6.243
12233TIP3    H136642   2.438   7.243   6.183
12233TIP3    H236643   2.522   7.305   6.293
12234TIP3   OH236644   2.773   7.148   6.277
12234TIP3    H136645   2.682   7.173   6.264
12234TIP3    H236646   2.823   7.220   6.240
12235TIP3   OH236647   2.969   7.334   6.195
12235TIP3    H136648   2.976   7.422   6.159
12235TIP3    H236649   3.004   7.278   6.125
12236TIP3   OH236650   1.781   6.994   6.306
12236TIP3    H136651   1.805   6.973   6.396
12236TIP3    H236652   1.853   6.960   6.253
12237TIP3   OH236653   1.983   6.874   6.172
12237TIP3    H136654   1.993   6.793   6.221
12237TIP3    H236655   2.068   6.918   6.180
12238TIP3   OH236656   2.246   6.975   6.202
12238TIP3    H136657   2.263   6.882   6.190
12238TIP3    H236658   2.299   7.000   6.278
12239TIP3   OH236659   2.737   5.573   6.243
12239TIP3    H136660   2.711   5.521   6.319
12239TIP3    H236661   2.832   5.563   6.238
12240TIP3   OH236662   3.311   5.524   6.170
12240TIP3    H136663   3.359   5.563   6.097
12240TIP3    H236664   3.257   5.596   6.203
12241TIP3   OH236665   3.431   5.595   5.939
12241TIP3    H136666   3.498   5.533   5.910
12241TIP3    H236667   3.472   5.681   5.928
12242TIP3   OH236668   2.045   5.311   6.294
12242TIP3    H136669   1.956   5.277   6.303
12242TIP3    H236670   2.099   5.233   6.285
12243TIP3   OH236671   1.865   5.224   5.947
12243TIP3    H136672   1.891   5.273   5.868
12243TIP3    H236673   1.830   5.291   6.006
12244TIP3   OH236674   2.512   5.354   6.182
12244TIP3    H136675   2.562   5.398   6.114
12244TIP3    H236676   2.554   5.379   6.264
12245TIP3   OH236677   3.004   5.521   6.217
12245TIP3    H136678   3.047   5.513   6.132
12245TIP3    H236679   3.018   5.437   6.259
12246TIP3   OH236680   3.080   5.448   5.728
12246TIP3    H136681   3.002   5.497   5.753
12246TIP3    H236682   3.069   5.363   5.771
12247TIP3   OH236683   1.529   6.792   5.719
12247TIP3    H136684   1.448   6.764   5.676
12247TIP3    H236685   1.546   6.880   5.683
12248TIP3   OH236686   1.975   5.351   5.707
12248TIP3    H136687   2.020   5.287   5.651
12248TIP3    H236688   2.046   5.405   5.742
12249TIP3   OH236689   2.464   5.547   5.817
12249TIP3    H136690   2.526   5.495   5.869
12249TIP3    H236691   2.480   5.638   5.844
12250TIP3   OH236692   2.345   6.935   5.303
12250TIP3    H136693   2.427   6.963   5.263
12250TIP3    H236694   2.314   6.864   5.246
12251TIP3   OH236695   3.043   7.083   5.403
12251TIP3    H136696   3.036   6.989   5.388
12251TIP3    H236697   3.007   7.123   5.323
12252TIP3   OH236698   7.945   1.586   0.234
12252TIP3    H136699   7.911   1.518   0.292
12252TIP3    H236700   8.037   1.595   0.257
12253TIP3   OH236701   8.193   1.591   0.354
12253TIP3    H136702   8.270   1.570   0.302
12253TIP3    H236703   8.188   1.521   0.419
12254TIP3   OH236704   1.654   6.788   5.353
12254TIP3    H136705   1.659   6.813   5.446
12254TIP3    H236706   1.735   6.740   5.337
12255TIP3   OH236707   0.506   1.684   0.138
12255TIP3    H136708   0.526   1.654   0.227
12255TIP3    H236709   0.590   1.678   0.092
12256TIP3   OH236710   3.255   7.219   6.587
12256TIP3    H136711   3.179   7.193   6.536
12256TIP3    H236712   3.247   7.314   6.596
12257TIP3   OH236713   4.546   6.610   5.304
12257TIP3    H136714   4.508   6.696   5.282
12257TIP3    H236715   4.490   6.547   5.258
12258TIP3   OH236716   4.539   6.611   5.754
12258TIP3    H136717   4.591   6.589   5.832
12258TIP3    H236718   4.493   6.530   5.733
12259TIP3   OH236719   3.835   6.465   6.085
12259TIP3    H136720   3.871   6.414   6.158
12259TIP3    H236721   3.911   6.486   6.031
12260TIP3   OH236722   4.792   6.917   5.424
12260TIP3    H136723   4.784   6.850   5.492
12260TIP3    H236724   4.820   6.996   5.471
12261TIP3   OH236725   3.815   6.911   5.800
12261TIP3    H136726   3.806   6.816   5.791
12261TIP3    H236727   3.909   6.927   5.793
12262TIP3   OH236728   4.484   7.332   5.439
12262TIP3    H136729   4.503   7.262   5.376
12262TIP3    H236730   4.499   7.291   5.525
12263TIP3   OH236731   4.337   6.831   5.757
12263TIP3    H136732   4.381   6.751   5.728
12263TIP3    H236733   4.408   6.889   5.784
12264TIP3   OH236734   5.381   6.140   5.772
12264TIP3    H136735   5.394   6.228   5.808
12264TIP3    H236736   5.410   6.147   5.681
12265TIP3   OH236737   4.750   6.313   5.787
12265TIP3    H136738   4.781   6.227   5.814
12265TIP3    H236739   4.717   6.301   5.698
12266TIP3   OH236740   4.114   5.975   5.742
12266TIP3    H136741   4.090   6.049   5.686
12266TIP3    H236742   4.055   5.905   5.715
12267TIP3   OH236743   4.801   6.073   5.384
12267TIP3    H136744   4.866   6.066   5.454
12267TIP3    H236745   4.851   6.105   5.309
12268TIP3   OH236746   4.153   6.390   5.693
12268TIP3    H136747   4.247   6.376   5.701
12268TIP3    H236748   4.119   6.309   5.656
12269TIP3   OH236749   5.432   6.364   5.939
12269TIP3    H136750   5.347   6.405   5.924
12269TIP3    H236751   5.464   6.405   6.019
12270TIP3   OH236752   4.091   5.969   6.209
12270TIP3    H136753   4.046   5.999   6.130
12270TIP3    H236754   4.032   5.990   6.280
12271TIP3   OH236755   4.434   6.838   5.185
12271TIP3    H136756   4.394   6.803   5.106
12271TIP3    H236757   4.376   6.909   5.212
12272TIP3   OH236758   4.182   6.747   5.970
12272TIP3    H136759   4.125   6.817   6.003
12272TIP3    H236760   4.228   6.787   5.896
12273TIP3   OH236761   4.961   6.091   5.608
12273TIP3    H136762   4.917   6.071   5.690
12273TIP3    H236763   5.015   6.168   5.627
12274TIP3   OH236764   3.985   6.060   5.976
12274TIP3    H136765   4.027   6.145   5.991
12274TIP3    H236766   4.026   6.027   5.896
12275TIP3   OH236767   4.023   6.945   6.078
12275TIP3    H136768   4.013   7.036   6.048
12275TIP3    H236769   3.943   6.927   6.126
12276TIP3   OH236770   3.403   6.659   5.319
12276TIP3    H136771   3.376   6.680   5.229
12276TIP3    H236772   3.430   6.743   5.356
12277TIP3   OH236773   4.843   7.162   5.564
12277TIP3    H136774   4.755   7.156   5.601
12277TIP3    H236775   4.844   7.246   5.519
12278TIP3   OH236776   5.183   6.024   5.938
12278TIP3    H136777   5.097   6.047   5.903
12278TIP3    H236778   5.245   6.054   5.872
12279TIP3   OH236779   4.431   5.666   5.935
12279TIP3    H136780   4.421   5.574   5.958
12279TIP3    H236781   4.354   5.709   5.971
12280TIP3   OH236782   4.559   7.170   5.217
12280TIP3    H136783   4.613   7.092   5.204
12280TIP3    H236784   4.616   7.243   5.192
12281TIP3   OH236785   4.696   6.921   5.169
12281TIP3    H136786   4.607   6.885   5.177
12281TIP3    H236787   4.731   6.918   5.257
12282TIP3   OH236788   5.082   7.041   5.911
12282TIP3    H136789   5.060   6.969   5.851
12282TIP3    H236790   5.065   7.120   5.860
12283TIP3   OH236791   4.371   6.448   5.152
12283TIP3    H136792   4.290   6.497   5.142
12283TIP3    H236793   4.382   6.399   5.070
12284TIP3   OH236794   5.255   6.708   5.772
12284TIP3    H136795   5.172   6.756   5.766
12284TIP3    H236796   5.286   6.703   5.682
12285TIP3   OH236797   4.951   6.565   6.082
12285TIP3    H136798   4.944   6.649   6.129
12285TIP3    H236799   4.870   6.559   6.032
12286TIP3   OH236800   3.954   6.526   5.548
12286TIP3    H136801   3.917   6.463   5.486
12286TIP3    H236802   4.026   6.479   5.591
12287TIP3   OH236803   4.081   6.952   5.694
12287TIP3    H136804   4.054   6.934   5.604
12287TIP3    H236805   4.166   6.910   5.703
12288TIP3   OH236806   4.060   6.504   5.928
12288TIP3    H136807   4.089   6.474   5.842
12288TIP3    H236808   4.100   6.590   5.939
12289TIP3   OH236809   4.599   7.165   5.685
12289TIP3    H136810   4.578   7.244   5.734
12289TIP3    H236811   4.585   7.093   5.747
12290TIP3   OH236812   4.219   7.046   6.247
12290TIP3    H136813   4.158   7.106   6.291
12290TIP3    H236814   4.164   6.994   6.189
12291TIP3   OH236815   3.981   6.598   6.393
12291TIP3    H136816   3.985   6.692   6.406
12291TIP3    H236817   3.888   6.579   6.380
12292TIP3   OH236818   4.298   7.077   5.228
12292TIP3    H136819   4.385   7.118   5.233
12292TIP3    H236820   4.245   7.140   5.180
12293TIP3   OH236821   4.009   7.210   6.328
12293TIP3    H136822   3.989   7.217   6.234
12293TIP3    H236823   3.923   7.198   6.369
12294TIP3   OH236824   5.065   5.624   5.033
12294TIP3    H136825   4.988   5.644   5.086
12294TIP3    H236826   5.077   5.700   4.977
12295TIP3   OH236827   3.829   6.361   5.353
12295TIP3    H136828   3.749   6.402   5.320
12295TIP3    H236829   3.799   6.279   5.394
12296TIP3   OH236830   4.903   7.010   4.590
12296TIP3    H136831   4.892   7.102   4.566
12296TIP3    H236832   4.986   6.984   4.550
12297TIP3   OH236833   3.607   6.763   6.276
12297TIP3    H136834   3.554   6.743   6.199
12297TIP3    H236835   3.646   6.680   6.301
12298TIP3   OH236836   3.539   6.935   5.902
12298TIP3    H136837   3.625   6.919   5.864
12298TIP3    H236838   3.553   7.006   5.965
12299TIP3   OH236839   5.313   7.415   5.974
12299TIP3    H136840   5.319   7.320   5.981
12299TIP3    H236841   5.230   7.437   6.017
12300TIP3   OH236842   4.414   7.168   6.096
12300TIP3    H136843   4.415   7.261   6.120
12300TIP3    H236844   4.344   7.131   6.149
12301TIP3   OH236845   4.195   7.294   5.058
12301TIP3    H136846   4.147   7.271   4.978
12301TIP3    H236847   4.155   7.377   5.086
12302TIP3   OH236848   3.625   7.150   5.435
12302TIP3    H136849   3.672   7.144   5.519
12302TIP3    H236850   3.579   7.067   5.427
12303TIP3   OH236851   4.397   7.218   4.684
12303TIP3    H136852   4.447   7.144   4.652
12303TIP3    H236853   4.432   7.235   4.772
12304TIP3   OH236854   4.449   7.274   4.953
12304TIP3    H136855   4.363   7.273   4.996
12304TIP3    H236856   4.509   7.239   5.019
12305TIP3   OH236857   5.192   6.529   6.240
12305TIP3    H136858   5.111   6.541   6.191
12305TIP3    H236859   5.212   6.436   6.231
12306TIP3   OH236860   3.801   6.956   6.246
12306TIP3    H136861   3.856   6.942   6.323
12306TIP3    H236862   3.732   6.891   6.253
12307TIP3   OH236863   4.191   5.756   6.056
12307TIP3    H136864   4.107   5.726   6.022
12307TIP3    H236865   4.171   5.837   6.103
12308TIP3   OH236866   4.733   5.883   6.255
12308TIP3    H136867   4.800   5.856   6.319
12308TIP3    H236868   4.650   5.865   6.300
12309TIP3   OH236869   4.957   6.300   6.174
12309TIP3    H136870   4.914   6.296   6.260
12309TIP3    H236871   4.940   6.389   6.143
12310TIP3   OH236872   4.664   6.522   4.723
12310TIP3    H136873   4.613   6.442   4.708
12310TIP3    H236874   4.750   6.502   4.687
12311TIP3   OH236875   4.336   5.787   5.027
12311TIP3    H136876   4.301   5.797   5.115
12311TIP3    H236877   4.298   5.704   4.996
12312TIP3   OH236878   4.132   6.282   6.071
12312TIP3    H136879   4.081   6.291   6.151
12312TIP3    H236880   4.112   6.361   6.021
12313TIP3   OH236881   4.022   6.176   5.579
12313TIP3    H136882   3.930   6.169   5.605
12313TIP3    H236883   4.025   6.137   5.491
12314TIP3   OH236884   4.485   6.256   5.318
12314TIP3    H136885   4.439   6.329   5.276
12314TIP3    H236886   4.539   6.218   5.248
12315TIP3   OH236887   4.676   6.508   6.383
12315TIP3    H136888   4.649   6.442   6.447
12315TIP3    H236889   4.770   6.519   6.399
12316TIP3   OH236890   4.665   6.270   5.531
12316TIP3    H136891   4.595   6.293   5.470
12316TIP3    H236892   4.708   6.194   5.491
12317TIP3   OH236893   3.961   6.310   6.286
12317TIP3    H136894   3.983   6.372   6.356
12317TIP3    H236895   3.945   6.227   6.331
12318TIP3   OH236896   4.004   5.774   5.003
12318TIP3    H136897   3.998   5.784   5.098
12318TIP3    H236898   3.929   5.822   4.969
12319TIP3   OH236899   3.561   5.822   5.883
12319TIP3    H136900   3.623   5.865   5.942
12319TIP3    H236901   3.582   5.856   5.797
12320TIP3   OH236902   3.448   5.808   5.380
12320TIP3    H136903   3.492   5.844   5.303
12320TIP3    H236904   3.388   5.877   5.407
12321TIP3   OH236905   4.702   6.512   5.964
12321TIP3    H136906   4.724   6.446   5.899
12321TIP3    H236907   4.655   6.464   6.032
12322TIP3   OH236908   4.378   5.957   5.635
12322TIP3    H136909   4.297   5.961   5.687
12322TIP3    H236910   4.448   5.952   5.700
12323TIP3   OH236911   3.763   6.125   5.645
12323TIP3    H136912   3.693   6.164   5.696
12323TIP3    H236913   3.753   6.031   5.659
12324TIP3   OH236914   4.028   6.047   5.335
12324TIP3    H136915   4.122   6.058   5.326
12324TIP3    H236916   3.993   6.065   5.248
12325TIP3   OH236917   4.818   6.051   5.848
12325TIP3    H136918   4.799   6.070   5.940
12325TIP3    H236919   4.750   5.990   5.821
12326TIP3   OH236920   3.921   6.070   5.084
12326TIP3    H136921   3.858   6.025   5.027
12326TIP3    H236922   3.978   6.118   5.023
12327TIP3   OH236923   5.026   7.747   6.061
12327TIP3    H136924   5.018   7.761   5.966
12327TIP3    H236925   5.105   7.794   6.086
12328TIP3   OH236926   3.959   6.869   6.474
12328TIP3    H136927   4.041   6.887   6.520
12328TIP3    H236928   3.891   6.875   6.542
12329TIP3   OH236929   4.425   6.339   5.747
12329TIP3    H136930   4.490   6.290   5.696
12329TIP3    H236931   4.422   6.294   5.831
12330TIP3   OH236932   3.925   5.796   5.650
12330TIP3    H136933   3.892   5.719   5.696
12330TIP3    H236934   3.925   5.770   5.558
12331TIP3   OH236935   4.396   6.230   6.007
12331TIP3    H136936   4.308   6.258   6.031
12331TIP3    H236937   4.454   6.284   6.061
12332TIP3   OH236938   4.127   6.590   5.119
12332TIP3    H136939   4.055   6.531   5.098
12332TIP3    H236940   4.103   6.628   5.203
12333TIP3   OH236941   5.020   6.847   5.727
12333TIP3    H136942   5.060   6.889   5.650
12333TIP3    H236943   4.941   6.806   5.693
12334TIP3   OH236944   4.582   5.902   5.024
12334TIP3    H136945   4.491   5.874   5.022
12334TIP3    H236946   4.579   5.996   5.039
12335TIP3   OH236947   4.542   6.916   6.129
12335TIP3    H136948   4.591   6.913   6.211
12335TIP3    H236949   4.498   7.001   6.130
12336TIP3   OH236950   4.617   6.170   5.090
12336TIP3    H136951   4.700   6.206   5.061
12336TIP3    H236952   4.552   6.205   5.029
12337TIP3   OH236953   3.822   6.641   5.766
12337TIP3    H136954   3.861   6.607   5.685
12337TIP3    H236955   3.826   6.568   5.828
12338TIP3   OH236956   4.285   6.750   4.965
12338TIP3    H136957   4.234   6.831   4.963
12338TIP3    H236958   4.231   6.689   5.015
12339TIP3   OH236959   3.707   6.538   6.410
12339TIP3    H136960   3.713   6.514   6.503
12339TIP3    H236961   3.636   6.484   6.375
12340TIP3   OH236962   4.447   6.667   6.426
12340TIP3    H136963   4.377   6.610   6.395
12340TIP3    H236964   4.527   6.626   6.395
12341TIP3   OH236965   4.684   7.216   6.025
12341TIP3    H136966   4.590   7.194   6.023
12341TIP3    H236967   4.698   7.254   6.112
12342TIP3   OH236968   5.071   6.242   4.928
12342TIP3    H136969   5.022   6.217   4.849
12342TIP3    H236970   5.108   6.328   4.906
12343TIP3   OH236971   5.329   7.140   5.986
12343TIP3    H136972   5.237   7.115   5.991
12343TIP3    H236973   5.360   7.102   5.904
12344TIP3   OH236974   4.804   7.084   4.845
12344TIP3    H136975   4.775   7.011   4.900
12344TIP3    H236976   4.831   7.042   4.763
12345TIP3   OH236977   4.788   6.713   5.626
12345TIP3    H136978   4.699   6.689   5.651
12345TIP3    H236979   4.825   6.634   5.587
12346TIP3   OH236980   3.948   6.946   5.446
12346TIP3    H136981   3.946   7.023   5.389
12346TIP3    H236982   3.855   6.925   5.460
12347TIP3   OH236983   3.504   6.223   5.153
12347TIP3    H136984   3.552   6.303   5.177
12347TIP3    H236985   3.425   6.225   5.207
12348TIP3   OH236986   4.033   6.702   5.346
12348TIP3    H136987   4.020   6.791   5.379
12348TIP3    H236988   4.009   6.645   5.420
12349TIP3   OH236989   4.224   7.282   5.904
12349TIP3    H136990   4.255   7.370   5.886
12349TIP3    H236991   4.299   7.238   5.944
12350TIP3   OH236992   3.861   7.169   5.292
12350TIP3    H136993   3.774   7.174   5.332
12350TIP3    H236994   3.896   7.258   5.298
12351TIP3   OH236995   4.579   6.937   5.855
12351TIP3    H136996   4.570   6.926   5.949
12351TIP3    H236997   4.646   6.874   5.829
12352TIP3   OH236998   4.568   6.775   4.719
12352TIP3    H136999   4.603   6.687   4.733
12352TIP3    H237000   4.475   6.767   4.741
12353TIP3   OH237001   4.829   7.427   5.909
12353TIP3    H137002   4.762   7.361   5.928
12353TIP3    H237003   4.792   7.478   5.836
12354TIP3   OH237004   4.884   7.281   4.544
12354TIP3    H137005   4.907   7.343   4.475
12354TIP3    H237006   4.812   7.324   4.591
12355TIP3   OH237007   3.912   6.058   6.405
12355TIP3    H137008   3.817   6.057   6.408
12355TIP3    H237009   3.940   6.013   6.484
12356TIP3   OH237010   4.828   6.681   5.104
12356TIP3    H137011   4.757   6.634   5.060
12356TIP3    H237012   4.794   6.769   5.118
12357TIP3   OH237013   3.640   7.151   6.069
12357TIP3    H137014   3.698   7.094   6.120
12357TIP3    H237015   3.661   7.239   6.100
12358TIP3   OH237016   3.916   6.773   4.755
12358TIP3    H137017   3.930   6.683   4.727
12358TIP3    H237018   3.906   6.768   4.850
12359TIP3   OH237019   3.868   6.789   5.029
12359TIP3    H137020   3.938   6.760   5.088
12359TIP3    H237021   3.869   6.884   5.035
12360TIP3   OH237022   3.600   6.473   5.237
12360TIP3    H137023   3.535   6.523   5.288
12360TIP3    H237024   3.623   6.532   5.165
12361TIP3   OH237025   4.761   6.114   6.110
12361TIP3    H137026   4.841   6.157   6.141
12361TIP3    H237027   4.753   6.036   6.165
12362TIP3   OH237028   4.652   5.856   5.292
12362TIP3    H137029   4.628   5.875   5.201
12362TIP3    H237030   4.694   5.937   5.323
12363TIP3   OH237031   4.135   6.975   4.962
12363TIP3    H137032   4.051   7.000   5.002
12363TIP3    H237033   4.157   7.048   4.904
12364TIP3   OH237034   4.307   6.053   5.381
12364TIP3    H137035   4.365   6.125   5.357
12364TIP3    H237036   4.331   6.033   5.472
12365TIP3   OH237037   4.599   6.346   6.159
12365TIP3    H137038   4.625   6.387   6.241
12365TIP3    H237039   4.650   6.264   6.156
12366TIP3   OH237040   4.469   5.749   5.471
12366TIP3    H137041   4.445   5.826   5.522
12366TIP3    H237042   4.536   5.781   5.411
12367TIP3   OH237043   3.887   7.063   5.041
12367TIP3    H137044   3.868   7.136   4.982
12367TIP3    H237045   3.877   7.101   5.129
12368TIP3   OH237046   3.978   5.774   5.282
12368TIP3    H137047   3.967   5.865   5.309
12368TIP3    H237048   4.072   5.758   5.290
12369TIP3   OH237049   5.225   6.262   6.157
12369TIP3    H137050   5.129   6.258   6.167
12369TIP3    H237051   5.241   6.224   6.071
12370TIP3   OH237052   4.884   6.456   5.532
12370TIP3    H137053   4.806   6.401   5.542
12370TIP3    H237054   4.950   6.414   5.587
12371TIP3   OH237055   3.626   6.653   5.021
12371TIP3    H137056   3.699   6.715   5.032
12371TIP3    H237057   3.658   6.589   4.958
12372TIP3   OH237058   3.521   5.944   5.154
12372TIP3    H137059   3.538   6.038   5.160
12372TIP3    H237060   3.472   5.933   5.073
12373TIP3   OH237061   4.864   7.429   5.484
12373TIP3    H137062   4.821   7.478   5.413
12373TIP3    H237063   4.957   7.439   5.467
12374TIP3   OH237064   3.927   5.672   6.020
12374TIP3    H137065   3.898   5.642   5.934
12374TIP3    H237066   3.917   5.595   6.076
12375TIP3   OH237067   3.452   6.928   5.409
12375TIP3    H137068   3.405   6.960   5.485
12375TIP3    H237069   3.405   6.963   5.334
12376TIP3   OH237070   3.663   7.475   6.471
12376TIP3    H137071   3.740   7.482   6.527
12376TIP3    H237072   3.658   7.382   6.448
12377TIP3   OH237073   4.114   7.385   6.512
12377TIP3    H137074   4.207   7.362   6.522
12377TIP3    H237075   4.082   7.326   6.444
12378TIP3   OH237076   4.076   6.970   4.643
12378TIP3    H137077   4.028   6.901   4.688
12378TIP3    H237078   4.151   6.926   4.603
12379TIP3   OH237079   4.729   7.310   6.280
12379TIP3    H137080   4.748   7.238   6.341
12379TIP3    H237081   4.804   7.368   6.287
12380TIP3   OH237082   4.525   7.004   4.571
12380TIP3    H137083   4.558   6.932   4.625
12380TIP3    H237084   4.579   7.001   4.492
12381TIP3   OH237085   3.758   6.867   6.668
12381TIP3    H137086   3.781   6.775   6.680
12381TIP3    H237087   3.671   6.865   6.627
12382TIP3   OH237088   3.746   6.462   4.868
12382TIP3    H137089   3.798   6.435   4.944
12382TIP3    H237090   3.811   6.477   4.799
12383TIP3   OH237091   4.380   6.943   6.446
12383TIP3    H137092   4.333   6.964   6.364
12383TIP3    H237093   4.415   6.855   6.431
12384TIP3   OH237094   4.293   6.690   4.696
12384TIP3    H137095   4.281   6.696   4.791
12384TIP3    H237096   4.297   6.596   4.678
12385TIP3   OH237097   4.858   6.999   6.071
12385TIP3    H137098   4.934   7.022   6.018
12385TIP3    H237099   4.792   7.065   6.049
12386TIP3   OH237100   3.864   6.612   6.665
12386TIP3    H137101   3.935   6.587   6.605
12386TIP3    H237102   3.906   6.619   6.750
12387TIP3   OH237103   3.922   6.404   5.080
12387TIP3    H137104   3.904   6.373   5.168
12387TIP3    H237105   3.977   6.337   5.041
12388TIP3   OH237106   4.236   6.488   6.338
12388TIP3    H137107   4.151   6.531   6.349
12388TIP3    H237108   4.267   6.518   6.253
12389TIP3   OH237109   4.083   6.231   4.928
12389TIP3    H137110   4.059   6.239   4.836
12389TIP3    H237111   4.178   6.236   4.929
12390TIP3   OH237112   4.739   6.855   6.414
12390TIP3    H137113   4.803   6.815   6.355
12390TIP3    H237114   4.729   6.792   6.485
12391TIP3   OH237115   4.916   6.528   4.585
12391TIP3    H137116   4.881   6.480   4.510
12391TIP3    H237117   4.885   6.617   4.574
12392TIP3   OH237118   4.341   6.257   6.441
12392TIP3    H137119   4.344   6.187   6.376
12392TIP3    H237120   4.306   6.332   6.394
12393TIP3   OH237121   4.349   6.060   6.237
12393TIP3    H137122   4.374   6.098   6.152
12393TIP3    H237123   4.257   6.033   6.225
12394TIP3   OH237124   4.355   6.597   6.120
12394TIP3    H137125   4.441   6.633   6.102
12394TIP3    H237126   4.295   6.649   6.066
12395TIP3   OH237127   4.948   6.537   6.474
12395TIP3    H137128   4.988   6.451   6.480
12395TIP3    H237129   5.021   6.598   6.460
12396TIP3   OH237130   4.970   6.807   6.224
12396TIP3    H137131   4.918   6.873   6.178
12396TIP3    H237132   5.059   6.820   6.192
12397TIP3   OH237133   4.227   6.345   6.683
12397TIP3    H137134   4.152   6.287   6.700
12397TIP3    H237135   4.255   6.323   6.594
12398TIP3   OH237136   4.469   5.826   6.326
12398TIP3    H137137   4.427   5.907   6.295
12398TIP3    H237138   4.401   5.759   6.315
12399TIP3   OH237139   4.595   6.300   6.545
12399TIP3    H137140   4.585   6.288   6.639
12399TIP3    H237141   4.509   6.278   6.509
12400TIP3   OH237142   4.837   6.255   6.411
12400TIP3    H137143   4.759   6.254   6.467
12400TIP3    H237144   4.908   6.227   6.470
12401TIP3   OH237145   5.075   6.214   6.552
12401TIP3    H137146   5.089   6.120   6.558
12401TIP3    H237147   5.069   6.243   6.643
12402TIP3   OH237148   4.056   6.125   6.729
12402TIP3    H137149   4.074   6.042   6.686
12402TIP3    H237150   4.100   6.118   6.814
12403TIP3   OH237151   4.545   5.820   6.587
12403TIP3    H137152   4.609   5.749   6.585
12403TIP3    H237153   4.512   5.826   6.497
12404TIP3   OH237154   4.632   6.018   6.755
12404TIP3    H137155   4.605   5.951   6.692
12404TIP3    H237156   4.559   6.080   6.755
12405TIP3   OH237157   3.891   7.278   4.862
12405TIP3    H137158   3.977   7.250   4.831
12405TIP3    H237159   3.853   7.324   4.787
12406TIP3   OH237160   3.353   6.656   5.026
12406TIP3    H137161   3.448   6.664   5.026
12406TIP3    H237162   3.336   6.569   4.991
12407TIP3   OH237163   3.247   7.237   5.504
12407TIP3    H137164   3.185   7.182   5.456
12407TIP3    H237165   3.294   7.177   5.561
12408TIP3   OH237166   3.395   7.069   5.669
12408TIP3    H137167   3.401   6.994   5.729
12408TIP3    H237168   3.447   7.137   5.711
12409TIP3   OH237169   5.136   7.470   5.470
12409TIP3    H137170   5.159   7.496   5.559
12409TIP3    H237171   5.194   7.522   5.414
12410TIP3   OH237172   5.158   7.496   5.750
12410TIP3    H137173   5.109   7.414   5.747
12410TIP3    H237174   5.228   7.480   5.813
12411TIP3   OH237175   5.216   7.208   6.314
12411TIP3    H137176   5.139   7.216   6.369
12411TIP3    H237177   5.260   7.293   6.320
12412TIP3   OH237178   5.213   6.960   5.555
12412TIP3    H137179   5.246   6.887   5.503
12412TIP3    H237180   5.212   7.034   5.493
12413TIP3   OH237181   5.007   7.263   5.765
12413TIP3    H137182   4.938   7.310   5.812
12413TIP3    H237183   4.962   7.223   5.690
12414TIP3   OH237184   4.944   6.149   4.703
12414TIP3    H137185   4.887   6.182   4.635
12414TIP3    H237186   4.931   6.054   4.702
12415TIP3   OH237187   4.924   6.421   5.255
12415TIP3    H137188   4.932   6.329   5.231
12415TIP3    H237189   4.912   6.420   5.350
12416TIP3   OH237190   3.568   6.470   6.024
12416TIP3    H137191   3.552   6.403   5.958
12416TIP3    H237192   3.663   6.470   6.037
12417TIP3   OH237193   5.222   6.852   6.120
12417TIP3    H137194   5.293   6.790   6.102
12417TIP3    H237195   5.214   6.902   6.039
12418TIP3   OH237196   5.409   6.647   6.117
12418TIP3    H137197   5.334   6.607   6.161
12418TIP3    H237198   5.484   6.594   6.145
12419TIP3   OH237199   4.884   5.875   4.690
12419TIP3    H137200   4.943   5.849   4.760
12419TIP3    H237201   4.798   5.843   4.718
12420TIP3   OH237202   4.963   6.155   5.167
12420TIP3    H137203   5.003   6.069   5.179
12420TIP3    H237204   4.995   6.185   5.082
12421TIP3   OH237205   5.094   6.326   5.680
12421TIP3    H137206   5.174   6.345   5.631
12421TIP3    H237207   5.109   6.366   5.766
12422TIP3   OH237208   5.174   6.478   5.907
12422TIP3    H137209   5.099   6.509   5.958
12422TIP3    H237210   5.204   6.556   5.860
12423TIP3   OH237211   3.786   6.167   6.679
12423TIP3    H137212   3.880   6.177   6.694
12423TIP3    H237213   3.758   6.108   6.749
12424TIP3   OH237214   5.631   6.080   6.441
12424TIP3    H137215   5.695   6.022   6.401
12424TIP3    H237216   5.594   6.129   6.367
12425TIP3   OH237217   5.070   5.902   5.209
12425TIP3    H137218   5.111   5.888   5.294
12425TIP3    H237219   5.003   5.834   5.203
12426TIP3   OH237220   3.767   5.899   6.055
12426TIP3    H137221   3.821   5.820   6.050
12426TIP3    H237222   3.825   5.969   6.025
12427TIP3   OH237223   3.563   6.147   6.123
12427TIP3    H137224   3.545   6.161   6.030
12427TIP3    H237225   3.651   6.181   6.136
12428TIP3   OH237226   5.485   6.193   6.242
12428TIP3    H137227   5.402   6.233   6.269
12428TIP3    H237228   5.459   6.118   6.189
12429TIP3   OH237229   5.109   5.824   4.849
12429TIP3    H137230   5.156   5.764   4.792
12429TIP3    H237231   5.164   5.902   4.854
12430TIP3   OH237232   3.526   5.646   5.585
12430TIP3    H137233   3.446   5.647   5.637
12430TIP3    H237234   3.511   5.712   5.517
12431TIP3   OH237235   4.695   7.380   5.119
12431TIP3    H137236   4.750   7.378   5.041
12431TIP3    H237237   4.731   7.451   5.172
12432TIP3   OH237238   3.768   5.733   6.434
12432TIP3    H137239   3.716   5.733   6.515
12432TIP3    H237240   3.712   5.775   6.369
12433TIP3   OH237241   3.775   7.197   6.487
12433TIP3    H137242   3.684   7.168   6.482
12433TIP3    H237243   3.801   7.180   6.578
12434TIP3   OH237244   3.997   7.217   6.048
12434TIP3    H137245   3.931   7.265   5.998
12434TIP3    H237246   4.080   7.241   6.006
12435TIP3   OH237247   4.425   7.432   6.153
12435TIP3    H137248   4.436   7.452   6.246
12435TIP3    H237249   4.486   7.490   6.109
12436TIP3   OH237250   4.635   7.586   6.067
12436TIP3    H137251   4.708   7.542   6.022
12436TIP3    H237252   4.675   7.662   6.109
12437TIP3   OH237253   5.394   5.949   6.136
12437TIP3    H137254   5.311   5.953   6.088
12437TIP3    H237255   5.421   5.857   6.130
12438TIP3   OH237256   3.653   7.461   6.101
12438TIP3    H137257   3.565   7.497   6.088
12438TIP3    H237258   3.696   7.524   6.160
12439TIP3   OH237259   3.828   7.373   5.907
12439TIP3    H137260   3.764   7.415   5.966
12439TIP3    H237261   3.841   7.437   5.837
12440TIP3   OH237262   4.295   7.540   5.820
12440TIP3    H137263   4.238   7.562   5.746
12440TIP3    H237264   4.285   7.613   5.880
12441TIP3   OH237265   4.549   7.421   5.776
12441TIP3    H137266   4.464   7.461   5.797
12441TIP3    H237267   4.600   7.493   5.738
12442TIP3   OH237268   4.772   7.591   5.687
12442TIP3    H137269   4.764   7.677   5.645
12442TIP3    H237270   4.799   7.532   5.616
12443TIP3   OH237271   3.562   7.246   5.815
12443TIP3    H137272   3.592   7.222   5.903
12443TIP3    H237273   3.636   7.224   5.759
12444TIP3   OH237274   3.772   7.148   5.668
12444TIP3    H137275   3.785   7.065   5.714
12444TIP3    H237276   3.857   7.192   5.675
12445TIP3   OH237277   4.047   7.229   5.693
12445TIP3    H137278   4.063   7.136   5.681
12445TIP3    H237279   4.102   7.254   5.768
12446TIP3   OH237280   4.604   5.870   5.784
12446TIP3    H137281   4.563   5.798   5.832
12446TIP3    H237282   4.671   5.828   5.731
12447TIP3   OH237283   5.103   5.783   5.671
12447TIP3    H137284   5.141   5.833   5.599
12447TIP3    H237285   5.010   5.806   5.670
12448TIP3   OH237286   5.223   5.858   5.436
12448TIP3    H137287   5.293   5.799   5.408
12448TIP3    H237288   5.257   5.946   5.419
12449TIP3   OH237289   3.841   5.564   5.781
12449TIP3    H137290   3.751   5.531   5.787
12449TIP3    H237291   3.894   5.486   5.770
12450TIP3   OH237292   3.667   5.465   5.424
12450TIP3    H137293   3.695   5.517   5.348
12450TIP3    H237294   3.625   5.529   5.482
12451TIP3   OH237295   4.330   5.603   5.672
12451TIP3    H137296   4.373   5.654   5.603
12451TIP3    H237297   4.368   5.638   5.753
12452TIP3   OH237298   4.816   5.752   5.651
12452TIP3    H137299   4.825   5.719   5.562
12452TIP3    H237300   4.822   5.674   5.706
12453TIP3   OH237301   4.873   5.704   5.215
12453TIP3    H137302   4.794   5.752   5.236
12453TIP3    H237303   4.859   5.617   5.253
12454TIP3   OH237304   3.321   7.031   5.192
12454TIP3    H137305   3.240   7.005   5.148
12454TIP3    H237306   3.329   7.125   5.175
12455TIP3   OH237307   3.774   5.599   5.192
12455TIP3    H137308   3.821   5.542   5.132
12455TIP3    H237309   3.841   5.658   5.227
12456TIP3   OH237310   4.254   5.799   5.291
12456TIP3    H137311   4.315   5.749   5.346
12456TIP3    H237312   4.269   5.890   5.315
12457TIP3   OH237313   4.141   7.194   4.785
12457TIP3    H137314   4.226   7.218   4.749
12457TIP3    H237315   4.110   7.123   4.729
12458TIP3   OH237316   4.840   7.352   4.883
12458TIP3    H137317   4.833   7.257   4.874
12458TIP3    H237318   4.798   7.387   4.805
12459TIP3   OH237319   4.088   5.853   6.656
12459TIP3    H137320   4.037   5.818   6.730
12459TIP3    H237321   4.179   5.847   6.685
12460TIP3   OH237322   4.340   5.830   6.775
12460TIP3    H137323   4.406   5.841   6.706
12460TIP3    H237324   4.369   5.754   6.824
12461TIP3   OH237325   3.461   7.061   4.856
12461TIP3    H137326   3.455   7.038   4.949
12461TIP3    H237327   3.538   7.014   4.824
12462TIP3   OH237328   5.139   5.946   6.557
12462TIP3    H137329   5.154   5.916   6.647
12462TIP3    H237330   5.225   5.941   6.516
12463TIP3   OH237331   5.058   7.474   6.061
12463TIP3    H137332   4.983   7.446   6.010
12463TIP3    H237333   5.047   7.569   6.070
12464TIP3   OH237334   6.342   6.873   4.810
12464TIP3    H137335   6.312   6.959   4.781
12464TIP3    H237336   6.269   6.814   4.788
12465TIP3   OH237337   6.332   6.859   5.230
12465TIP3    H137338   6.383   6.842   5.310
12465TIP3    H237339   6.285   6.777   5.214
12466TIP3   OH237340   5.624   6.714   5.534
12466TIP3    H137341   5.645   6.662   5.611
12466TIP3    H237342   5.709   6.738   5.497
12467TIP3   OH237343   6.605   7.170   4.909
12467TIP3    H137344   6.589   7.101   4.973
12467TIP3    H237345   6.626   7.247   4.963
12468TIP3   OH237346   5.636   7.175   5.284
12468TIP3    H137347   5.619   7.081   5.287
12468TIP3    H237348   5.731   7.181   5.270
12469TIP3   OH237349   5.310   6.373   5.116
12469TIP3    H137350   5.289   6.460   5.149
12469TIP3    H237351   5.242   6.316   5.152
12470TIP3   OH237352   6.251   7.599   4.921
12470TIP3    H137353   6.281   7.530   4.862
12470TIP3    H237354   6.247   7.557   5.007
12471TIP3   OH237355   6.138   7.081   5.237
12471TIP3    H137356   6.180   7.000   5.209
12471TIP3    H237357   6.210   7.134   5.272
12472TIP3   OH237358   7.174   6.398   5.258
12472TIP3    H137359   7.189   6.483   5.300
12472TIP3    H237360   7.197   6.412   5.166
12473TIP3   OH237361   6.549   6.566   5.276
12473TIP3    H137362   6.580   6.480   5.305
12473TIP3    H237363   6.511   6.551   5.190
12474TIP3   OH237364   5.912   6.224   5.226
12474TIP3    H137365   5.889   6.299   5.172
12474TIP3    H237366   5.851   6.155   5.199
12475TIP3   OH237367   6.600   6.327   4.873
12475TIP3    H137368   6.663   6.320   4.945
12475TIP3    H237369   6.652   6.361   4.799
12476TIP3   OH237370   5.534   6.406   5.400
12476TIP3    H137371   5.628   6.402   5.417
12476TIP3    H237372   5.527   6.398   5.305
12477TIP3   OH237373   5.950   6.648   5.175
12477TIP3    H137374   6.044   6.631   5.184
12477TIP3    H237375   5.915   6.565   5.141
12478TIP3   OH237376   7.228   6.622   5.417
12478TIP3    H137377   7.137   6.653   5.416
12478TIP3    H237378   7.263   6.656   5.500
12479TIP3   OH237379   5.883   6.229   5.695
12479TIP3    H137380   5.836   6.260   5.617
12479TIP3    H237381   5.825   6.250   5.768
12480TIP3   OH237382   6.245   7.089   4.665
12480TIP3    H137383   6.200   7.056   4.587
12480TIP3    H237384   6.189   7.160   4.697
12481TIP3   OH237385   5.979   7.010   5.455
12481TIP3    H137386   5.921   7.079   5.486
12481TIP3    H237387   6.023   7.048   5.379
12482TIP3   OH237388   6.756   6.346   5.096
12482TIP3    H137389   6.713   6.326   5.179
12482TIP3    H237390   6.810   6.422   5.115
12483TIP3   OH237391   5.793   6.328   5.456
12483TIP3    H137392   5.847   6.403   5.479
12483TIP3    H237393   5.838   6.288   5.381
12484TIP3   OH237394   5.820   7.212   5.559
12484TIP3    H137395   5.804   7.301   5.528
12484TIP3    H237396   5.741   7.188   5.607
12485TIP3   OH237397   5.233   6.931   4.806
12485TIP3    H137398   5.151   6.950   4.760
12485TIP3    H237399   5.256   7.012   4.851
12486TIP3   OH237400   6.639   7.418   5.051
12486TIP3    H137401   6.553   7.402   5.090
12486TIP3    H237402   6.629   7.499   5.001
12487TIP3   OH237403   6.972   6.287   5.422
12487TIP3    H137404   6.887   6.306   5.381
12487TIP3    H237405   7.036   6.314   5.356
12488TIP3   OH237406   6.227   5.922   5.423
12488TIP3    H137407   6.218   5.830   5.447
12488TIP3    H237408   6.151   5.965   5.461
12489TIP3   OH237409   6.343   7.455   4.698
12489TIP3    H137410   6.392   7.372   4.695
12489TIP3    H237411   6.405   7.521   4.667
12490TIP3   OH237412   6.488   7.228   4.666
12490TIP3    H137413   6.418   7.164   4.658
12490TIP3    H237414   6.538   7.201   4.743
12491TIP3   OH237415   6.856   7.305   5.387
12491TIP3    H137416   6.838   7.231   5.330
12491TIP3    H237417   6.841   7.382   5.332
12492TIP3   OH237418   6.165   6.709   4.668
12492TIP3    H137419   6.081   6.750   4.650
12492TIP3    H237420   6.208   6.706   4.582
12493TIP3   OH237421   6.128   6.517   4.352
12493TIP3    H137422   6.194   6.564   4.403
12493TIP3    H237423   6.176   6.448   4.308
12494TIP3   OH237424   7.041   6.953   5.253
12494TIP3    H137425   6.958   7.000   5.255
12494TIP3    H237426   7.074   6.967   5.164
12495TIP3   OH237427   6.522   6.794   4.622
12495TIP3    H137428   6.468   6.824   4.695
12495TIP3    H237429   6.605   6.768   4.662
12496TIP3   OH237430   6.747   6.799   5.553
12496TIP3    H137431   6.753   6.885   5.594
12496TIP3    H237432   6.663   6.799   5.508
12497TIP3   OH237433   5.747   6.783   5.036
12497TIP3    H137434   5.708   6.721   4.975
12497TIP3    H237435   5.819   6.735   5.077
12498TIP3   OH237436   5.893   7.212   5.169
12498TIP3    H137437   5.862   7.187   5.082
12498TIP3    H237438   5.976   7.165   5.179
12499TIP3   OH237439   5.871   6.758   5.418
12499TIP3    H137440   5.895   6.733   5.328
12499TIP3    H237441   5.903   6.848   5.427
12500TIP3   OH237442   6.402   7.392   5.177
12500TIP3    H137443   6.378   7.473   5.222
12500TIP3    H237444   6.384   7.323   5.240
12501TIP3   OH237445   6.016   7.307   5.728
12501TIP3    H137446   5.955   7.364   5.774
12501TIP3    H237447   5.962   7.256   5.668
12502TIP3   OH237448   6.351   6.655   4.457
12502TIP3    H137449   6.411   6.712   4.504
12502TIP3    H237450   6.381   6.659   4.366
12503TIP3   OH237451   5.769   6.845   5.878
12503TIP3    H137452   5.777   6.939   5.892
12503TIP3    H237453   5.675   6.829   5.871
12504TIP3   OH237454   6.101   7.317   4.720
12504TIP3    H137455   6.171   7.382   4.722
12504TIP3    H237456   6.029   7.362   4.674
12505TIP3   OH237457   5.807   7.465   5.815
12505TIP3    H137458   5.782   7.476   5.723
12505TIP3    H237459   5.724   7.448   5.860
12506TIP3   OH237460   6.861   5.882   4.517
12506TIP3    H137461   6.785   5.902   4.571
12506TIP3    H237462   6.870   5.958   4.459
12507TIP3   OH237463   5.619   6.622   4.834
12507TIP3    H137464   5.541   6.666   4.800
12507TIP3    H237465   5.586   6.539   4.870
12508TIP3   OH237466   6.685   7.270   4.092
12508TIP3    H137467   6.678   7.361   4.064
12508TIP3    H237468   6.771   7.241   4.061
12509TIP3   OH237469   5.404   7.015   5.755
12509TIP3    H137470   5.339   6.995   5.688
12509TIP3    H237471   5.440   6.929   5.780
12510TIP3   OH237472   5.252   7.206   5.410
12510TIP3    H137473   5.346   7.221   5.419
12510TIP3    H237474   5.212   7.285   5.447
12511TIP3   OH237475   6.203   7.458   5.594
12511TIP3    H137476   6.193   7.548   5.624
12511TIP3    H237477   6.136   7.409   5.642
12512TIP3   OH237478   5.980   7.562   4.537
12512TIP3    H137479   5.921   7.538   4.466
12512TIP3    H237480   5.945   7.645   4.570
12513TIP3   OH237481   5.428   7.412   4.921
12513TIP3    H137482   5.471   7.405   5.007
12513TIP3    H237483   5.378   7.332   4.913
12514TIP3   OH237484   6.194   7.483   4.166
12514TIP3    H137485   6.242   7.409   4.129
12514TIP3    H237486   6.219   7.485   4.258
12515TIP3   OH237487   6.224   7.494   4.440
12515TIP3    H137488   6.136   7.509   4.475
12515TIP3    H237489   6.269   7.445   4.509
12516TIP3   OH237490   7.012   6.763   5.691
12516TIP3    H137491   6.923   6.778   5.660
12516TIP3    H237492   7.024   6.668   5.684
12517TIP3   OH237493   5.600   7.209   5.729
12517TIP3    H137494   5.652   7.193   5.808
12517TIP3    H237495   5.530   7.144   5.733
12518TIP3   OH237496   5.991   6.016   5.548
12518TIP3    H137497   5.908   5.982   5.514
12518TIP3    H237498   5.967   6.095   5.595
12519TIP3   OH237499   6.524   6.141   5.746
12519TIP3    H137500   6.592   6.112   5.807
12519TIP3    H237501   6.442   6.123   5.791
12520TIP3   OH237502   6.757   6.546   5.666
12520TIP3    H137503   6.719   6.554   5.753
12520TIP3    H237504   6.743   6.631   5.625
12521TIP3   OH237505   6.432   6.633   4.194
12521TIP3    H137506   6.386   6.636   4.110
12521TIP3    H237507   6.512   6.682   4.179
12522TIP3   OH237508   6.141   6.054   4.514
12522TIP3    H137509   6.104   6.062   4.602
12522TIP3    H237510   6.103   5.973   4.479
12523TIP3   OH237511   5.935   6.539   5.564
12523TIP3    H137512   5.878   6.547   5.640
12523TIP3    H237513   5.919   6.619   5.514
12524TIP3   OH237514   5.818   6.430   5.071
12524TIP3    H137515   5.729   6.410   5.099
12524TIP3    H237516   5.823   6.395   4.982
12525TIP3   OH237517   6.287   6.503   4.804
12525TIP3    H137518   6.240   6.577   4.764
12525TIP3    H237519   6.343   6.471   4.734
12526TIP3   OH237520   6.460   6.769   5.870
12526TIP3    H137521   6.442   6.701   5.935
12526TIP3    H237522   6.551   6.794   5.887
12527TIP3   OH237523   6.456   6.514   5.024
12527TIP3    H137524   6.386   6.535   4.962
12527TIP3    H237525   6.502   6.440   4.985
12528TIP3   OH237526   5.749   6.568   5.762
12528TIP3    H137527   5.751   6.638   5.826
12528TIP3    H237528   5.730   6.489   5.813
12529TIP3   OH237529   5.806   6.037   4.491
12529TIP3    H137530   5.797   6.041   4.586
12529TIP3    H237531   5.727   6.080   4.458
12530TIP3   OH237532   5.349   6.080   5.348
12530TIP3    H137533   5.418   6.114   5.405
12530TIP3    H237534   5.393   6.054   5.268
12531TIP3   OH237535   5.265   6.055   4.864
12531TIP3    H137536   5.302   6.097   4.786
12531TIP3    H237537   5.202   6.119   4.897
12532TIP3   OH237538   6.489   6.768   5.445
12532TIP3    H137539   6.513   6.700   5.383
12532TIP3    H237540   6.445   6.721   5.516
12533TIP3   OH237541   6.176   6.215   5.124
12533TIP3    H137542   6.096   6.215   5.175
12533TIP3    H237543   6.246   6.207   5.188
12534TIP3   OH237544   5.578   6.320   5.134
12534TIP3    H137545   5.485   6.330   5.114
12534TIP3    H237546   5.595   6.227   5.122
12535TIP3   OH237547   5.823   6.302   4.828
12535TIP3    H137548   5.917   6.313   4.815
12535TIP3    H237549   5.785   6.320   4.742
12536TIP3   OH237550   6.615   6.304   5.336
12536TIP3    H137551   6.595   6.322   5.428
12536TIP3    H237552   6.547   6.242   5.309
12537TIP3   OH237553   5.709   6.325   4.580
12537TIP3    H137554   5.645   6.276   4.528
12537TIP3    H237555   5.762   6.371   4.515
12538TIP3   OH237556   5.762   7.116   5.963
12538TIP3    H137557   5.841   7.142   6.010
12538TIP3    H237558   5.691   7.124   6.027
12539TIP3   OH237559   6.221   6.590   5.231
12539TIP3    H137560   6.285   6.537   5.184
12539TIP3    H237561   6.216   6.551   5.318
12540TIP3   OH237562   5.708   6.057   5.123
12540TIP3    H137563   5.681   5.980   5.174
12540TIP3    H237564   5.722   6.023   5.035
12541TIP3   OH237565   6.196   6.489   5.493
12541TIP3    H137566   6.108   6.518   5.520
12541TIP3    H237567   6.256   6.541   5.547
12542TIP3   OH237568   5.926   6.840   4.613
12542TIP3    H137569   5.851   6.785   4.589
12542TIP3    H237570   5.899   6.882   4.694
12543TIP3   OH237571   6.803   7.093   5.218
12543TIP3    H137572   6.843   7.137   5.143
12543TIP3    H237573   6.725   7.051   5.182
12544TIP3   OH237574   6.392   6.160   4.517
12544TIP3    H137575   6.299   6.137   4.514
12544TIP3    H237576   6.393   6.255   4.531
12545TIP3   OH237577   6.329   7.184   5.626
12545TIP3    H137578   6.388   7.172   5.701
12545TIP3    H237579   6.289   7.269   5.641
12546TIP3   OH237580   6.448   6.425   4.587
12546TIP3    H137581   6.543   6.429   4.598
12546TIP3    H237582   6.427   6.503   4.536
12547TIP3   OH237583   5.632   6.902   5.268
12547TIP3    H137584   5.662   6.862   5.186
12547TIP3    H237585   5.614   6.829   5.326
12548TIP3   OH237586   6.075   7.006   4.456
12548TIP3    H137587   6.029   7.090   4.455
12548TIP3    H237588   6.020   6.949   4.509
12549TIP3   OH237589   5.498   6.780   5.887
12549TIP3    H137590   5.492   6.750   5.978
12549TIP3    H237591   5.423   6.738   5.844
12550TIP3   OH237592   6.235   6.923   5.914
12550TIP3    H137593   6.163   6.866   5.887
12550TIP3    H237594   6.313   6.880   5.881
12551TIP3   OH237595   6.468   7.465   5.506
12551TIP3    H137596   6.373   7.456   5.516
12551TIP3    H237597   6.498   7.497   5.591
12552TIP3   OH237598   6.863   6.509   4.401
12552TIP3    H137599   6.808   6.463   4.338
12552TIP3    H237600   6.868   6.599   4.367
12553TIP3   OH237601   7.103   7.334   5.499
12553TIP3    H137602   7.012   7.334   5.473
12553TIP3    H237603   7.152   7.323   5.417
12554TIP3   OH237604   6.598   7.329   4.360
12554TIP3    H137605   6.580   7.262   4.427
12554TIP3    H237606   6.624   7.279   4.283
12555TIP3   OH237607   6.581   6.962   5.105
12555TIP3    H137608   6.491   6.941   5.131
12555TIP3    H237609   6.615   6.880   5.069
12556TIP3   OH237610   5.738   7.200   4.931
12556TIP3    H137611   5.729   7.277   4.874
12556TIP3    H237612   5.650   7.184   4.964
12557TIP3   OH237613   5.251   6.496   4.638
12557TIP3    H137614   5.304   6.570   4.667
12557TIP3    H237615   5.161   6.526   4.647
12558TIP3   OH237616   5.827   6.958   4.834
12558TIP3    H137617   5.809   7.047   4.865
12558TIP3    H237618   5.801   6.902   4.907
12559TIP3   OH237619   6.022   7.526   5.385
12559TIP3    H137620   6.058   7.598   5.333
12559TIP3    H237621   6.095   7.494   5.437
12560TIP3   OH237622   5.661   7.423   4.777
12560TIP3    H137623   5.574   7.430   4.816
12560TIP3    H237624   5.697   7.512   4.782
12561TIP3   OH237625   6.372   7.180   5.355
12561TIP3    H137626   6.355   7.180   5.449
12561TIP3    H237627   6.449   7.123   5.344
12562TIP3   OH237628   6.369   7.063   4.220
12562TIP3    H137629   6.418   7.038   4.298
12562TIP3    H237630   6.285   7.018   4.228
12563TIP3   OH237631   6.601   7.688   5.400
12563TIP3    H137632   6.539   7.615   5.412
12563TIP3    H237633   6.572   7.731   5.320
12564TIP3   OH237634   6.668   7.546   4.034
12564TIP3    H137635   6.729   7.620   4.024
12564TIP3    H237636   6.610   7.553   3.957
12565TIP3   OH237637   5.706   6.314   5.894
12565TIP3    H137638   5.611   6.323   5.897
12565TIP3    H237639   5.728   6.262   5.971
12566TIP3   OH237640   6.540   6.983   4.418
12566TIP3    H137641   6.523   6.926   4.494
12566TIP3    H237642   6.635   6.986   4.412
12567TIP3   OH237643   5.450   7.417   5.547
12567TIP3    H137644   5.502   7.355   5.598
12567TIP3    H237645   5.467   7.502   5.587
12568TIP3   OH237646   5.724   7.027   4.241
12568TIP3    H137647   5.733   6.936   4.214
12568TIP3    H237648   5.707   7.023   4.335
12569TIP3   OH237649   5.662   7.046   4.511
12569TIP3    H137650   5.713   7.018   4.587
12569TIP3    H237651   5.661   7.141   4.516
12570TIP3   OH237652   5.392   6.729   4.711
12570TIP3    H137653   5.337   6.785   4.766
12570TIP3    H237654   5.411   6.783   4.634
12571TIP3   OH237655   6.557   6.369   5.597
12571TIP3    H137656   6.638   6.410   5.629
12571TIP3    H237657   6.547   6.291   5.652
12572TIP3   OH237658   6.452   6.109   4.785
12572TIP3    H137659   6.430   6.128   4.694
12572TIP3    H237660   6.495   6.189   4.817
12573TIP3   OH237661   5.940   7.243   4.453
12573TIP3    H137662   5.852   7.259   4.487
12573TIP3    H237663   5.955   7.312   4.389
12574TIP3   OH237664   6.103   6.309   4.872
12574TIP3    H137665   6.164   6.379   4.848
12574TIP3    H237666   6.125   6.289   4.963
12575TIP3   OH237667   6.397   6.604   5.645
12575TIP3    H137668   6.418   6.649   5.727
12575TIP3    H237669   6.448   6.523   5.648
12576TIP3   OH237670   6.265   6.005   4.962
12576TIP3    H137671   6.242   6.082   5.013
12576TIP3    H237672   6.334   6.035   4.903
12577TIP3   OH237673   5.686   7.319   4.525
12577TIP3    H137674   5.665   7.392   4.466
12577TIP3    H237675   5.673   7.356   4.612
12578TIP3   OH237676   5.778   6.029   4.770
12578TIP3    H137677   5.766   6.120   4.798
12578TIP3    H237678   5.872   6.014   4.777
12579TIP3   OH237679   7.018   6.482   5.625
12579TIP3    H137680   6.925   6.495   5.647
12579TIP3    H237681   7.017   6.420   5.552
12580TIP3   OH237682   6.677   6.704   5.023
12580TIP3    H137683   6.600   6.648   5.035
12580TIP3    H237684   6.744   6.664   5.078
12581TIP3   OH237685   5.417   6.910   4.496
12581TIP3    H137686   5.487   6.974   4.508
12581TIP3    H237687   5.451   6.848   4.432
12582TIP3   OH237688   5.300   6.219   4.645
12582TIP3    H137689   5.300   6.315   4.653
12582TIP3    H237690   5.229   6.201   4.583
12583TIP3   OH237691   6.634   7.676   4.945
12583TIP3    H137692   6.593   7.737   4.883
12583TIP3    H237693   6.726   7.701   4.947
12584TIP3   OH237694   5.733   5.928   5.502
12584TIP3    H137695   5.701   5.897   5.417
12584TIP3    H237696   5.720   5.853   5.561
12585TIP3   OH237697   5.256   7.196   4.901
12585TIP3    H137698   5.209   7.227   4.979
12585TIP3    H237699   5.207   7.234   4.828
12586TIP3   OH237700   5.452   7.712   5.967
12586TIP3    H137701   5.535   7.714   6.015
12586TIP3    H237702   5.432   7.619   5.958
12587TIP3   OH237703   5.918   7.604   6.025
12587TIP3    H137704   6.011   7.585   6.018
12587TIP3    H237705   5.878   7.560   5.949
12588TIP3   OH237706   5.876   7.224   4.125
12588TIP3    H137707   5.828   7.156   4.171
12588TIP3    H237708   5.950   7.179   4.084
12589TIP3   OH237709   6.553   7.544   5.754
12589TIP3    H137710   6.537   7.481   5.824
12589TIP3    H237711   6.645   7.569   5.765
12590TIP3   OH237712   6.320   7.272   4.050
12590TIP3    H137713   6.352   7.206   4.112
12590TIP3    H237714   6.373   7.260   3.972
12591TIP3   OH237715   5.553   7.114   6.148
12591TIP3    H137716   5.570   7.020   6.159
12591TIP3    H237717   5.468   7.118   6.104
12592TIP3   OH237718   5.548   6.721   4.349
12592TIP3    H137719   5.596   6.698   4.428
12592TIP3    H237720   5.615   6.735   4.283
12593TIP3   OH237721   6.173   7.196   5.925
12593TIP3    H137722   6.126   7.217   5.844
12593TIP3    H237723   6.203   7.107   5.913
12594TIP3   OH237724   6.118   6.945   4.192
12594TIP3    H137725   6.092   6.957   4.284
12594TIP3    H237726   6.096   6.853   4.173
12595TIP3   OH237727   6.640   7.243   5.547
12595TIP3    H137728   6.716   7.272   5.496
12595TIP3    H237729   6.573   7.308   5.528
12596TIP3   OH237730   5.668   6.861   6.163
12596TIP3    H137731   5.741   6.840   6.105
12596TIP3    H237732   5.709   6.879   6.247
12597TIP3   OH237733   5.716   6.665   4.567
12597TIP3    H137734   5.691   6.637   4.655
12597TIP3    H237735   5.762   6.590   4.530
12598TIP3   OH237736   6.032   6.749   5.822
12598TIP3    H137737   5.943   6.783   5.830
12598TIP3    H237738   6.061   6.777   5.735
12599TIP3   OH237739   5.857   6.481   4.409
12599TIP3    H137740   5.826   6.486   4.319
12599TIP3    H237741   5.952   6.491   4.403
12600TIP3   OH237742   6.535   7.123   5.927
12600TIP3    H137743   6.630   7.121   5.922
12600TIP3    H237744   6.513   7.051   5.986
12601TIP3   OH237745   6.648   6.773   4.090
12601TIP3    H137746   6.634   6.733   4.004
12601TIP3    H237747   6.627   6.866   4.076
12602TIP3   OH237748   6.140   6.517   5.921
12602TIP3    H137749   6.139   6.447   5.856
12602TIP3    H237750   6.103   6.593   5.875
12603TIP3   OH237751   6.143   6.316   5.722
12603TIP3    H137752   6.167   6.353   5.637
12603TIP3    H237753   6.051   6.291   5.711
12604TIP3   OH237754   6.150   6.850   5.598
12604TIP3    H137755   6.237   6.886   5.581
12604TIP3    H237756   6.090   6.905   5.547
12605TIP3   OH237757   6.777   6.779   6.043
12605TIP3    H137758   6.775   6.703   5.985
12605TIP3    H237759   6.861   6.821   6.024
12606TIP3   OH237760   6.781   7.041   5.669
12606TIP3    H137761   6.724   7.109   5.633
12606TIP3    H237762   6.869   7.076   5.656
12607TIP3   OH237763   6.016   6.592   6.163
12607TIP3    H137764   5.947   6.529   6.181
12607TIP3    H237765   6.045   6.572   6.074
12608TIP3   OH237766   6.262   6.086   5.825
12608TIP3    H137767   6.222   6.166   5.791
12608TIP3    H237768   6.195   6.018   5.812
12609TIP3   OH237769   6.393   6.555   6.028
12609TIP3    H137770   6.376   6.541   6.122
12609TIP3    H237771   6.310   6.535   5.986
12610TIP3   OH237772   6.651   6.543   5.915
12610TIP3    H137773   6.568   6.528   5.961
12610TIP3    H237774   6.716   6.498   5.968
12611TIP3   OH237775   6.878   6.469   6.054
12611TIP3    H137776   6.888   6.374   6.058
12611TIP3    H237777   6.872   6.496   6.146
12612TIP3   OH237778   5.849   6.377   6.231
12612TIP3    H137779   5.853   6.288   6.195
12612TIP3    H237780   5.890   6.369   6.318
12613TIP3   OH237781   6.327   6.057   6.089
12613TIP3    H137782   6.395   5.990   6.082
12613TIP3    H237783   6.297   6.069   5.998
12614TIP3   OH237784   6.426   6.278   6.218
12614TIP3    H137785   6.392   6.206   6.165
12614TIP3    H237786   6.354   6.341   6.222
12615TIP3   OH237787   5.690   7.534   4.347
12615TIP3    H137788   5.774   7.507   4.310
12615TIP3    H237789   5.645   7.578   4.275
12616TIP3   OH237790   5.141   6.921   4.478
12616TIP3    H137791   5.234   6.927   4.500
12616TIP3    H237792   5.129   6.829   4.452
12617TIP3   OH237793   5.051   7.495   4.984
12617TIP3    H137794   4.986   7.444   4.937
12617TIP3    H237795   5.093   7.433   5.043
12618TIP3   OH237796   5.190   7.326   5.153
12618TIP3    H137797   5.183   7.255   5.216
12618TIP3    H237798   5.242   7.393   5.197
12619TIP3   OH237799   6.891   7.756   4.967
12619TIP3    H137800   6.923   7.773   5.055
12619TIP3    H237801   6.969   7.762   4.912
12620TIP3   OH237802   6.945   7.762   5.240
12620TIP3    H137803   6.895   7.680   5.245
12620TIP3    H237804   7.004   7.758   5.316
12621TIP3   OH237805   6.816   6.969   4.423
12621TIP3    H137806   6.877   7.035   4.389
12621TIP3    H237807   6.862   6.931   4.498
12622TIP3   OH237808   6.950   6.830   4.620
12622TIP3    H137809   6.884   6.792   4.677
12622TIP3    H237810   7.016   6.866   4.680
12623TIP3   OH237811   6.986   7.217   5.056
12623TIP3    H137812   7.043   7.151   5.017
12623TIP3    H237813   6.986   7.289   4.994
12624TIP3   OH237814   6.789   7.536   5.252
12624TIP3    H137815   6.723   7.577   5.308
12624TIP3    H237816   6.739   7.494   5.182
12625TIP3   OH237817   6.857   6.749   4.265
12625TIP3    H137818   6.785   6.750   4.202
12625TIP3    H237819   6.841   6.825   4.321
12626TIP3   OH237820   6.715   6.397   4.200
12626TIP3    H137821   6.665   6.433   4.127
12626TIP3    H237822   6.707   6.302   4.190
12627TIP3   OH237823   6.747   6.694   4.755
12627TIP3    H137824   6.750   6.599   4.741
12627TIP3    H237825   6.727   6.704   4.848
12628TIP3   OH237826   5.341   6.700   5.513
12628TIP3    H137827   5.304   6.679   5.427
12628TIP3    H237828   5.436   6.703   5.498
12629TIP3   OH237829   7.041   7.123   5.664
12629TIP3    H137830   7.116   7.064   5.655
12629TIP3    H237831   7.069   7.203   5.619
12630TIP3   OH237832   7.228   6.916   5.634
12630TIP3    H137833   7.148   6.868   5.654
12630TIP3    H237834   7.298   6.851   5.647
12631TIP3   OH237835   6.675   6.124   4.169
12631TIP3    H137836   6.739   6.101   4.236
12631TIP3    H237837   6.592   6.090   4.202
12632TIP3   OH237838   6.742   6.419   4.643
12632TIP3    H137839   6.787   6.336   4.655
12632TIP3    H237840   6.782   6.457   4.565
12633TIP3   OH237841   6.892   6.579   5.160
12633TIP3    H137842   6.974   6.596   5.112
12633TIP3    H237843   6.907   6.618   5.246
12634TIP3   OH237844   6.965   6.724   5.385
12634TIP3    H137845   6.891   6.749   5.440
12634TIP3    H237846   6.992   6.806   5.342
12635TIP3   OH237847   5.586   6.443   6.177
12635TIP3    H137848   5.680   6.436   6.192
12635TIP3    H237849   5.551   6.361   6.211
12636TIP3   OH237850   7.420   6.316   5.944
12636TIP3    H137851   7.475   6.253   5.896
12636TIP3    H237852   7.383   6.371   5.875
12637TIP3   OH237853   6.858   6.170   4.694
12637TIP3    H137854   6.902   6.155   4.778
12637TIP3    H237855   6.795   6.098   4.688
12638TIP3   OH237856   5.552   6.139   5.534
12638TIP3    H137857   5.620   6.072   5.531
12638TIP3    H237858   5.596   6.220   5.506
12639TIP3   OH237859   5.334   6.424   5.586
12639TIP3    H137860   5.401   6.399   5.523
12639TIP3    H237861   5.319   6.517   5.571
12640TIP3   OH237862   7.268   6.456   5.766
12640TIP3    H137863   7.206   6.504   5.820
12640TIP3    H237864   7.214   6.414   5.698
12641TIP3   OH237865   6.899   6.082   4.331
12641TIP3    H137866   6.948   6.022   4.275
12641TIP3    H237867   6.955   6.160   4.337
12642TIP3   OH237868   5.336   5.920   5.090
12642TIP3    H137869   5.250   5.907   5.130
12642TIP3    H237870   5.319   5.974   5.013
12643TIP3   OH237871   6.537   7.632   4.602
12643TIP3    H137872   6.613   7.578   4.622
12643TIP3    H237873   6.540   7.703   4.667
12644TIP3   OH237874   5.558   5.972   5.904
12644TIP3    H137875   5.509   5.972   5.986
12644TIP3    H237876   5.505   6.025   5.844
12645TIP3   OH237877   5.588   7.432   5.984
12645TIP3    H137878   5.494   7.415   5.970
12645TIP3    H237879   5.601   7.419   6.077
12646TIP3   OH237880   5.793   7.488   5.533
12646TIP3    H137881   5.742   7.562   5.500
12646TIP3    H237882   5.878   7.496   5.490
12647TIP3   OH237883   6.191   7.728   5.666
12647TIP3    H137884   6.232   7.716   5.752
12647TIP3    H237885   6.259   7.772   5.614
12648TIP3   OH237886   6.395   7.856   5.527
12648TIP3    H137887   6.463   7.799   5.491
12648TIP3    H237888   6.442   7.916   5.584
12649TIP3   OH237889   7.181   6.196   5.626
12649TIP3    H137890   7.098   6.194   5.579
12649TIP3    H237891   7.216   6.108   5.616
12650TIP3   OH237892   5.455   7.723   5.577
12650TIP3    H137893   5.364   7.741   5.554
12650TIP3    H237894   5.477   7.789   5.642
12651TIP3   OH237895   5.685   7.717   5.426
12651TIP3    H137896   5.602   7.721   5.474
12651TIP3    H237897   5.662   7.742   5.336
12652TIP3   OH237898   6.091   7.734   5.214
12652TIP3    H137899   6.014   7.746   5.157
12652TIP3    H237900   6.100   7.818   5.259
12653TIP3   OH237901   6.346   7.649   5.252
12653TIP3    H137902   6.256   7.678   5.238
12653TIP3    H237903   6.400   7.719   5.215
12654TIP3   OH237904   6.545   7.820   5.163
12654TIP3    H137905   6.536   7.908   5.126
12654TIP3    H237906   6.577   7.766   5.091
12655TIP3   OH237907   5.365   7.504   5.297
12655TIP3    H137908   5.391   7.478   5.386
12655TIP3    H237909   5.438   7.475   5.242
12656TIP3   OH237910   5.573   7.403   5.155
12656TIP3    H137911   5.585   7.321   5.202
12656TIP3    H237912   5.660   7.445   5.156
12657TIP3   OH237913   5.842   7.485   5.175
12657TIP3    H137914   5.861   7.392   5.158
12657TIP3    H237915   5.892   7.505   5.254
12658TIP3   OH237916   6.402   6.123   5.270
12658TIP3    H137917   6.360   6.052   5.319
12658TIP3    H237918   6.469   6.080   5.217
12659TIP3   OH237919   6.901   6.042   5.156
12659TIP3    H137920   6.936   6.091   5.082
12659TIP3    H237921   6.807   6.060   5.156
12660TIP3   OH237922   7.014   6.118   4.918
12660TIP3    H137923   7.083   6.057   4.892
12660TIP3    H237924   7.052   6.205   4.904
12661TIP3   OH237925   5.639   5.825   5.263
12661TIP3    H137926   5.550   5.792   5.273
12661TIP3    H237927   5.693   5.747   5.254
12662TIP3   OH237928   5.469   5.733   4.921
12662TIP3    H137929   5.489   5.783   4.842
12662TIP3    H237930   5.429   5.797   4.980
12663TIP3   OH237931   6.123   5.861   5.161
12663TIP3    H137932   6.169   5.910   5.092
12663TIP3    H237933   6.162   5.893   5.243
12664TIP3   OH237934   6.614   6.003   5.137
12664TIP3    H137935   6.625   5.968   5.049
12664TIP3    H237936   6.621   5.927   5.195
12665TIP3   OH237937   6.672   5.960   4.702
12665TIP3    H137938   6.593   6.006   4.727
12665TIP3    H237939   6.662   5.872   4.741
12666TIP3   OH237940   5.127   7.307   4.685
12666TIP3    H137941   5.043   7.273   4.651
12666TIP3    H237942   5.133   7.395   4.650
12667TIP3   OH237943   5.568   5.862   4.680
12667TIP3    H137944   5.614   5.800   4.623
12667TIP3    H237945   5.638   5.918   4.715
12668TIP3   OH237946   6.054   6.057   4.777
12668TIP3    H137947   6.112   6.005   4.832
12668TIP3    H237948   6.068   6.148   4.805
12669TIP3   OH237949   5.935   7.450   4.263
12669TIP3    H137950   6.018   7.479   4.225
12669TIP3    H237951   5.907   7.378   4.207
12670TIP3   OH237952   6.560   7.587   4.292
12670TIP3    H137953   6.569   7.497   4.323
12670TIP3    H237954   6.583   7.583   4.199
12671TIP3   OH237955   5.864   6.107   6.145
12671TIP3    H137956   5.829   6.040   6.205
12671TIP3    H237957   5.957   6.114   6.169
12672TIP3   OH237958   6.114   6.113   6.263
12672TIP3    H137959   6.191   6.089   6.210
12672TIP3    H237960   6.106   6.042   6.327
12673TIP3   OH237961   5.246   7.299   4.327
12673TIP3    H137962   5.243   7.303   4.423
12673TIP3    H237963   5.326   7.250   4.308
12674TIP3   OH237964   6.929   6.199   6.044
12674TIP3    H137965   6.949   6.171   6.134
12674TIP3    H237966   7.013   6.195   5.999
12675TIP3   OH237967   8.118   7.095   4.324
12675TIP3    H137968   8.089   7.181   4.292
12675TIP3    H237969   8.051   7.034   4.292
12676TIP3   OH237970   8.064   7.083   4.732
12676TIP3    H137971   8.159   7.068   4.738
12676TIP3    H237972   8.028   6.997   4.708
12677TIP3   OH237973   7.426   6.970   5.069
12677TIP3    H137974   7.457   6.907   5.134
12677TIP3    H237975   7.497   6.976   5.005
12678TIP3   OH237976   7.396   7.375   4.792
12678TIP3    H137977   7.379   7.281   4.784
12678TIP3    H237978   7.490   7.383   4.779
12679TIP3   OH237979   7.101   6.607   4.535
12679TIP3    H137980   7.062   6.691   4.561
12679TIP3    H237981   7.029   6.557   4.497
12680TIP3   OH237982   7.181   6.912   4.758
12680TIP3    H137983   7.231   6.835   4.784
12680TIP3    H237984   7.247   6.977   4.733
12681TIP3   OH237985   7.957   7.333   4.765
12681TIP3    H137986   7.974   7.241   4.745
12681TIP3    H237987   8.042   7.376   4.752
12682TIP3   OH237988   8.326   6.855   4.753
12682TIP3    H137989   8.352   6.772   4.793
12682TIP3    H237990   8.284   6.830   4.671
12683TIP3   OH237991   7.696   6.479   4.721
12683TIP3    H137992   7.674   6.552   4.662
12683TIP3    H237993   7.642   6.406   4.690
12684TIP3   OH237994   8.385   6.584   4.366
12684TIP3    H137995   8.453   6.567   4.431
12684TIP3    H237996   8.432   6.618   4.290
12685TIP3   OH237997   7.324   6.695   4.853
12685TIP3    H137998   7.406   6.672   4.897
12685TIP3    H237999   7.324   6.643   4.773
12686TIP3   OH238000   7.740   6.881   4.667
12686TIP3    H138001   7.833   6.861   4.669
12686TIP3    H238002   7.699   6.803   4.631
12687TIP3   OH238003   7.674   6.481   5.177
12687TIP3    H138004   7.622   6.514   5.104
12687TIP3    H238005   7.619   6.493   5.254
12688TIP3   OH238006   8.026   7.299   4.164
12688TIP3    H138007   7.986   7.270   4.082
12688TIP3    H238008   7.980   7.379   4.187
12689TIP3   OH238009   7.766   7.237   4.948
12689TIP3    H138010   7.722   7.314   4.982
12689TIP3    H238011   7.838   7.271   4.895
12690TIP3   OH238012   0.059   6.593   4.581
12690TIP3    H138013   0.003   6.579   4.658
12690TIP3    H238014   0.067   6.688   4.575
12691TIP3   OH238015   7.568   6.585   4.942
12691TIP3    H138016   7.626   6.658   4.965
12691TIP3    H238017   7.612   6.541   4.870
12692TIP3   OH238018   6.987   7.143   4.296
12692TIP3    H138019   6.952   7.161   4.208
12692TIP3    H238020   6.991   7.229   4.337
12693TIP3   OH238021   8.011   6.172   4.900
12693TIP3    H138022   8.005   6.081   4.930
12693TIP3    H238023   7.936   6.215   4.940
12694TIP3   OH238024   8.252   7.465   4.192
12694TIP3    H138025   8.185   7.397   4.180
12694TIP3    H238026   8.323   7.440   4.133
12695TIP3   OH238027   7.955   6.946   4.153
12695TIP3    H138028   7.871   6.987   4.131
12695TIP3    H238029   8.003   6.943   4.070
12696TIP3   OH238030   7.928   6.767   3.835
12696TIP3    H138031   7.994   6.815   3.885
12696TIP3    H238032   7.976   6.698   3.791
12697TIP3   OH238033   8.301   7.052   4.120
12697TIP3    H138034   8.245   7.074   4.195
12697TIP3    H238035   8.379   7.013   4.159
12698TIP3   OH238036   7.542   7.015   4.520
12698TIP3    H138037   7.503   6.956   4.455
12698TIP3    H238038   7.613   6.964   4.560
12699TIP3   OH238039   7.662   7.400   4.693
12699TIP3    H138040   7.629   7.389   4.604
12699TIP3    H238041   7.749   7.360   4.692
12700TIP3   OH238042   7.634   7.006   4.888
12700TIP3    H138043   7.674   6.971   4.808
12700TIP3    H238044   7.684   7.085   4.907
12701TIP3   OH238045   8.140   6.913   3.946
12701TIP3    H138046   8.198   6.968   3.998
12701TIP3    H238047   8.166   6.931   3.855
12702TIP3   OH238048   7.520   7.127   5.294
12702TIP3    H138049   7.488   7.127   5.204
12702TIP3    H238050   7.446   7.097   5.346
12703TIP3   OH238051   7.914   7.543   4.189
12703TIP3    H138052   7.948   7.594   4.262
12703TIP3    H238053   7.957   7.579   4.112
12704TIP3   OH238054   0.149   6.124   4.022
12704TIP3    H138055   0.069   6.167   4.052
12704TIP3    H238056   0.190   6.188   3.963
12705TIP3   OH238057   7.419   6.864   4.317
12705TIP3    H138058   7.341   6.911   4.288
12705TIP3    H238059   7.390   6.774   4.330
12706TIP3   OH238060   7.194   7.256   5.246
12706TIP3    H138061   7.119   7.237   5.191
12706TIP3    H238062   7.218   7.172   5.284
12707TIP3   OH238063   7.024   7.445   4.907
12707TIP3    H138064   7.117   7.465   4.918
12707TIP3    H238065   6.978   7.516   4.952
12708TIP3   OH238066   7.735   7.761   4.069
12708TIP3    H138067   7.763   7.711   3.992
12708TIP3    H238068   7.805   7.826   4.082
12709TIP3   OH238069   7.168   7.629   4.431
12709TIP3    H138070   7.213   7.613   4.514
12709TIP3    H238071   7.200   7.560   4.372
12710TIP3   OH238072   7.364   7.463   5.201
12710TIP3    H138073   7.433   7.449   5.267
12710TIP3    H238074   7.305   7.388   5.213
12711TIP3   OH238075   7.781   6.268   5.031
12711TIP3    H138076   7.698   6.234   5.000
12711TIP3    H238077   7.758   6.348   5.079
12712TIP3   OH238078   8.299   6.393   5.218
12712TIP3    H138079   8.364   6.347   5.271
12712TIP3    H238080   8.216   6.377   5.262
12713TIP3   OH238081   8.209   6.937   3.683
12713TIP3    H138082   8.179   6.912   3.595
12713TIP3    H238083   8.301   6.961   3.670
12714TIP3   OH238084   7.925   6.317   3.999
12714TIP3    H138085   7.889   6.321   4.088
12714TIP3    H238086   7.894   6.233   3.964
12715TIP3   OH238087   7.731   6.791   5.032
12715TIP3    H138088   7.683   6.793   5.115
12715TIP3    H238089   7.703   6.870   4.986
12716TIP3   OH238090   7.594   6.677   4.559
12716TIP3    H138091   7.506   6.651   4.585
12716TIP3    H238092   7.604   6.644   4.469
12717TIP3   OH238093   8.077   6.743   4.285
12717TIP3    H138094   8.029   6.815   4.244
12717TIP3    H238095   8.137   6.713   4.217
12718TIP3   OH238096   8.225   6.760   4.515
12718TIP3    H138097   8.165   6.779   4.443
12718TIP3    H238098   8.279   6.688   4.483
12719TIP3   OH238099   7.556   6.793   5.244
12719TIP3    H138100   7.611   6.845   5.303
12719TIP3    H238101   7.533   6.715   5.295
12720TIP3   OH238102   7.599   6.294   3.976
12720TIP3    H138103   7.589   6.296   4.071
12720TIP3    H238104   7.520   6.338   3.943
12721TIP3   OH238105   7.147   6.338   4.839
12721TIP3    H138106   7.220   6.372   4.891
12721TIP3    H238107   7.187   6.316   4.755
12722TIP3   OH238108   7.054   6.314   4.346
12722TIP3    H138109   7.099   6.349   4.269
12722TIP3    H238110   6.990   6.381   4.369
12723TIP3   OH238111   7.962   6.471   4.613
12723TIP3    H138112   7.884   6.469   4.669
12723TIP3    H238113   8.035   6.455   4.672
12724TIP3   OH238114   7.358   6.553   4.621
12724TIP3    H138115   7.271   6.558   4.583
12724TIP3    H238116   7.386   6.463   4.605
12725TIP3   OH238117   7.610   6.558   4.313
12725TIP3    H138118   7.705   6.567   4.305
12725TIP3    H238119   7.576   6.576   4.225
12726TIP3   OH238120   8.373   6.577   4.790
12726TIP3    H138121   8.374   6.584   4.885
12726TIP3    H238122   8.308   6.510   4.771
12727TIP3   OH238123   7.501   6.587   4.063
12727TIP3    H138124   7.438   6.536   4.012
12727TIP3    H238125   7.557   6.629   3.998
12728TIP3   OH238126   8.005   6.809   4.699
12728TIP3    H138127   8.074   6.775   4.643
12728TIP3    H238128   8.011   6.758   4.779
12729TIP3   OH238129   7.505   6.306   4.606
12729TIP3    H138130   7.477   6.231   4.658
12729TIP3    H238131   7.527   6.268   4.521
12730TIP3   OH238132   7.985   6.710   4.968
12730TIP3    H138133   7.896   6.740   4.987
12730TIP3    H238134   8.042   6.773   5.012
12731TIP3   OH238135   7.723   7.078   4.088
12731TIP3    H138136   7.645   7.028   4.067
12731TIP3    H238137   7.705   7.117   4.174
12732TIP3   OH238138   8.179   6.415   4.012
12732TIP3    H138139   8.086   6.396   4.005
12732TIP3    H238140   8.183   6.511   4.020
12733TIP3   OH238141   8.239   6.680   4.070
12733TIP3    H138142   8.334   6.681   4.083
12733TIP3    H238143   8.221   6.757   4.017
12734TIP3   OH238144   7.405   7.097   4.745
12734TIP3    H138145   7.443   7.083   4.658
12734TIP3    H238146   7.472   7.067   4.806
12735TIP3   OH238147   7.868   7.243   3.930
12735TIP3    H138148   7.800   7.310   3.926
12735TIP3    H238149   7.828   7.171   3.980
12736TIP3   OH238150   7.274   7.026   5.385
12736TIP3    H138151   7.272   6.998   5.476
12736TIP3    H238152   7.199   6.983   5.344
12737TIP3   OH238153   7.551   7.407   4.439
12737TIP3    H138154   7.570   7.471   4.371
12737TIP3    H238155   7.456   7.394   4.434
12738TIP3   OH238156   7.096   6.735   4.127
12738TIP3    H138157   7.140   6.816   4.151
12738TIP3    H238158   7.015   6.736   4.178
12739TIP3   OH238159   7.658   7.179   4.330
12739TIP3    H138160   7.633   7.266   4.363
12739TIP3    H238161   7.623   7.118   4.395
12740TIP3   OH238162   7.369   7.737   4.145
12740TIP3    H138163   7.340   7.802   4.209
12740TIP3    H238164   7.453   7.706   4.178
12741TIP3   OH238165   8.154   7.224   3.653
12741TIP3    H138166   8.223   7.206   3.717
12741TIP3    H238167   8.108   7.141   3.643
12742TIP3   OH238168   7.499   6.554   5.379
12742TIP3    H138169   7.404   6.567   5.385
12742TIP3    H238170   7.524   6.519   5.464
12743TIP3   OH238171   8.333   7.169   3.868
12743TIP3    H138172   8.318   7.136   3.956
12743TIP3    H238173   8.414   7.219   3.874
12744TIP3   OH238174   7.228   7.645   5.052
12744TIP3    H138175   7.270   7.575   5.102
12744TIP3    H238176   7.240   7.723   5.107
12745TIP3   OH238177   7.502   7.286   3.716
12745TIP3    H138178   7.516   7.194   3.693
12745TIP3    H238179   7.558   7.301   3.792
12746TIP3   OH238180   7.411   7.308   4.064
12746TIP3    H138181   7.503   7.284   4.073
12746TIP3    H238182   7.412   7.389   4.013
12747TIP3   OH238183   7.194   6.982   4.209
12747TIP3    H138184   7.128   7.027   4.261
12747TIP3    H238185   7.207   7.038   4.132
12748TIP3   OH238186   8.352   6.610   5.059
12748TIP3    H138187   8.376   6.675   5.126
12748TIP3    H238188   8.332   6.531   5.109
12749TIP3   OH238189   8.236   6.367   4.278
12749TIP3    H138190   8.218   6.383   4.185
12749TIP3    H238191   8.281   6.446   4.308
12750TIP3   OH238192   7.657   7.416   3.910
12750TIP3    H138193   7.577   7.465   3.928
12750TIP3    H238194   7.723   7.483   3.893
12751TIP3   OH238195   7.886   6.563   4.363
12751TIP3    H138196   7.951   6.627   4.335
12751TIP3    H238197   7.911   6.542   4.453
12752TIP3   OH238198   8.053   6.260   4.450
12752TIP3    H138199   8.029   6.336   4.502
12752TIP3    H238200   8.122   6.291   4.391
12753TIP3   OH238201   7.420   7.554   3.946
12753TIP3    H138202   7.419   7.606   3.866
12753TIP3    H238203   7.391   7.614   4.015
12754TIP3   OH238204   7.569   6.285   4.255
12754TIP3    H138205   7.558   6.375   4.284
12754TIP3    H238206   7.663   6.268   4.261
12755TIP3   OH238207   8.501   6.876   4.529
12755TIP3    H138208   8.413   6.869   4.493
12755TIP3    H238209   8.489   6.913   4.616
12756TIP3   OH238210   7.195   7.158   3.990
12756TIP3    H138211   7.265   7.218   4.018
12756TIP3    H238212   7.236   7.103   3.924
12757TIP3   OH238213   7.119   6.458   4.123
12757TIP3    H138214   7.132   6.553   4.131
12757TIP3    H238215   7.056   6.449   4.051
12758TIP3   OH238216   7.521   6.181   4.993
12758TIP3    H138217   7.491   6.149   4.908
12758TIP3    H238218   7.513   6.106   5.052
12759TIP3   OH238219   6.982   7.398   4.396
12759TIP3    H138220   6.988   7.442   4.480
12759TIP3    H238221   6.975   7.469   4.332
12760TIP3   OH238222   7.675   7.467   3.590
12760TIP3    H138223   7.603   7.418   3.631
12760TIP3    H238224   7.749   7.407   3.593
12761TIP3   OH238225   7.335   6.981   3.837
12761TIP3    H138226   7.385   6.953   3.914
12761TIP3    H238227   7.402   6.994   3.769
12762TIP3   OH238228   7.822   7.203   3.655
12762TIP3    H138229   7.842   7.208   3.748
12762TIP3    H238230   7.826   7.109   3.635
12763TIP3   OH238231   7.506   6.914   4.047
12763TIP3    H138232   7.486   6.882   4.135
12763TIP3    H238233   7.554   6.842   4.007
12764TIP3   OH238234   7.758   6.984   5.305
12764TIP3    H138235   7.681   7.040   5.316
12764TIP3    H238236   7.822   7.039   5.262
12765TIP3   OH238237   7.655   6.737   3.891
12765TIP3    H138238   7.625   6.740   3.800
12765TIP3    H238239   7.750   6.743   3.885
12766TIP3   OH238240   7.844   6.739   5.434
12766TIP3    H138241   7.889   6.688   5.367
12766TIP3    H238242   7.829   6.824   5.393
12767TIP3   OH238243   7.932   6.566   5.215
12767TIP3    H138244   7.961   6.591   5.127
12767TIP3    H238245   7.841   6.539   5.204
12768TIP3   OH238246   8.051   6.339   5.324
12768TIP3    H138247   8.008   6.419   5.295
12768TIP3    H238248   7.986   6.270   5.310
12769TIP3   OH238249   7.639   6.619   5.683
12769TIP3    H138250   7.651   6.524   5.675
12769TIP3    H238251   7.720   6.656   5.647
12770TIP3   OH238252   8.140   6.317   5.583
12770TIP3    H138253   8.207   6.250   5.575
12770TIP3    H238254   8.109   6.331   5.493
12771TIP3   OH238255   7.441   7.768   3.782
12771TIP3    H138256   7.498   7.830   3.827
12771TIP3    H238257   7.421   7.809   3.698
12772TIP3   OH238258   6.925   7.161   4.014
12772TIP3    H138259   7.020   7.171   4.007
12772TIP3    H238260   6.906   7.078   3.971
12773TIP3   OH238261   6.816   7.697   4.457
12773TIP3    H138262   6.828   7.648   4.376
12773TIP3    H238263   6.855   7.642   4.525
12774TIP3   OH238264   6.945   7.549   4.650
12774TIP3    H138265   6.944   7.474   4.710
12774TIP3    H238266   6.996   7.615   4.695
12775TIP3   OH238267   8.492   6.656   3.663
12775TIP3    H138268   8.447   6.661   3.579
12775TIP3    H238269   8.483   6.564   3.689
12776TIP3   OH238270   0.006   6.924   4.248
12776TIP3    H138271   0.040   6.842   4.213
12776TIP3    H238272   0.039   6.928   4.337
12777TIP3   OH238273   7.161   7.009   5.012
12777TIP3    H138274   7.152   6.976   4.923
12777TIP3    H238275   7.254   7.004   5.031
12778TIP3   OH238276   8.459   6.389   3.703
12778TIP3    H138277   8.508   6.316   3.666
12778TIP3    H238278   8.372   6.354   3.720
12779TIP3   OH238279   0.021   6.666   4.121
12779TIP3    H138280   0.061   6.583   4.147
12779TIP3    H238281   0.065   6.689   4.039
12780TIP3   OH238282   7.375   6.683   5.651
12780TIP3    H138283   7.470   6.679   5.664
12780TIP3    H238284   7.341   6.607   5.698
12781TIP3   OH238285   0.127   6.433   4.208
12781TIP3    H138286   0.186   6.414   4.282
12781TIP3    H238287   0.072   6.355   4.201
12782TIP3   OH238288   7.358   6.405   5.008
12782TIP3    H138289   7.410   6.326   5.015
12782TIP3    H238290   7.422   6.474   4.990
12783TIP3   OH238291   7.140   6.665   5.068
12783TIP3    H138292   7.191   6.661   4.988
12783TIP3    H238293   7.174   6.741   5.115
12784TIP3   OH238294   7.128   6.184   4.574
12784TIP3    H138295   7.043   6.171   4.615
12784TIP3    H238296   7.110   6.237   4.497
12785TIP3   OH238297   7.348   6.232   5.397
12785TIP3    H138298   7.301   6.234   5.480
12785TIP3    H238299   7.294   6.284   5.338
12786TIP3   OH238300   7.115   7.716   4.808
12786TIP3    H138301   7.155   7.705   4.894
12786TIP3    H238302   7.183   7.689   4.746
12787TIP3   OH238303   7.311   7.598   4.662
12787TIP3    H138304   7.322   7.513   4.703
12787TIP3    H238305   7.397   7.640   4.670
12788TIP3   OH238306   7.586   7.661   4.639
12788TIP3    H138307   7.610   7.579   4.681
12788TIP3    H238308   7.624   7.729   4.695
12789TIP3   OH238309   8.184   6.366   4.746
12789TIP3    H138310   8.145   6.295   4.796
12789TIP3    H238311   8.258   6.326   4.701
12790TIP3   OH238312   0.195   6.311   4.659
12790TIP3    H138313   0.202   6.369   4.583
12790TIP3    H238314   0.102   6.311   4.681
12791TIP3   OH238315   0.309   6.396   4.414
12791TIP3    H138316   0.370   6.330   4.445
12791TIP3    H238317   0.364   6.466   4.380
12792TIP3   OH238318   7.433   6.080   4.751
12792TIP3    H138319   7.344   6.047   4.762
12792TIP3    H238320   7.487   6.002   4.744
12793TIP3   OH238321   7.249   5.989   4.403
12793TIP3    H138322   7.277   6.038   4.326
12793TIP3    H238323   7.215   6.055   4.463
12794TIP3   OH238324   7.906   6.119   4.643
12794TIP3    H138325   7.956   6.164   4.575
12794TIP3    H238326   7.947   6.145   4.725
12795TIP3   OH238327   8.411   6.252   4.633
12795TIP3    H138328   8.439   6.218   4.548
12795TIP3    H238329   8.412   6.176   4.690
12796TIP3   OH238330   8.458   6.217   4.204
12796TIP3    H138331   8.374   6.257   4.226
12796TIP3    H238332   8.453   6.129   4.240
12797TIP3   OH238333   6.893   7.591   4.212
12797TIP3    H138334   6.829   7.529   4.176
12797TIP3    H238335   6.901   7.659   4.145
12798TIP3   OH238336   7.360   6.117   4.167
12798TIP3    H138337   7.405   6.055   4.110
12798TIP3    H238338   7.429   6.173   4.202
12799TIP3   OH238339   7.843   6.312   4.263
12799TIP3    H138340   7.902   6.258   4.316
12799TIP3    H238341   7.859   6.402   4.294
12800TIP3   OH238342   7.746   7.732   3.636
12800TIP3    H138343   7.728   7.775   3.552
12800TIP3    H238344   7.711   7.644   3.625
12801TIP3   OH238345   7.651   6.341   5.639
12801TIP3    H138346   7.611   6.273   5.694
12801TIP3    H238347   7.744   6.340   5.665
12802TIP3   OH238348   7.907   6.331   5.732
12802TIP3    H138349   7.982   6.356   5.678
12802TIP3    H238350   7.936   6.251   5.777
12803TIP3   OH238351   7.050   7.548   3.826
12803TIP3    H138352   7.073   7.566   3.917
12803TIP3    H238353   7.124   7.499   3.791
12804TIP3   OH238354   1.426   7.435   6.408
12804TIP3    H138355   1.452   7.513   6.457
12804TIP3    H238356   1.470   7.444   6.323
12805TIP3   OH238357   0.873   7.296   6.036
12805TIP3    H138358   0.908   7.332   6.118
12805TIP3    H238359   0.897   7.361   5.969
12806TIP3   OH238360   1.494   7.635   6.588
12806TIP3    H138361   1.474   7.726   6.564
12806TIP3    H238362   1.426   7.611   6.650
12807TIP3   OH238363   1.030   7.404   6.255
12807TIP3    H138364   1.096   7.342   6.225
12807TIP3    H238365   1.078   7.484   6.275
12808TIP3   OH238366   1.200   7.360   6.552
12808TIP3    H138367   1.125   7.381   6.497
12808TIP3    H238368   1.276   7.378   6.497
12809TIP3   OH238369   1.110   6.923   5.701
12809TIP3    H138370   1.036   6.952   5.754
12809TIP3    H238371   1.129   6.998   5.644
12810TIP3   OH238372   1.123   7.545   5.589
12810TIP3    H138373   1.069   7.501   5.523
12810TIP3    H238374   1.125   7.637   5.561
12811TIP3   OH238375   1.303   7.530   6.755
12811TIP3    H138376   1.243   7.537   6.830
12811TIP3    H238377   1.263   7.465   6.698
12812TIP3   OH238378   0.915   7.686   6.206
12812TIP3    H138379   0.874   7.602   6.229
12812TIP3    H238380   1.000   7.683   6.251
12813TIP3   OH238381   0.946   7.794   5.252
12813TIP3    H138382   0.890   7.740   5.197
12813TIP3    H238383   1.010   7.832   5.192
12814TIP3   OH238384   1.027   8.003   5.631
12814TIP3    H138385   1.095   8.060   5.593
12814TIP3    H238386   1.072   7.956   5.701
12815TIP3   OH238387   1.196   7.864   5.802
12815TIP3    H138388   1.138   7.819   5.863
12815TIP3    H238389   1.260   7.909   5.857
12816TIP3   OH238390   1.120   7.790   5.465
12816TIP3    H138391   1.050   7.790   5.399
12816TIP3    H238392   1.098   7.863   5.522
12817TIP3   OH238393   0.990   7.434   5.378
12817TIP3    H138394   0.935   7.479   5.314
12817TIP3    H238395   0.975   7.341   5.363
12818TIP3   OH238396   1.032   7.715   5.958
12818TIP3    H138397   1.017   7.626   5.925
12818TIP3    H238398   0.980   7.720   6.038
12819TIP3   OH238399   0.953   7.159   5.359
12819TIP3    H138400   1.017   7.145   5.429
12819TIP3    H238401   0.870   7.128   5.396
12820TIP3   OH238402   1.015   7.458   5.842
12820TIP3    H138403   1.063   7.375   5.844
12820TIP3    H238404   1.037   7.496   5.757
12821TIP3   OH238405   1.155   7.636   6.342
12821TIP3    H138406   1.234   7.667   6.298
12821TIP3    H238407   1.150   7.690   6.421
12822TIP3   OH238408   7.403   3.410   0.139
12822TIP3    H138409   7.449   3.333   0.103
12822TIP3    H238410   7.356   3.446   0.064
12823TIP3   OH238411   1.131   7.205   5.861
12823TIP3    H138412   1.172   7.195   5.947
12823TIP3    H238413   1.056   7.146   5.863
12824TIP3   OH238414   1.586   7.459   6.852
12824TIP3    H138415   1.526   7.531   6.833
12824TIP3    H238416   1.552   7.385   6.800
12825TIP3   OH238417   1.175   7.118   5.519
12825TIP3    H138418   1.222   7.062   5.457
12825TIP3    H238419   1.227   7.198   5.522
12826TIP3   OH238420   1.457   7.221   6.759
12826TIP3    H138421   1.368   7.195   6.735
12826TIP3    H238422   1.505   7.139   6.762
12827TIP3   OH238423   1.171   7.035   6.296
12827TIP3    H138424   1.211   7.089   6.228
12827TIP3    H238425   1.080   7.063   6.298
12828TIP3   OH238426   1.280   7.168   6.088
12828TIP3    H138427   1.345   7.104   6.060
12828TIP3    H238428   1.322   7.253   6.074
12829TIP3   OH238429   0.908   7.082   6.287
12829TIP3    H138430   0.825   7.122   6.260
12829TIP3    H238431   0.882   7.008   6.341
12830TIP3   OH238432   0.925   7.010   5.889
12830TIP3    H138433   0.853   7.073   5.892
12830TIP3    H238434   0.930   6.977   5.979
12831TIP3   OH238435   5.192   0.060   5.619
12831TIP3    H138436   5.211   0.148   5.587
12831TIP3    H238437   5.151   0.016   5.545
12832TIP3   OH238438   5.132   0.126   5.911
12832TIP3    H138439   5.210   0.109   5.964
12832TIP3    H238440   5.163   0.125   5.821
12833TIP3   OH238441   1.690   8.002   6.246
12833TIP3    H138442   1.731   7.958   6.321
12833TIP3    H238443   1.764   8.039   6.198
12834TIP3   OH238444   5.505   0.440   5.592
12834TIP3    H138445   5.496   0.369   5.656
12834TIP3    H238446   5.530   0.516   5.645
12835TIP3   OH238447   4.582   0.407   6.046
12835TIP3    H138448   4.504   0.353   6.057
12835TIP3    H238449   4.630   0.365   5.974
12836TIP3   OH238450   1.353   7.642   5.727
12836TIP3    H138451   1.315   7.727   5.749
12836TIP3    H238452   1.281   7.594   5.686
12837TIP3   OH238453   1.420   7.946   5.948
12837TIP3    H138454   1.462   7.865   5.976
12837TIP3    H238455   1.491   7.999   5.912
12838TIP3   OH238456   5.038   0.384   5.990
12838TIP3    H138457   5.066   0.298   5.959
12838TIP3    H238458   5.119   0.435   5.996
12839TIP3   OH238459   3.223   7.703   5.921
12839TIP3    H138460   3.236   7.790   5.959
12839TIP3    H238461   3.262   7.709   5.834
12840TIP3   OH238462   2.513   7.805   5.877
12840TIP3    H138463   2.602   7.836   5.892
12840TIP3    H238464   2.475   7.868   5.816
12841TIP3   OH238465   1.932   7.527   5.904
12841TIP3    H138466   1.909   7.600   5.846
12841TIP3    H238467   1.880   7.453   5.872
12842TIP3   OH238468   2.631   7.636   5.563
12842TIP3    H138469   2.701   7.625   5.628
12842TIP3    H238470   2.676   7.662   5.483
12843TIP3   OH238471   1.560   7.729   6.043
12843TIP3    H138472   1.645   7.724   6.086
12843TIP3    H238473   1.572   7.683   5.960
12844TIP3   OH238474   2.001   7.939   5.849
12844TIP3    H138475   2.095   7.939   5.832
12844TIP3    H238476   1.971   7.853   5.819
12845TIP3   OH238477   3.274   7.921   6.095
12845TIP3    H138478   3.184   7.953   6.089
12845TIP3    H238479   3.308   7.962   6.174
12846TIP3   OH238480   1.926   7.527   6.353
12846TIP3    H138481   1.876   7.569   6.283
12846TIP3    H238482   1.876   7.544   6.432
12847TIP3   OH238483   5.210   0.255   5.397
12847TIP3    H138484   5.140   0.263   5.332
12847TIP3    H238485   5.218   0.343   5.434
12848TIP3   OH238486   4.855   0.291   6.172
12848TIP3    H138487   4.814   0.361   6.222
12848TIP3    H238488   4.916   0.336   6.113
12849TIP3   OH238489   2.845   7.653   5.738
12849TIP3    H138490   2.919   7.602   5.705
12849TIP3    H238491   2.885   7.731   5.775
12850TIP3   OH238492   1.813   7.640   6.127
12850TIP3    H138493   1.870   7.715   6.146
12850TIP3    H238494   1.856   7.596   6.053
12851TIP3   OH238495   4.101   0.068   5.513
12851TIP3    H138496   4.052   0.065   5.431
12851TIP3    H238497   4.132   0.158   5.520
12852TIP3   OH238498   3.030   7.597   6.096
12852TIP3    H138499   2.953   7.647   6.071
12852TIP3    H238500   3.094   7.617   6.027
12853TIP3   OH238501   2.269   7.235   6.076
12853TIP3    H138502   2.266   7.143   6.103
12853TIP3    H238503   2.192   7.274   6.117
12854TIP3   OH238504   5.526   0.359   5.323
12854TIP3    H138505   5.472   0.408   5.260
12854TIP3    H238506   5.500   0.393   5.408
12855TIP3   OH238507   5.773   0.616   6.012
12855TIP3    H138508   5.750   0.529   5.979
12855TIP3    H238509   5.715   0.630   6.086
12856TIP3   OH238510   2.236   7.978   5.372
12856TIP3    H138511   2.153   8.023   5.355
12856TIP3    H238512   2.278   7.973   5.286
12857TIP3   OH238513   2.175   7.763   5.051
12857TIP3    H138514   2.237   7.826   5.088
12857TIP3    H238515   2.229   7.705   4.998
12858TIP3   OH238516   5.942   0.225   5.951
12858TIP3    H138517   5.864   0.280   5.955
12858TIP3    H238518   5.971   0.229   5.860
12859TIP3   OH238519   5.380   0.056   5.307
12859TIP3    H138520   5.332   0.123   5.355
12859TIP3    H238521   5.464   0.048   5.354
12860TIP3   OH238522   5.611   0.104   6.211
12860TIP3    H138523   5.613   0.189   6.254
12860TIP3    H238524   5.532   0.106   6.157
12861TIP3   OH238525   1.798   8.044   5.689
12861TIP3    H138526   1.761   7.979   5.629
12861TIP3    H238527   1.865   7.996   5.738
12862TIP3   OH238528   4.748   0.344   5.840
12862TIP3    H138529   4.725   0.399   5.765
12862TIP3    H238530   4.841   0.323   5.826
12863TIP3   OH238531   4.737   0.060   6.074
12863TIP3    H138532   4.785   0.035   5.995
12863TIP3    H238533   4.777   0.143   6.101
12864TIP3   OH238534   2.388   7.928   5.137
12864TIP3    H138535   2.448   7.987   5.182
12864TIP3    H238536   2.416   7.932   5.045
12865TIP3   OH238537   2.931   7.201   5.182
12865TIP3    H138538   2.850   7.229   5.225
12865TIP3    H238539   2.956   7.275   5.126
12866TIP3   OH238540   1.680   7.867   5.509
12866TIP3    H138541   1.615   7.924   5.469
12866TIP3    H238542   1.632   7.788   5.532
12867TIP3   OH238543   5.865   0.061   6.406
12867TIP3    H138544   5.777   0.071   6.369
12867TIP3    H238545   5.884  -0.033   6.398
12868TIP3   OH238546   2.033   7.318   6.203
12868TIP3    H138547   1.949   7.286   6.170
12868TIP3    H238548   2.011   7.397   6.253
12869TIP3   OH238549   2.579   7.423   6.421
12869TIP3    H138550   2.650   7.401   6.481
12869TIP3    H238551   2.499   7.406   6.471
12870TIP3   OH238552   2.798   7.864   6.316
12870TIP3    H138553   2.751   7.857   6.399
12870TIP3    H238554   2.774   7.950   6.281
12871TIP3   OH238555   2.448   7.900   4.868
12871TIP3    H138556   2.424   7.869   4.781
12871TIP3    H238557   2.472   7.992   4.856
12872TIP3   OH238558   2.178   7.361   5.176
12872TIP3    H138559   2.137   7.367   5.262
12872TIP3    H238560   2.146   7.278   5.141
12873TIP3   OH238561   1.984   7.842   6.203
12873TIP3    H138562   1.945   7.852   6.290
12873TIP3    H238563   1.966   7.925   6.159
12874TIP3   OH238564   1.851   7.729   5.741
12874TIP3    H138565   1.761   7.711   5.767
12874TIP3    H238566   1.857   7.696   5.651
12875TIP3   OH238567   2.328   7.736   5.458
12875TIP3    H138568   2.296   7.823   5.435
12875TIP3    H238569   2.403   7.722   5.401
12876TIP3   OH238570   5.359   0.053   6.547
12876TIP3    H138571   5.335  -0.015   6.609
12876TIP3    H238572   5.451   0.072   6.567
12877TIP3   OH238573   1.840   7.860   6.439
12877TIP3    H138574   1.905   7.913   6.484
12877TIP3    H238575   1.822   7.788   6.500
12878TIP3   OH238576   1.844   7.337   5.153
12878TIP3    H138577   1.832   7.345   5.248
12878TIP3    H238578   1.768   7.382   5.116
12879TIP3   OH238579   1.403   7.398   6.029
12879TIP3    H138580   1.474   7.432   6.084
12879TIP3    H238581   1.420   7.435   5.942
12880TIP3   OH238582   1.317   7.357   5.525
12880TIP3    H138583   1.356   7.392   5.445
12880TIP3    H238584   1.251   7.422   5.551
12881TIP3   OH238585   2.513   8.033   6.084
12881TIP3    H138586   2.494   7.946   6.048
12881TIP3    H238587   2.479   8.030   6.173
12882TIP3   OH238588   2.197   7.582   5.839
12882TIP3    H138589   2.111   7.568   5.878
12882TIP3    H238590   2.249   7.508   5.871
12883TIP3   OH238591   1.612   7.602   5.805
12883TIP3    H138592   1.525   7.607   5.766
12883TIP3    H238593   1.642   7.513   5.784
12884TIP3   OH238594   1.861   7.597   5.500
12884TIP3    H138595   1.955   7.601   5.481
12884TIP3    H238596   1.819   7.614   5.416
12885TIP3   OH238597   2.648   7.573   5.992
12885TIP3    H138598   2.660   7.589   6.086
12885TIP3    H238599   2.720   7.514   5.968
12886TIP3   OH238600   1.733   7.610   5.259
12886TIP3    H138601   1.667   7.565   5.206
12886TIP3    H238602   1.795   7.646   5.195
12887TIP3   OH238603   1.749   7.352   5.779
12887TIP3    H138604   1.721   7.277   5.830
12887TIP3    H238605   1.767   7.317   5.692
12888TIP3   OH238606   2.256   7.766   6.188
12888TIP3    H138607   2.170   7.807   6.182
12888TIP3    H238608   2.311   7.831   6.230
12889TIP3   OH238609   4.829   0.094   5.323
12889TIP3    H138610   4.750   0.040   5.313
12889TIP3    H238611   4.817   0.137   5.407
12890TIP3   OH238612   5.706   0.364   5.913
12890TIP3    H138613   5.750   0.398   5.835
12890TIP3    H238614   5.629   0.318   5.878
12891TIP3   OH238615   2.437   7.452   5.185
12891TIP3    H138616   2.342   7.439   5.180
12891TIP3    H238617   2.447   7.546   5.197
12892TIP3   OH238618   5.211   0.326   6.345
12892TIP3    H138619   5.277   0.350   6.409
12892TIP3    H238620   5.206   0.401   6.286
12893TIP3   OH238621   2.514   7.708   5.253
12893TIP3    H138622   2.607   7.726   5.268
12893TIP3    H238623   2.481   7.787   5.209
12894TIP3   OH238624   4.497   0.065   5.927
12894TIP3    H138625   4.530   0.071   5.837
12894TIP3    H238626   4.576   0.054   5.980
12895TIP3   OH238627   4.862   0.295   5.137
12895TIP3    H138628   4.911   0.362   5.185
12895TIP3    H238629   4.855   0.222   5.198
12896TIP3   OH238630   5.107   0.179   6.564
12896TIP3    H138631   5.114   0.247   6.497
12896TIP3    H238632   5.195   0.143   6.570
12897TIP3   OH238633   2.911   7.800   5.090
12897TIP3    H138634   2.880   7.744   5.019
12897TIP3    H238635   2.928   7.884   5.048
12898TIP3   OH238636   6.022   0.553   6.117
12898TIP3    H138637   5.941   0.596   6.088
12898TIP3    H238638   6.060   0.518   6.037
12899TIP3   OH238639   5.504   0.224   5.776
12899TIP3    H138640   5.411   0.247   5.778
12899TIP3    H238641   5.505   0.131   5.753
12900TIP3   OH238642   1.352   7.768   5.311
12900TIP3    H138643   1.405   7.846   5.326
12900TIP3    H238644   1.276   7.779   5.368
12901TIP3   OH238645   4.782   0.220   5.565
12901TIP3    H138646   4.715   0.284   5.541
12901TIP3    H238647   4.735   0.156   5.618
12902TIP3   OH238648   5.173   0.287   4.971
12902TIP3    H138649   5.251   0.233   4.981
12902TIP3    H238650   5.112   0.232   4.921
12903TIP3   OH238651   1.774   7.599   6.570
12903TIP3    H138652   1.679   7.607   6.580
12903TIP3    H238653   1.803   7.555   6.650
12904TIP3   OH238654   5.411   0.184   5.070
12904TIP3    H138655   5.403   0.144   5.157
12904TIP3    H238656   5.505   0.194   5.056
12905TIP3   OH238657   4.588   0.212   5.086
12905TIP3    H138658   4.546   0.195   5.002
12905TIP3    H238659   4.673   0.250   5.063
12906TIP3   OH238660   4.319  -0.012   5.378
12906TIP3    H138661   4.251   0.009   5.442
12906TIP3    H238662   4.322   0.063   5.319
12907TIP3   OH238663   2.658   7.625   6.252
12907TIP3    H138664   2.704   7.696   6.298
12907TIP3    H238665   2.630   7.566   6.322
12908TIP3   OH238666   2.504   7.407   5.452
12908TIP3    H138667   2.482   7.426   5.361
12908TIP3    H238668   2.540   7.489   5.486
12909TIP3   OH238669   2.152   7.567   5.568
12909TIP3    H138670   2.212   7.627   5.524
12909TIP3    H238671   2.158   7.591   5.660
12910TIP3   OH238672   2.455   7.909   6.331
12910TIP3    H138673   2.462   7.977   6.397
12910TIP3    H238674   2.503   7.834   6.369
12911TIP3   OH238675   2.308   7.311   5.618
12911TIP3    H138676   2.266   7.396   5.628
12911TIP3    H238677   2.384   7.328   5.562
12912TIP3   OH238678   1.809   7.327   5.435
12912TIP3    H138679   1.798   7.418   5.464
12912TIP3    H238680   1.903   7.312   5.437
12913TIP3   OH238681   3.064   7.808   6.312
12913TIP3    H138682   2.968   7.816   6.316
12913TIP3    H238683   3.080   7.754   6.235
12914TIP3   OH238684   2.712   7.952   5.710
12914TIP3    H138685   2.688   7.865   5.679
12914TIP3    H238686   2.797   7.940   5.752
12915TIP3   OH238687   4.240   0.169   5.159
12915TIP3    H138688   4.207   0.214   5.081
12915TIP3    H238689   4.307   0.109   5.125
12916TIP3   OH238690   1.374   7.493   5.297
12916TIP3    H138691   1.385   7.587   5.313
12916TIP3    H238692   1.307   7.488   5.229
12917TIP3   OH238693   1.772   7.234   6.161
12917TIP3    H138694   1.741   7.202   6.076
12917TIP3    H238695   1.765   7.158   6.219
12918TIP3   OH238696   1.578   7.980   5.083
12918TIP3    H138697   1.633   7.968   5.161
12918TIP3    H238698   1.639   7.975   5.010
12919TIP3   OH238699   4.929   0.198   4.885
12919TIP3    H138700   4.910   0.263   4.952
12919TIP3    H238701   4.893   0.116   4.919
12920TIP3   OH238702   1.797   7.928   5.260
12920TIP3    H138703   1.764   7.890   5.341
12920TIP3    H238704   1.829   7.853   5.210
12921TIP3   OH238705   4.916  -0.006   6.468
12921TIP3    H138706   4.947   0.057   6.533
12921TIP3    H238707   4.955   0.024   6.385
12922TIP3   OH238708   1.905   7.732   5.090
12922TIP3    H138709   1.879   7.725   4.999
12922TIP3    H238710   1.999   7.746   5.087
12923TIP3   OH238711   5.415   0.379   6.533
12923TIP3    H138712   5.492   0.341   6.492
12923TIP3    H238713   5.416   0.347   6.623
12924TIP3   OH238714   5.591   0.033   4.749
12924TIP3    H138715   5.536  -0.006   4.681
12924TIP3    H238716   5.658   0.081   4.702
12925TIP3   OH238717   2.203   7.787   6.574
12925TIP3    H138718   2.201   7.713   6.514
12925TIP3    H238719   2.166   7.860   6.524
12926TIP3   OH238720   2.192   7.585   6.385
12926TIP3    H138721   2.218   7.636   6.309
12926TIP3    H238722   2.098   7.569   6.372
12927TIP3   OH238723   5.048   0.112   6.257
12927TIP3    H138724   5.116   0.173   6.285
12927TIP3    H238725   4.979   0.168   6.221
12928TIP3   OH238726   5.630   0.080   6.623
12928TIP3    H138727   5.690   0.007   6.636
12928TIP3    H238728   5.686   0.158   6.620
12929TIP3   OH238729   5.651   0.345   6.350
12929TIP3    H138730   5.608   0.409   6.293
12929TIP3    H238731   5.745   0.357   6.333
12930TIP3   OH238732   2.068   7.891   6.794
12930TIP3    H138733   1.992   7.836   6.812
12930TIP3    H238734   2.105   7.855   6.713
12931TIP3   OH238735   2.313   7.364   6.491
12931TIP3    H138736   2.274   7.444   6.455
12931TIP3    H238737   2.246   7.297   6.477
12932TIP3   OH238738   2.443   7.848   6.692
12932TIP3    H138739   2.424   7.848   6.786
12932TIP3    H238740   2.360   7.825   6.650
12933TIP3   OH238741   2.668   7.786   6.540
12933TIP3    H138742   2.596   7.798   6.602
12933TIP3    H238743   2.746   7.774   6.594
12934TIP3   OH238744   2.915   7.768   6.682
12934TIP3    H138745   2.932   7.675   6.694
12934TIP3    H238746   2.907   7.803   6.771
12935TIP3   OH238747   1.896   7.686   6.867
12935TIP3    H138748   1.877   7.594   6.848
12935TIP3    H238749   1.953   7.683   6.944
12936TIP3   OH238750   2.383   7.370   6.754
12936TIP3    H138751   2.453   7.306   6.753
12936TIP3    H238752   2.352   7.374   6.664
12937TIP3   OH238753   2.463   7.588   6.908
12937TIP3    H138754   2.438   7.519   6.847
12937TIP3    H238755   2.393   7.652   6.902
12938TIP3   OH238756   4.011   0.051   5.256
12938TIP3    H138757   4.082   0.105   5.219
12938TIP3    H238758   3.989  -0.010   5.185
12939TIP3   OH238759   5.676   0.223   5.075
12939TIP3    H138760   5.696   0.316   5.064
12939TIP3    H238761   5.728   0.196   5.151
12940TIP3   OH238762   5.816   0.097   5.282
12940TIP3    H138763   5.746   0.071   5.342
12940TIP3    H238764   5.881   0.140   5.338
12941TIP3   OH238765   5.876   0.467   5.730
12941TIP3    H138766   5.909   0.407   5.663
12941TIP3    H238767   5.861   0.549   5.684
12942TIP3   OH238768   5.791   0.010   4.935
12942TIP3    H138769   5.715   0.005   4.878
12942TIP3    H238770   5.775   0.088   4.989
12943TIP3   OH238771   2.798   7.704   4.851
12943TIP3    H138772   2.722   7.739   4.804
12943TIP3    H238773   2.789   7.609   4.845
12944TIP3   OH238774   2.783   8.001   5.439
12944TIP3    H138775   2.787   7.909   5.413
12944TIP3    H238776   2.763   7.998   5.533
12945TIP3   OH238777   4.256   0.028   6.206
12945TIP3    H138778   4.243   0.001   6.115
12945TIP3    H238779   4.350   0.016   6.222
12946TIP3   OH238780   5.918   0.384   6.306
12946TIP3    H138781   5.976   0.309   6.295
12946TIP3    H238782   5.943   0.444   6.236
12947TIP3   OH238783   6.089   0.171   6.299
12947TIP3    H138784   6.015   0.128   6.341
12947TIP3    H238785   6.166   0.121   6.327
12948TIP3   OH238786   2.754   7.430   4.843
12948TIP3    H138787   2.827   7.417   4.903
12948TIP3    H238788   2.679   7.391   4.887
12949TIP3   OH238789   2.785   7.738   5.330
12949TIP3    H138790   2.821   7.652   5.352
12949TIP3    H238791   2.830   7.763   5.250
12950TIP3   OH238792   2.950   7.888   5.832
12950TIP3    H138793   3.030   7.907   5.783
12950TIP3    H238794   2.965   7.927   5.918
12951TIP3   OH238795   5.840   0.003   6.069
12951TIP3    H138796   5.765   0.033   6.121
12951TIP3    H238797   5.878   0.083   6.033
12952TIP3   OH238798   3.477   7.632   6.595
12952TIP3    H138799   3.542   7.576   6.554
12952TIP3    H238800   3.440   7.683   6.523
12953TIP3   OH238801   2.855   7.488   5.416
12953TIP3    H138802   2.930   7.461   5.469
12953TIP3    H238803   2.815   7.406   5.387
12954TIP3   OH238804   1.612   7.456   6.201
12954TIP3    H138805   1.668   7.378   6.196
12954TIP3    H238806   1.670   7.529   6.181
12955TIP3   OH238807   1.382   7.766   6.260
12955TIP3    H138808   1.439   7.742   6.187
12955TIP3    H238809   1.381   7.862   6.259
12956TIP3   OH238810   3.334   7.759   6.402
12956TIP3    H138811   3.258   7.801   6.442
12956TIP3    H238812   3.298   7.687   6.350
12957TIP3   OH238813   1.388   7.211   5.742
12957TIP3    H138814   1.303   7.204   5.785
12957TIP3    H238815   1.374   7.273   5.671
12958TIP3   OH238816   1.605   7.256   6.525
12958TIP3    H138817   1.553   7.249   6.605
12958TIP3    H238818   1.554   7.313   6.468
12959TIP3   OH238819   3.241   7.507   6.297
12959TIP3    H138820   3.156   7.502   6.253
12959TIP3    H238821   3.277   7.418   6.289
12960TIP3   OH238822   2.416   7.427   5.911
12960TIP3    H138823   2.378   7.360   5.968
12960TIP3    H238824   2.487   7.382   5.866
12961TIP3   OH238825   2.938   7.348   5.824
12961TIP3    H138826   2.982   7.385   5.747
12961TIP3    H238827   2.845   7.355   5.803
12962TIP3   OH238828   3.064   7.427   5.592
12962TIP3    H138829   3.127   7.362   5.562
12962TIP3    H238830   3.104   7.511   5.572
12963TIP3   OH238831   1.682   7.125   5.924
12963TIP3    H138832   1.592   7.094   5.929
12963TIP3    H238833   1.735   7.045   5.916
12964TIP3   OH238834   1.522   7.028   5.580
12964TIP3    H138835   1.542   7.077   5.500
12964TIP3    H238836   1.481   7.092   5.638
12965TIP3   OH238837   2.171   7.164   5.815
12965TIP3    H138838   2.220   7.213   5.749
12965TIP3    H238839   2.208   7.193   5.899
12966TIP3   OH238840   2.648   7.319   5.793
12966TIP3    H138841   2.654   7.286   5.704
12966TIP3    H238842   2.655   7.240   5.848
12967TIP3   OH238843   2.719   7.255   5.354
12967TIP3    H138844   2.637   7.299   5.379
12967TIP3    H238845   2.709   7.166   5.389
12968TIP3   OH238846   1.611   7.155   5.342
12968TIP3    H138847   1.659   7.099   5.281
12968TIP3    H238848   1.677   7.215   5.377
12969TIP3   OH238849   2.081   7.343   5.435
12969TIP3    H138850   2.137   7.276   5.476
12969TIP3    H238851   2.104   7.424   5.480
12970TIP3   OH238852   1.907   7.410   6.783
12970TIP3    H138853   1.875   7.344   6.845
12970TIP3    H238854   1.999   7.422   6.806
12971TIP3   OH238855   2.156   7.402   6.910
12971TIP3    H138856   2.236   7.392   6.858
12971TIP3    H238857   2.155   7.325   6.967
12972TIP3   OH238858   2.986   7.503   6.720
12972TIP3    H138859   3.002   7.476   6.811
12972TIP3    H238860   3.072   7.498   6.678
12973TIP3   OH238861   7.004   0.285   5.055
12973TIP3    H138862   7.008   0.379   5.034
12973TIP3    H238863   6.946   0.249   4.988
12974TIP3   OH238864   7.005   0.405   5.379
12974TIP3    H138865   7.050   0.384   5.461
12974TIP3    H238866   6.965   0.322   5.353
12975TIP3   OH238867   6.301   0.287   5.751
12975TIP3    H138868   6.338   0.219   5.807
12975TIP3    H238869   6.375   0.314   5.695
12976TIP3   OH238870   7.280   0.701   5.086
12976TIP3    H138871   7.260   0.637   5.154
12976TIP3    H238872   7.308   0.779   5.134
12977TIP3   OH238873   6.391   0.577   5.516
12977TIP3    H138874   6.357   0.492   5.487
12977TIP3    H238875   6.441   0.609   5.441
12978TIP3   OH238876   3.140   7.877   5.234
12978TIP3    H138877   3.101   7.963   5.247
12978TIP3    H238878   3.074   7.827   5.185
12979TIP3   OH238879   6.031   0.195   5.421
12979TIP3    H138880   6.112   0.144   5.428
12979TIP3    H238881   6.055   0.269   5.365
12980TIP3   OH238882   6.821   0.616   5.455
12980TIP3    H138883   6.847   0.550   5.391
12980TIP3    H238884   6.904   0.645   5.495
12981TIP3   OH238885   5.016   7.956   5.406
12981TIP3    H138886   5.032   8.040   5.448
12981TIP3    H238887   5.043   7.968   5.315
12982TIP3   OH238888   7.229   0.100   5.438
12982TIP3    H138889   7.260   0.013   5.463
12982TIP3    H238890   7.193   0.088   5.350
12983TIP3   OH238891   3.741   7.777   5.398
12983TIP3    H138892   3.724   7.850   5.337
12983TIP3    H238893   3.688   7.705   5.365
12984TIP3   OH238894   4.438   7.894   5.030
12984TIP3    H138895   4.495   7.890   5.106
12984TIP3    H238896   4.494   7.925   4.959
12985TIP3   OH238897   3.381   7.997   5.513
12985TIP3    H138898   3.463   7.973   5.557
12985TIP3    H238899   3.385   7.951   5.429
12986TIP3   OH238900   6.630   0.171   5.330
12986TIP3    H138901   6.725   0.166   5.327
12986TIP3    H238902   6.600   0.087   5.295
12987TIP3   OH238903   7.905   0.161   5.570
12987TIP3    H138904   7.814   0.190   5.571
12987TIP3    H238905   7.943   0.197   5.651
12988TIP3   OH238906   3.728   7.778   5.856
12988TIP3    H138907   3.685   7.812   5.777
12988TIP3    H238908   3.664   7.792   5.926
12989TIP3   OH238909   6.989   0.508   4.885
12989TIP3    H138910   6.927   0.525   4.814
12989TIP3    H238911   7.010   0.596   4.919
12990TIP3   OH238912   6.688   0.481   5.648
12990TIP3    H138913   6.632   0.553   5.679
12990TIP3    H238914   6.742   0.520   5.579
12991TIP3   OH238915   4.600   7.905   5.248
12991TIP3    H138916   4.560   7.883   5.332
12991TIP3    H238917   4.658   7.978   5.268
12992TIP3   OH238918   3.616   7.883   5.620
12992TIP3    H138919   3.673   7.954   5.648
12992TIP3    H238920   3.663   7.840   5.548
12993TIP3   OH238921   6.541   0.706   5.707
12993TIP3    H138922   6.465   0.667   5.664
12993TIP3    H238923   6.507   0.746   5.786
12994TIP3   OH238924   5.938   0.313   5.002
12994TIP3    H138925   5.867   0.319   4.938
12994TIP3    H238926   5.959   0.404   5.023
12995TIP3   OH238927   4.809   7.854   5.574
12995TIP3    H138928   4.724   7.874   5.535
12995TIP3    H238929   4.873   7.880   5.508
12996TIP3   OH238930   4.061   7.485   5.565
12996TIP3    H138931   4.068   7.395   5.597
12996TIP3    H238932   3.986   7.522   5.612
12997TIP3   OH238933   7.295   0.600   4.827
12997TIP3    H138934   7.267   0.665   4.762
12997TIP3    H238935   7.280   0.642   4.911
12998TIP3   OH238936   7.644   0.870   5.472
12998TIP3    H138937   7.644   0.804   5.403
12998TIP3    H238938   7.667   0.952   5.428
12999TIP3   OH238939   6.850   0.201   4.840
12999TIP3    H138940   6.773   0.255   4.827
12999TIP3    H238941   6.894   0.201   4.755
13000TIP3   OH238942   3.976   7.997   4.546
13000TIP3    H138943   4.034   8.068   4.573
13000TIP3    H238944   4.032   7.920   4.543
13001TIP3   OH238945   7.720   0.486   5.420
13001TIP3    H138946   7.639   0.536   5.426
13001TIP3    H238947   7.750   0.498   5.330
13002TIP3   OH238948   7.180   0.301   4.797
13002TIP3    H138949   7.137   0.368   4.850
13002TIP3    H238950   7.266   0.289   4.837
13003TIP3   OH238951   7.418   0.341   5.705
13003TIP3    H138952   7.422   0.423   5.755
13003TIP3    H238953   7.335   0.347   5.656
13004TIP3   OH238954   6.420   0.286   5.194
13004TIP3    H138955   6.389   0.225   5.127
13004TIP3    H238956   6.494   0.241   5.234
13005TIP3   OH238957   6.542   0.647   5.301
13005TIP3    H138958   6.571   0.734   5.332
13005TIP3    H238959   6.621   0.606   5.268
13006TIP3   OH238960   6.532   0.275   5.563
13006TIP3    H138961   6.572   0.242   5.483
13006TIP3    H238962   6.587   0.350   5.588
13007TIP3   OH238963   6.777   0.722   5.870
13007TIP3    H138964   6.796   0.800   5.818
13007TIP3    H238965   6.688   0.697   5.843
13008TIP3   OH238966   7.025   0.153   4.629
13008TIP3    H138967   7.081   0.210   4.681
13008TIP3    H238968   7.054   0.166   4.539
13009TIP3   OH238969   6.463   0.370   6.062
13009TIP3    H138970   6.459   0.465   6.071
13009TIP3    H238971   6.373   0.343   6.047
13010TIP3   OH238972   4.698   7.449   4.663
13010TIP3    H138973   4.621   7.468   4.717
13010TIP3    H238974   4.705   7.523   4.604
13011TIP3   OH238975   6.323   0.112   4.999
13011TIP3    H138976   6.254   0.160   4.953
13011TIP3    H238977   6.279   0.035   5.034
13012TIP3   OH238978   6.112   0.459   5.878
13012TIP3    H138979   6.033   0.466   5.823
13012TIP3    H238980   6.167   0.395   5.833
13013TIP3   OH238981   7.668   0.312   5.879
13013TIP3    H138982   7.583   0.318   5.835
13013TIP3    H238983   7.685   0.218   5.885
13014TIP3   OH238984   6.280   0.660   5.827
13014TIP3    H138985   6.270   0.718   5.903
13014TIP3    H238986   6.219   0.589   5.843
13015TIP3   OH238987   3.830   7.566   5.706
13015TIP3    H138988   3.743   7.542   5.673
13015TIP3    H238989   3.815   7.644   5.759
13016TIP3   OH238990   7.425   0.092   5.823
13016TIP3    H138991   7.376   0.094   5.906
13016TIP3    H238992   7.406   0.177   5.782
13017TIP3   OH238993   7.094   0.169   4.367
13017TIP3    H138994   7.053   0.255   4.363
13017TIP3    H238995   7.179   0.180   4.324
13018TIP3   OH238996   4.002   7.608   4.675
13018TIP3    H138997   3.960   7.618   4.760
13018TIP3    H238998   3.967   7.526   4.640
13019TIP3   OH238999   6.599   0.070   5.731
13019TIP3    H139000   6.546   0.084   5.809
13019TIP3    H239001   6.582   0.146   5.676
13020TIP3   OH239002   3.652   7.973   5.229
13020TIP3    H139003   3.562   7.949   5.253
13020TIP3    H239004   3.662   7.942   5.139
13021TIP3   OH239005   4.138   7.989   4.939
13021TIP3    H139006   4.097   8.069   4.907
13021TIP3    H239007   4.211   7.974   4.878
13022TIP3   OH239008   7.171   0.279   6.028
13022TIP3    H139009   7.203   0.192   6.052
13022TIP3    H239010   7.240   0.339   6.057
13023TIP3   OH239011   7.130   0.081   5.186
13023TIP3    H139012   7.083   0.150   5.138
13023TIP3    H239013   7.140   0.010   5.123
13024TIP3   OH239014   6.400   0.087   5.929
13024TIP3    H139015   6.339   0.138   5.982
13024TIP3    H239016   6.395  -0.002   5.965
13025TIP3   OH239017   3.643   7.596   4.603
13025TIP3    H139018   3.599   7.648   4.670
13025TIP3    H239019   3.590   7.608   4.524
13026TIP3   OH239020   3.176   7.665   5.534
13026TIP3    H139021   3.253   7.689   5.585
13026TIP3    H239022   3.178   7.725   5.458
13027TIP3   OH239023   7.159   0.306   5.596
13027TIP3    H139024   7.188   0.237   5.537
13027TIP3    H239025   7.120   0.259   5.670
13028TIP3   OH239026   4.008   7.766   5.285
13028TIP3    H139027   3.933   7.765   5.344
13028TIP3    H239028   4.084   7.756   5.343
13029TIP3   OH239029   3.410   7.854   5.281
13029TIP3    H139030   3.319   7.851   5.253
13029TIP3    H239031   3.441   7.764   5.271
13030TIP3   OH239032   3.655   7.848   4.986
13030TIP3    H139033   3.750   7.854   4.980
13030TIP3    H239034   3.624   7.861   4.896
13031TIP3   OH239035   4.469   7.850   5.488
13031TIP3    H139036   4.450   7.865   5.580
13031TIP3    H239037   4.402   7.788   5.459
13032TIP3   OH239038   3.526   7.856   4.741
13032TIP3    H139039   3.443   7.901   4.728
13032TIP3    H239040   3.585   7.896   4.676
13033TIP3   OH239041   6.446   0.629   6.162
13033TIP3    H139042   6.516   0.638   6.227
13033TIP3    H239043   6.365   0.635   6.214
13034TIP3   OH239044   6.901   0.143   5.356
13034TIP3    H139045   6.972   0.095   5.314
13034TIP3    H239046   6.899   0.109   5.446
13035TIP3   OH239047   3.551   7.607   5.276
13035TIP3    H139048   3.521   7.533   5.329
13035TIP3    H239049   3.582   7.567   5.195
13036TIP3   OH239050   6.862   0.076   5.619
13036TIP3    H139051   6.782   0.057   5.668
13036TIP3    H239052   6.930   0.083   5.687
13037TIP3   OH239053   6.622   0.354   4.811
13037TIP3    H139054   6.543   0.301   4.800
13037TIP3    H239055   6.611   0.395   4.896
13038TIP3   OH239056   7.466   0.616   5.390
13038TIP3    H139057   7.513   0.652   5.315
13038TIP3    H239058   7.394   0.566   5.353
13039TIP3   OH239059   4.165   7.790   4.554
13039TIP3    H139060   4.110   7.728   4.601
13039TIP3    H239061   4.222   7.827   4.622
13040TIP3   OH239062   7.040   0.651   5.820
13040TIP3    H139063   7.087   0.631   5.901
13040TIP3    H239064   6.950   0.667   5.848
13041TIP3   OH239065   4.318   7.938   4.732
13041TIP3    H139066   4.412   7.949   4.750
13041TIP3    H239067   4.292   8.020   4.689
13042TIP3   OH239068   6.294   0.332   5.434
13042TIP3    H139069   6.316   0.326   5.341
13042TIP3    H239070   6.367   0.288   5.478
13043TIP3   OH239071   6.666   0.547   4.621
13043TIP3    H139072   6.715   0.620   4.662
13043TIP3    H239073   6.656   0.483   4.691
13044TIP3   OH239074   6.211   0.239   6.060
13044TIP3    H139075   6.187   0.228   6.152
13044TIP3    H239076   6.128   0.247   6.014
13045TIP3   OH239077   6.932   0.411   6.067
13045TIP3    H139078   6.888   0.387   5.986
13045TIP3    H239079   7.021   0.377   6.057
13046TIP3   OH239080   7.552   0.054   4.579
13046TIP3    H139081   7.485   0.013   4.524
13046TIP3    H239082   7.568   0.139   4.537
13047TIP3   OH239083   7.853   0.844   5.648
13047TIP3    H139084   7.770   0.879   5.615
13047TIP3    H239085   7.905   0.828   5.570
13048TIP3   OH239086   7.254   0.489   5.270
13048TIP3    H139087   7.165   0.467   5.299
13048TIP3    H239088   7.289   0.406   5.237
13049TIP3   OH239089   6.023  -0.022   4.781
13049TIP3    H139090   6.065   0.063   4.796
13049TIP3    H239091   5.947  -0.023   4.839
13050TIP3   OH239092   6.569   0.472   5.056
13050TIP3    H139093   6.511   0.548   5.056
13050TIP3    H239094   6.522   0.407   5.109
13051TIP3   OH239095   7.071   0.666   5.545
13051TIP3    H139096   7.054   0.662   5.639
13051TIP3    H239097   7.164   0.646   5.536
13052TIP3   OH239098   6.990   0.416   4.388
13052TIP3    H139099   7.053   0.433   4.458
13052TIP3    H239100   7.027   0.458   4.311
13053TIP3   OH239101   3.546   7.852   6.056
13053TIP3    H139102   3.451   7.867   6.061
13053TIP3    H239103   3.560   7.774   6.110
13054TIP3   OH239104   7.197   0.440   4.565
13054TIP3    H139105   7.194   0.397   4.650
13054TIP3    H239106   7.290   0.455   4.548
13055TIP3   OH239107   6.398   0.470   4.567
13055TIP3    H139108   6.357   0.463   4.481
13055TIP3    H239109   6.484   0.507   4.549
13056TIP3   OH239110   6.129   0.222   4.846
13056TIP3    H139111   6.064   0.244   4.913
13056TIP3    H239112   6.129   0.298   4.787
13057TIP3   OH239113   4.404   7.911   5.744
13057TIP3    H139114   4.476   7.960   5.783
13057TIP3    H239115   4.358   7.872   5.819
13058TIP3   OH239116   4.289   7.683   4.938
13058TIP3    H139117   4.248   7.728   4.864
13058TIP3    H239118   4.339   7.752   4.983
13059TIP3   OH239119   3.927   7.851   5.035
13059TIP3    H139120   3.999   7.903   5.000
13059TIP3    H239121   3.952   7.834   5.126
13060TIP3   OH239122   7.060   0.150   5.806
13060TIP3    H139123   7.091   0.196   5.884
13060TIP3    H239124   7.094   0.061   5.815
13061TIP3   OH239125   4.103   7.564   5.111
13061TIP3    H139126   4.079   7.639   5.165
13061TIP3    H239127   4.172   7.597   5.053
13062TIP3   OH239128   3.595   7.582   4.916
13062TIP3    H139129   3.597   7.672   4.948
13062TIP3    H239130   3.688   7.559   4.904
13063TIP3   OH239131   7.686   0.029   5.793
13063TIP3    H139132   7.593   0.044   5.810
13063TIP3    H239133   7.688  -0.028   5.716
13064TIP3   OH239134   7.361   0.244   5.190
13064TIP3    H139135   7.288   0.183   5.198
13064TIP3    H239136   7.432   0.203   5.240
13065TIP3   OH239137   6.038   0.422   4.650
13065TIP3    H139138   6.005   0.473   4.576
13065TIP3    H239139   6.106   0.366   4.612
13066TIP3   OH239140   3.562   7.489   5.666
13066TIP3    H139141   3.536   7.456   5.580
13066TIP3    H239142   3.555   7.413   5.724
13067TIP3   OH239143   6.212   0.586   6.309
13067TIP3    H139144   6.249   0.497   6.311
13067TIP3    H239145   6.146   0.582   6.240
13068TIP3   OH239146   6.218   0.227   4.565
13068TIP3    H139147   6.271   0.214   4.643
13068TIP3    H239148   6.281   0.228   4.493
13069TIP3   OH239149   6.826   0.654   6.127
13069TIP3    H139150   6.809   0.692   6.041
13069TIP3    H239151   6.862   0.567   6.109
13070TIP3   OH239152   6.691   0.460   4.361
13070TIP3    H139153   6.706   0.522   4.432
13070TIP3    H239154   6.673   0.377   4.405
13071TIP3   OH239155   7.305   0.687   5.706
13071TIP3    H139156   7.324   0.762   5.650
13071TIP3    H239157   7.236   0.718   5.765
13072TIP3   OH239158   6.358   0.359   6.329
13072TIP3    H139159   6.427   0.353   6.262
13072TIP3    H239160   6.403   0.393   6.406
13073TIP3   OH239161   6.428   0.169   4.745
13073TIP3    H139162   6.405   0.134   4.831
13073TIP3    H239163   6.470   0.096   4.700
13074TIP3   OH239164   6.675   0.198   6.036
13074TIP3    H139165   6.601   0.259   6.044
13074TIP3    H239166   6.730   0.236   5.968
13075TIP3   OH239167   3.701   7.985   4.579
13075TIP3    H139168   3.677   7.981   4.486
13075TIP3    H239169   3.796   7.994   4.579
13076TIP3   OH239170   7.191   0.596   6.056
13076TIP3    H139171   7.286   0.603   6.047
13076TIP3    H239172   7.177   0.578   6.148
13077TIP3   OH239173   3.934   7.905   6.000
13077TIP3    H139174   4.026   7.879   5.993
13077TIP3    H239175   3.888   7.850   5.937
13078TIP3   OH239176   6.819   0.324   5.834
13078TIP3    H139177   6.890   0.281   5.787
13078TIP3    H239178   6.778   0.380   5.769
13079TIP3   OH239179   7.428   0.324   6.162
13079TIP3    H139180   7.473   0.240   6.153
13079TIP3    H239181   7.497   0.390   6.155
13080TIP3   OH239182   7.472   0.558   5.868
13080TIP3    H139183   7.409   0.607   5.815
13080TIP3    H239184   7.557   0.588   5.839
13081TIP3   OH239185   7.284   0.036   6.050
13081TIP3    H139186   7.225  -0.040   6.049
13081TIP3    H239187   7.357   0.009   6.104
13082TIP3   OH239188   4.698   8.035   6.183
13082TIP3    H139189   4.722   7.943   6.188
13082TIP3    H239190   4.691   8.064   6.274
13083TIP3   OH239191   3.787   7.962   6.277
13083TIP3    H139192   3.759   7.871   6.273
13083TIP3    H239193   3.800   7.979   6.371
13084TIP3   OH239194   4.258   7.824   6.316
13084TIP3    H139195   4.287   7.789   6.233
13084TIP3    H239196   4.175   7.869   6.296
13085TIP3   OH239197   5.797   0.335   4.758
13085TIP3    H139198   5.873   0.384   4.725
13085TIP3    H239199   5.784   0.265   4.693
13086TIP3   OH239200   7.756   1.055   5.932
13086TIP3    H139201   7.667   1.090   5.929
13086TIP3    H239202   7.793   1.089   6.014
13087TIP3   OH239203   7.465   0.478   4.568
13087TIP3    H139204   7.527   0.539   4.527
13087TIP3    H239205   7.510   0.447   4.647
13088TIP3   OH239206   7.613   0.368   4.773
13088TIP3    H139207   7.548   0.332   4.834
13088TIP3    H239208   7.679   0.407   4.830
13089TIP3   OH239209   7.664   0.731   5.236
13089TIP3    H139210   7.709   0.664   5.184
13089TIP3    H239211   7.651   0.804   5.175
13090TIP3   OH239212   7.564   0.272   4.414
13090TIP3    H139213   7.494   0.255   4.351
13090TIP3    H239214   7.535   0.350   4.462
13091TIP3   OH239215   4.544   7.979   4.395
13091TIP3    H139216   4.543   8.044   4.325
13091TIP3    H239217   4.531   7.896   4.351
13092TIP3   OH239218   7.421   0.233   4.920
13092TIP3    H139219   7.432   0.138   4.908
13092TIP3    H239220   7.407   0.243   5.015
13093TIP3   OH239221   6.039   0.227   5.691
13093TIP3    H139222   6.021   0.221   5.598
13093TIP3    H239223   6.133   0.246   5.696
13094TIP3   OH239224   7.716   0.650   5.791
13094TIP3    H139225   7.778   0.578   5.779
13094TIP3    H239226   7.750   0.720   5.735
13095TIP3   OH239227   7.888   0.439   5.788
13095TIP3    H139228   7.811   0.392   5.819
13095TIP3    H239229   7.961   0.379   5.802
13096TIP3   OH239230   4.504   7.719   4.307
13096TIP3    H139231   4.574   7.688   4.366
13096TIP3    H239232   4.429   7.664   4.328
13097TIP3   OH239233   4.592   7.972   4.808
13097TIP3    H139234   4.638   7.889   4.818
13097TIP3    H239235   4.637   8.016   4.736
13098TIP3   OH239236   7.576   0.119   5.318
13098TIP3    H139237   7.656   0.138   5.270
13098TIP3    H239238   7.591   0.155   5.405
13099TIP3   OH239239   7.642   0.258   5.550
13099TIP3    H139240   7.564   0.283   5.601
13099TIP3    H239241   7.669   0.339   5.507
13100TIP3   OH239242   3.452   7.998   6.333
13100TIP3    H139243   3.547   7.986   6.325
13100TIP3    H239244   3.420   7.914   6.366
13101TIP3   OH239245   5.268   7.888   6.065
13101TIP3    H139246   5.334   7.829   6.031
13101TIP3    H239247   5.232   7.932   5.988
13102TIP3   OH239248   4.703   7.722   4.845
13102TIP3    H139249   4.748   7.706   4.929
13102TIP3    H239250   4.637   7.653   4.840
13103TIP3   OH239251   3.400   7.713   5.693
13103TIP3    H139252   3.450   7.631   5.692
13103TIP3    H239253   3.464   7.781   5.672
13104TIP3   OH239254   3.183   7.969   5.715
13104TIP3    H139255   3.246   7.953   5.644
13104TIP3    H239256   3.181   8.064   5.724
13105TIP3   OH239257   5.114   7.990   5.864
13105TIP3    H139258   5.027   8.030   5.870
13105TIP3    H239259   5.099   7.908   5.817
13106TIP3   OH239260   4.727   7.646   4.469
13106TIP3    H139261   4.776   7.584   4.416
13106TIP3    H239262   4.784   7.722   4.478
13107TIP3   OH239263   3.412   7.589   6.090
13107TIP3    H139264   3.355   7.562   6.163
13107TIP3    H239265   3.351   7.615   6.021
13108TIP3   OH239266   5.032   7.740   5.774
13108TIP3    H139267   4.942   7.726   5.744
13108TIP3    H239268   5.073   7.653   5.769
13109TIP3   OH239269   4.233   7.674   5.423
13109TIP3    H139270   4.191   7.604   5.474
13109TIP3    H239271   4.301   7.629   5.373
13110TIP3   OH239272   4.741   7.593   5.300
13110TIP3    H139273   4.779   7.643   5.228
13110TIP3    H239274   4.650   7.623   5.305
13111TIP3   OH239275   4.858   7.675   5.068
13111TIP3    H139276   4.928   7.615   5.042
13111TIP3    H239277   4.896   7.762   5.055
13112TIP3   OH239278   3.477   7.383   5.425
13112TIP3    H139279   3.389   7.348   5.432
13112TIP3    H239280   3.533   7.306   5.413
13113TIP3   OH239281   3.303   7.286   5.098
13113TIP3    H139282   3.342   7.294   5.011
13113TIP3    H239283   3.215   7.323   5.088
13114TIP3   OH239284   3.953   7.426   5.310
13114TIP3    H139285   4.005   7.471   5.244
13114TIP3    H239286   3.993   7.452   5.393
13115TIP3   OH239287   4.449   7.560   5.293
13115TIP3    H139288   4.465   7.526   5.205
13115TIP3    H239289   4.463   7.484   5.350
13116TIP3   OH239290   4.504   7.524   4.849
13116TIP3    H139291   4.426   7.572   4.876
13116TIP3    H239292   4.493   7.437   4.887
13117TIP3   OH239293   3.375   7.455   4.810
13117TIP3    H139294   3.414   7.391   4.750
13117TIP3    H239295   3.450   7.499   4.850
13118TIP3   OH239296   3.880   7.606   4.924
13118TIP3    H139297   3.932   7.546   4.977
13118TIP3    H239298   3.895   7.692   4.963
13119TIP3   OH239299   3.718   7.688   6.292
13119TIP3    H139300   3.669   7.626   6.347
13119TIP3    H239301   3.808   7.683   6.325
13120TIP3   OH239302   3.956   7.672   6.432
13120TIP3    H139303   4.045   7.649   6.406
13120TIP3    H239304   3.934   7.609   6.501
13121TIP3   OH239305   4.788   7.779   6.198
13121TIP3    H139306   4.800   7.742   6.285
13121TIP3    H239307   4.873   7.767   6.155
13122TIP3   OH239308   0.277   0.626   4.455
13122TIP3    H139309   0.237   0.712   4.470
13122TIP3    H239310   0.204   0.570   4.429
13123TIP3   OH239311   0.230   0.623   4.876
13123TIP3    H139312   0.274   0.613   4.961
13123TIP3    H239313   0.199   0.535   4.854
13124TIP3   OH239314   8.102   0.516   5.222
13124TIP3    H139315   8.139   0.458   5.289
13124TIP3    H239316   8.178   0.564   5.188
13125TIP3   OH239317   0.417   1.014   4.677
13125TIP3    H139318   0.432   0.926   4.713
13125TIP3    H239319   0.492   1.065   4.707
13126TIP3   OH239320   8.188   0.841   4.991
13126TIP3    H139321   8.168   0.759   4.946
13126TIP3    H239322   8.245   0.889   4.931
13127TIP3   OH239323   7.785   0.152   4.703
13127TIP3    H139324   7.746   0.237   4.724
13127TIP3    H239325   7.713   0.100   4.668
13128TIP3   OH239326   7.836   0.451   4.911
13128TIP3    H139327   7.908   0.390   4.928
13128TIP3    H239328   7.876   0.523   4.863
13129TIP3   OH239329   0.124   0.885   4.884
13129TIP3    H139330   0.149   0.796   4.860
13129TIP3    H239331   0.205   0.925   4.916
13130TIP3   OH239332   1.060   0.236   4.949
13130TIP3    H139333   1.110   0.281   5.017
13130TIP3    H239334   1.127   0.202   4.889
13131TIP3   OH239335   0.501   0.369   4.930
13131TIP3    H139336   0.537   0.286   4.960
13131TIP3    H239337   0.464   0.350   4.843
13132TIP3   OH239338   8.377   0.020   4.869
13132TIP3    H139339   8.353   0.095   4.814
13132TIP3    H239340   8.320  -0.051   4.839
13133TIP3   OH239341   0.575   0.136   4.525
13133TIP3    H139342   0.642   0.128   4.592
13133TIP3    H239343   0.621   0.171   4.449
13134TIP3   OH239344   8.000   0.242   5.006
13134TIP3    H139345   8.083   0.223   5.049
13134TIP3    H239346   8.002   0.191   4.925
13135TIP3   OH239347   8.430   0.430   4.800
13135TIP3    H139348   8.519   0.399   4.815
13135TIP3    H239349   8.382   0.351   4.773
13136TIP3   OH239350   8.351   0.028   5.325
13136TIP3    H139351   8.300   0.064   5.252
13136TIP3    H239352   8.296   0.043   5.402
13137TIP3   OH239353   0.118   0.840   4.364
13137TIP3    H139354   0.034   0.800   4.342
13137TIP3    H239355   0.129   0.910   4.301
13138TIP3   OH239356   8.487   0.779   5.097
13138TIP3    H139357   8.436   0.845   5.144
13138TIP3    H239358   8.530   0.827   5.027
13139TIP3   OH239359   0.744   0.149   4.746
13139TIP3    H139360   0.687   0.130   4.820
13139TIP3    H239361   0.775   0.238   4.761
13140TIP3   OH239362   8.243   0.128   5.091
13140TIP3    H139363   8.298   0.203   5.114
13140TIP3    H239364   8.291   0.085   5.019
13141TIP3   OH239365   8.352   0.977   5.233
13141TIP3    H139366   8.333   1.041   5.165
13141TIP3    H239367   8.266   0.946   5.263
13142TIP3   OH239368   7.690   0.566   4.436
13142TIP3    H139369   7.659   0.591   4.349
13142TIP3    H239370   7.726   0.647   4.472
13143TIP3   OH239371   0.873   0.052   5.047
13143TIP3    H139372   0.788   0.082   5.014
13143TIP3    H239373   0.936   0.115   5.012
13144TIP3   OH239374   5.857   7.742   5.056
13144TIP3    H139375   5.852   7.650   5.081
13144TIP3    H239376   5.780   7.783   5.095
13145TIP3   OH239377   0.526   0.974   4.090
13145TIP3    H139378   0.468   0.918   4.142
13145TIP3    H239379   0.608   0.976   4.139
13146TIP3   OH239380   0.106   0.480   4.297
13146TIP3    H139381   0.028   0.534   4.289
13146TIP3    H239382   0.144   0.478   4.209
13147TIP3   OH239383   0.081   0.289   3.983
13147TIP3    H139384   0.140   0.352   4.024
13147TIP3    H239385   0.139   0.226   3.941
13148TIP3   OH239386   0.443   0.495   4.277
13148TIP3    H139387   0.387   0.542   4.338
13148TIP3    H239388   0.520   0.471   4.329
13149TIP3   OH239389   8.239   0.568   4.658
13149TIP3    H139390   8.199   0.504   4.599
13149TIP3    H239391   8.313   0.522   4.697
13150TIP3   OH239392   8.368   0.979   4.820
13150TIP3    H139393   8.365   0.958   4.727
13150TIP3    H239394   8.458   0.957   4.846
13151TIP3   OH239395   8.346   0.553   5.033
13151TIP3    H139396   8.385   0.523   4.951
13151TIP3    H239397   8.392   0.634   5.054
13152TIP3   OH239398   8.471   0.922   5.486
13152TIP3    H139399   8.558   0.961   5.487
13152TIP3    H239400   8.438   0.938   5.398
13153TIP3   OH239401   0.265   0.471   4.069
13153TIP3    H139402   0.336   0.491   4.129
13153TIP3    H239403   0.305   0.472   3.982
13154TIP3   OH239404   8.231   0.631   5.504
13154TIP3    H139405   8.225   0.723   5.531
13154TIP3    H239406   8.140   0.600   5.506
13155TIP3   OH239407   8.117   0.394   4.479
13155TIP3    H139408   8.046   0.437   4.431
13155TIP3    H239409   8.079   0.311   4.508
13156TIP3   OH239410   7.919   0.753   5.385
13156TIP3    H139411   7.839   0.741   5.334
13156TIP3    H239412   7.936   0.666   5.423
13157TIP3   OH239413   8.095   0.945   5.317
13157TIP3    H139414   8.050   1.003   5.378
13157TIP3    H239415   8.048   0.862   5.324
13158TIP3   OH239416   5.622   7.829   5.181
13158TIP3    H139417   5.538   7.794   5.150
13158TIP3    H239418   5.599   7.909   5.228
13159TIP3   OH239419   6.163   7.941   5.383
13159TIP3    H139420   6.233   7.908   5.439
13159TIP3    H239421   6.083   7.926   5.433
13160TIP3   OH239422   0.387   0.424   3.824
13160TIP3    H139423   0.356   0.422   3.734
13160TIP3    H239424   0.462   0.484   3.822
13161TIP3   OH239425   5.781   7.865   4.155
13161TIP3    H139426   5.741   7.874   4.241
13161TIP3    H239427   5.742   7.786   4.118
13162TIP3   OH239428   8.400   0.332   5.182
13162TIP3    H139429   8.357   0.342   5.266
13162TIP3    H239430   8.382   0.414   5.135
13163TIP3   OH239431   8.277   0.221   4.714
13163TIP3    H139432   8.189   0.197   4.742
13163TIP3    H239433   8.284   0.188   4.624
13164TIP3   OH239434   0.253   0.291   4.439
13164TIP3    H139435   0.200   0.355   4.392
13164TIP3    H239436   0.317   0.261   4.375
13165TIP3   OH239437   0.416   0.315   4.672
13165TIP3    H139438   0.347   0.337   4.609
13165TIP3    H239439   0.470   0.250   4.627
13166TIP3   OH239440   8.230   0.343   5.399
13166TIP3    H139441   8.274   0.404   5.457
13166TIP3    H239442   8.211   0.266   5.453
13167TIP3   OH239443   5.442   7.854   4.127
13167TIP3    H139444   5.430   7.857   4.222
13167TIP3    H239445   5.363   7.895   4.092
13168TIP3   OH239446   4.989   7.898   4.995
13168TIP3    H139447   5.059   7.934   5.049
13168TIP3    H239448   5.028   7.887   4.908
13169TIP3   OH239449   4.892   7.869   4.493
13169TIP3    H139450   4.935   7.904   4.414
13169TIP3    H239451   4.835   7.940   4.523
13170TIP3   OH239452   0.373   0.546   5.101
13170TIP3    H139453   0.429   0.498   5.040
13170TIP3    H239454   0.381   0.499   5.184
13171TIP3   OH239455   0.143   0.016   4.769
13171TIP3    H139456   0.061   0.014   4.819
13171TIP3    H239457   0.211   0.009   4.836
13172TIP3   OH239458   8.042   0.098   4.777
13172TIP3    H139459   7.954   0.105   4.742
13172TIP3    H239460   8.068   0.008   4.758
13173TIP3   OH239461   8.287   0.098   4.470
13173TIP3    H139462   8.381   0.110   4.455
13173TIP3    H239463   8.247   0.116   4.385
13174TIP3   OH239464   0.591   0.108   4.980
13174TIP3    H139465   0.580   0.123   5.074
13174TIP3    H239466   0.518   0.051   4.956
13175TIP3   OH239467   8.164   0.117   4.228
13175TIP3    H139468   8.099   0.070   4.176
13175TIP3    H239469   8.218   0.162   4.162
13176TIP3   OH239470   8.230   0.884   5.614
13176TIP3    H139471   8.322   0.899   5.592
13176TIP3    H239472   8.220   0.918   5.703
13177TIP3   OH239473   0.182   0.347   4.867
13177TIP3    H139474   0.252   0.299   4.822
13177TIP3    H239475   0.185   0.315   4.957
13178TIP3   OH239476   5.348   7.864   4.755
13178TIP3    H139477   5.319   7.790   4.808
13178TIP3    H239478   5.363   7.827   4.668
13179TIP3   OH239479   0.167   0.280   5.138
13179TIP3    H139480   0.078   0.310   5.156
13179TIP3    H239481   0.222   0.332   5.197
13180TIP3   OH239482   8.394   0.666   4.278
13180TIP3    H139483   8.331   0.600   4.249
13180TIP3    H239484   8.354   0.706   4.355
13181TIP3   OH239485   6.034   7.969   4.159
13181TIP3    H139486   5.940   7.949   4.157
13181TIP3    H239487   6.037   8.065   4.168
13182TIP3   OH239488   0.441   0.216   4.237
13182TIP3    H139489   0.533   0.197   4.250
13182TIP3    H239490   0.438   0.310   4.220
13183TIP3   OH239491   8.104   0.589   4.902
13183TIP3    H139492   8.132   0.582   4.811
13183TIP3    H239493   8.176   0.551   4.952
13184TIP3   OH239494   8.444   0.815   4.052
13184TIP3    H139495   8.462   0.901   4.090
13184TIP3    H239496   8.431   0.758   4.128
13185TIP3   OH239497   7.970   0.530   5.539
13185TIP3    H139498   7.966   0.512   5.633
13185TIP3    H239499   7.890   0.493   5.503
13186TIP3   OH239500   0.815   0.295   4.041
13186TIP3    H139501   0.770   0.237   3.980
13186TIP3    H239502   0.819   0.380   3.996
13187TIP3   OH239503   0.449   0.761   4.778
13187TIP3    H139504   0.372   0.706   4.793
13187TIP3    H239505   0.518   0.699   4.753
13188TIP3   OH239506   7.784   0.266   4.248
13188TIP3    H139507   7.838   0.344   4.261
13188TIP3    H239508   7.713   0.275   4.312
13189TIP3   OH239509   8.285   0.785   4.499
13189TIP3    H139510   8.201   0.832   4.502
13189TIP3    H239511   8.274   0.713   4.561
13190TIP3   OH239512   0.378   0.924   4.991
13190TIP3    H139513   0.435   0.911   5.067
13190TIP3    H239514   0.418   0.872   4.922
13191TIP3   OH239515   0.331   0.819   3.802
13191TIP3    H139516   0.366   0.761   3.869
13191TIP3    H239517   0.237   0.798   3.798
13192TIP3   OH239518   8.178   0.099   5.531
13192TIP3    H139519   8.083   0.112   5.533
13192TIP3    H239520   8.197   0.046   5.609
13193TIP3   OH239521   0.478   0.686   3.997
13193TIP3    H139522   0.444   0.720   4.080
13193TIP3    H239523   0.549   0.746   3.974
13194TIP3   OH239524   8.184   0.785   3.947
13194TIP3    H139525   8.190   0.703   3.899
13194TIP3    H239526   8.273   0.802   3.978
13195TIP3   OH239527   7.924   0.501   4.322
13195TIP3    H139528   7.843   0.516   4.371
13195TIP3    H239529   7.936   0.580   4.270
13196TIP3   OH239530   0.558   0.157   5.249
13196TIP3    H139531   0.629   0.188   5.305
13196TIP3    H239532   0.528   0.076   5.291
13197TIP3   OH239533   6.100   7.929   4.429
13197TIP3    H139534   6.079   7.943   4.336
13197TIP3    H239535   6.139   8.011   4.458
13198TIP3   OH239536   0.069   0.103   4.515
13198TIP3    H139537   0.130   0.171   4.488
13198TIP3    H239538   0.090   0.087   4.607
13199TIP3   OH239539   0.369   0.373   5.314
13199TIP3    H139540   0.362   0.383   5.409
13199TIP3    H239541   0.425   0.296   5.301
13200TIP3   OH239542   5.905   7.829   4.601
13200TIP3    H139543   5.877   7.905   4.651
13200TIP3    H239544   5.972   7.862   4.540
13201TIP3   OH239545   5.410   7.841   4.407
13201TIP3    H139546   5.397   7.931   4.436
13201TIP3    H239547   5.504   7.826   4.413
13202TIP3   OH239548   0.604   0.533   4.704
13202TIP3    H139549   0.530   0.473   4.704
13202TIP3    H239550   0.665   0.498   4.769
13203TIP3   OH239551   7.952   0.753   4.186
13203TIP3    H139552   7.948   0.838   4.142
13203TIP3    H239553   7.977   0.691   4.118
13204TIP3   OH239554   7.803  -0.008   4.270
13204TIP3    H139555   7.811   0.087   4.277
13204TIP3    H239556   7.769  -0.023   4.182
13205TIP3   OH239557   5.362   7.741   5.144
13205TIP3    H139558   5.332   7.709   5.059
13205TIP3    H239559   5.352   7.666   5.202
13206TIP3   OH239560   8.045   0.822   5.854
13206TIP3    H139561   8.097   0.745   5.828
13206TIP3    H239562   7.993   0.842   5.777
13207TIP3   OH239563   8.024   0.526   4.031
13207TIP3    H139564   8.080   0.500   4.104
13207TIP3    H239565   8.083   0.534   3.957
13208TIP3   OH239566   0.074   0.733   3.820
13208TIP3    H139567   0.020   0.758   3.896
13208TIP3    H239568   0.046   0.644   3.799
13209TIP3   OH239569   8.194   0.597   5.796
13209TIP3    H139570   8.252   0.588   5.721
13209TIP3    H239571   8.216   0.522   5.852
13210TIP3   OH239572   8.225   0.458   4.219
13210TIP3    H139573   8.192   0.419   4.300
13210TIP3    H239574   8.256   0.384   4.167
13211TIP3   OH239575   8.467   0.505   5.435
13211TIP3    H139576   8.401   0.572   5.454
13211TIP3    H239577   8.527   0.548   5.374
13212TIP3   OH239578   8.318   0.259   4.053
13212TIP3    H139579   8.286   0.259   3.963
13212TIP3    H239580   8.414   0.263   4.044
13213TIP3   OH239581   0.596   0.576   3.699
13213TIP3    H139582   0.587   0.529   3.616
13213TIP3    H239583   0.584   0.668   3.676
13214TIP3   OH239584   0.078   0.294   5.560
13214TIP3    H139585   0.091   0.224   5.497
13214TIP3    H239586   0.042   0.366   5.508
13215TIP3   OH239587   0.112   0.103   5.356
13215TIP3    H139588   0.138   0.146   5.275
13215TIP3    H239589   0.020   0.080   5.343
13216TIP3   OH239590   0.134   0.605   5.243
13216TIP3    H139591   0.220   0.600   5.200
13216TIP3    H239592   0.086   0.670   5.193
13217TIP3   OH239593   8.458   0.388   5.791
13217TIP3    H139594   8.398   0.317   5.813
13217TIP3    H239595   8.494   0.363   5.705
13218TIP3   OH239596   5.901   7.893   5.467
13218TIP3    H139597   5.861   7.973   5.433
13218TIP3    H239598   5.834   7.826   5.455
13219TIP3   OH239599   0.346   0.358   5.591
13219TIP3    H139600   0.376   0.337   5.679
13219TIP3    H239601   0.252   0.340   5.593
13220TIP3   OH239602   8.313   0.164   5.866
13220TIP3    H139603   8.319   0.077   5.826
13220TIP3    H239604   8.354   0.155   5.952
13221TIP3   OH239605   5.959   7.875   5.737
13221TIP3    H139606   6.034   7.817   5.732
13221TIP3    H239607   5.931   7.888   5.647
13222TIP3   OH239608   0.396   0.098   5.854
13222TIP3    H139609   0.357   0.017   5.820
13222TIP3    H239610   0.321   0.156   5.869
13223TIP3   OH239611   7.647   0.637   4.175
13223TIP3    H139612   7.684   0.694   4.107
13223TIP3    H239613   7.623   0.557   4.128
13224TIP3   OH239614   0.781   0.892   4.178
13224TIP3    H139615   0.852   0.950   4.151
13224TIP3    H239616   0.770   0.832   4.103
13225TIP3   OH239617   0.793   0.715   4.390
13225TIP3    H139618   0.747   0.643   4.347
13225TIP3    H239619   0.787   0.788   4.328
13226TIP3   OH239620   0.775   0.534   3.904
13226TIP3    H139621   0.719   0.516   3.828
13226TIP3    H239622   0.785   0.629   3.904
13227TIP3   OH239623   0.672   0.178   3.837
13227TIP3    H139624   0.627   0.208   3.757
13227TIP3    H239625   0.670   0.083   3.832
13228TIP3   OH239626   0.642   0.451   4.447
13228TIP3    H139627   0.736   0.433   4.441
13228TIP3    H239628   0.631   0.492   4.532
13229TIP3   OH239629   7.837   0.526   5.172
13229TIP3    H139630   7.824   0.496   5.083
13229TIP3    H239631   7.932   0.520   5.186
13230TIP3   OH239632   6.301   7.921   3.820
13230TIP3    H139633   6.352   7.869   3.883
13230TIP3    H239634   6.210   7.897   3.837
13231TIP3   OH239635   0.723   0.191   4.291
13231TIP3    H139636   0.805   0.171   4.335
13231TIP3    H239637   0.750   0.229   4.207
13232TIP3   OH239638   0.844   0.404   4.818
13232TIP3    H139639   0.876   0.492   4.798
13232TIP3    H239640   0.875   0.386   4.906
13233TIP3   OH239641   8.052   0.224   5.805
13233TIP3    H139642   8.145   0.225   5.828
13233TIP3    H239643   8.020   0.140   5.838
13234TIP3   OH239644   5.199   7.965   5.164
13234TIP3    H139645   5.253   7.886   5.169
13234TIP3    H239646   5.261   8.035   5.143
13235TIP3   OH239647   7.817   0.210   5.221
13235TIP3    H139648   7.865   0.205   5.138
13235TIP3    H239649   7.847   0.292   5.261
13236TIP3   OH239650   4.966   7.738   4.720
13236TIP3    H139651   4.882   7.727   4.763
13236TIP3    H239652   4.947   7.790   4.642
13237TIP3   OH239653   5.192   7.795   5.547
13237TIP3    H139654   5.136   7.781   5.623
13237TIP3    H239655   5.138   7.845   5.486
13238TIP3   OH239656   6.812   8.006   5.218
13238TIP3    H139657   6.718   7.992   5.215
13238TIP3    H239658   6.849   7.920   5.237
13239TIP3   OH239659   6.035   7.947   4.921
13239TIP3    H139660   5.989   7.877   4.968
13239TIP3    H239661   6.099   7.901   4.867
13240TIP3   OH239662   6.512   7.852   4.770
13240TIP3    H139663   6.535   7.944   4.753
13240TIP3    H239664   6.417   7.853   4.780
13241TIP3   OH239665   6.603   7.873   4.443
13241TIP3    H139666   6.693   7.844   4.457
13241TIP3    H239667   6.609   7.969   4.443
13242TIP3   OH239668   5.275   7.641   4.902
13242TIP3    H139669   5.186   7.606   4.912
13242TIP3    H239670   5.330   7.563   4.893
13243TIP3   OH239671   5.094   7.546   4.553
13243TIP3    H139672   5.118   7.596   4.475
13243TIP3    H239673   5.056   7.612   4.612
13244TIP3   OH239674   5.762   7.677   4.795
13244TIP3    H139675   5.807   7.731   4.730
13244TIP3    H239676   5.795   7.708   4.879
13245TIP3   OH239677   6.234   7.823   4.773
13245TIP3    H139678   6.206   7.792   4.687
13245TIP3    H239679   6.238   7.744   4.827
13246TIP3   OH239680   6.311   7.750   4.412
13246TIP3    H139681   6.242   7.816   4.410
13246TIP3    H239682   6.265   7.667   4.407
13247TIP3   OH239683   5.198   7.677   4.317
13247TIP3    H139684   5.244   7.616   4.258
13247TIP3    H239685   5.267   7.733   4.352
13248TIP3   OH239686   5.685   7.868   4.415
13248TIP3    H139687   5.743   7.814   4.469
13248TIP3    H239688   5.700   7.957   4.446
13249TIP3   OH239689   5.502   7.912   5.782
13249TIP3    H139690   5.469   7.844   5.841
13249TIP3    H239691   5.594   7.922   5.806
13250TIP3   OH239692   5.744   7.921   5.913
13250TIP3    H139693   5.822   7.905   5.861
13250TIP3    H239694   5.742   7.849   5.976
13251TIP3   OH239695   1.018   0.364   4.215
13251TIP3    H139696   0.978   0.409   4.289
13251TIP3    H239697   0.945   0.344   4.156
13252TIP3   OH239698   1.134   0.766   4.394
13252TIP3    H139699   1.156   0.678   4.426
13252TIP3    H239700   1.213   0.796   4.349
13253TIP3   OH239701   1.557   0.209   4.411
13253TIP3    H139702   1.532   0.302   4.415
13253TIP3    H239703   1.546   0.186   4.319
13254TIP3   OH239704   1.205   0.515   4.467
13254TIP3    H139705   1.279   0.479   4.515
13254TIP3    H239706   1.200   0.462   4.387
13255TIP3   OH239707   0.948   1.008   3.962
13255TIP3    H139708   1.000   1.012   3.882
13255TIP3    H239709   0.932   1.100   3.985
13256TIP3   OH239710   1.355   0.561   3.873
13256TIP3    H139711   1.287   0.629   3.867
13256TIP3    H239712   1.326   0.505   3.945
13257TIP3   OH239713   1.628   0.412   4.123
13257TIP3    H139714   1.537   0.422   4.153
13257TIP3    H239715   1.648   0.495   4.080
13258TIP3   OH239716   1.528   0.076   3.567
13258TIP3    H139717   1.530   0.065   3.662
13258TIP3    H239718   1.495   0.165   3.554
13259TIP3   OH239719   0.970   0.131   4.431
13259TIP3    H139720   0.988   0.189   4.505
13259TIP3    H239721   1.045   0.141   4.373
13260TIP3   OH239722   1.047   0.089   3.940
13260TIP3    H139723   1.138   0.064   3.960
13260TIP3    H239724   1.013   0.124   4.022
13261TIP3   OH239725   1.388   0.401   4.273
13261TIP3    H139726   1.335   0.462   4.222
13261TIP3    H239727   1.374   0.316   4.231
13262TIP3   OH239728   1.415   0.330   3.723
13262TIP3    H139729   1.325   0.298   3.721
13262TIP3    H239730   1.410   0.412   3.771
13263TIP3   OH239731   1.493   0.116   4.168
13263TIP3    H139732   1.469   0.025   4.149
13263TIP3    H239733   1.582   0.125   4.132
13264TIP3   OH239734   1.001   0.473   3.680
13264TIP3    H139735   1.080   0.523   3.658
13264TIP3    H239736   0.995   0.478   3.775
13265TIP3   OH239737   1.534   0.125   3.853
13265TIP3    H139738   1.510   0.205   3.805
13265TIP3    H239739   1.629   0.122   3.850
13266TIP3   OH239740   1.152   0.245   3.740
13266TIP3    H139741   1.087   0.307   3.708
13266TIP3    H239742   1.103   0.187   3.798
13267TIP3   OH239743   7.020   7.941   4.661
13267TIP3    H139744   7.037   7.905   4.574
13267TIP3    H239745   7.059   7.877   4.721
13268TIP3   OH239746   0.920   0.849   3.661
13268TIP3    H139747   0.957   0.930   3.626
13268TIP3    H239748   0.915   0.791   3.586
13269TIP3   OH239749   1.263   0.162   4.775
13269TIP3    H139750   1.301   0.083   4.737
13269TIP3    H239751   1.338   0.210   4.811
13270TIP3   OH239752   1.221   0.521   4.760
13270TIP3    H139753   1.169   0.480   4.691
13270TIP3    H239754   1.228   0.613   4.733
13271TIP3   OH239755   1.335   0.093   5.050
13271TIP3    H139756   1.276   0.059   5.118
13271TIP3    H239757   1.297   0.061   4.968
13272TIP3   OH239758   7.028   7.855   4.398
13272TIP3    H139759   6.940   7.818   4.407
13272TIP3    H239760   7.087   7.779   4.407
13273TIP3   OH239761   6.833   7.760   3.996
13273TIP3    H139762   6.862   7.764   3.905
13273TIP3    H239763   6.808   7.850   4.017
13274TIP3   OH239764   1.861   0.031   4.325
13274TIP3    H139765   1.842   0.060   4.236
13274TIP3    H239766   1.925  -0.039   4.314
13275TIP3   OH239767   6.929   7.848   3.748
13275TIP3    H139768   7.006   7.814   3.702
13275TIP3    H239769   6.965   7.914   3.808
13276TIP3   OH239770   1.804   0.131   3.821
13276TIP3    H139771   1.871   0.067   3.797
13276TIP3    H239772   1.853   0.210   3.842
13277TIP3   OH239773   7.407   5.691   1.104
13277TIP3    H139774   7.449   5.740   1.033
13277TIP3    H239775   7.476   5.634   1.138
13278TIP3   OH239776   7.021   5.981   1.040
13278TIP3    H139777   7.036   5.892   1.010
13278TIP3    H239778   7.095   6.000   1.097
13279TIP3   OH239779   7.170   5.168   1.193
13279TIP3    H139780   7.205   5.190   1.107
13279TIP3    H239781   7.241   5.118   1.235
13280TIP3   OH239782   7.265   5.657   1.357
13280TIP3    H139783   7.315   5.688   1.433
13280TIP3    H239784   7.328   5.657   1.285
13281TIP3   OH239785   7.456   6.089   0.992
13281TIP3    H139786   7.491   6.132   0.915
13281TIP3    H239787   7.371   6.131   1.007
13282TIP3   OH239788   6.621   5.713   1.138
13282TIP3    H139789   6.560   5.640   1.133
13282TIP3    H239790   6.701   5.682   1.096
13283TIP3   OH239791   7.110   5.721   0.981
13283TIP3    H139792   7.140   5.670   1.057
13283TIP3    H239793   7.183   5.780   0.962
13284TIP3   OH239794   7.403   5.243   1.025
13284TIP3    H139795   7.492   5.219   0.998
13284TIP3    H239796   7.376   5.309   0.961
13285TIP3   OH239797   7.652   5.274   1.268
13285TIP3    H139798   7.658   5.191   1.220
13285TIP3    H239799   7.645   5.248   1.360
13286TIP3   OH239800   7.402   6.142   1.288
13286TIP3    H139801   7.431   6.051   1.286
13286TIP3    H239802   7.426   6.178   1.203
13287TIP3   OH239803   0.267   5.636   1.317
13287TIP3    H139804   0.277   5.716   1.266
13287TIP3    H239805   0.255   5.567   1.251
13288TIP3   OH239806   0.663   5.820   1.260
13288TIP3    H139807   0.607   5.761   1.311
13288TIP3    H239808   0.666   5.901   1.311
13289TIP3   OH239809   0.312   6.339   1.344
13289TIP3    H139810   0.345   6.271   1.286
13289TIP3    H239811   0.327   6.305   1.432
13290TIP3   OH239812   0.260   5.838   1.130
13290TIP3    H139813   0.244   5.816   1.038
13290TIP3    H239814   0.220   5.924   1.141
13291TIP3   OH239815   7.795   5.615   1.204
13291TIP3    H139816   7.709   5.580   1.229
13291TIP3    H239817   7.794   5.705   1.238
13292TIP3   OH239818   0.676   6.079   1.355
13292TIP3    H139819   0.643   6.101   1.442
13292TIP3    H239820   0.703   6.163   1.318
13293TIP3   OH239821   0.419   6.190   1.129
13293TIP3    H139822   0.470   6.110   1.111
13293TIP3    H239823   0.480   6.261   1.113
13294TIP3   OH239824   0.568   5.972   1.046
13294TIP3    H139825   0.550   5.900   0.985
13294TIP3    H239826   0.600   5.929   1.125
13295TIP3   OH239827   0.222   5.464   1.104
13295TIP3    H139828   0.143   5.511   1.077
13295TIP3    H239829   0.275   5.458   1.024
13296TIP3   OH239830   0.202   5.251   0.795
13296TIP3    H139831   0.267   5.312   0.832
13296TIP3    H239832   0.242   5.165   0.807
13297TIP3   OH239833   0.569   5.545   1.063
13297TIP3    H139834   0.563   5.558   1.157
13297TIP3    H239835   0.636   5.477   1.053
13298TIP3   OH239836   0.367   6.253   1.600
13298TIP3    H139837   0.462   6.268   1.594
13298TIP3    H239838   0.359   6.176   1.658
13299TIP3   OH239839   0.395   5.430   0.887
13299TIP3    H139840   0.456   5.481   0.940
13299TIP3    H239841   0.424   5.443   0.797
13300TIP3   OH239842   0.157   6.095   1.150
13300TIP3    H139843   0.245   6.133   1.151
13300TIP3    H239844   0.105   6.158   1.100
13301TIP3   OH239845   8.190   5.347   1.260
13301TIP3    H139846   8.163   5.438   1.248
13301TIP3    H239847   8.229   5.345   1.347
13302TIP3   OH239848   0.742   6.019   0.508
13302TIP3    H139849   0.742   6.114   0.492
13302TIP3    H239850   0.826   5.989   0.475
13303TIP3   OH239851   0.059   6.309   0.979
13303TIP3    H139852   0.013   6.287   0.898
13303TIP3    H239853   0.025   6.396   1.003
13304TIP3   OH239854   8.126   6.165   1.414
13304TIP3    H139855   8.087   6.179   1.500
13304TIP3    H239856   8.054   6.179   1.352
13305TIP3   OH239857   0.264   6.238   0.609
13305TIP3    H139858   0.312   6.164   0.573
13305TIP3    H239859   0.298   6.248   0.698
13306TIP3   OH239860   0.313   6.277   0.880
13306TIP3    H139861   0.224   6.284   0.917
13306TIP3    H239862   0.364   6.235   0.949
13307TIP3   OH239863   0.482   5.448   0.633
13307TIP3    H139864   0.440   5.417   0.553
13307TIP3    H239865   0.569   5.476   0.605
13308TIP3   OH239866   0.333   5.245   1.234
13308TIP3    H139867   0.291   5.326   1.207
13308TIP3    H239868   0.389   5.221   1.160
13309TIP3   OH239869   8.406   5.048   1.264
13309TIP3    H139870   8.491   5.035   1.222
13309TIP3    H239871   8.345   5.058   1.191
13310TIP3   OH239872   8.269   5.081   1.016
13310TIP3    H139873   8.227   5.025   0.951
13310TIP3    H239874   8.338   5.127   0.967
13311TIP3   OH239875   8.490   5.611   1.050
13311TIP3    H139876   8.427   5.540   1.037
13311TIP3    H239877   8.472   5.643   1.138
13312TIP3   OH239878   0.341   5.008   0.841
13312TIP3    H139879   0.367   4.920   0.867
13312TIP3    H239880   0.381   5.065   0.907
13313TIP3   OH239881   0.468   5.180   1.007
13313TIP3    H139882   0.555   5.139   1.007
13313TIP3    H239883   0.482   5.265   0.964
13314TIP3   OH239884   0.142   5.761   0.880
13314TIP3    H139885   0.094   5.844   0.879
13314TIP3    H239886   0.089   5.704   0.936
13315TIP3   OH239887   0.689   6.088   0.778
13315TIP3    H139888   0.652   6.022   0.837
13315TIP3    H239889   0.702   6.041   0.695
13316TIP3   OH239890   8.311   5.960   1.341
13316TIP3    H139891   8.355   6.018   1.279
13316TIP3    H239892   8.254   6.017   1.392
13317TIP3   OH239893   7.991   5.119   1.034
13317TIP3    H139894   8.086   5.119   1.050
13317TIP3    H239895   7.961   5.202   1.070
13318TIP3   OH239896   8.440   5.717   1.293
13318TIP3    H139897   8.395   5.797   1.320
13318TIP3    H239898   8.524   5.720   1.338
13319TIP3   OH239899   8.288   6.199   1.190
13319TIP3    H139900   8.229   6.192   1.265
13319TIP3    H239901   8.320   6.289   1.193
13320TIP3   OH239902   0.437   5.815   0.656
13320TIP3    H139903   0.478   5.790   0.738
13320TIP3    H239904   0.355   5.764   0.654
13321TIP3   OH239905   0.760   6.293   0.474
13321TIP3    H139906   0.772   6.348   0.397
13321TIP3    H239907   0.688   6.334   0.522
13322TIP3   OH239908   0.585   5.750   0.881
13322TIP3    H139909   0.561   5.685   0.947
13322TIP3    H239910   0.679   5.737   0.868
13323TIP3   OH239911   8.321   5.778   0.675
13323TIP3    H139912   8.334   5.690   0.639
13323TIP3    H239913   8.312   5.764   0.769
13324TIP3   OH239914   8.278   5.788   0.949
13324TIP3    H139915   8.357   5.771   1.000
13324TIP3    H239916   8.261   5.881   0.960
13325TIP3   OH239917   8.068   5.591   1.185
13325TIP3    H139918   7.973   5.579   1.178
13325TIP3    H239919   8.097   5.607   1.096
13326TIP3   OH239920   8.499   5.991   0.886
13326TIP3    H139921   8.410   6.013   0.915
13326TIP3    H239922   8.523   6.065   0.830
13327TIP3   OH239923   0.183   5.019   1.213
13327TIP3    H139924   0.222   5.106   1.215
13327TIP3    H239925   0.256   4.959   1.197
13328TIP3   OH239926   8.241   6.061   0.961
13328TIP3    H139927   8.220   6.128   0.896
13328TIP3    H239928   8.255   6.109   1.043
13329TIP3   OH239929   8.012   5.715   0.930
13329TIP3    H139930   7.997   5.809   0.919
13329TIP3    H239931   8.102   5.702   0.901
13330TIP3   OH239932   7.927   4.865   0.939
13330TIP3    H139933   7.950   4.945   0.987
13330TIP3    H239934   7.864   4.821   0.996
13331TIP3   OH239935   0.729   6.361   1.322
13331TIP3    H139936   0.661   6.420   1.291
13331TIP3    H239937   0.811   6.409   1.308
13332TIP3   OH239938   7.773   5.836   1.366
13332TIP3    H139939   7.734   5.857   1.451
13332TIP3    H239940   7.800   5.921   1.331
13333TIP3   OH239941   8.454   5.990   0.567
13333TIP3    H139942   8.410   5.918   0.612
13333TIP3    H239943   8.527   5.949   0.522
13334TIP3   OH239944   0.389   6.027   0.488
13334TIP3    H139945   0.421   5.960   0.549
13334TIP3    H239946   0.447   6.020   0.413
13335TIP3   OH239947   8.197   5.524   0.809
13335TIP3    H139948   8.250   5.487   0.880
13335TIP3    H239949   8.253   5.517   0.731
13336TIP3   OH239950   0.189   5.691   0.619
13336TIP3    H139951   0.165   5.704   0.710
13336TIP3    H239952   0.173   5.598   0.603
13337TIP3   OH239953   8.321   5.400   1.020
13337TIP3    H139954   8.282   5.358   1.096
13337TIP3    H239955   8.362   5.329   0.971
13338TIP3   OH239956   8.436   5.220   0.850
13338TIP3    H139957   8.403   5.224   0.761
13338TIP3    H239958   8.531   5.229   0.841
13339TIP3   OH239959   0.714   5.528   0.506
13339TIP3    H139960   0.698   5.484   0.423
13339TIP3    H239961   0.692   5.620   0.489
13340TIP3   OH239962   8.254   6.280   0.790
13340TIP3    H139963   8.342   6.262   0.758
13340TIP3    H239964   8.209   6.323   0.717
13341TIP3   OH239965   7.757   5.663   0.860
13341TIP3    H139966   7.849   5.668   0.889
13341TIP3    H239967   7.745   5.571   0.837
13342TIP3   OH239968   7.658   6.325   1.320
13342TIP3    H139969   7.567   6.336   1.293
13342TIP3    H239970   7.679   6.234   1.297
13343TIP3   OH239971   0.914   6.560   1.273
13343TIP3    H139972   0.906   6.626   1.342
13343TIP3    H239973   0.892   6.606   1.193
13344TIP3   OH239974   0.857   5.697   0.884
13344TIP3    H139975   0.898   5.768   0.835
13344TIP3    H239976   0.919   5.677   0.954
13345TIP3   OH239977   0.896   5.491   0.705
13345TIP3    H139978   0.830   5.498   0.636
13345TIP3    H239979   0.872   5.557   0.769
13346TIP3   OH239980   0.668   5.153   0.652
13346TIP3    H139981   0.729   5.222   0.625
13346TIP3    H239982   0.724   5.086   0.691
13347TIP3   OH239983   0.567   6.405   1.044
13347TIP3    H139984   0.614   6.380   0.964
13347TIP3    H239985   0.605   6.489   1.069
13348TIP3   OH239986   0.216   6.489   1.631
13348TIP3    H139987   0.145   6.495   1.567
13348TIP3    H239988   0.248   6.400   1.624
13349TIP3   OH239989   0.461   6.563   1.737
13349TIP3    H139990   0.377   6.541   1.698
13349TIP3    H239991   0.522   6.568   1.663
13350TIP3   OH239992   0.639   6.634   1.534
13350TIP3    H139993   0.640   6.729   1.530
13350TIP3    H239994   0.625   6.606   1.444
13351TIP3   OH239995   7.698   6.132   1.114
13351TIP3    H139996   7.624   6.071   1.112
13351TIP3    H239997   7.685   6.188   1.038
13352TIP3   OH239998   0.009   6.212   0.712
13352TIP3    H139999   0.092   6.240   0.674
13352TIP3    H240000  -0.021   6.142   0.654
13353TIP3   OH240001   0.712   6.355   0.814
13353TIP3    H140002   0.709   6.260   0.805
13353TIP3    H240003   0.667   6.388   0.735
13354TIP3   OH240004   7.918   6.131   0.724
13354TIP3    H140005   7.838   6.090   0.759
13354TIP3    H240006   7.982   6.060   0.722
13355TIP3   OH240007   0.991   5.888   0.751
13355TIP3    H140008   1.041   5.850   0.679
13355TIP3    H240009   1.012   5.981   0.749
13356TIP3   OH240010   1.855   6.597   0.458
13356TIP3    H140011   1.820   6.567   0.375
13356TIP3    H240012   1.809   6.679   0.476
13357TIP3   OH240013   1.233   6.433   0.750
13357TIP3    H140014   1.259   6.366   0.813
13357TIP3    H240015   1.154   6.397   0.708
13358TIP3   OH240016   2.042   6.503   0.094
13358TIP3    H140017   2.073   6.424   0.050
13358TIP3    H240018   2.063   6.489   0.186
13359TIP3   OH240019   1.113   5.507   0.541
13359TIP3    H140020   1.145   5.597   0.548
13359TIP3    H240021   1.038   5.503   0.601
13360TIP3   OH240022   1.504   6.440   0.669
13360TIP3    H140023   1.410   6.439   0.688
13360TIP3    H240024   1.530   6.531   0.685
13361TIP3   OH240025   1.569   6.057   0.160
13361TIP3    H140026   1.579   5.968   0.126
13361TIP3    H240027   1.540   6.045   0.251
13362TIP3   OH240028   1.488   6.088   0.434
13362TIP3    H140029   1.463   6.078   0.526
13362TIP3    H240030   1.513   6.179   0.425
13363TIP3   OH240031   1.183   5.777   0.588
13363TIP3    H140032   1.264   5.765   0.637
13363TIP3    H240033   1.206   5.838   0.518
13364TIP3   OH240034   1.816   6.201   0.338
13364TIP3    H140035   1.740   6.255   0.361
13364TIP3    H240036   1.889   6.263   0.334
13365TIP3   OH240037   1.581   6.344   0.424
13365TIP3    H140038   1.549   6.411   0.364
13365TIP3    H240039   1.561   6.378   0.511
13366TIP3   OH240040   1.247   5.953   0.385
13366TIP3    H140041   1.312   6.023   0.387
13366TIP3    H240042   1.287   5.885   0.331
13367TIP3   OH240043   1.093   5.221   0.583
13367TIP3    H140044   1.085   5.316   0.588
13367TIP3    H240045   1.177   5.206   0.540
13368TIP3   OH240046   1.108   6.130   0.777
13368TIP3    H140047   1.069   6.204   0.730
13368TIP3    H240048   1.192   6.164   0.809
13369TIP3   OH240049   1.718   6.263   0.054
13369TIP3    H140050   1.664   6.197   0.099
13369TIP3    H240051   1.790   6.212   0.016
13370TIP3   OH240052   7.799   2.285   6.877
13370TIP3    H140053   7.829   2.219   6.940
13370TIP3    H240054   7.864   2.282   6.807
13371TIP3   OH240055   1.392   5.762   0.258
13371TIP3    H140056   1.435   5.717   0.331
13371TIP3    H240057   1.460   5.769   0.191
13372TIP3   OH240058   1.906   6.029   0.123
13372TIP3    H140059   1.862   6.069   0.198
13372TIP3    H240060   1.891   5.935   0.134
13373TIP3   OH240061   1.525   6.554   0.255
13373TIP3    H140062   1.618   6.545   0.235
13373TIP3    H240063   1.487   6.595   0.178
13374TIP3   OH240064   0.976   5.930   0.400
13374TIP3    H140065   1.070   5.946   0.410
13374TIP3    H240066   0.969   5.836   0.380
13375TIP3   OH240067   0.914   6.513   0.916
13375TIP3    H140068   0.854   6.453   0.870
13375TIP3    H240069   0.973   6.455   0.964
13376TIP3   OH240070   1.087   6.362   1.069
13376TIP3    H140071   1.129   6.276   1.078
13376TIP3    H240072   1.089   6.399   1.157
13377TIP3   OH240073   1.004   6.335   0.621
13377TIP3    H140074   0.922   6.291   0.598
13377TIP3    H240075   0.999   6.420   0.577
13378TIP3   OH240076   1.783   6.490   0.198
13378TIP3    H140077   1.870   6.506   0.161
13378TIP3    H240078   1.750   6.413   0.152
13379TIP3   OH240079   1.096   6.313   0.254
13379TIP3    H140080   1.095   6.325   0.349
13379TIP3    H240081   1.175   6.263   0.237
13380TIP3   OH240082   5.298   7.237   1.222
13380TIP3    H140083   5.378   7.280   1.191
13380TIP3    H240084   5.286   7.163   1.164
13381TIP3   OH240085   5.295   7.669   1.174
13381TIP3    H140086   5.269   7.709   1.091
13381TIP3    H240087   5.232   7.599   1.188
13382TIP3   OH240088   6.745   7.180   1.611
13382TIP3    H140089   6.694   7.227   1.545
13382TIP3    H240090   6.716   7.089   1.604
13383TIP3   OH240091   7.051   7.552   1.522
13383TIP3    H140092   6.983   7.488   1.499
13383TIP3    H240093   7.021   7.634   1.481
13384TIP3   OH240094   6.598   7.937   1.474
13384TIP3    H140095   6.657   7.869   1.444
13384TIP3    H240096   6.579   7.914   1.565
13385TIP3   OH240097   6.585   7.319   1.431
13385TIP3    H140098   6.613   7.332   1.340
13385TIP3    H240099   6.567   7.408   1.463
13386TIP3   OH240100   6.803   7.769   1.363
13386TIP3    H140101   6.843   7.696   1.315
13386TIP3    H240102   6.832   7.847   1.316
13387TIP3   OH240103   6.981   7.606   1.220
13387TIP3    H140104   6.968   7.553   1.142
13387TIP3    H240105   7.067   7.579   1.253
13388TIP3   OH240106   6.644   6.954   1.207
13388TIP3    H140107   6.570   6.983   1.261
13388TIP3    H240108   6.707   7.026   1.211
13389TIP3   OH240109   6.559   6.899   0.901
13389TIP3    H140110   6.546   6.938   0.987
13389TIP3    H240111   6.604   6.816   0.919
13390TIP3   OH240112   6.824   7.145   1.293
13390TIP3    H140113   6.862   7.071   1.340
13390TIP3    H240114   6.878   7.155   1.215
13391TIP3   OH240115   6.884   6.932   0.996
13391TIP3    H140116   6.922   7.012   1.031
13391TIP3    H240117   6.848   6.957   0.911
13392TIP3   OH240118   6.558   7.589   1.472
13392TIP3    H140119   6.598   7.613   1.389
13392TIP3    H240120   6.473   7.634   1.472
13393TIP3   OH240121   7.227   6.220   1.003
13393TIP3    H140122   7.140   6.199   0.970
13393TIP3    H240123   7.251   6.301   0.958
13394TIP3   OH240124   7.108   7.570   0.644
13394TIP3    H140125   7.103   7.661   0.614
13394TIP3    H240126   7.198   7.544   0.625
13395TIP3   OH240127   6.463   7.956   1.050
13395TIP3    H140128   6.414   7.924   0.975
13395TIP3    H240129   6.461   8.051   1.042
13396TIP3   OH240130   6.614   7.806   0.738
13396TIP3    H140131   6.656   7.733   0.692
13396TIP3    H240132   6.666   7.818   0.817
13397TIP3   OH240133   6.712   7.848   0.997
13397TIP3    H140134   6.630   7.870   1.041
13397TIP3    H240135   6.779   7.858   1.065
13398TIP3   OH240136   6.813   7.042   0.758
13398TIP3    H140137   6.776   7.005   0.678
13398TIP3    H240138   6.902   7.067   0.734
13399TIP3   OH240139   6.511   6.391   1.026
13399TIP3    H140140   6.434   6.367   1.077
13399TIP3    H240141   6.563   6.311   1.022
13400TIP3   OH240142   6.743   6.761   1.385
13400TIP3    H140143   6.686   6.795   1.316
13400TIP3    H240144   6.825   6.808   1.375
13401TIP3   OH240145   6.210   6.372   1.061
13401TIP3    H140146   6.164   6.344   1.140
13401TIP3    H240147   6.193   6.466   1.055
13402TIP3   OH240148   6.037   6.468   1.272
13402TIP3    H140149   5.973   6.465   1.201
13402TIP3    H240150   6.094   6.541   1.249
13403TIP3   OH240151   6.258   7.183   1.305
13403TIP3    H140152   6.193   7.177   1.375
13403TIP3    H240153   6.281   7.276   1.301
13404TIP3   OH240154   6.852   6.464   0.971
13404TIP3    H140155   6.824   6.431   1.056
13404TIP3    H240156   6.908   6.539   0.993
13405TIP3   OH240157   6.981   6.688   1.055
13405TIP3    H140158   7.075   6.668   1.050
13405TIP3    H240159   6.975   6.779   1.024
13406TIP3   OH240160   6.552   7.361   0.892
13406TIP3    H140161   6.536   7.454   0.905
13406TIP3    H240162   6.544   7.323   0.980
13407TIP3   OH240163   7.339   6.830   0.820
13407TIP3    H140164   7.250   6.804   0.797
13407TIP3    H240165   7.331   6.922   0.845
13408TIP3   OH240166   7.032   7.642   0.898
13408TIP3    H140167   7.011   7.557   0.938
13408TIP3    H240168   7.056   7.620   0.808
13409TIP3   OH240169   6.033   7.725   1.361
13409TIP3    H140170   6.014   7.655   1.424
13409TIP3    H240171   5.979   7.798   1.389
13410TIP3   OH240172   6.801   7.417   0.791
13410TIP3    H140173   6.856   7.410   0.869
13410TIP3    H240174   6.715   7.386   0.820
13411TIP3   OH240175   7.092   7.838   0.598
13411TIP3    H140176   7.055   7.855   0.512
13411TIP3    H240177   7.038   7.890   0.658
13412TIP3   OH240178   6.972   7.401   1.022
13412TIP3    H140179   6.917   7.323   1.029
13412TIP3    H240180   7.062   7.367   1.021
13413TIP3   OH240181   6.157   7.352   0.730
13413TIP3    H140182   6.175   7.265   0.695
13413TIP3    H240183   6.173   7.344   0.824
13414TIP3   OH240184   6.016   7.412   1.195
13414TIP3    H140185   6.064   7.362   1.129
13414TIP3    H240186   6.010   7.500   1.158
13415TIP3   OH240187   6.952   6.566   1.336
13415TIP3    H140188   6.960   6.568   1.241
13415TIP3    H240189   6.864   6.599   1.353
13416TIP3   OH240190   6.496   7.616   0.954
13416TIP3    H140191   6.492   7.659   1.039
13416TIP3    H240192   6.485   7.687   0.891
13417TIP3   OH240193   6.204   7.650   1.161
13417TIP3    H140194   6.200   7.732   1.111
13417TIP3    H240195   6.157   7.668   1.242
13418TIP3   OH240196   5.852   7.184   1.139
13418TIP3    H140197   5.879   7.274   1.122
13418TIP3    H240198   5.934   7.138   1.162
13419TIP3   OH240199   7.086   7.965   1.548
13419TIP3    H140200   7.035   8.032   1.502
13419TIP3    H240201   7.175   8.000   1.550
13420TIP3   OH240202   6.296   7.585   0.697
13420TIP3    H140203   6.248   7.503   0.709
13420TIP3    H240204   6.369   7.562   0.640
13421TIP3   OH240205   6.730   7.602   0.604
13421TIP3    H140206   6.777   7.543   0.662
13421TIP3    H240207   6.784   7.605   0.524
13422TIP3   OH240208   5.983   7.119   0.864
13422TIP3    H140209   6.041   7.140   0.937
13422TIP3    H240210   6.042   7.100   0.791
13423TIP3   OH240211   6.452   7.254   0.663
13423TIP3    H140212   6.485   7.277   0.749
13423TIP3    H240213   6.465   7.159   0.656
13424TIP3   OH240214   6.084   6.981   1.141
13424TIP3    H140215   6.150   6.944   1.199
13424TIP3    H240216   6.116   6.962   1.053
13425TIP3   OH240217   6.184   6.649   1.117
13425TIP3    H140218   6.179   6.683   1.028
13425TIP3    H240219   6.276   6.657   1.142
13426TIP3   OH240220   7.067   7.107   0.672
13426TIP3    H140221   7.061   7.051   0.595
13426TIP3    H240222   7.043   7.194   0.640
13427TIP3   OH240223   5.970   7.923   0.866
13427TIP3    H140224   6.010   7.837   0.880
13427TIP3    H240225   6.001   7.950   0.780
13428TIP3   OH240226   5.575   7.188   1.143
13428TIP3    H140227   5.670   7.186   1.132
13428TIP3    H240228   5.545   7.107   1.102
13429TIP3   OH240229   1.677   0.069   1.534
13429TIP3    H140230   1.681   0.157   1.572
13429TIP3    H240231   1.732   0.075   1.456
13430TIP3   OH240232   7.237   7.319   1.010
13430TIP3    H140233   7.294   7.384   0.970
13430TIP3    H240234   7.289   7.281   1.080
13431TIP3   OH240235   7.385   7.181   1.193
13431TIP3    H140236   7.336   7.120   1.248
13431TIP3    H240237   7.458   7.209   1.248
13432TIP3   OH240238   7.352   7.553   1.610
13432TIP3    H140239   7.427   7.493   1.609
13432TIP3    H240240   7.383   7.630   1.563
13433TIP3   OH240241   7.278   7.098   0.845
13433TIP3    H140242   7.205   7.097   0.783
13433TIP3    H240243   7.266   7.179   0.895
13434TIP3   OH240244   7.089   6.756   0.742
13434TIP3    H140245   7.064   6.760   0.649
13434TIP3    H240246   7.099   6.662   0.759
13435TIP3   OH240247   7.252   6.999   1.342
13435TIP3    H140248   7.246   6.903   1.339
13435TIP3    H240249   7.182   7.025   1.402
13436TIP3   OH240250   7.111   6.486   0.751
13436TIP3    H140251   7.200   6.474   0.784
13436TIP3    H240252   7.064   6.407   0.776
13437TIP3   OH240253   7.167   6.734   1.325
13437TIP3    H140254   7.116   6.655   1.342
13437TIP3    H240255   7.215   6.715   1.244
13438TIP3   OH240256   7.208   6.404   1.368
13438TIP3    H140257   7.209   6.434   1.459
13438TIP3    H240258   7.184   6.312   1.373
13439TIP3   OH240259   7.355   6.422   0.855
13439TIP3    H140260   7.406   6.352   0.814
13439TIP3    H240261   7.417   6.495   0.863
13440TIP3   OH240262   6.889   7.964   1.187
13440TIP3    H140263   6.950   7.948   1.115
13440TIP3    H240264   6.934   8.026   1.244
13441TIP3   OH240265   6.929   6.276   1.184
13441TIP3    H140266   6.883   6.325   1.252
13441TIP3    H240267   6.994   6.224   1.232
13442TIP3   OH240268   5.531   7.701   1.322
13442TIP3    H140269   5.443   7.676   1.292
13442TIP3    H240270   5.526   7.796   1.332
13443TIP3   OH240271   6.355   7.833   0.826
13443TIP3    H140272   6.432   7.843   0.770
13443TIP3    H240273   6.303   7.765   0.784
13444TIP3   OH240274   7.043   7.905   0.966
13444TIP3    H140275   7.045   7.811   0.949
13444TIP3    H240276   7.010   7.944   0.885
13445TIP3   OH240277   5.736   7.632   0.909
13445TIP3    H140278   5.783   7.654   0.989
13445TIP3    H240279   5.764   7.543   0.888
13446TIP3   OH240280   0.043   7.435   0.892
13446TIP3    H140281   0.014   7.522   0.864
13446TIP3    H240282  -0.027   7.377   0.864
13447TIP3   OH240283   0.043   7.441   1.312
13447TIP3    H140284   0.092   7.412   1.389
13447TIP3    H240285   0.001   7.362   1.279
13448TIP3   OH240286   7.841   7.350   1.621
13448TIP3    H140287   7.831   7.275   1.679
13448TIP3    H240288   7.928   7.340   1.583
13449TIP3   OH240289   0.307   7.731   0.984
13449TIP3    H140290   0.294   7.664   1.053
13449TIP3    H240291   0.326   7.811   1.033
13450TIP3   OH240292   7.843   7.742   1.390
13450TIP3    H140293   7.820   7.651   1.374
13450TIP3    H240294   7.933   7.751   1.358
13451TIP3   OH240295   7.511   6.946   1.102
13451TIP3    H140296   7.472   7.033   1.107
13451TIP3    H240297   7.531   6.924   1.193
13452TIP3   OH240298   7.604   7.240   1.348
13452TIP3    H140299   7.651   7.165   1.383
13452TIP3    H240300   7.672   7.294   1.306
13453TIP3   OH240301   2.813   0.139   1.013
13453TIP3    H140302   2.834   0.079   0.941
13453TIP3    H240303   2.829   0.088   1.092
13454TIP3   OH240304   8.341   7.649   1.324
13454TIP3    H140305   8.388   7.571   1.296
13454TIP3    H240306   8.409   7.714   1.340
13455TIP3   OH240307   0.846   6.980   1.311
13455TIP3    H140308   0.870   7.056   1.363
13455TIP3    H240309   0.891   6.992   1.228
13456TIP3   OH240310   0.248   7.131   1.359
13456TIP3    H140311   0.288   7.047   1.383
13456TIP3    H240312   0.213   7.117   1.271
13457TIP3   OH240313   8.140   6.802   1.307
13457TIP3    H140314   8.118   6.883   1.261
13457TIP3    H240315   8.077   6.738   1.274
13458TIP3   OH240316   0.309   6.901   0.945
13458TIP3    H140317   0.374   6.890   1.014
13458TIP3    H240318   0.358   6.935   0.870
13459TIP3   OH240319   7.743   7.027   1.440
13459TIP3    H140320   7.825   6.988   1.473
13459TIP3    H240321   7.696   6.953   1.401
13460TIP3   OH240322   8.166   7.227   1.248
13460TIP3    H140323   8.261   7.219   1.243
13460TIP3    H240324   8.133   7.143   1.215
13461TIP3   OH240325   0.882   7.175   1.504
13461TIP3    H140326   0.797   7.218   1.499
13461TIP3    H240327   0.889   7.146   1.595
13462TIP3   OH240328   8.442   7.653   0.752
13462TIP3    H140329   8.402   7.622   0.671
13462TIP3    H240330   8.388   7.728   0.778
13463TIP3   OH240331   8.214   7.563   1.556
13463TIP3    H140332   8.158   7.633   1.591
13463TIP3    H240333   8.255   7.601   1.478
13464TIP3   OH240334   0.476   6.908   1.158
13464TIP3    H140335   0.433   6.887   1.241
13464TIP3    H240336   0.526   6.988   1.177
13465TIP3   OH240337   7.983   6.913   1.518
13465TIP3    H140338   8.048   6.968   1.563
13465TIP3    H240339   8.035   6.856   1.462
13466TIP3   OH240340   8.031   7.758   1.646
13466TIP3    H140341   8.006   7.844   1.610
13466TIP3    H240342   7.951   7.706   1.639
13467TIP3   OH240343   7.409   7.491   0.883
13467TIP3    H140344   7.382   7.502   0.791
13467TIP3    H240345   7.432   7.579   0.912
13468TIP3   OH240346   0.332   7.976   1.124
13468TIP3    H140347   0.245   7.976   1.163
13468TIP3    H240348   0.337   8.058   1.075
13469TIP3   OH240349   0.625   6.913   1.482
13469TIP3    H140350   0.538   6.909   1.443
13469TIP3    H240351   0.682   6.941   1.410
13470TIP3   OH240352   8.471   6.510   1.471
13470TIP3    H140353   8.454   6.416   1.463
13470TIP3    H240354   8.408   6.541   1.536
13471TIP3   OH240355   0.053   8.013   0.783
13471TIP3    H140356   0.106   7.934   0.771
13471TIP3    H240357   0.110   8.084   0.753
13472TIP3   OH240358   0.191   7.782   0.740
13472TIP3    H140359   0.118   7.721   0.739
13472TIP3    H240360   0.242   7.757   0.817
13473TIP3   OH240361   0.554   7.868   1.475
13473TIP3    H140362   0.539   7.791   1.420
13473TIP3    H240363   0.548   7.942   1.415
13474TIP3   OH240364   8.370   7.276   0.742
13474TIP3    H140365   8.285   7.318   0.724
13474TIP3    H240366   8.414   7.274   0.657
13475TIP3   OH240367   8.336   7.082   0.431
13475TIP3    H140368   8.403   7.130   0.480
13475TIP3    H240369   8.385   7.014   0.384
13476TIP3   OH240370   0.738   7.520   1.323
13476TIP3    H140371   0.657   7.572   1.325
13476TIP3    H240372   0.772   7.532   1.235
13477TIP3   OH240373   0.227   7.362   0.702
13477TIP3    H140374   0.174   7.391   0.775
13477TIP3    H240375   0.311   7.338   0.742
13478TIP3   OH240376   0.438   7.378   1.629
13478TIP3    H140377   0.452   7.462   1.673
13478TIP3    H240378   0.353   7.386   1.587
13479TIP3   OH240379   7.949   7.346   1.116
13479TIP3    H140380   7.915   7.284   1.051
13479TIP3    H240381   8.026   7.302   1.152
13480TIP3   OH240382   8.085   7.768   1.254
13480TIP3    H140383   8.061   7.750   1.164
13480TIP3    H240384   8.171   7.727   1.265
13481TIP3   OH240385   8.080   7.330   1.489
13481TIP3    H140386   8.108   7.302   1.402
13481TIP3    H240387   8.131   7.409   1.506
13482TIP3   OH240388   0.091   7.999   1.253
13482TIP3    H140389   0.095   8.069   1.319
13482TIP3    H240390   0.086   7.918   1.303
13483TIP3   OH240391   8.226   7.902   1.784
13483TIP3    H140392   8.173   7.953   1.844
13483TIP3    H240393   8.165   7.840   1.743
13484TIP3   OH240394   0.059   7.222   0.534
13484TIP3    H140395   0.118   7.281   0.581
13484TIP3    H240396   0.088   7.226   0.443
13485TIP3   OH240397   8.305   7.892   0.792
13485TIP3    H140398   8.387   7.942   0.797
13485TIP3    H240399   8.246   7.949   0.742
13486TIP3   OH240400   0.571   6.451   0.594
13486TIP3    H140401   0.495   6.470   0.649
13486TIP3    H240402   0.578   6.527   0.536
13487TIP3   OH240403   7.833   7.181   0.918
13487TIP3    H140404   7.754   7.224   0.887
13487TIP3    H240405   7.804   7.094   0.947
13488TIP3   OH240406   0.395   7.824   0.149
13488TIP3    H140407   0.387   7.917   0.128
13488TIP3    H240408   0.484   7.801   0.124
13489TIP3   OH240409   7.457   7.776   1.482
13489TIP3    H140410   7.553   7.768   1.477
13489TIP3    H240411   7.443   7.857   1.531
13490TIP3   OH240412   3.644   0.197   1.536
13490TIP3    H140413   3.642   0.105   1.561
13490TIP3    H240414   3.558   0.230   1.564
13491TIP3   OH240415   2.758   0.013   1.650
13491TIP3    H140416   2.766   0.100   1.688
13491TIP3    H240417   2.687  -0.029   1.699
13492TIP3   OH240418   2.529   0.099   0.621
13492TIP3    H140419   2.483   0.079   0.539
13492TIP3    H240420   2.491   0.182   0.649
13493TIP3   OH240421   7.629   7.975   0.996
13493TIP3    H140422   7.676   7.962   1.078
13493TIP3    H240423   7.580   7.894   0.982
13494TIP3   OH240424   2.732   0.036   0.246
13494TIP3    H140425   2.782  -0.038   0.211
13494TIP3    H240426   2.766   0.048   0.335
13495TIP3   OH240427   2.782   0.075   0.516
13495TIP3    H140428   2.696   0.078   0.558
13495TIP3    H240429   2.840   0.039   0.584
13496TIP3   OH240430   0.736   7.337   1.770
13496TIP3    H140431   0.652   7.377   1.750
13496TIP3    H240432   0.724   7.244   1.753
13497TIP3   OH240433   0.418   7.148   1.780
13497TIP3    H140434   0.380   7.179   1.861
13497TIP3    H240435   0.418   7.225   1.722
13498TIP3   OH240436   0.140   7.199   0.272
13498TIP3    H140437   0.092   7.203   0.190
13498TIP3    H240438   0.221   7.247   0.256
13499TIP3   OH240439   8.352   6.620   0.591
13499TIP3    H140440   8.312   6.630   0.677
13499TIP3    H240441   8.315   6.539   0.557
13500TIP3   OH240442   8.163   7.101   1.623
13500TIP3    H140443   8.150   7.127   1.715
13500TIP3    H240444   8.133   7.177   1.573
13501TIP3   OH240445   8.050   7.003   1.142
13501TIP3    H140446   7.957   6.990   1.159
13501TIP3    H240447   8.064   6.965   1.055
13502TIP3   OH240448  -0.001   7.075   0.876
13502TIP3    H140449  -0.050   7.146   0.836
13502TIP3    H240450   0.055   7.042   0.806
13503TIP3   OH240451   0.161   7.084   1.099
13503TIP3    H140452   0.097   7.104   1.031
13503TIP3    H240453   0.211   7.009   1.064
13504TIP3   OH240454   8.023   6.607   0.570
13504TIP3    H140455   8.013   6.616   0.665
13504TIP3    H240456   7.944   6.648   0.534
13505TIP3   OH240457   7.587   6.823   1.338
13505TIP3    H140458   7.512   6.811   1.396
13505TIP3    H240459   7.590   6.743   1.286
13506TIP3   OH240460   7.526   6.637   0.881
13506TIP3    H140461   7.583   6.662   0.809
13506TIP3    H240462   7.455   6.702   0.880
13507TIP3   OH240463   0.178   7.331   1.530
13507TIP3    H140464   0.204   7.260   1.471
13507TIP3    H240465   0.158   7.288   1.613
13508TIP3   OH240466   8.393   6.786   1.190
13508TIP3    H140467   8.315   6.791   1.244
13508TIP3    H240468   8.466   6.787   1.253
13509TIP3   OH240469   7.798   6.903   1.129
13509TIP3    H140470   7.704   6.894   1.114
13509TIP3    H240471   7.828   6.815   1.152
13510TIP3   OH240472   8.041   6.871   0.898
13510TIP3    H140473   8.134   6.884   0.879
13510TIP3    H240474   7.997   6.891   0.815
13511TIP3   OH240475   0.344   6.872   1.400
13511TIP3    H140476   0.334   6.882   1.495
13511TIP3    H240477   0.271   6.815   1.374
13512TIP3   OH240478   7.914   6.897   0.657
13512TIP3    H140479   7.855   6.843   0.604
13512TIP3    H240480   7.968   6.943   0.593
13513TIP3   OH240481   3.312   0.538   1.718
13513TIP3    H140482   3.244   0.564   1.657
13513TIP3    H240483   3.350   0.621   1.749
13514TIP3   OH240484   8.441   7.184   1.266
13514TIP3    H140485   8.505   7.135   1.215
13514TIP3    H240486   8.436   7.138   1.350
13515TIP3   OH240487   7.936   6.655   1.194
13515TIP3    H140488   7.916   6.594   1.264
13515TIP3    H240489   7.939   6.600   1.115
13516TIP3   OH240490   8.414   7.060   1.508
13516TIP3    H140491   8.327   7.064   1.546
13516TIP3    H240492   8.472   7.041   1.582
13517TIP3   OH240493   8.129   7.407   0.689
13517TIP3    H140494   8.054   7.351   0.666
13517TIP3    H240495   8.104   7.447   0.772
13518TIP3   OH240496   0.508   7.668   1.291
13518TIP3    H140497   0.545   7.719   1.219
13518TIP3    H240498   0.430   7.626   1.254
13519TIP3   OH240499   0.102   6.729   0.587
13519TIP3    H140500   0.009   6.705   0.586
13519TIP3    H240501   0.101   6.824   0.600
13520TIP3   OH240502   0.032   7.758   1.662
13520TIP3    H140503   0.003   7.708   1.738
13520TIP3    H240504  -0.008   7.844   1.673
13521TIP3   OH240505   0.158   6.993   0.660
13521TIP3    H140506   0.254   6.997   0.669
13521TIP3    H240507   0.135   7.070   0.609
13522TIP3   OH240508   7.825   7.470   1.332
13522TIP3    H140509   7.868   7.433   1.255
13522TIP3    H240510   7.857   7.417   1.405
13523TIP3   OH240511   8.285   7.568   0.534
13523TIP3    H140512   8.238   7.651   0.530
13523TIP3    H240513   8.228   7.510   0.585
13524TIP3   OH240514   3.026   0.050   1.576
13524TIP3    H140515   2.932   0.034   1.584
13524TIP3    H240516   3.057   0.059   1.667
13525TIP3   OH240517   0.568   7.077   0.476
13525TIP3    H140518   0.513   7.031   0.413
13525TIP3    H240519   0.573   7.167   0.443
13526TIP3   OH240520   0.802   7.937   1.569
13526TIP3    H140521   0.709   7.921   1.555
13526TIP3    H240522   0.844   7.898   1.492
13527TIP3   OH240523   0.312   7.894   0.415
13527TIP3    H140524   0.284   7.825   0.475
13527TIP3    H240525   0.331   7.848   0.333
13528TIP3   OH240526   0.286   7.532   1.186
13528TIP3    H140527   0.197   7.509   1.210
13528TIP3    H240528   0.322   7.451   1.148
13529TIP3   OH240529   7.949   7.766   1.008
13529TIP3    H140530   7.950   7.844   0.952
13529TIP3    H240531   7.856   7.744   1.017
13530TIP3   OH240532   7.521   7.074   0.706
13530TIP3    H140533   7.568   7.154   0.732
13530TIP3    H240534   7.439   7.078   0.755
13531TIP3   OH240535   8.036   7.521   0.915
13531TIP3    H140536   8.022   7.611   0.945
13531TIP3    H240537   8.006   7.466   0.988
13532TIP3   OH240538   2.558   0.069   1.455
13532TIP3    H140539   2.593   0.143   1.405
13532TIP3    H240540   2.631   0.040   1.509
13533TIP3   OH240541   2.202  -0.025   0.858
13533TIP3    H140542   2.113  -0.016   0.892
13533TIP3    H240543   2.238   0.064   0.861
13534TIP3   OH240544   0.090   7.761   1.396
13534TIP3    H140545   0.076   7.755   1.491
13534TIP3    H240546   0.147   7.687   1.375
13535TIP3   OH240547   0.079   7.632   0.297
13535TIP3    H140548   0.128   7.604   0.375
13535TIP3    H240549  -0.005   7.586   0.305
13536TIP3   OH240550   3.193   0.240   1.450
13536TIP3    H140551   3.123   0.185   1.484
13536TIP3    H240552   3.150   0.298   1.386
13537TIP3   OH240553   3.219   0.083   0.104
13537TIP3    H140554   3.231   0.141   0.029
13537TIP3    H240555   3.149   0.124   0.155
13538TIP3   OH240556   0.250   7.545   0.492
13538TIP3    H140557   0.236   7.492   0.571
13538TIP3    H240558   0.345   7.553   0.486
13539TIP3   OH240559   7.681   7.954   1.570
13539TIP3    H140560   7.766   7.922   1.540
13539TIP3    H240561   7.702   8.006   1.648
13540TIP3   OH240562   7.930   7.594   0.314
13540TIP3    H140563   7.939   7.503   0.288
13540TIP3    H240564   7.915   7.591   0.409
13541TIP3   OH240565   7.875   7.615   0.586
13541TIP3    H140566   7.941   7.589   0.650
13541TIP3    H240567   7.872   7.710   0.591
13542TIP3   OH240568   7.615   7.315   0.806
13542TIP3    H140569   7.547   7.364   0.853
13542TIP3    H240570   7.635   7.370   0.730
13543TIP3   OH240571   0.308   6.920   1.664
13543TIP3    H140572   0.340   7.000   1.706
13543TIP3    H240573   0.303   6.856   1.734
13544TIP3   OH240574   0.172   6.681   0.850
13544TIP3    H140575   0.149   6.700   0.759
13544TIP3    H240576   0.210   6.762   0.882
13545TIP3   OH240577   8.142   7.798   0.526
13545TIP3    H140578   8.057   7.823   0.563
13545TIP3    H240579   8.166   7.870   0.468
13546TIP3   OH240580   8.318   6.878   0.940
13546TIP3    H140581   8.378   6.949   0.916
13546TIP3    H240582   8.339   6.858   1.031
13547TIP3   OH240583   0.105   7.231   1.777
13547TIP3    H140584   0.032   7.293   1.772
13547TIP3    H240585   0.089   7.181   1.857
13548TIP3   OH240586   8.482   6.584   1.020
13548TIP3    H140587   8.462   6.662   1.071
13548TIP3    H240588   8.552   6.612   0.961
13549TIP3   OH240589   7.893   7.887   0.604
13549TIP3    H140590   7.873   7.958   0.544
13549TIP3    H240591   7.882   7.925   0.691
13550TIP3   OH240592   7.985   6.600   0.849
13550TIP3    H140593   7.975   6.691   0.878
13550TIP3    H240594   8.079   6.583   0.855
13551TIP3   OH240595   0.669   7.060   1.719
13551TIP3    H140596   0.577   7.080   1.737
13551TIP3    H240597   0.666   7.005   1.641
13552TIP3   OH240598   0.376   7.276   1.099
13552TIP3    H140599   0.301   7.218   1.108
13552TIP3    H240600   0.444   7.235   1.152
13553TIP3   OH240601   7.633   7.480   0.581
13553TIP3    H140602   7.704   7.544   0.586
13553TIP3    H240603   7.662   7.416   0.517
13554TIP3   OH240604   7.567   6.801   0.658
13554TIP3    H140605   7.596   6.891   0.674
13554TIP3    H240606   7.476   6.799   0.689
13555TIP3   OH240607   3.184   0.222   1.032
13555TIP3    H140608   3.137   0.273   0.966
13555TIP3    H240609   3.276   0.237   1.014
13556TIP3   OH240610   7.453   7.757   0.967
13556TIP3    H140611   7.409   7.790   1.045
13556TIP3    H240612   7.406   7.798   0.894
13557TIP3   OH240613   8.083   7.796   0.205
13557TIP3    H140614   8.035   7.726   0.249
13557TIP3    H240615   8.157   7.753   0.164
13558TIP3   OH240616   3.143   0.036   1.838
13558TIP3    H140617   3.155  -0.056   1.816
13558TIP3    H240618   3.217   0.081   1.796
13559TIP3   OH240619   0.025   7.839   0.127
13559TIP3    H140620   0.059   7.774   0.189
13559TIP3    H240621   0.083   7.832   0.051
13560TIP3   OH240622   7.753   7.289   0.430
13560TIP3    H140623   7.804   7.263   0.507
13560TIP3    H240624   7.819   7.301   0.362
13561TIP3   OH240625   8.329   7.510   0.269
13561TIP3    H140626   8.303   7.521   0.360
13561TIP3    H240627   8.307   7.419   0.248
13562TIP3   OH240628   0.364   7.834   1.672
13562TIP3    H140629   0.440   7.856   1.618
13562TIP3    H240630   0.288   7.862   1.621
13563TIP3   OH240631   7.921   7.228   0.646
13563TIP3    H140632   7.901   7.196   0.734
13563TIP3    H240633   7.969   7.156   0.605
13564TIP3   OH240634   8.065   7.050   0.487
13564TIP3    H140635   8.034   7.052   0.396
13564TIP3    H240636   8.160   7.058   0.480
13565TIP3   OH240637   0.358   7.334   0.164
13565TIP3    H140638   0.344   7.294   0.078
13565TIP3    H240639   0.335   7.426   0.152
13566TIP3   OH240640   8.413   7.415   1.694
13566TIP3    H140641   8.472   7.422   1.618
13566TIP3    H240642   8.335   7.463   1.667
13567TIP3   OH240643   0.500   7.608   1.756
13567TIP3    H140644   0.441   7.682   1.739
13567TIP3    H240645   0.587   7.647   1.760
13568TIP3   OH240646   2.226   0.084   0.424
13568TIP3    H140647   2.313   0.062   0.393
13568TIP3    H240648   2.184   0.127   0.349
13569TIP3   OH240649   7.361   7.476   0.601
13569TIP3    H140650   7.456   7.486   0.592
13569TIP3    H240651   7.342   7.394   0.555
13570TIP3   OH240652   1.587   0.044   1.055
13570TIP3    H140653   1.522  -0.007   1.007
13570TIP3    H240654   1.630  -0.019   1.113
13571TIP3   OH240655   7.392   7.884   1.220
13571TIP3    H140656   7.384   7.822   1.292
13571TIP3    H240657   7.447   7.954   1.256
13572TIP3   OH240658   3.442   0.300   1.008
13572TIP3    H140659   3.482   0.290   1.094
13572TIP3    H240660   3.466   0.388   0.980
13573TIP3   OH240661   3.513   0.290   1.277
13573TIP3    H140662   3.473   0.202   1.276
13573TIP3    H240663   3.530   0.308   1.369
13574TIP3   OH240664   0.529   7.546   0.490
13574TIP3    H140665   0.586   7.617   0.462
13574TIP3    H240666   0.573   7.508   0.566
13575TIP3   OH240667   0.653   7.401   0.690
13575TIP3    H140668   0.587   7.366   0.749
13575TIP3    H240669   0.715   7.446   0.748
13576TIP3   OH240670   0.686   7.802   1.128
13576TIP3    H140671   0.742   7.733   1.091
13576TIP3    H240672   0.690   7.873   1.063
13577TIP3   OH240673   3.353   0.065   1.303
13577TIP3    H140674   3.289   0.120   1.349
13577TIP3    H240675   3.302   0.023   1.234
13578TIP3   OH240676   0.566   7.318   0.342
13578TIP3    H140677   0.495   7.317   0.278
13578TIP3    H240678   0.551   7.397   0.394
13579TIP3   OH240679   0.422   6.964   0.275
13579TIP3    H140680   0.374   7.003   0.202
13579TIP3    H240681   0.412   6.870   0.264
13580TIP3   OH240682   0.455   7.265   0.833
13580TIP3    H140683   0.462   7.171   0.821
13580TIP3    H240684   0.434   7.276   0.926
13581TIP3   OH240685   7.570   7.397   1.574
13581TIP3    H140686   7.567   7.340   1.497
13581TIP3    H240687   7.662   7.396   1.601
13582TIP3   OH240688   0.748   7.723   1.743
13582TIP3    H140689   0.823   7.665   1.733
13582TIP3    H240690   0.774   7.805   1.702
13583TIP3   OH240691   0.936   7.521   1.714
13583TIP3    H140692   0.868   7.453   1.719
13583TIP3    H240693   0.985   7.512   1.796
13584TIP3   OH240694   0.382   6.693   0.247
13584TIP3    H140695   0.445   6.668   0.315
13584TIP3    H240696   0.299   6.656   0.277
13585TIP3   OH240697   0.451   6.985   0.718
13585TIP3    H140698   0.499   6.903   0.732
13585TIP3    H240699   0.491   7.023   0.640
13586TIP3   OH240700   0.587   7.150   1.232
13586TIP3    H140701   0.668   7.172   1.186
13586TIP3    H240702   0.597   7.190   1.318
13587TIP3   OH240703   0.642   7.300   1.459
13587TIP3    H140704   0.568   7.329   1.513
13587TIP3    H240705   0.672   7.379   1.414
13588TIP3   OH240706   0.572   6.735   0.777
13588TIP3    H140707   0.610   6.726   0.864
13588TIP3    H240708   0.510   6.662   0.770
13589TIP3   OH240709   0.607   6.650   0.408
13589TIP3    H140710   0.655   6.590   0.351
13589TIP3    H240711   0.661   6.729   0.411
13590TIP3   OH240712   7.602   6.622   1.142
13590TIP3    H140713   7.549   6.549   1.173
13590TIP3    H240714   7.579   6.631   1.049
13591TIP3   OH240715   3.026   0.200   0.675
13591TIP3    H140716   3.083   0.189   0.599
13591TIP3    H240717   3.065   0.273   0.724
13592TIP3   OH240718   2.311   0.004   1.564
13592TIP3    H140719   2.272   0.091   1.552
13592TIP3    H240720   2.401   0.014   1.535
13593TIP3   OH240721   2.789   0.262   1.761
13593TIP3    H140722   2.826   0.282   1.847
13593TIP3    H240723   2.839   0.316   1.700
13594TIP3   OH240724   2.934   0.409   1.587
13594TIP3    H140725   2.938   0.357   1.506
13594TIP3    H240726   2.998   0.479   1.573
13595TIP3   OH240727   1.979   0.287   1.629
13595TIP3    H140728   1.890   0.317   1.610
13595TIP3    H240729   1.992   0.309   1.721
13596TIP3   OH240730   2.223   0.261   1.502
13596TIP3    H140731   2.138   0.272   1.544
13596TIP3    H240732   2.209   0.291   1.412
13597TIP3   OH240733   2.644   0.280   1.298
13597TIP3    H140734   2.578   0.293   1.231
13597TIP3    H240735   2.652   0.365   1.341
13598TIP3   OH240736   2.915   0.258   1.352
13598TIP3    H140737   2.823   0.256   1.327
13598TIP3    H240738   2.958   0.306   1.282
13599TIP3   OH240739   3.125   0.409   1.226
13599TIP3    H140740   3.107   0.488   1.176
13599TIP3    H240741   3.145   0.342   1.160
13600TIP3   OH240742   1.895   0.056   1.353
13600TIP3    H140743   1.924   0.032   1.440
13600TIP3    H240744   1.966   0.029   1.295
13601TIP3   OH240745   7.776   7.959   1.229
13601TIP3    H140746   7.792   7.881   1.284
13601TIP3    H240747   7.861   8.003   1.226
13602TIP3   OH240748   2.377   0.033   1.245
13602TIP3    H140749   2.396  -0.059   1.228
13602TIP3    H240750   2.429   0.055   1.322
13603TIP3   OH240751   0.124   6.706   1.331
13603TIP3    H140752   0.082   6.639   1.385
13603TIP3    H240753   0.187   6.658   1.278
13604TIP3   OH240754   0.590   6.608   1.263
13604TIP3    H140755   0.629   6.656   1.189
13604TIP3    H240756   0.496   6.612   1.247
13605TIP3   OH240757   0.717   6.670   1.023
13605TIP3    H140758   0.784   6.615   0.981
13605TIP3    H240759   0.745   6.760   1.003
13606TIP3   OH240760   7.898   6.449   1.379
13606TIP3    H140761   7.807   6.420   1.380
13606TIP3    H240762   7.943   6.387   1.321
13607TIP3   OH240763   7.631   6.314   0.903
13607TIP3    H140764   7.662   6.335   0.815
13607TIP3    H240765   7.690   6.361   0.962
13608TIP3   OH240766   8.343   6.460   1.221
13608TIP3    H140767   8.384   6.503   1.145
13608TIP3    H240768   8.375   6.509   1.296
13609TIP3   OH240769   0.321   6.566   1.198
13609TIP3    H140770   0.335   6.532   1.110
13609TIP3    H240771   0.316   6.488   1.253
13610TIP3   OH240772   0.387   6.524   0.784
13610TIP3    H140773   0.308   6.573   0.804
13610TIP3    H240774   0.372   6.437   0.820
13611TIP3   OH240775   7.325   7.875   0.754
13611TIP3    H140776   7.248   7.847   0.704
13611TIP3    H240777   7.340   7.965   0.727
13612TIP3   OH240778   7.786   6.448   0.714
13612TIP3    H140779   7.840   6.400   0.651
13612TIP3    H240780   7.850   6.495   0.768
13613TIP3   OH240781   8.260   6.626   0.852
13613TIP3    H140782   8.325   6.577   0.901
13613TIP3    H240783   8.273   6.717   0.877
13614TIP3   OH240784   8.145   8.019   0.350
13614TIP3    H140785   8.228   8.047   0.311
13614TIP3    H240786   8.114   7.949   0.293
13615TIP3   OH240787   3.176   0.149   0.447
13615TIP3    H140788   3.171   0.054   0.441
13615TIP3    H240789   3.131   0.181   0.369
13616TIP3   OH240790   7.429   7.857   0.377
13616TIP3    H140791   7.421   7.871   0.471
13616TIP3    H240792   7.513   7.812   0.366
13617TIP3   OH240793   3.338   0.128   1.674
13617TIP3    H140794   3.304   0.173   1.596
13617TIP3    H240795   3.385   0.197   1.722
13618TIP3   OH240796   1.828   7.686   0.385
13618TIP3    H140797   1.804   7.775   0.359
13618TIP3    H240798   1.757   7.631   0.351
13619TIP3   OH240799   1.812   7.670   0.770
13619TIP3    H140800   1.837   7.644   0.859
13619TIP3    H240801   1.765   7.594   0.736
13620TIP3   OH240802   1.128   7.551   1.127
13620TIP3    H140803   1.173   7.487   1.183
13620TIP3    H240804   1.196   7.581   1.067
13621TIP3   OH240805   2.111   7.973   0.463
13621TIP3    H140806   2.075   7.923   0.536
13621TIP3    H240807   2.122   8.062   0.499
13622TIP3   OH240808   1.103   7.928   0.792
13622TIP3    H140809   1.079   7.836   0.802
13622TIP3    H240810   1.199   7.927   0.786
13623TIP3   OH240811   0.799   7.176   0.612
13623TIP3    H140812   0.761   7.260   0.636
13623TIP3    H240813   0.727   7.128   0.571
13624TIP3   OH240814   0.868   7.503   0.830
13624TIP3    H140815   0.911   7.421   0.853
13624TIP3    H240816   0.939   7.563   0.807
13625TIP3   OH240817   4.599   0.387   0.465
13625TIP3    H140818   4.628   0.319   0.404
13625TIP3    H240819   4.602   0.345   0.551
13626TIP3   OH240820   1.641   7.894   0.800
13626TIP3    H140821   1.688   7.814   0.775
13626TIP3    H240822   1.710   7.958   0.817
13627TIP3   OH240823   1.382   7.044   0.790
13627TIP3    H140824   1.358   7.130   0.754
13627TIP3    H240825   1.319   6.984   0.750
13628TIP3   OH240826   2.035   7.171   0.418
13628TIP3    H140827   2.098   7.101   0.435
13628TIP3    H240828   2.087   7.240   0.376
13629TIP3   OH240829   0.991   7.274   0.909
13629TIP3    H140830   1.076   7.262   0.951
13629TIP3    H240831   0.997   7.223   0.828
13630TIP3   OH240832   1.440   7.475   0.729
13630TIP3    H140833   1.531   7.453   0.748
13630TIP3    H240834   1.401   7.391   0.704
13631TIP3   OH240835   1.402   7.061   1.269
13631TIP3    H140836   1.370   7.023   1.187
13631TIP3    H240837   1.404   6.987   1.330
13632TIP3   OH240838   1.741   7.905   0.239
13632TIP3    H140839   1.700   7.874   0.158
13632TIP3    H240840   1.687   7.980   0.266
13633TIP3   OH240841   1.477   7.823   1.019
13633TIP3    H140842   1.426   7.888   1.068
13633TIP3    H240843   1.518   7.873   0.948
13634TIP3   OH240844   1.223   7.184   1.010
13634TIP3    H140845   1.296   7.244   1.026
13634TIP3    H240846   1.264   7.103   0.980
13635TIP3   OH240847   1.314   7.992   1.164
13635TIP3    H140848   1.259   8.039   1.102
13635TIP3    H240849   1.254   7.963   1.233
13636TIP3   OH240850   0.700   7.735   0.375
13636TIP3    H140851   0.665   7.754   0.289
13636TIP3    H240852   0.720   7.821   0.413
13637TIP3   OH240853   4.989   0.205   0.584
13637TIP3    H140854   4.902   0.198   0.624
13637TIP3    H240855   4.990   0.291   0.543
13638TIP3   OH240856   4.689   0.235   0.252
13638TIP3    H140857   4.745   0.159   0.238
13638TIP3    H240858   4.744   0.310   0.228
13639TIP3   OH240859   1.996   8.019   0.213
13639TIP3    H140860   1.917   7.965   0.217
13639TIP3    H240861   2.045   7.994   0.291
13640TIP3   OH240862   1.654   7.548   0.214
13640TIP3    H140863   1.569   7.590   0.200
13640TIP3    H240864   1.700   7.559   0.131
13641TIP3   OH240865   7.296   3.333   6.860
13641TIP3    H140866   7.357   3.390   6.907
13641TIP3    H240867   7.352   3.271   6.813
13642TIP3   OH240868   2.011   7.619   0.193
13642TIP3    H140869   1.956   7.645   0.266
13642TIP3    H240870   2.095   7.597   0.233
13643TIP3   OH240871   1.244   7.599   0.578
13643TIP3    H140872   1.211   7.535   0.515
13643TIP3    H240873   1.319   7.556   0.619
13644TIP3   OH240874   1.375   7.938   0.727
13644TIP3    H140875   1.367   7.943   0.632
13644TIP3    H240876   1.468   7.921   0.742
13645TIP3   OH240877   1.334   7.602   0.949
13645TIP3    H140878   1.376   7.568   0.870
13645TIP3    H240879   1.384   7.680   0.972
13646TIP3   OH240880   4.743   0.188   0.698
13646TIP3    H140881   4.730   0.269   0.746
13646TIP3    H240882   4.731   0.118   0.763
13647TIP3   OH240883   4.334   0.140   1.297
13647TIP3    H140884   4.282   0.193   1.357
13647TIP3    H240885   4.272   0.079   1.258
13648TIP3   OH240886   7.511   3.493   6.947
13648TIP3    H140887   7.571   3.548   6.997
13648TIP3    H240888   7.542   3.500   6.857
13649TIP3   OH240889   1.259   7.655   1.378
13649TIP3    H140890   1.232   7.707   1.454
13649TIP3    H240891   1.177   7.639   1.331
13650TIP3   OH240892   4.436   0.128   0.276
13650TIP3    H140893   4.519   0.175   0.275
13650TIP3    H240894   4.375   0.185   0.228
13651TIP3   OH240895   4.135   0.294   1.435
13651TIP3    H140896   4.103   0.304   1.346
13651TIP3    H240897   4.057   0.272   1.486
13652TIP3   OH240898   2.226   6.730  -0.009
13652TIP3    H140899   2.206   6.758   0.080
13652TIP3    H240900   2.308   6.776  -0.031
13653TIP3   OH240901   1.120   7.433   0.389
13653TIP3    H140902   1.043   7.483   0.361
13653TIP3    H240903   1.085   7.346   0.410
13654TIP3   OH240904   7.833   4.076   6.579
13654TIP3    H140905   7.832   4.169   6.556
13654TIP3    H240906   7.921   4.047   6.557
13655TIP3   OH240907   0.878   7.813   1.334
13655TIP3    H140908   0.808   7.813   1.269
13655TIP3    H240909   0.899   7.720   1.346
13656TIP3   OH240910   3.596  -0.014   0.945
13656TIP3    H140911   3.681  -0.040   0.909
13656TIP3    H240912   3.615   0.063   0.998
13657TIP3   OH240913   4.591   0.273   1.051
13657TIP3    H140914   4.597   0.349   1.109
13657TIP3    H240915   4.590   0.198   1.110
13658TIP3   OH240916   4.321   0.338   0.105
13658TIP3    H140917   4.282   0.318   0.020
13658TIP3    H240918   4.284   0.422   0.130
13659TIP3   OH240919   3.748   0.204   0.471
13659TIP3    H140920   3.786   0.194   0.558
13659TIP3    H240921   3.695   0.125   0.458
13660TIP3   OH240922   7.363   4.293   6.677
13660TIP3    H140923   7.415   4.221   6.641
13660TIP3    H240924   7.397   4.306   6.765
13661TIP3   OH240925   4.576   0.325   0.005
13661TIP3    H140926   4.489   0.326   0.045
13661TIP3    H240927   4.632   0.288   0.072
13662TIP3   OH240928   1.110   7.954   1.345
13662TIP3    H140929   1.140   7.918   1.428
13662TIP3    H240930   1.029   7.906   1.326
13663TIP3   OH240931   0.638   6.270   1.566
13663TIP3    H140932   0.709   6.222   1.609
13663TIP3    H240933   0.679   6.311   1.491
13664TIP3   OH240934   7.594   3.458   6.687
13664TIP3    H140935   7.555   3.467   6.600
13664TIP3    H240936   7.681   3.496   6.679
13665TIP3   OH240937   1.643   6.873   0.058
13665TIP3    H140938   1.613   6.887   0.148
13665TIP3    H240939   1.597   6.795   0.029
13666TIP3   OH240940   1.429   7.353   1.047
13666TIP3    H140941   1.442   7.355   1.142
13666TIP3    H240942   1.402   7.442   1.025
13667TIP3   OH240943   1.299   7.257   0.636
13667TIP3    H140944   1.209   7.236   0.660
13667TIP3    H240945   1.309   7.221   0.548
13668TIP3   OH240946   1.761   7.325   0.332
13668TIP3    H140947   1.719   7.403   0.295
13668TIP3    H240948   1.829   7.302   0.269
13669TIP3   OH240949   1.855   7.282   0.595
13669TIP3    H140950   1.809   7.324   0.521
13669TIP3    H240951   1.916   7.222   0.554
13670TIP3   OH240952   1.264   7.375   1.291
13670TIP3    H140953   1.251   7.415   1.377
13670TIP3    H240954   1.206   7.299   1.290
13671TIP3   OH240955   1.308   6.863   0.052
13671TIP3    H140956   1.299   6.868   0.147
13671TIP3    H240957   1.228   6.903   0.018
13672TIP3   OH240958   0.828   6.892   0.916
13672TIP3    H140959   0.892   6.940   0.969
13672TIP3    H240960   0.868   6.886   0.829
13673TIP3   OH240961   0.759   6.883   0.418
13673TIP3    H140962   0.804   6.918   0.342
13673TIP3    H240963   0.695   6.950   0.442
13674TIP3   OH240964   1.640   7.041   0.679
13674TIP3    H140965   1.551   7.041   0.716
13674TIP3    H240966   1.695   7.072   0.750
13675TIP3   OH240967   1.059   7.131   0.682
13675TIP3    H140968   0.970   7.135   0.646
13675TIP3    H240969   1.090   7.043   0.662
13676TIP3   OH240970   1.312   7.127   0.392
13676TIP3    H140971   1.407   7.137   0.380
13676TIP3    H240972   1.275   7.144   0.305
13677TIP3   OH240973   1.206   7.147   0.142
13677TIP3    H140974   1.142   7.099   0.089
13677TIP3    H240975   1.259   7.194   0.078
13678TIP3   OH240976   1.171   7.814   1.583
13678TIP3    H140977   1.249   7.869   1.593
13678TIP3    H240978   1.114   7.841   1.656
13679TIP3   OH240979   1.701   7.410   0.792
13679TIP3    H140980   1.758   7.353   0.741
13679TIP3    H240981   1.713   7.380   0.883
13680TIP3   OH240982   1.199   6.887   0.653
13680TIP3    H140983   1.167   6.815   0.708
13680TIP3    H240984   1.213   6.847   0.567
13681TIP3   OH240985   1.411   7.673   0.168
13681TIP3    H140986   1.337   7.615   0.149
13681TIP3    H240987   1.388   7.714   0.252
13682TIP3   OH240988   1.880   7.013   0.038
13682TIP3    H140989   1.786   6.995   0.041
13682TIP3    H240990   1.887   7.107   0.056
13683TIP3   OH240991   1.864   7.894   1.141
13683TIP3    H140992   1.916   7.856   1.212
13683TIP3    H240993   1.826   7.973   1.178
13684TIP3   OH240994   1.946   7.269   0.123
13684TIP3    H140995   2.041   7.279   0.132
13684TIP3    H240996   1.918   7.348   0.077
13685TIP3   OH240997   1.099   7.652   0.803
13685TIP3    H140998   1.139   7.640   0.717
13685TIP3    H240999   1.168   7.633   0.866
13686TIP3   OH241000   1.582   7.823   0.021
13686TIP3    H141001   1.540   7.908   0.013
13686TIP3    H241002   1.520   7.769   0.070
13687TIP3   OH241003   0.982   7.558   1.447
13687TIP3    H141004   0.964   7.561   1.541
13687TIP3    H241005   0.901   7.525   1.407
13688TIP3   OH241006   4.870   0.315   1.042
13688TIP3    H141007   4.780   0.292   1.020
13688TIP3    H241008   4.864   0.354   1.130
13689TIP3   OH241009   8.016   3.323   6.910
13689TIP3    H141010   7.960   3.287   6.841
13689TIP3    H241011   8.037   3.412   6.880
13690TIP3   OH241012   7.769   4.145   6.848
13690TIP3    H141013   7.744   4.073   6.907
13690TIP3    H241014   7.783   4.103   6.763
13691TIP3   OH241015   2.038   7.803   0.678
13691TIP3    H141016   1.954   7.761   0.691
13691TIP3    H241017   2.092   7.737   0.634
13692TIP3   OH241018   4.070   0.013   0.494
13692TIP3    H141019   4.067   0.088   0.434
13692TIP3    H241020   3.982   0.007   0.530
13693TIP3   OH241021   0.808   7.307   0.209
13693TIP3    H141022   0.848   7.392   0.229
13693TIP3    H241023   0.726   7.308   0.258
13694TIP3   OH241024   1.330   7.788   0.396
13694TIP3    H141025   1.304   7.876   0.424
13694TIP3    H241026   1.299   7.731   0.466
13695TIP3   OH241027   4.396   0.249   0.863
13695TIP3    H141028   4.403   0.330   0.813
13695TIP3    H241029   4.476   0.247   0.916
13696TIP3   OH241030   3.982   0.225   0.332
13696TIP3    H141031   3.895   0.225   0.372
13696TIP3    H241032   3.996   0.315   0.304
13697TIP3   OH241033   1.900   7.985   0.872
13697TIP3    H141034   1.899   7.950   0.961
13697TIP3    H241035   1.962   7.929   0.826
13698TIP3   OH241036   7.536   3.881   6.726
13698TIP3    H141037   7.586   3.848   6.801
13698TIP3    H241038   7.451   3.837   6.732
13699TIP3   OH241039   7.848   4.345   6.531
13699TIP3    H141040   7.875   4.406   6.462
13699TIP3    H241041   7.778   4.391   6.577
13700TIP3   OH241042   7.706   3.778   6.913
13700TIP3    H141043   7.694   3.734   6.997
13700TIP3    H241044   7.800   3.791   6.906
13701TIP3   OH241045   3.730   0.193   1.066
13701TIP3    H141046   3.822   0.167   1.060
13701TIP3    H241047   3.732   0.271   1.122
13702TIP3   OH241048   6.894   3.843   6.738
13702TIP3    H141049   6.904   3.752   6.712
13702TIP3    H241050   6.877   3.840   6.833
13703TIP3   OH241051   1.169   7.864   0.069
13703TIP3    H141052   1.240   7.839   0.129
13703TIP3    H241053   1.166   7.960   0.074
13704TIP3   OH241054   0.898   7.561   0.285
13704TIP3    H141055   0.833   7.609   0.336
13704TIP3    H241056   0.917   7.619   0.211
13705TIP3   OH241057   1.897   6.958   0.313
13705TIP3    H141058   1.890   6.970   0.219
13705TIP3    H241059   1.936   7.039   0.345
13706TIP3   OH241060   7.105   4.043   6.945
13706TIP3    H141061   7.021   4.068   6.983
13706TIP3    H241062   7.129   4.117   6.889
13707TIP3   OH241063   1.589   7.132   0.419
13707TIP3    H141064   1.648   7.201   0.387
13707TIP3    H241065   1.613   7.121   0.511
13708TIP3   OH241066   1.755   6.847   0.519
13708TIP3    H141067   1.723   6.920   0.573
13708TIP3    H241068   1.809   6.889   0.452
13709TIP3   OH241069   4.022   0.122   0.081
13709TIP3    H141070   4.001   0.194   0.022
13709TIP3    H241071   4.007   0.158   0.169
13710TIP3   OH241072   1.275   6.854   0.336
13710TIP3    H141073   1.265   6.945   0.362
13710TIP3    H241074   1.369   6.838   0.337
13711TIP3   OH241075   2.315   7.573   0.585
13711TIP3    H141076   2.242   7.515   0.607
13711TIP3    H241077   2.343   7.609   0.669
13712TIP3   OH241078   0.923   7.734   0.067
13712TIP3    H141079   0.994   7.797   0.075
13712TIP3    H241080   0.953   7.672   0.001
13713TIP3   OH241081   0.827   7.029   0.197
13713TIP3    H141082   0.841   7.123   0.208
13713TIP3    H241083   0.763   7.024   0.126
13714TIP3   OH241084   5.016   0.464   0.495
13714TIP3    H141085   4.970   0.522   0.434
13714TIP3    H241086   5.105   0.460   0.460
13715TIP3   OH241087   1.362   6.666   0.961
13715TIP3    H141088   1.279   6.668   0.915
13715TIP3    H241089   1.343   6.618   1.042
13716TIP3   OH241090   3.572  -0.013   0.459
13716TIP3    H141091   3.531   0.024   0.538
13716TIP3    H241092   3.527   0.030   0.387
13717TIP3   OH241093   3.717   0.481   1.555
13717TIP3    H141094   3.788   0.462   1.617
13717TIP3    H241095   3.666   0.399   1.552
13718TIP3   OH241096   7.045   4.047   6.629
13718TIP3    H141097   6.999   3.976   6.674
13718TIP3    H241098   7.120   4.005   6.588
13719TIP3   OH241099   7.489   4.087   6.552
13719TIP3    H141100   7.524   4.023   6.614
13719TIP3    H241101   7.548   4.082   6.477
13720TIP3   OH241102   6.711   3.537   6.853
13720TIP3    H141103   6.761   3.513   6.931
13720TIP3    H241104   6.777   3.551   6.785
13721TIP3   OH241105   7.285   3.760   6.694
13721TIP3    H141106   7.262   3.771   6.786
13721TIP3    H241107   7.264   3.669   6.674
13722TIP3   OH241108   1.214   7.484   0.126
13722TIP3    H141109   1.191   7.453   0.214
13722TIP3    H241110   1.263   7.412   0.087
13723TIP3   OH241111   1.536   7.652   1.379
13723TIP3    H141112   1.444   7.634   1.362
13723TIP3    H241113   1.580   7.636   1.295
13724TIP3   OH241114   7.025   3.294   6.913
13724TIP3    H141115   6.997   3.298   6.822
13724TIP3    H241116   7.120   3.306   6.909
13725TIP3   OH241117   7.825   3.579   6.596
13725TIP3    H141118   7.813   3.540   6.509
13725TIP3    H241119   7.801   3.671   6.585
13726TIP3   OH241120   1.680   7.684   1.129
13726TIP3    H141121   1.747   7.753   1.131
13726TIP3    H241122   1.603   7.727   1.092
13727TIP3   OH241123   6.850   4.339   6.842
13727TIP3    H141124   6.941   4.322   6.815
13727TIP3    H241125   6.811   4.386   6.768
13728TIP3   OH241126   0.649   7.736   0.081
13728TIP3    H141127   0.744   7.746   0.080
13728TIP3    H241128   0.633   7.650   0.043
13729TIP3   OH241129   3.381   0.303   0.540
13729TIP3    H141130   3.315   0.251   0.495
13729TIP3    H241131   3.423   0.240   0.600
13730TIP3   OH241132   3.512   0.124   0.705
13730TIP3    H141133   3.501   0.061   0.776
13730TIP3    H241134   3.560   0.197   0.745
13731TIP3   OH241135   7.983   3.796   6.921
13731TIP3    H141136   8.032   3.871   6.886
13731TIP3    H241137   8.029   3.773   7.002
13732TIP3   OH241138   2.431   7.707   0.215
13732TIP3    H141139   2.359   7.654   0.250
13732TIP3    H241140   2.446   7.773   0.283
13733TIP3   OH241141   5.270   0.050   0.519
13733TIP3    H141142   5.290  -0.004   0.595
13733TIP3    H241143   5.174   0.052   0.516
13734TIP3   OH241144   5.194   0.331   0.728
13734TIP3    H141145   5.166   0.333   0.820
13734TIP3    H241146   5.127   0.280   0.683
13735TIP3   OH241147   8.030   3.566   6.778
13735TIP3    H141148   7.960   3.563   6.713
13735TIP3    H241149   8.015   3.647   6.827
13736TIP3   OH241150   7.855   3.221   6.717
13736TIP3    H141151   7.813   3.246   6.634
13736TIP3    H241152   7.863   3.126   6.712
13737TIP3   OH241153   2.242   7.534   0.319
13737TIP3    H141154   2.244   7.440   0.305
13737TIP3    H241155   2.258   7.545   0.413
13738TIP3   OH241156   0.860   7.592   1.088
13738TIP3    H141157   0.847   7.561   0.998
13738TIP3    H241158   0.954   7.585   1.102
13739TIP3   OH241159   7.870   2.948   6.718
13739TIP3    H141160   7.953   2.931   6.761
13739TIP3    H241161   7.809   2.886   6.759
13740TIP3   OH241162   2.249   7.261   0.216
13740TIP3    H141163   2.259   7.166   0.207
13740TIP3    H241164   2.285   7.296   0.134
13741TIP3   OH241165   1.019   6.999   1.083
13741TIP3    H141166   1.097   6.943   1.087
13741TIP3    H241167   1.054   7.088   1.075
13742TIP3   OH241168   0.824   7.251   1.133
13742TIP3    H141169   0.868   7.255   1.049
13742TIP3    H241170   0.880   7.302   1.192
13743TIP3   OH241171   8.105   2.890   6.870
13743TIP3    H141172   8.145   2.828   6.809
13743TIP3    H241173   8.154   2.971   6.858
13744TIP3   OH241174   0.833   6.751   0.646
13744TIP3    H141175   0.749   6.738   0.690
13744TIP3    H241176   0.812   6.805   0.570
13745TIP3   OH241177   4.815   0.453   0.158
13745TIP3    H141178   4.872   0.443   0.081
13745TIP3    H241179   4.860   0.518   0.213
13746TIP3   OH241180   0.909   6.761   1.459
13746TIP3    H141181   0.990   6.799   1.492
13746TIP3    H241182   0.870   6.829   1.405
13747TIP3   OH241183   3.914   0.268   1.616
13747TIP3    H141184   3.854   0.235   1.549
13747TIP3    H241185   3.870   0.249   1.699
13748TIP3   OH241186   4.102   0.345   1.162
13748TIP3    H141187   4.055   0.398   1.097
13748TIP3    H241188   4.194   0.366   1.149
13749TIP3   OH241189   3.742   0.483   1.087
13749TIP3    H141190   3.654   0.509   1.059
13749TIP3    H241191   3.770   0.554   1.145
13750TIP3   OH241192   3.980   0.475   0.956
13750TIP3    H141193   3.893   0.474   0.997
13750TIP3    H241194   3.964   0.499   0.865
13751TIP3   OH241195   4.503   0.568   0.697
13751TIP3    H141196   4.416   0.529   0.681
13751TIP3    H241197   4.484   0.649   0.745
13752TIP3   OH241198   4.718   0.440   0.795
13752TIP3    H141199   4.658   0.491   0.740
13752TIP3    H241200   4.793   0.498   0.808
13753TIP3   OH241201   4.973   0.670   0.684
13753TIP3    H141202   4.986   0.623   0.766
13753TIP3    H241203   4.988   0.604   0.616
13754TIP3   OH241204   3.682   0.311   0.821
13754TIP3    H141205   3.683   0.285   0.913
13754TIP3    H241206   3.757   0.266   0.783
13755TIP3   OH241207   3.880   0.165   0.707
13755TIP3    H141208   3.884   0.076   0.743
13755TIP3    H241209   3.969   0.199   0.718
13756TIP3   OH241210   4.148   0.190   0.778
13756TIP3    H141211   4.155   0.103   0.739
13756TIP3    H241212   4.234   0.207   0.815
13757TIP3   OH241213   1.125   6.675   0.813
13757TIP3    H141214   1.035   6.653   0.840
13757TIP3    H241215   1.161   6.593   0.780
13758TIP3   OH241216   0.972   6.566   0.483
13758TIP3    H141217   0.990   6.612   0.401
13758TIP3    H241218   0.928   6.631   0.538
13759TIP3   OH241219   1.558   6.701   0.732
13759TIP3    H141220   1.608   6.775   0.698
13759TIP3    H241221   1.513   6.736   0.809
13760TIP3   OH241222   2.088   6.773   0.219
13760TIP3    H141223   2.033   6.834   0.268
13760TIP3    H241224   2.124   6.714   0.285
13761TIP3   OH241225   3.461   0.112   0.242
13761TIP3    H141226   3.378   0.082   0.206
13761TIP3    H241227   3.469   0.203   0.211
13762TIP3   OH241228   1.067   6.687   0.241
13762TIP3    H141229   1.114   6.626   0.184
13762TIP3    H241230   1.136   6.744   0.277
13763TIP3   OH241231   1.551   6.881   0.322
13763TIP3    H141232   1.605   6.830   0.383
13763TIP3    H241233   1.563   6.971   0.350
13764TIP3   OH241234   7.108   4.269   6.775
13764TIP3    H141235   7.191   4.296   6.737
13764TIP3    H241236   7.076   4.199   6.717
13765TIP3   OH241237   7.805   4.414   6.875
13765TIP3    H141238   7.800   4.318   6.869
13765TIP3    H241239   7.765   4.446   6.795
13766TIP3   OH241240   6.412   4.112   6.833
13766TIP3    H141241   6.413   4.125   6.928
13766TIP3    H241242   6.494   4.065   6.815
13767TIP3   OH241243   2.567   7.466   0.165
13767TIP3    H141244   2.534   7.555   0.179
13767TIP3    H241245   2.610   7.470   0.080
13768TIP3   OH241246   8.136   3.993   6.807
13768TIP3    H141247   8.105   4.013   6.719
13768TIP3    H241248   8.167   4.078   6.840
13769TIP3   OH241249   0.022   3.669   6.845
13769TIP3    H141250  -0.049   3.720   6.806
13769TIP3    H241251   0.041   3.714   6.927
13770TIP3   OH241252   5.315   0.317   0.467
13770TIP3    H141253   5.319   0.222   0.470
13770TIP3    H241254   5.303   0.344   0.558
13771TIP3   OH241255   0.372   4.662   6.559
13771TIP3    H141256   0.390   4.672   6.466
13771TIP3    H241257   0.430   4.725   6.602
13772TIP3   OH241258   8.381   4.476   6.917
13772TIP3    H141259   8.370   4.453   7.009
13772TIP3    H241260   8.346   4.401   6.869
13773TIP3   OH241261   0.200   3.120   6.511
13773TIP3    H141262   0.261   3.047   6.501
13773TIP3    H241263   0.184   3.150   6.421
13774TIP3   OH241264   8.216   3.135   6.849
13774TIP3    H141265   8.263   3.173   6.775
13774TIP3    H241266   8.158   3.205   6.880
13775TIP3   OH241267   0.098   3.353   6.627
13775TIP3    H141268   0.149   3.277   6.598
13775TIP3    H241269   0.157   3.400   6.686
13776TIP3   OH241270   0.422   3.863   6.709
13776TIP3    H141271   0.367   3.885   6.633
13776TIP3    H241272   0.371   3.893   6.784
13777TIP3   OH241273   0.539   4.016   6.401
13777TIP3    H141274   0.545   4.081   6.471
13777TIP3    H241275   0.569   3.934   6.441
13778TIP3   OH241276   0.197   4.263   6.866
13778TIP3    H141277   0.170   4.348   6.832
13778TIP3    H241278   0.211   4.278   6.960
13779TIP3   OH241279   8.248   3.556   6.609
13779TIP3    H141280   8.296   3.637   6.627
13779TIP3    H241281   8.175   3.558   6.671
13780TIP3   OH241282   0.265   3.984   6.904
13780TIP3    H141283   0.222   4.064   6.874
13780TIP3    H241284   0.301   4.007   6.990
13781TIP3   OH241285   0.114   4.511   6.770
13781TIP3    H141286   0.034   4.524   6.822
13781TIP3    H241287   0.150   4.599   6.760
13782TIP3   OH241288   0.127   4.079   6.255
13782TIP3    H141289   0.105   3.987   6.264
13782TIP3    H241290   0.118   4.115   6.344
13783TIP3   OH241291   0.063   4.191   6.494
13783TIP3    H141292   0.143   4.190   6.547
13783TIP3    H241293   0.031   4.281   6.500
13784TIP3   OH241294   8.327   3.817   6.711
13784TIP3    H141295   8.261   3.864   6.762
13784TIP3    H241296   8.352   3.879   6.643
13785TIP3   OH241297   0.536   4.249   6.554
13785TIP3    H141298   0.467   4.307   6.523
13785TIP3    H241299   0.618   4.294   6.530
13786TIP3   OH241300  -0.010   4.450   6.524
13786TIP3    H141301   0.027   4.507   6.457
13786TIP3    H241302   0.035   4.474   6.604
13787TIP3   OH241303   8.346   4.022   6.513
13787TIP3    H141304   8.413   4.091   6.513
13787TIP3    H241305   8.382   3.955   6.454
13788TIP3   OH241306   8.328   3.285   6.646
13788TIP3    H141307   8.422   3.303   6.641
13788TIP3    H241308   8.287   3.368   6.621
13789TIP3   OH241309   8.204   4.252   6.887
13789TIP3    H141310   8.172   4.294   6.967
13789TIP3    H241311   8.159   4.298   6.816
13790TIP3   OH241312   0.320   4.400   6.189
13790TIP3    H141313   0.247   4.341   6.170
13790TIP3    H241314   0.395   4.342   6.199
13791TIP3   OH241315   8.443   3.806   6.387
13791TIP3    H141316   8.479   3.758   6.461
13791TIP3    H241317   8.498   3.781   6.312
13792TIP3   OH241318   0.531   3.900   6.141
13792TIP3    H141319   0.558   3.956   6.214
13792TIP3    H241320   0.463   3.844   6.177
13793TIP3   OH241321   0.094   3.690   6.580
13793TIP3    H141322   0.078   3.658   6.668
13793TIP3    H241323   0.160   3.630   6.545
13794TIP3   OH241324   0.290   3.557   6.437
13794TIP3    H141325   0.315   3.622   6.372
13794TIP3    H241326   0.330   3.476   6.407
13795TIP3   OH241327   0.119   4.604   6.340
13795TIP3    H141328   0.209   4.637   6.341
13795TIP3    H241329   0.083   4.637   6.257
13796TIP3   OH241330   8.080   3.978   6.520
13796TIP3    H141331   8.173   4.000   6.518
13796TIP3    H241332   8.074   3.892   6.480
13797TIP3   OH241333   5.189   0.553   0.019
13797TIP3    H141334   5.122   0.502  -0.027
13797TIP3    H241335   5.235   0.490   0.074
13798TIP3   OH241336   5.338   0.402   0.199
13798TIP3    H141337   5.327   0.345   0.275
13798TIP3    H241338   5.366   0.486   0.235
13799TIP3   OH241339   8.083   4.380   6.680
13799TIP3    H141340   8.005   4.345   6.638
13799TIP3    H241341   8.092   4.469   6.644
13800TIP3   OH241342  -0.007   2.992   6.643
13800TIP3    H141343   0.071   3.035   6.606
13800TIP3    H241344  -0.013   3.025   6.732
13801TIP3   OH241345   0.392   4.652   6.283
13801TIP3    H141346   0.451   4.696   6.223
13801TIP3    H241347   0.375   4.566   6.243
13802TIP3   OH241348   8.205   4.375   6.340
13802TIP3    H141349   8.225   4.402   6.430
13802TIP3    H241350   8.284   4.331   6.310
13803TIP3   OH241351   7.479   1.075   1.365
13803TIP3    H141352   7.539   1.040   1.299
13803TIP3    H241353   7.506   1.166   1.378
13804TIP3   OH241354   7.213   0.358   1.089
13804TIP3    H141355   7.272   0.406   1.147
13804TIP3    H241356   7.269   0.296   1.042
13805TIP3   OH241357   7.421   0.496   1.198
13805TIP3    H141358   7.424   0.586   1.230
13805TIP3    H241359   7.465   0.499   1.113
13806TIP3   OH241360   7.774   1.113   0.806
13806TIP3    H141361   7.773   1.204   0.779
13806TIP3    H241362   7.863   1.082   0.784
13807TIP3   OH241363   7.039   1.399   1.274
13807TIP3    H141364   7.031   1.404   1.179
13807TIP3    H241365   7.029   1.489   1.304
13808TIP3   OH241366   7.287   1.286   0.919
13808TIP3    H141367   7.334   1.217   0.871
13808TIP3    H241368   7.310   1.271   1.010
13809TIP3   OH241369   7.332   1.315   1.188
13809TIP3    H141370   7.278   1.267   1.251
13809TIP3    H241371   7.413   1.334   1.235
13810TIP3   OH241372   7.528   0.518   0.949
13810TIP3    H141373   7.474   0.515   0.870
13810TIP3    H241374   7.612   0.553   0.919
13811TIP3   OH241375   7.205   0.877   1.123
13811TIP3    H141376   7.158   0.959   1.142
13811TIP3    H241377   7.174   0.817   1.191
13812TIP3   OH241378   7.987   0.433   1.139
13812TIP3    H141379   7.927   0.372   1.095
13812TIP3    H241380   7.985   0.512   1.085
13813TIP3   OH241381   7.677   1.173   1.059
13813TIP3    H141382   7.662   1.090   1.104
13813TIP3    H241383   7.709   1.147   0.972
13814TIP3   OH241384   7.448   0.919   0.982
13814TIP3    H141385   7.507   0.919   1.058
13814TIP3    H241386   7.362   0.900   1.019
13815TIP3   OH241387   7.791   1.382   0.757
13815TIP3    H141388   7.822   1.441   0.689
13815TIP3    H241389   7.728   1.435   0.807
13816TIP3   OH241390   7.637   0.918   1.186
13816TIP3    H141391   7.615   0.853   1.253
13816TIP3    H241392   7.729   0.902   1.166
13817TIP3   OH241393   6.838   0.887   0.991
13817TIP3    H141394   6.840   0.796   0.962
13817TIP3    H241395   6.761   0.893   1.048
13818TIP3   OH241396   7.068   1.102   1.199
13818TIP3    H141397   7.108   1.132   1.281
13818TIP3    H241398   7.049   1.182   1.150
13819TIP3   OH241399   6.680   1.116   1.152
13819TIP3    H141400   6.702   1.194   1.101
13819TIP3    H241401   6.758   1.100   1.205
13820TIP3   OH241402   6.966   1.084   0.858
13820TIP3    H141403   6.926   1.014   0.909
13820TIP3    H241404   7.038   1.042   0.812
13821TIP3   OH241405   7.412   1.096   0.774
13821TIP3    H141406   7.439   1.030   0.837
13821TIP3    H241407   7.474   1.087   0.701
13822TIP3   OH241408   6.570   0.618   1.033
13822TIP3    H141409   6.588   0.614   1.127
13822TIP3    H241410   6.656   0.621   0.992
13823TIP3   OH241411   7.139   0.803   0.866
13823TIP3    H141412   7.151   0.825   0.958
13823TIP3    H241413   7.149   0.707   0.863
13824TIP3   OH241414   6.937   0.307   1.113
13824TIP3    H141415   6.901   0.344   1.033
13824TIP3    H241416   7.028   0.338   1.115
13825TIP3   OH241417   7.740   0.628   0.808
13825TIP3    H141418   7.722   0.588   0.723
13825TIP3    H241419   7.711   0.719   0.799
13826TIP3   OH241420   6.759   1.343   1.016
13826TIP3    H141421   6.854   1.346   1.017
13826TIP3    H241422   6.735   1.359   0.925
13827TIP3   OH241423   7.899   0.858   1.151
13827TIP3    H141424   7.971   0.918   1.128
13827TIP3    H241425   7.936   0.803   1.220
13828TIP3   OH241426   7.960   0.649   1.323
13828TIP3    H141427   7.975   0.633   1.417
13828TIP3    H241428   7.944   0.563   1.286
13829TIP3   OH241429   7.954   0.648   0.978
13829TIP3    H141430   7.882   0.633   0.917
13829TIP3    H241431   7.928   0.726   1.028
13830TIP3   OH241432   7.819   0.318   0.953
13830TIP3    H141433   7.771   0.347   0.875
13830TIP3    H241434   7.772   0.239   0.981
13831TIP3   OH241435   7.713   0.081   1.043
13831TIP3    H141436   7.795   0.063   1.090
13831TIP3    H241437   7.651   0.018   1.078
13832TIP3   OH241438   5.125   7.986   1.118
13832TIP3    H141439   5.093   7.902   1.083
13832TIP3    H241440   5.185   8.017   1.051
13833TIP3   OH241441   7.787   1.437   1.382
13833TIP3    H141442   7.768   1.452   1.290
13833TIP3    H241443   7.760   1.518   1.426
13834TIP3   OH241444   7.028   1.304   1.000
13834TIP3    H141445   7.117   1.320   0.970
13834TIP3    H241446   6.998   1.228   0.949
13835TIP3   OH241447   7.741   1.436   1.105
13835TIP3    H141448   7.720   1.343   1.098
13835TIP3    H241449   7.694   1.477   1.032
13836TIP3   OH241450   0.717   0.979   1.042
13836TIP3    H141451   0.691   1.067   1.016
13836TIP3    H241452   0.646   0.923   1.010
13837TIP3   OH241453   0.720   0.997   1.429
13837TIP3    H141454   0.760   0.970   1.511
13837TIP3    H241455   0.675   0.919   1.397
13838TIP3   OH241456   0.989   1.276   1.122
13838TIP3    H141457   0.979   1.209   1.190
13838TIP3    H241458   1.010   1.355   1.171
13839TIP3   OH241459   0.014   1.259   1.465
13839TIP3    H141460  -0.003   1.167   1.482
13839TIP3    H241461   0.110   1.266   1.467
13840TIP3   OH241462   8.240   0.542   1.250
13840TIP3    H141463   8.238   0.622   1.302
13840TIP3    H241464   8.149   0.526   1.227
13841TIP3   OH241465   8.310   0.754   1.425
13841TIP3    H141466   8.337   0.724   1.512
13841TIP3    H241467   8.350   0.840   1.416
13842TIP3   OH241468   0.644   1.705   1.147
13842TIP3    H141469   0.671   1.646   1.077
13842TIP3    H241470   0.634   1.648   1.224
13843TIP3   OH241471   0.525   1.201   1.463
13843TIP3    H141472   0.572   1.124   1.430
13843TIP3    H241473   0.592   1.251   1.511
13844TIP3   OH241474   1.565   0.530   1.430
13844TIP3    H141475   1.547   0.624   1.425
13844TIP3    H241476   1.612   0.510   1.349
13845TIP3   OH241477   0.898   0.655   1.517
13845TIP3    H141478   0.967   0.594   1.545
13845TIP3    H241479   0.887   0.638   1.424
13846TIP3   OH241480   0.356   0.418   1.463
13846TIP3    H141481   0.305   0.477   1.408
13846TIP3    H241482   0.369   0.340   1.410
13847TIP3   OH241483   0.992   0.437   1.095
13847TIP3    H141484   1.057   0.435   1.165
13847TIP3    H241485   1.038   0.476   1.020
13848TIP3   OH241486   0.355   0.773   1.389
13848TIP3    H141487   0.449   0.755   1.394
13848TIP3    H241488   0.317   0.693   1.353
13849TIP3   OH241489   1.577   0.717   1.681
13849TIP3    H141490   1.510   0.781   1.655
13849TIP3    H241491   1.527   0.639   1.705
13850TIP3   OH241492   0.621   1.198   0.899
13850TIP3    H141493   0.579   1.166   0.819
13850TIP3    H241494   0.567   1.272   0.926
13851TIP3   OH241495   1.151   0.473   1.314
13851TIP3    H141496   1.131   0.443   1.403
13851TIP3    H241497   1.207   0.549   1.326
13852TIP3   OH241498   8.089   1.027   1.037
13852TIP3    H141499   8.056   1.047   0.949
13852TIP3    H241500   8.114   1.112   1.074
13853TIP3   OH241501   1.017   1.519   1.263
13853TIP3    H141502   0.929   1.507   1.297
13853TIP3    H241503   1.015   1.604   1.220
13854TIP3   OH241504   1.377   0.486   1.635
13854TIP3    H141505   1.285   0.485   1.609
13854TIP3    H241506   1.426   0.490   1.553
13855TIP3   OH241507   0.730   1.559   0.927
13855TIP3    H141508   0.784   1.481   0.915
13855TIP3    H241509   0.786   1.632   0.902
13856TIP3   OH241510   0.869   1.329   0.880
13856TIP3    H141511   0.794   1.268   0.881
13856TIP3    H241512   0.920   1.304   0.957
13857TIP3   OH241513   1.225   1.412   1.619
13857TIP3    H141514   1.222   1.338   1.559
13857TIP3    H241515   1.209   1.488   1.564
13858TIP3   OH241516   0.545   0.822   0.889
13858TIP3    H141517   0.461   0.862   0.870
13858TIP3    H241518   0.590   0.818   0.804
13859TIP3   OH241519   0.518   0.620   0.579
13859TIP3    H141520   0.585   0.671   0.626
13859TIP3    H241521   0.568   0.552   0.533
13860TIP3   OH241522   1.446   1.082   1.486
13860TIP3    H141523   1.361   1.126   1.492
13860TIP3    H241524   1.477   1.101   1.398
13861TIP3   OH241525   0.902   0.907   0.852
13861TIP3    H141526   0.848   0.936   0.926
13861TIP3    H241527   0.986   0.884   0.891
13862TIP3   OH241528   1.133   0.993   1.720
13862TIP3    H141529   1.175   1.070   1.759
13862TIP3    H241530   1.054   1.028   1.679
13863TIP3   OH241531   0.136   0.890   1.248
13863TIP3    H141532   0.098   0.823   1.190
13863TIP3    H241533   0.212   0.848   1.287
13864TIP3   OH241534   0.281   1.313   1.392
13864TIP3    H141535   0.268   1.290   1.300
13864TIP3    H241536   0.365   1.273   1.415
13865TIP3   OH241537   0.236   0.897   1.603
13865TIP3    H141538   0.278   0.850   1.531
13865TIP3    H241539   0.303   0.956   1.637
13866TIP3   OH241540   0.777   1.505   1.388
13866TIP3    H141541   0.761   1.584   1.439
13866TIP3    H241542   0.772   1.434   1.452
13867TIP3   OH241543   0.733   0.768   0.684
13867TIP3    H141544   0.793   0.825   0.732
13867TIP3    H241545   0.760   0.775   0.593
13868TIP3   OH241546   0.483   1.436   0.939
13868TIP3    H141547   0.564   1.486   0.944
13868TIP3    H241548   0.421   1.493   0.895
13869TIP3   OH241549   1.265  -0.001   0.741
13869TIP3    H141550   1.187   0.033   0.784
13869TIP3    H241551   1.278   0.058   0.666
13870TIP3   OH241552   8.497   0.721   1.063
13870TIP3    H141553   8.427   0.776   1.027
13870TIP3    H241554   8.451   0.647   1.102
13871TIP3   OH241555   1.066   1.354   0.302
13871TIP3    H141556   1.051   1.425   0.239
13871TIP3    H241557   1.156   1.326   0.286
13872TIP3   OH241558   1.462   1.779   1.688
13872TIP3    H141559   1.468   1.684   1.697
13872TIP3    H241560   1.380   1.802   1.732
13873TIP3   OH241561   0.370   1.660   0.770
13873TIP3    H141562   0.321   1.641   0.689
13873TIP3    H241563   0.336   1.744   0.799
13874TIP3   OH241564   8.310   1.515   1.140
13874TIP3    H141565   8.352   1.511   1.226
13874TIP3    H241566   8.263   1.432   1.131
13875TIP3   OH241567   0.575   1.596   0.394
13875TIP3    H141568   0.620   1.518   0.361
13875TIP3    H241569   0.604   1.604   0.485
13876TIP3   OH241570   0.621   1.625   0.666
13876TIP3    H141571   0.535   1.634   0.706
13876TIP3    H241572   0.676   1.589   0.735
13877TIP3   OH241573   0.808   0.759   0.424
13877TIP3    H141574   0.766   0.754   0.338
13877TIP3    H241575   0.893   0.798   0.406
13878TIP3   OH241576   0.525   0.185   0.732
13878TIP3    H141577   0.493   0.172   0.822
13878TIP3    H241578   0.489   0.112   0.683
13879TIP3   OH241579   0.210   0.566   1.287
13879TIP3    H141580   0.123   0.547   1.321
13879TIP3    H241581   0.211   0.526   1.199
13880TIP3   OH241582   0.684   0.624   1.018
13880TIP3    H141583   0.635   0.696   0.978
13880TIP3    H241584   0.739   0.590   0.947
13881TIP3   OH241585   0.846   0.626   1.242
13881TIP3    H141586   0.786   0.647   1.172
13881TIP3    H241587   0.895   0.550   1.210
13882TIP3   OH241588   0.190   0.163   0.678
13882TIP3    H141589   0.189   0.179   0.772
13882TIP3    H241590   0.111   0.205   0.645
13883TIP3   OH241591   8.205   0.268   1.093
13883TIP3    H141592   8.209   0.279   0.998
13883TIP3    H241593   8.136   0.328   1.122
13884TIP3   OH241594   0.849   0.894   1.645
13884TIP3    H141595   0.879   0.812   1.606
13884TIP3    H241596   0.881   0.891   1.736
13885TIP3   OH241597   0.614   0.409   1.344
13885TIP3    H141598   0.547   0.430   1.409
13885TIP3    H241599   0.695   0.403   1.395
13886TIP3   OH241600   8.473   0.449   1.347
13886TIP3    H141601   8.389   0.479   1.311
13886TIP3    H241602   8.500   0.377   1.290
13887TIP3   OH241603   0.211   0.428   1.049
13887TIP3    H141604   0.305   0.447   1.039
13887TIP3    H241605   0.174   0.451   0.964
13888TIP3   OH241606   1.072   0.437   1.582
13888TIP3    H141607   1.085   0.401   1.670
13888TIP3    H241608   0.993   0.393   1.550
13889TIP3   OH241609   0.097   0.444   0.801
13889TIP3    H141610   0.031   0.401   0.746
13889TIP3    H241611   0.152   0.492   0.740
13890TIP3   OH241612   1.154   2.107   1.774
13890TIP3    H141613   1.173   2.127   1.682
13890TIP3    H241614   1.181   2.186   1.822
13891TIP3   OH241615   0.629   0.720   1.415
13891TIP3    H141616   0.676   0.678   1.343
13891TIP3    H241617   0.685   0.704   1.492
13892TIP3   OH241618   0.112   0.196   1.324
13892TIP3    H141619   0.056   0.186   1.402
13892TIP3    H241620   0.058   0.163   1.252
13893TIP3   OH241621   0.304   0.947   0.833
13893TIP3    H141622   0.228   0.894   0.809
13893TIP3    H241623   0.277   0.993   0.912
13894TIP3   OH241624   1.202   1.210   1.434
13894TIP3    H141625   1.240   1.259   1.362
13894TIP3    H241626   1.123   1.170   1.398
13895TIP3   OH241627   0.781   0.271   0.738
13895TIP3    H141628   0.687   0.255   0.728
13895TIP3    H241629   0.790   0.366   0.741
13896TIP3   OH241630   0.842   0.537   0.803
13896TIP3    H141631   0.937   0.542   0.811
13896TIP3    H241632   0.818   0.612   0.749
13897TIP3   OH241633   0.004   0.975   1.475
13897TIP3    H141634   0.044   0.957   1.390
13897TIP3    H241635   0.070   0.949   1.538
13898TIP3   OH241636   0.460   1.113   0.683
13898TIP3    H141637   0.413   1.196   0.679
13898TIP3    H241638   0.403   1.054   0.733
13899TIP3   OH241639   0.894   1.535   1.778
13899TIP3    H141640   0.807   1.572   1.791
13899TIP3    H241641   0.954   1.605   1.802
13900TIP3   OH241642   1.251   0.621   0.625
13900TIP3    H141643   1.188   0.579   0.566
13900TIP3    H241644   1.260   0.710   0.592
13901TIP3   OH241645   1.465   1.507   1.703
13901TIP3    H141646   1.375   1.476   1.694
13901TIP3    H241647   1.513   1.465   1.631
13902TIP3   OH241648   0.973   1.429   0.572
13902TIP3    H141649   0.948   1.363   0.637
13902TIP3    H241650   0.997   1.378   0.494
13903TIP3   OH241651   0.972   1.078   1.324
13903TIP3    H141652   0.881   1.058   1.342
13903TIP3    H241653   1.010   0.996   1.292
13904TIP3   OH241654   0.126   1.313   1.150
13904TIP3    H141655   0.115   1.389   1.092
13904TIP3    H241656   0.048   1.314   1.205
13905TIP3   OH241657   8.195   0.594   0.859
13905TIP3    H141658   8.244   0.673   0.882
13905TIP3    H241659   8.109   0.607   0.901
13906TIP3   OH241660   0.202   1.072   1.048
13906TIP3    H141661   0.186   1.160   1.080
13906TIP3    H241662   0.179   1.015   1.122
13907TIP3   OH241663   0.389   1.637   1.601
13907TIP3    H141664   0.426   1.715   1.558
13907TIP3    H241665   0.466   1.585   1.624
13908TIP3   OH241666   0.044   1.536   0.998
13908TIP3    H141667  -0.043   1.541   1.038
13908TIP3    H241668   0.078   1.625   1.004
13909TIP3   OH241669   0.784   1.281   1.555
13909TIP3    H141670   0.850   1.281   1.624
13909TIP3    H241671   0.805   1.204   1.502
13910TIP3   OH241672   0.746   1.173   0.449
13910TIP3    H141673   0.798   1.146   0.525
13910TIP3    H241674   0.663   1.127   0.459
13911TIP3   OH241675   0.977   1.808   1.614
13911TIP3    H141676   0.892   1.770   1.589
13911TIP3    H241677   0.994   1.874   1.546
13912TIP3   OH241678   0.923   1.090   0.642
13912TIP3    H141679   0.907   1.036   0.719
13912TIP3    H241680   1.019   1.096   0.636
13913TIP3   OH241681   0.101   1.140   0.469
13913TIP3    H141682   0.112   1.049   0.442
13913TIP3    H241683   0.089   1.135   0.564
13914TIP3   OH241684   0.045   1.156   0.742
13914TIP3    H141685   0.103   1.131   0.813
13914TIP3    H241686   0.044   1.252   0.744
13915TIP3   OH241687   8.283   0.849   0.944
13915TIP3    H141688   8.218   0.897   0.996
13915TIP3    H241689   8.301   0.906   0.870
13916TIP3   OH241690   0.841   0.224   1.002
13916TIP3    H141691   0.817   0.245   0.912
13916TIP3    H241692   0.888   0.301   1.032
13917TIP3   OH241693   0.315   1.341   0.674
13917TIP3    H141694   0.230   1.364   0.710
13917TIP3    H241695   0.339   1.417   0.620
13918TIP3   OH241696   0.488   0.444   1.088
13918TIP3    H141697   0.550   0.509   1.054
13918TIP3    H241698   0.515   0.431   1.179
13919TIP3   OH241699   0.657   0.178   1.201
13919TIP3    H141700   0.637   0.258   1.250
13919TIP3    H241701   0.727   0.204   1.141
13920TIP3   OH241702   0.064   1.429   0.748
13920TIP3    H141703   0.045   1.501   0.688
13920TIP3    H241704   0.056   1.467   0.835
13921TIP3   OH241705   0.175   0.171   0.953
13921TIP3    H141706   0.179   0.259   0.990
13921TIP3    H241707   0.261   0.133   0.972
13922TIP3   OH241708   1.059   0.817   1.252
13922TIP3    H141709   0.985   0.757   1.260
13922TIP3    H241710   1.127   0.779   1.307
13923TIP3   OH241711   8.301   1.025   0.727
13923TIP3    H141712   8.374   1.086   0.738
13923TIP3    H241713   8.333   0.961   0.663
13924TIP3   OH241714   8.197   0.314   0.830
13924TIP3    H141715   8.207   0.409   0.833
13924TIP3    H241716   8.132   0.299   0.761
13925TIP3   OH241717   1.034   1.787   1.192
13925TIP3    H141718   0.991   1.841   1.126
13925TIP3    H241719   1.128   1.799   1.174
13926TIP3   OH241720   8.137   1.290   1.121
13926TIP3    H141721   8.101   1.330   1.200
13926TIP3    H241722   8.094   1.336   1.049
13927TIP3   OH241723   0.255   1.340   0.355
13927TIP3    H141724   0.207   1.271   0.401
13927TIP3    H241725   0.329   1.295   0.314
13928TIP3   OH241726   0.696   1.381   0.279
13928TIP3    H141727   0.729   1.314   0.339
13928TIP3    H241728   0.749   1.372   0.200
13929TIP3   OH241729   8.422   0.831   0.577
13929TIP3    H141730   8.472   0.806   0.655
13929TIP3    H241731   8.488   0.845   0.510
13930TIP3   OH241732   0.493   1.053   0.416
13930TIP3    H141733   0.471   1.063   0.509
13930TIP3    H241734   0.477   0.961   0.397
13931TIP3   OH241735   1.001   1.284   1.731
13931TIP3    H141736   1.092   1.308   1.712
13931TIP3    H241737   0.961   1.366   1.763
13932TIP3   OH241738   0.092   0.771   0.792
13932TIP3    H141739   0.071   0.737   0.879
13932TIP3    H241740   0.145   0.703   0.751
13933TIP3   OH241741   0.247   0.599   0.636
13933TIP3    H141742   0.216   0.601   0.545
13933TIP3    H241743   0.342   0.604   0.628
13934TIP3   OH241744   1.035   0.878   0.318
13934TIP3    H141745   1.024   0.833   0.235
13934TIP3    H241746   1.007   0.967   0.302
13935TIP3   OH241747   0.064   1.641   0.568
13935TIP3    H141748   0.153   1.618   0.541
13935TIP3    H241749   0.027   1.687   0.493
13936TIP3   OH241750   8.029   1.023   0.745
13936TIP3    H141751   8.124   1.034   0.742
13936TIP3    H241752   8.013   0.937   0.706
13937TIP3   OH241753   7.949   1.609   1.160
13937TIP3    H141754   7.884   1.549   1.122
13937TIP3    H241755   7.998   1.554   1.222
13938TIP3   OH241756   8.063   1.442   1.344
13938TIP3    H141757   7.979   1.423   1.386
13938TIP3    H241758   8.112   1.492   1.410
13939TIP3   OH241759   1.305   1.837   1.175
13939TIP3    H141760   1.326   1.849   1.268
13939TIP3    H241761   1.340   1.916   1.134
13940TIP3   OH241762   1.329   1.849   1.452
13940TIP3    H141763   1.273   1.772   1.453
13940TIP3    H241764   1.395   1.833   1.519
13941TIP3   OH241765   1.201   1.086   0.647
13941TIP3    H141766   1.259   1.155   0.614
13941TIP3    H241767   1.249   1.049   0.721
13942TIP3   OH241768   1.336   0.945   0.845
13942TIP3    H141769   1.269   0.910   0.903
13942TIP3    H241770   1.402   0.982   0.904
13943TIP3   OH241771   1.378   1.350   1.273
13943TIP3    H141772   1.435   1.284   1.233
13943TIP3    H241773   1.381   1.423   1.211
13944TIP3   OH241774   1.161   1.634   1.469
13944TIP3    H141775   1.087   1.671   1.517
13944TIP3    H241776   1.122   1.590   1.394
13945TIP3   OH241777   1.245   0.862   0.494
13945TIP3    H141778   1.173   0.858   0.431
13945TIP3    H241779   1.226   0.939   0.548
13946TIP3   OH241780   1.077   0.525   0.438
13946TIP3    H141781   1.044   0.544   0.350
13946TIP3    H241782   1.068   0.430   0.447
13947TIP3   OH241783   1.131   0.812   0.983
13947TIP3    H141784   1.136   0.718   0.966
13947TIP3    H241785   1.110   0.819   1.076
13948TIP3   OH241786   1.357   1.195   1.809
13948TIP3    H141787   1.434   1.140   1.824
13948TIP3    H241788   1.389   1.284   1.818
13949TIP3   OH241789   1.584   1.038   1.845
13949TIP3    H141790   1.582   0.943   1.856
13949TIP3    H241791   1.676   1.062   1.857
13950TIP3   OH241792   1.048   0.258   0.444
13950TIP3    H141793   1.126   0.213   0.478
13950TIP3    H241794   0.980   0.191   0.442
13951TIP3   OH241795   1.131   0.539   0.868
13951TIP3    H141796   1.179   0.458   0.883
13951TIP3    H241797   1.170   0.576   0.789
13952TIP3   OH241798   1.277   0.707   1.392
13952TIP3    H141799   1.358   0.727   1.346
13952TIP3    H241800   1.287   0.748   1.477
13953TIP3   OH241801   1.349   0.859   1.613
13953TIP3    H141802   1.273   0.891   1.662
13953TIP3    H241803   1.387   0.938   1.574
13954TIP3   OH241804   1.251   0.295   0.923
13954TIP3    H141805   1.290   0.272   1.007
13954TIP3    H241806   1.189   0.224   0.905
13955TIP3   OH241807   1.295   0.167   0.530
13955TIP3    H141808   1.309   0.102   0.461
13955TIP3    H241809   1.365   0.231   0.516
13956TIP3   OH241810   8.205   0.187   1.355
13956TIP3    H141811   8.116   0.165   1.381
13956TIP3    H241812   8.198   0.212   1.263
13957TIP3   OH241813   0.869   1.768   0.834
13957TIP3    H141814   0.920   1.753   0.754
13957TIP3    H241815   0.912   1.842   0.876
13958TIP3   OH241816   0.150   1.596   1.737
13958TIP3    H141817   0.117   1.683   1.716
13958TIP3    H241818   0.239   1.595   1.702
13959TIP3   OH241819   0.782   1.976   1.752
13959TIP3    H141820   0.858   1.934   1.712
13959TIP3    H241821   0.810   1.999   1.840
13960TIP3   OH241822   0.072   1.846   1.648
13960TIP3    H141823  -0.012   1.873   1.685
13960TIP3    H241824   0.061   1.859   1.553
13961TIP3   OH241825   0.485   1.843   1.442
13961TIP3    H141826   0.415   1.852   1.378
13961TIP3    H241827   0.494   1.930   1.481
13962TIP3   OH241828   0.745   1.765   1.475
13962TIP3    H141829   0.652   1.786   1.469
13962TIP3    H241830   0.787   1.825   1.413
13963TIP3   OH241831   0.981   1.970   1.392
13963TIP3    H141832   0.961   2.053   1.347
13963TIP3    H241833   0.997   1.908   1.321
13964TIP3   OH241834   8.235   1.608   1.499
13964TIP3    H141835   8.248   1.593   1.593
13964TIP3    H241836   8.314   1.573   1.458
13965TIP3   OH241837   8.454   1.506   1.374
13965TIP3    H141838   8.467   1.420   1.414
13965TIP3    H241839   8.541   1.547   1.376
13966TIP3   OH241840   0.221   1.586   1.387
13966TIP3    H141841   0.243   1.494   1.373
13966TIP3    H241842   0.264   1.609   1.470
13967TIP3   OH241843   0.853   0.317   1.470
13967TIP3    H141844   0.804   0.249   1.516
13967TIP3    H241845   0.907   0.269   1.407
13968TIP3   OH241846   1.289   0.143   1.388
13968TIP3    H141847   1.331   0.191   1.317
13968TIP3    H241848   1.197   0.170   1.385
13969TIP3   OH241849   1.398   0.222   1.150
13969TIP3    H141850   1.465   0.162   1.119
13969TIP3    H241851   1.435   0.309   1.136
13970TIP3   OH241852   5.504   7.890   1.039
13970TIP3    H141853   5.575   7.932   0.990
13970TIP3    H241854   5.532   7.895   1.131
13971TIP3   OH241855   6.246   7.974   1.344
13971TIP3    H141856   6.265   8.058   1.302
13971TIP3    H241857   6.161   7.987   1.386
13972TIP3   OH241858   1.011   0.143   1.328
13972TIP3    H141859   1.037   0.107   1.243
13972TIP3    H241860   0.983   0.066   1.378
13973TIP3   OH241861   1.065   0.092   0.902
13973TIP3    H141862   0.982   0.132   0.926
13973TIP3    H241863   1.057   0.001   0.930
13974TIP3   OH241864   8.024   1.414   0.905
13974TIP3    H141865   7.944   1.378   0.868
13974TIP3    H241866   8.027   1.504   0.872
13975TIP3   OH241867   5.659   7.995   0.839
13975TIP3    H141868   5.686   7.924   0.781
13975TIP3    H241869   5.740   8.044   0.856
13976TIP3   OH241870   0.461   0.179   1.006
13976TIP3    H141871   0.514   0.160   1.083
13976TIP3    H241872   0.452   0.274   1.006
13977TIP3   OH241873   0.318   1.564   0.498
13977TIP3    H141874   0.401   1.593   0.459
13977TIP3    H241875   0.289   1.492   0.442
13978TIP3   OH241876   1.007   1.696   0.604
13978TIP3    H141877   0.997   1.601   0.600
13978TIP3    H241878   0.970   1.728   0.522
13979TIP3   OH241879   8.127   1.404   0.558
13979TIP3    H141880   8.132   1.416   0.653
13979TIP3    H241881   8.207   1.358   0.535
13980TIP3   OH241882   1.208   1.840   1.768
13980TIP3    H141883   1.130   1.814   1.720
13980TIP3    H241884   1.195   1.932   1.788
13981TIP3   OH241885   2.511   1.234   0.531
13981TIP3    H141886   2.477   1.321   0.510
13981TIP3    H241887   2.443   1.173   0.503
13982TIP3   OH241888   2.466   1.207   0.934
13982TIP3    H141889   2.508   1.195   1.019
13982TIP3    H241890   2.428   1.122   0.914
13983TIP3   OH241891   1.807   1.076   1.291
13983TIP3    H141892   1.843   1.030   1.366
13983TIP3    H241893   1.883   1.106   1.242
13984TIP3   OH241894   2.765   1.459   0.583
13984TIP3    H141895   2.718   1.411   0.651
13984TIP3    H241896   2.772   1.548   0.618
13985TIP3   OH241897   1.802   1.509   0.964
13985TIP3    H141898   1.781   1.417   0.980
13985TIP3    H241899   1.898   1.511   0.960
13986TIP3   OH241900   1.485   0.716   0.768
13986TIP3    H141901   1.443   0.800   0.790
13986TIP3    H241902   1.417   0.667   0.722
13987TIP3   OH241903   1.564   1.030   0.986
13987TIP3    H141904   1.613   0.952   1.014
13987TIP3    H241905   1.632   1.094   0.963
13988TIP3   OH241906   2.457   1.981   0.594
13988TIP3    H141907   2.484   1.897   0.555
13988TIP3    H241908   2.411   1.957   0.674
13989TIP3   OH241909   2.311   1.442   0.951
13989TIP3    H141910   2.346   1.357   0.923
13989TIP3    H241911   2.388   1.491   0.980
13990TIP3   OH241912   3.315   0.739   0.909
13990TIP3    H141913   3.311   0.822   0.957
13990TIP3    H241914   3.359   0.761   0.827
13991TIP3   OH241915   2.714   0.929   0.996
13991TIP3    H141916   2.751   0.844   1.020
13991TIP3    H241917   2.683   0.917   0.906
13992TIP3   OH241918   2.083   0.589   0.944
13992TIP3    H141919   2.061   0.663   0.888
13992TIP3    H241920   2.028   0.518   0.912
13993TIP3   OH241921   2.768   0.694   0.580
13993TIP3    H141922   2.831   0.664   0.646
13993TIP3    H241923   2.821   0.726   0.508
13994TIP3   OH241924   1.698   0.807   1.085
13994TIP3    H141925   1.784   0.794   1.125
13994TIP3    H241926   1.701   0.755   1.005
13995TIP3   OH241927   2.121   1.005   0.894
13995TIP3    H141928   2.215   0.985   0.900
13995TIP3    H241929   2.082   0.925   0.860
13996TIP3   OH241930   3.291   0.950   1.081
13996TIP3    H141931   3.203   0.988   1.081
13996TIP3    H241932   3.319   0.954   1.172
13997TIP3   OH241933   2.054   0.604   1.402
13997TIP3    H141934   2.011   0.638   1.323
13997TIP3    H241935   1.992   0.622   1.473
13998TIP3   OH241936   2.373   1.442   0.417
13998TIP3    H141937   2.352   1.424   0.326
13998TIP3    H241938   2.325   1.523   0.437
13999TIP3   OH241939   2.151   1.368   1.166
13999TIP3    H141940   2.085   1.432   1.194
13999TIP3    H241941   2.196   1.411   1.093
14000TIP3   OH241942   2.927   0.648   0.796
14000TIP3    H141943   2.874   0.654   0.876
14000TIP3    H241944   2.977   0.730   0.794
14001TIP3   OH241945   1.951   0.701   1.163
14001TIP3    H141946   2.004   0.777   1.186
14001TIP3    H241947   1.999   0.660   1.091
14002TIP3   OH241948   1.964   1.539   1.272
14002TIP3    H141949   1.943   1.621   1.227
14002TIP3    H241950   1.891   1.526   1.333
14003TIP3   OH241951   1.366   1.270   0.518
14003TIP3    H141952   1.337   1.274   0.427
14003TIP3    H241953   1.378   1.361   0.543
14004TIP3   OH241954   2.764   1.715   0.683
14004TIP3    H141955   2.709   1.718   0.761
14004TIP3    H241956   2.740   1.792   0.633
14005TIP3   OH241957   3.105   0.646   1.080
14005TIP3    H141958   3.022   0.650   1.033
14005TIP3    H241959   3.171   0.667   1.013
14006TIP3   OH241960   2.407   0.295   1.132
14006TIP3    H141961   2.398   0.202   1.155
14006TIP3    H241962   2.331   0.336   1.172
14007TIP3   OH241963   2.528   1.754   0.450
14007TIP3    H141964   2.564   1.667   0.436
14007TIP3    H241965   2.574   1.810   0.387
14008TIP3   OH241966   2.685   1.554   0.341
14008TIP3    H141967   2.681   1.482   0.279
14008TIP3    H241968   2.722   1.516   0.421
14009TIP3   OH241969   2.952   1.616   1.061
14009TIP3    H141970   2.936   1.578   0.975
14009TIP3    H241971   2.975   1.707   1.043
14010TIP3   OH241972   2.339   1.072   0.380
14010TIP3    H141973   2.257   1.118   0.363
14010TIP3    H241974   2.384   1.071   0.295
14011TIP3   OH241975   2.306   0.880   0.066
14011TIP3    H141976   2.372   0.928   0.116
14011TIP3    H241977   2.356   0.812   0.020
14012TIP3   OH241978   3.111   1.274   0.901
14012TIP3    H141979   3.047   1.337   0.867
14012TIP3    H241980   3.190   1.292   0.850
14013TIP3   OH241981   2.692   1.159   0.339
14013TIP3    H141982   2.640   1.191   0.412
14013TIP3    H241983   2.775   1.132   0.379
14014TIP3   OH241984   2.860   1.156   1.227
14014TIP3    H141985   2.896   1.244   1.214
14014TIP3    H241986   2.766   1.165   1.209
14015TIP3   OH241987   1.923   1.140   0.746
14015TIP3    H141988   1.887   1.079   0.681
14015TIP3    H241989   1.997   1.093   0.784
14016TIP3   OH241990   2.067   1.553   0.883
14016TIP3    H141991   2.045   1.537   0.792
14016TIP3    H241992   2.155   1.516   0.893
14017TIP3   OH241993   2.021   1.133   1.117
14017TIP3    H141994   2.059   1.097   1.037
14017TIP3    H241995   2.069   1.214   1.132
14018TIP3   OH241996   2.632   1.721   0.919
14018TIP3    H141997   2.608   1.794   0.976
14018TIP3    H241998   2.605   1.643   0.967
14019TIP3   OH241999   2.168   1.691   1.378
14019TIP3    H142000   2.119   1.756   1.429
14019TIP3    H242001   2.101   1.639   1.334
14020TIP3   OH242002   2.527   1.018   0.171
14020TIP3    H142003   2.585   1.076   0.219
14020TIP3    H242004   2.557   1.024   0.080
14021TIP3   OH242005   1.970   1.229   1.531
14021TIP3    H142006   1.977   1.311   1.580
14021TIP3    H242007   1.876   1.208   1.534
14022TIP3   OH242008   2.258   1.697   0.445
14022TIP3    H142009   2.349   1.725   0.453
14022TIP3    H242010   2.217   1.762   0.387
14023TIP3   OH242011   1.977   1.757   1.584
14023TIP3    H142012   1.975   1.845   1.546
14023TIP3    H242013   1.890   1.747   1.624
14024TIP3   OH242014   3.035   0.247   0.229
14024TIP3    H142015   2.959   0.267   0.283
14024TIP3    H242016   3.046   0.323   0.173
14025TIP3   OH242017   1.800   0.980   0.547
14025TIP3    H142018   1.723   1.028   0.516
14025TIP3    H242019   1.770   0.890   0.557
14026TIP3   OH242020   5.694   5.625   6.710
14026TIP3    H142021   5.686   5.718   6.691
14026TIP3    H242022   5.786   5.604   6.691
14027TIP3   OH242023   1.568   1.386   1.479
14027TIP3    H142024   1.500   1.365   1.416
14027TIP3    H242025   1.607   1.301   1.501
14028TIP3   OH242026   1.416   1.584   1.117
14028TIP3    H142027   1.502   1.612   1.147
14028TIP3    H242028   1.358   1.657   1.140
14029TIP3   OH242029   2.367   1.810   1.234
14029TIP3    H142030   2.368   1.892   1.284
14029TIP3    H242031   2.306   1.754   1.281
14030TIP3   OH242032   2.170   1.905   0.267
14030TIP3    H142033   2.129   1.889   0.182
14030TIP3    H242034   2.133   1.988   0.297
14031TIP3   OH242035   1.575   1.764   0.660
14031TIP3    H142036   1.650   1.766   0.719
14031TIP3    H242037   1.501   1.738   0.716
14032TIP3   OH242038   5.195   5.854   6.808
14032TIP3    H142039   5.246   5.780   6.776
14032TIP3    H242040   5.225   5.867   6.898
14033TIP3   OH242041   2.412   1.891   0.131
14033TIP3    H142042   2.339   1.887   0.193
14033TIP3    H242043   2.490   1.874   0.184
14034TIP3   OH242044   3.220   1.143   1.525
14034TIP3    H142045   3.149   1.176   1.581
14034TIP3    H242046   3.187   1.154   1.436
14035TIP3   OH242047   1.746   1.586   1.441
14035TIP3    H142048   1.740   1.632   1.525
14035TIP3    H242049   1.681   1.516   1.448
14036TIP3   OH242050   2.169   0.385   1.261
14036TIP3    H142051   2.087   0.352   1.225
14036TIP3    H242052   2.145   0.466   1.306
14037TIP3   OH242053   2.696   0.501   1.455
14037TIP3    H142054   2.762   0.501   1.524
14037TIP3    H242055   2.613   0.489   1.501
14038TIP3   OH242056   2.904   0.931   1.374
14038TIP3    H142057   2.859   0.950   1.456
14038TIP3    H242058   2.890   1.009   1.321
14039TIP3   OH242059   5.443   5.008   6.850
14039TIP3    H142060   5.394   5.012   6.768
14039TIP3    H242061   5.525   5.053   6.832
14040TIP3   OH242062   2.317   0.419   0.228
14040TIP3    H142063   2.279   0.428   0.315
14040TIP3    H242064   2.280   0.338   0.193
14041TIP3   OH242065   2.096   0.910   1.263
14041TIP3    H142066   2.056   0.919   1.349
14041TIP3    H242067   2.074   0.992   1.218
14042TIP3   OH242068   1.980   0.792   0.790
14042TIP3    H142069   1.891   0.767   0.815
14042TIP3    H242070   1.989   0.760   0.700
14043TIP3   OH242071   2.462   0.868   0.516
14043TIP3    H142072   2.415   0.941   0.475
14043TIP3    H242073   2.520   0.835   0.447
14044TIP3   OH242074   2.593   1.274   1.555
14044TIP3    H142075   2.635   1.189   1.549
14044TIP3    H242076   2.651   1.326   1.611
14045TIP3   OH242077   2.627   0.876   0.738
14045TIP3    H142078   2.557   0.898   0.677
14045TIP3    H242079   2.673   0.803   0.697
14046TIP3   OH242080   1.933   0.916   1.491
14046TIP3    H142081   1.964   0.961   1.569
14046TIP3    H242082   1.898   0.833   1.523
14047TIP3   OH242083   1.986   0.405   0.207
14047TIP3    H142084   1.974   0.409   0.302
14047TIP3    H242085   1.909   0.450   0.172
14048TIP3   OH242086   1.526   0.444   1.067
14048TIP3    H142087   1.604   0.482   1.106
14048TIP3    H242088   1.550   0.425   0.976
14049TIP3   OH242089   1.442   0.418   0.564
14049TIP3    H142090   1.486   0.460   0.490
14049TIP3    H242091   1.371   0.478   0.587
14050TIP3   OH242092   2.600   1.117   1.156
14050TIP3    H142093   2.640   1.052   1.099
14050TIP3    H242094   2.571   1.068   1.233
14051TIP3   OH242095   2.351   0.584   0.838
14051TIP3    H142096   2.272   0.582   0.892
14051TIP3    H242097   2.423   0.572   0.901
14052TIP3   OH242098   1.742   0.666   0.853
14052TIP3    H142099   1.655   0.672   0.814
14052TIP3    H242100   1.772   0.577   0.834
14053TIP3   OH242101   1.998   0.672   0.544
14053TIP3    H142102   2.092   0.682   0.534
14053TIP3    H242103   1.962   0.690   0.457
14054TIP3   OH242104   2.792   0.663   1.037
14054TIP3    H142105   2.783   0.680   1.130
14054TIP3    H242106   2.719   0.605   1.015
14055TIP3   OH242107   1.887   0.699   0.296
14055TIP3    H142108   1.825   0.648   0.245
14055TIP3    H242109   1.941   0.744   0.232
14056TIP3   OH242110   1.928   1.478   1.707
14056TIP3    H142111   1.919   1.500   1.800
14056TIP3    H242112   1.838   1.473   1.675
14057TIP3   OH242113   2.387   0.935   0.939
14057TIP3    H142114   2.456   0.887   0.895
14057TIP3    H242115   2.385   0.898   1.028
14058TIP3   OH242116   1.888   0.419   0.828
14058TIP3    H142117   1.858   0.344   0.878
14058TIP3    H242118   1.903   0.385   0.740
14059TIP3   OH242119   2.359   0.845   1.206
14059TIP3    H142120   2.272   0.878   1.229
14059TIP3    H242121   2.419   0.893   1.264
14060TIP3   OH242122   2.101   1.206   0.323
14060TIP3    H142123   2.026   1.152   0.300
14060TIP3    H242124   2.076   1.248   0.405
14061TIP3   OH242125   2.929   1.465   0.839
14061TIP3    H142126   2.960   1.502   0.757
14061TIP3    H242127   2.847   1.422   0.817
14062TIP3   OH242128   2.568   0.525   0.230
14062TIP3    H142129   2.475   0.503   0.226
14062TIP3    H242130   2.570   0.620   0.243
14063TIP3   OH242131   2.526   1.401   1.314
14063TIP3    H142132   2.569   1.354   1.386
14063TIP3    H242133   2.491   1.480   1.355
14064TIP3   OH242134   2.625   0.790   0.300
14064TIP3    H142135   2.720   0.794   0.308
14064TIP3    H242136   2.602   0.866   0.247
14065TIP3   OH242137   1.787   1.218   0.973
14065TIP3    H142138   1.827   1.201   0.887
14065TIP3    H242139   1.853   1.189   1.036
14066TIP3   OH242140   2.256   1.367   0.167
14066TIP3    H142141   2.208   1.450   0.164
14066TIP3    H242142   2.201   1.309   0.220
14067TIP3   OH242143   1.702   1.168   1.593
14067TIP3    H142144   1.734   1.151   1.681
14067TIP3    H242145   1.620   1.118   1.588
14068TIP3   OH242146   2.334   1.256   1.653
14068TIP3    H142147   2.291   1.180   1.613
14068TIP3    H242148   2.423   1.255   1.617
14069TIP3   OH242149   2.637   1.819   1.210
14069TIP3    H142150   2.542   1.809   1.203
14069TIP3    H242151   2.650   1.875   1.286
14070TIP3   OH242152   3.038   0.876   0.116
14070TIP3    H142153   2.981   0.832   0.052
14070TIP3    H242154   3.045   0.966   0.083
14071TIP3   OH242155   3.390   1.822   1.226
14071TIP3    H142156   3.338   1.743   1.241
14071TIP3    H242157   3.452   1.796   1.157
14072TIP3   OH242158   2.791   1.674   0.041
14072TIP3    H142159   2.755   1.611   0.103
14072TIP3    H242160   2.801   1.623  -0.040
14073TIP3   OH242161   2.704   1.305   0.815
14073TIP3    H142162   2.615   1.275   0.833
14073TIP3    H242163   2.749   1.227   0.782
14074TIP3   OH242164   1.923   1.563   0.645
14074TIP3    H142165   1.917   1.636   0.583
14074TIP3    H242166   1.836   1.558   0.685
14075TIP3   OH242167   1.481   0.852   0.354
14075TIP3    H142168   1.525   0.934   0.378
14075TIP3    H242169   1.400   0.852   0.406
14076TIP3   OH242170   2.003   1.318   0.548
14076TIP3    H142171   1.988   1.408   0.577
14076TIP3    H242172   1.976   1.264   0.622
14077TIP3   OH242173   2.155   1.894   1.088
14077TIP3    H142174   2.177   1.984   1.066
14077TIP3    H242175   2.237   1.857   1.122
14078TIP3   OH242176   1.810   1.775   0.497
14078TIP3    H142177   1.722   1.786   0.532
14078TIP3    H242178   1.846   1.864   0.494
14079TIP3   OH242179   2.568   1.491   1.053
14079TIP3    H142180   2.561   1.459   1.143
14079TIP3    H242181   2.622   1.426   1.008
14080TIP3   OH242182   5.385   5.438   6.877
14080TIP3    H142183   5.427   5.413   6.960
14080TIP3    H242184   5.300   5.394   6.879
14081TIP3   OH242185   2.803   1.997   1.062
14081TIP3    H142186   2.731   1.940   1.090
14081TIP3    H242187   2.782   2.019   0.971
14082TIP3   OH242188   5.685   5.898   6.672
14082TIP3    H142189   5.718   5.965   6.611
14082TIP3    H242190   5.608   5.939   6.711
14083TIP3   OH242191   1.835   0.661   1.581
14083TIP3    H142192   1.755   0.700   1.615
14083TIP3    H242193   1.821   0.567   1.590
14084TIP3   OH242194   2.712   1.355   0.149
14084TIP3    H142195   2.700   1.285   0.212
14084TIP3    H242196   2.806   1.356   0.131
14085TIP3   OH242197   1.616   1.741   1.234
14085TIP3    H142198   1.676   1.697   1.294
14085TIP3    H242199   1.610   1.831   1.268
14086TIP3   OH242200   4.736   5.400   6.889
14086TIP3    H142201   4.744   5.308   6.865
14086TIP3    H242202   4.715   5.399   6.983
14087TIP3   OH242203   1.838   1.412   0.221
14087TIP3    H142204   1.908   1.384   0.280
14087TIP3    H242205   1.839   1.508   0.227
14088TIP3   OH242206   1.576   1.102   0.438
14088TIP3    H142207   1.508   1.148   0.487
14088TIP3    H242208   1.595   1.160   0.364
14089TIP3   OH242209   2.742   0.721   1.298
14089TIP3    H142210   2.809   0.773   1.341
14089TIP3    H242211   2.728   0.647   1.358
14090TIP3   OH242212   2.624   0.473   0.496
14090TIP3    H142213   2.603   0.488   0.404
14090TIP3    H242214   2.665   0.554   0.526
14091TIP3   OH242215   2.110   1.594   0.163
14091TIP3    H142216   2.027   1.621   0.203
14091TIP3    H242217   2.136   1.669   0.108
14092TIP3   OH242218   2.277   0.677   0.587
14092TIP3    H142219   2.338   0.746   0.561
14092TIP3    H242220   2.302   0.657   0.678
14093TIP3   OH242221   2.570   0.935   1.361
14093TIP3    H142222   2.615   0.968   1.439
14093TIP3    H242223   2.619   0.857   1.336
14094TIP3   OH242224   2.440   0.371   0.675
14094TIP3    H142225   2.418   0.449   0.726
14094TIP3    H242226   2.509   0.399   0.616
14095TIP3   OH242227   1.861   1.684   0.242
14095TIP3    H142228   1.843   1.757   0.183
14095TIP3    H242229   1.844   1.719   0.329
14096TIP3   OH242230   1.955   0.399   0.487
14096TIP3    H142231   1.943   0.490   0.513
14096TIP3    H242232   2.049   0.384   0.491
14097TIP3   OH242233   3.129   0.784   1.319
14097TIP3    H142234   3.049   0.837   1.320
14097TIP3    H242235   3.132   0.747   1.231
14098TIP3   OH242236   2.832   1.066   0.729
14098TIP3    H142237   2.755   1.009   0.733
14098TIP3    H242238   2.903   1.012   0.765
14099TIP3   OH242239   1.595   1.278   0.220
14099TIP3    H142240   1.667   1.341   0.227
14099TIP3    H242241   1.626   1.214   0.155
14100TIP3   OH242242   1.505   0.575   0.353
14100TIP3    H142243   1.509   0.671   0.351
14100TIP3    H242244   1.442   0.553   0.285
14101TIP3   OH242245   2.773   1.975   0.571
14101TIP3    H142246   2.706   2.022   0.521
14101TIP3    H242247   2.844   1.960   0.509
14102TIP3   OH242248   1.910   0.296   1.209
14102TIP3    H142249   1.881   0.267   1.123
14102TIP3    H242250   1.896   0.221   1.267
14103TIP3   OH242251   1.401   1.540   0.579
14103TIP3    H142252   1.367   1.560   0.666
14103TIP3    H242253   1.479   1.595   0.570
14104TIP3   OH242254   1.576   2.028   1.639
14104TIP3    H142255   1.656   2.014   1.690
14104TIP3    H242256   1.527   1.947   1.648
14105TIP3   OH242257   4.884   5.607   6.784
14105TIP3    H142258   4.837   5.535   6.827
14105TIP3    H242259   4.959   5.564   6.741
14106TIP3   OH242260   2.642   2.004   1.448
14106TIP3    H142261   2.704   1.934   1.468
14106TIP3    H242262   2.697   2.078   1.421
14107TIP3   OH242263   5.330   5.642   6.702
14107TIP3    H142264   5.366   5.579   6.764
14107TIP3    H242265   5.387   5.637   6.626
14108TIP3   OH242266   1.717   1.088   0.066
14108TIP3    H142267   1.768   1.064   0.143
14108TIP3    H242268   1.782   1.102  -0.003
14109TIP3   OH242269   2.445   1.520   1.723
14109TIP3    H142270   2.424   1.522   1.630
14109TIP3    H242271   2.403   1.440   1.755
14110TIP3   OH242272   5.136   5.317   6.843
14110TIP3    H142273   5.110   5.328   6.935
14110TIP3    H242274   5.114   5.226   6.823
14111TIP3   OH242275   2.779   1.589   1.268
14111TIP3    H142276   2.840   1.594   1.195
14111TIP3    H242277   2.709   1.650   1.244
14112TIP3   OH242278   1.848   1.125   1.834
14112TIP3    H142279   1.930   1.080   1.816
14112TIP3    H242280   1.872   1.197   1.892
14113TIP3   OH242281   1.891   1.031   0.278
14113TIP3    H142282   1.872   0.998   0.366
14113TIP3    H242283   1.940   0.960   0.236
14114TIP3   OH242284   2.196   1.076   1.501
14114TIP3    H142285   2.113   1.123   1.507
14114TIP3    H242286   2.239   1.112   1.424
14115TIP3   OH242287   2.036   0.850   0.123
14115TIP3    H142288   2.005   0.853   0.033
14115TIP3    H242289   2.131   0.858   0.116
14116TIP3   OH242290   5.662   5.137   6.740
14116TIP3    H142291   5.649   5.096   6.655
14116TIP3    H242292   5.639   5.228   6.728
14117TIP3   OH242293   2.315   0.875   1.642
14117TIP3    H142294   2.326   0.798   1.585
14117TIP3    H242295   2.277   0.941   1.584
14118TIP3   OH242296   2.318   0.674   1.441
14118TIP3    H142297   2.347   0.712   1.358
14118TIP3    H242298   2.226   0.654   1.428
14119TIP3   OH242299   2.323   1.210   1.305
14119TIP3    H142300   2.407   1.256   1.298
14119TIP3    H242301   2.263   1.261   1.251
14120TIP3   OH242302   2.894   1.410   1.439
14120TIP3    H142303   2.846   1.465   1.378
14120TIP3    H242304   2.986   1.417   1.411
14121TIP3   OH242305   2.082   0.987   1.787
14121TIP3    H142306   2.071   0.913   1.846
14121TIP3    H242307   2.169   0.974   1.749
14122TIP3   OH242308   2.440   0.444   1.543
14122TIP3    H142309   2.399   0.525   1.513
14122TIP3    H242310   2.373   0.377   1.532
14123TIP3   OH242311   2.571   0.909   1.751
14123TIP3    H142312   2.562   0.956   1.833
14123TIP3    H242313   2.481   0.893   1.722
14124TIP3   OH242314   2.783   0.745   1.646
14124TIP3    H142315   2.699   0.770   1.683
14124TIP3    H242316   2.847   0.799   1.693
14125TIP3   OH242317   2.083   0.747   1.920
14125TIP3    H142318   2.118   0.688   1.853
14125TIP3    H242319   2.124   0.718   2.001
14126TIP3   OH242320   2.518   0.333   1.787
14126TIP3    H142321   2.610   0.310   1.776
14126TIP3    H242322   2.494   0.379   1.707
14127TIP3   OH242323   1.859   1.894   0.062
14127TIP3    H142324   1.949   1.876   0.035
14127TIP3    H242325   1.820   1.938  -0.014
14128TIP3   OH242326   1.321   1.271   0.239
14128TIP3    H142327   1.416   1.285   0.231
14128TIP3    H242328   1.306   1.188   0.193
14129TIP3   OH242329   1.237   1.827   0.653
14129TIP3    H142330   1.154   1.781   0.640
14129TIP3    H242331   1.279   1.782   0.727
14130TIP3   OH242332   1.382   1.689   0.847
14130TIP3    H142333   1.369   1.618   0.909
14130TIP3    H242334   1.422   1.759   0.899
14131TIP3   OH242335   3.159   2.045   0.622
14131TIP3    H142336   3.103   2.104   0.672
14131TIP3    H242337   3.125   2.048   0.533
14132TIP3   OH242338   3.076   2.143   0.995
14132TIP3    H142339   3.052   2.056   1.027
14132TIP3    H242340   3.130   2.180   1.064
14133TIP3   OH242341   2.984   1.344   0.123
14133TIP3    H142342   3.046   1.409   0.090
14133TIP3    H242343   3.029   1.303   0.197
14134TIP3   OH242344   3.106   1.190   0.315
14134TIP3    H142345   3.039   1.150   0.371
14134TIP3    H242346   3.170   1.226   0.376
14135TIP3   OH242347   3.090   1.560   0.643
14135TIP3    H142348   3.163   1.499   0.653
14135TIP3    H242349   3.131   1.645   0.628
14136TIP3   OH242350   3.042   1.873   1.044
14136TIP3    H142351   2.959   1.906   1.079
14136TIP3    H242352   3.028   1.867   0.950
14137TIP3   OH242353   5.870   5.122   6.918
14137TIP3    H142354   5.800   5.119   6.853
14137TIP3    H242355   5.852   5.201   6.970
14138TIP3   OH242356   5.722   4.772   6.856
14138TIP3    H142357   5.675   4.809   6.781
14138TIP3    H242358   5.714   4.678   6.845
14139TIP3   OH242359   2.918   1.055   0.465
14139TIP3    H142360   2.925   0.961   0.455
14139TIP3    H242361   2.894   1.068   0.557
14140TIP3   OH242362   1.547   1.132   1.239
14140TIP3    H142363   1.537   1.100   1.149
14140TIP3    H242364   1.640   1.123   1.257
14141TIP3   OH242365   3.163   1.417   1.391
14141TIP3    H142366   3.252   1.384   1.396
14141TIP3    H242367   3.169   1.493   1.333
14142TIP3   OH242368   3.403   1.287   1.378
14142TIP3    H142369   3.360   1.245   1.452
14142TIP3    H242370   3.493   1.255   1.381
14143TIP3   OH242371   5.686   4.501   6.827
14143TIP3    H142372   5.750   4.475   6.894
14143TIP3    H242373   5.603   4.465   6.858
14144TIP3   OH242374   2.919   0.782   0.357
14144TIP3    H142375   2.966   0.699   0.370
14144TIP3    H242376   2.959   0.821   0.280
14145TIP3   OH242377   3.038   0.895   0.810
14145TIP3    H142378   3.121   0.919   0.771
14145TIP3    H242379   3.040   0.934   0.897
14146TIP3   OH242380   3.030   1.047   1.033
14146TIP3    H142381   2.946   1.067   1.073
14146TIP3    H242382   3.054   1.127   0.986
14147TIP3   OH242383   3.032   0.530   0.406
14147TIP3    H142384   3.077   0.517   0.490
14147TIP3    H242385   2.969   0.458   0.401
14148TIP3   OH242386   1.747   0.516   1.222
14148TIP3    H142387   1.804   0.439   1.223
14148TIP3    H242388   1.806   0.589   1.202
14149TIP3   OH242389   1.529   0.791   1.312
14149TIP3    H142390   1.578   0.786   1.230
14149TIP3    H242391   1.540   0.882   1.341
14150TIP3   OH242392   3.420   0.745   1.477
14150TIP3    H142393   3.396   0.818   1.420
14150TIP3    H242394   3.405   0.667   1.423
14151TIP3   OH242395   3.078   0.448   0.046
14151TIP3    H142396   3.127   0.387  -0.010
14151TIP3    H242397   3.131   0.527   0.048
14152TIP3   OH242398   1.512   0.311   0.804
14152TIP3    H142399   1.425   0.295   0.840
14152TIP3    H242400   1.495   0.352   0.719
14153TIP3   OH242401   2.647   1.908   0.264
14153TIP3    H142402   2.722   1.912   0.204
14153TIP3    H242403   2.645   1.995   0.306
14154TIP3   OH242404   1.715   0.385   1.612
14154TIP3    H142405   1.656   0.386   1.687
14154TIP3    H242406   1.666   0.427   1.541
14155TIP3   OH242407   1.735   1.700   1.698
14155TIP3    H142408   1.649   1.742   1.708
14155TIP3    H242409   1.764   1.682   1.788
14156TIP3   OH242410   1.932   1.795   1.198
14156TIP3    H142411   1.866   1.855   1.163
14156TIP3    H242412   2.015   1.827   1.165
14157TIP3   OH242413   2.374   2.053   1.353
14157TIP3    H142414   2.429   2.085   1.425
14157TIP3    H242415   2.406   2.100   1.276
14158TIP3   OH242416   2.492   2.188   1.152
14158TIP3    H142417   2.515   2.111   1.100
14158TIP3    H242418   2.574   2.236   1.161
14159TIP3   OH242419   3.371   0.538   1.285
14159TIP3    H142420   3.283   0.505   1.274
14159TIP3    H242421   3.426   0.460   1.296
14160TIP3   OH242422   1.577   2.017   1.247
14160TIP3    H142423   1.494   2.064   1.241
14160TIP3    H242424   1.632   2.074   1.301
14161TIP3   OH242425   1.798   2.001   1.085
14161TIP3    H142426   1.712   2.010   1.127
14161TIP3    H242427   1.789   2.047   1.001
14162TIP3   OH242428   2.302   1.927   0.814
14162TIP3    H142429   2.220   1.881   0.795
14162TIP3    H242430   2.275   2.005   0.862
14163TIP3   OH242431   2.519   1.971   0.982
14163TIP3    H142432   2.453   1.915   0.941
14163TIP3    H242433   2.526   2.047   0.925
14164TIP3   OH242434   2.773   2.108   0.811
14164TIP3    H142435   2.736   2.196   0.805
14164TIP3    H242436   2.752   2.068   0.726
14165TIP3   OH242437   1.543   1.867   0.982
14165TIP3    H142438   1.551   1.843   1.074
14165TIP3    H242439   1.624   1.837   0.942
14166TIP3   OH242440   1.760   1.756   0.858
14166TIP3    H142441   1.768   1.673   0.904
14166TIP3    H242442   1.848   1.792   0.857
14167TIP3   OH242443   2.031   1.827   0.857
14167TIP3    H142444   2.045   1.732   0.852
14167TIP3    H242445   2.064   1.851   0.943
14168TIP3   OH242446   2.571   0.490   0.984
14168TIP3    H142447   2.528   0.422   1.036
14168TIP3    H242448   2.636   0.443   0.931
14169TIP3   OH242449   3.071   0.405   0.864
14169TIP3    H142450   3.119   0.450   0.794
14169TIP3    H242451   2.984   0.445   0.863
14170TIP3   OH242452   3.191   0.480   0.633
14170TIP3    H142453   3.263   0.424   0.604
14170TIP3    H242454   3.219   0.569   0.610
14171TIP3   OH242455   1.814   0.194   0.974
14171TIP3    H142456   1.724   0.161   0.980
14171TIP3    H242457   1.867   0.116   0.963
14172TIP3   OH242458   1.662   0.116   0.651
14172TIP3    H142459   1.678   0.157   0.566
14172TIP3    H242460   1.615   0.182   0.702
14173TIP3   OH242461   2.300   0.229   0.874
14173TIP3    H142462   2.345   0.275   0.803
14173TIP3    H242463   2.342   0.261   0.954
14174TIP3   OH242464   2.773   0.360   0.854
14174TIP3    H142465   2.805   0.330   0.769
14174TIP3    H242466   2.790   0.287   0.913
14175TIP3   OH242467   2.846   0.323   0.415
14175TIP3    H142468   2.766   0.370   0.440
14175TIP3    H242469   2.837   0.237   0.455
14176TIP3   OH242470   1.218   1.766   0.371
14176TIP3    H142471   1.262   1.681   0.359
14176TIP3    H242472   1.242   1.793   0.459
14177TIP3   OH242473   1.747   0.229   0.399
14177TIP3    H142474   1.789   0.169   0.338
14177TIP3    H242475   1.818   0.284   0.432
14178TIP3   OH242476   2.229   0.426   0.491
14178TIP3    H142477   2.288   0.373   0.544
14178TIP3    H242478   2.245   0.516   0.519
14179TIP3   OH242479   4.948   5.827   6.932
14179TIP3    H142480   5.028   5.857   6.890
14179TIP3    H242481   4.915   5.757   6.876
14180TIP3   OH242482   2.820   1.940   0.050
14180TIP3    H142483   2.814   1.845   0.043
14180TIP3    H242484   2.766   1.973  -0.021
14181TIP3   OH242485   4.293   1.427   0.038
14181TIP3    H142486   4.241   1.477   0.100
14181TIP3    H242487   4.233   1.407  -0.034
14182TIP3   OH242488   4.307   1.441   0.343
14182TIP3    H142489   4.277   1.504   0.409
14182TIP3    H242490   4.276   1.357   0.375
14183TIP3   OH242491   3.550   1.413   0.771
14183TIP3    H142492   3.607   1.367   0.832
14183TIP3    H242493   3.609   1.465   0.717
14184TIP3   OH242494   3.586   1.886   0.540
14184TIP3    H142495   3.542   1.845   0.614
14184TIP3    H242496   3.676   1.898   0.570
14185TIP3   OH242497   3.276   0.968   0.247
14185TIP3    H142498   3.239   1.054   0.269
14185TIP3    H242499   3.202   0.919   0.210
14186TIP3   OH242500   3.323   1.263   0.463
14186TIP3    H142501   3.369   1.183   0.487
14186TIP3    H242502   3.384   1.310   0.407
14187TIP3   OH242503   4.102   1.742   0.391
14187TIP3    H142504   4.083   1.678   0.459
14187TIP3    H242505   4.124   1.822   0.439
14188TIP3   OH242506   4.602   1.155   0.436
14188TIP3    H142507   4.575   1.064   0.440
14188TIP3    H242508   4.559   1.191   0.359
14189TIP3   OH242509   3.876   0.828   0.381
14189TIP3    H142510   3.836   0.903   0.336
14189TIP3    H242511   3.826   0.752   0.351
14190TIP3   OH242512   4.586   0.922   0.036
14190TIP3    H142513   4.656   0.906   0.099
14190TIP3    H242514   4.630   0.959  -0.040
14191TIP3   OH242515   3.466   1.052   0.547
14191TIP3    H142516   3.535   1.063   0.612
14191TIP3    H242517   3.503   0.989   0.484
14192TIP3   OH242518   3.964   1.191   0.278
14192TIP3    H142519   4.045   1.163   0.235
14192TIP3    H242520   3.902   1.120   0.261
14193TIP3   OH242521   3.649   0.860   0.910
14193TIP3    H142522   3.685   0.784   0.864
14193TIP3    H242523   3.726   0.903   0.948
14194TIP3   OH242524   6.959   5.660   6.841
14194TIP3    H142525   6.934   5.657   6.748
14194TIP3    H242526   6.928   5.745   6.872
14195TIP3   OH242527   3.965   1.664   0.642
14195TIP3    H142528   3.885   1.613   0.653
14195TIP3    H242529   3.936   1.755   0.651
14196TIP3   OH242530   4.765   0.905   0.239
14196TIP3    H142531   4.710   0.896   0.317
14196TIP3    H242532   4.834   0.966   0.265
14197TIP3   OH242533   3.717   0.897   0.608
14197TIP3    H142534   3.781   0.950   0.655
14197TIP3    H242535   3.766   0.862   0.533
14198TIP3   OH242536   6.000   5.516   6.939
14198TIP3    H142537   5.968   5.529   6.850
14198TIP3    H242538   6.039   5.600   6.963
14199TIP3   OH242539   4.110   0.526   0.495
14199TIP3    H142540   4.186   0.499   0.546
14199TIP3    H242541   4.041   0.538   0.561
14200TIP3   OH242542   6.961   5.337   6.780
14200TIP3    H142543   6.878   5.379   6.759
14200TIP3    H242544   7.013   5.343   6.700
14201TIP3   OH242545   6.953   5.143   6.490
14201TIP3    H142546   7.019   5.197   6.535
14201TIP3    H242547   7.004   5.082   6.437
14202TIP3   OH242548   7.335   5.425   6.794
14202TIP3    H142549   7.273   5.412   6.865
14202TIP3    H242550   7.409   5.368   6.816
14203TIP3   OH242551   3.764   1.364   0.161
14203TIP3    H142552   3.713   1.305   0.105
14203TIP3    H242553   3.835   1.310   0.194
14204TIP3   OH242554   3.848   1.833   0.364
14204TIP3    H142555   3.782   1.772   0.331
14204TIP3    H242556   3.930   1.785   0.359
14205TIP3   OH242557   3.755   1.292   0.460
14205TIP3    H142558   3.766   1.221   0.397
14205TIP3    H242559   3.820   1.358   0.433
14206TIP3   OH242560   7.158   5.310   6.593
14206TIP3    H142561   7.228   5.347   6.646
14206TIP3    H242562   7.186   5.323   6.503
14207TIP3   OH242563   3.743   1.599   0.905
14207TIP3    H142564   3.671   1.640   0.952
14207TIP3    H242565   3.738   1.506   0.928
14208TIP3   OH242566   6.999   5.935   6.738
14208TIP3    H142567   7.014   5.968   6.827
14208TIP3    H242568   6.904   5.928   6.731
14209TIP3   OH242569   7.666   4.508   6.655
14209TIP3    H142570   7.590   4.529   6.710
14209TIP3    H242571   7.677   4.585   6.600
14210TIP3   OH242572   3.592   1.214   0.007
14210TIP3    H142573   3.520   1.273  -0.016
14210TIP3    H242574   3.549   1.131   0.026
14211TIP3   OH242575   7.488   5.899   6.219
14211TIP3    H142576   7.489   5.994   6.204
14211TIP3    H242577   7.566   5.867   6.174
14212TIP3   OH242578   3.507   1.690   1.018
14212TIP3    H142579   3.426   1.652   0.983
14212TIP3    H242580   3.538   1.625   1.081
14213TIP3   OH242581   3.239   1.786   0.608
14213TIP3    H142582   3.310   1.790   0.672
14213TIP3    H242583   3.191   1.869   0.620
14214TIP3   OH242584   6.791   6.216   6.670
14214TIP3    H142585   6.777   6.177   6.584
14214TIP3    H242586   6.747   6.300   6.666
14215TIP3   OH242587   3.282   2.044   0.101
14215TIP3    H142588   3.292   2.060   0.194
14215TIP3    H242589   3.290   1.949   0.091
14216TIP3   OH242590   7.000   6.114   6.293
14216TIP3    H142591   7.049   6.038   6.261
14216TIP3    H242592   7.034   6.129   6.381
14217TIP3   OH242593   7.054   6.132   6.557
14217TIP3    H142594   7.019   6.203   6.610
14217TIP3    H242595   7.051   6.056   6.615
14218TIP3   OH242596   3.936   0.567   0.702
14218TIP3    H142597   3.841   0.563   0.696
14218TIP3    H242598   3.955   0.660   0.713
14219TIP3   OH242599   4.439   0.771   0.873
14219TIP3    H142600   4.482   0.846   0.913
14219TIP3    H242601   4.361   0.757   0.926
14220TIP3   OH242602   7.240   5.338   6.340
14220TIP3    H142603   7.190   5.309   6.263
14220TIP3    H242604   7.327   5.357   6.305
14221TIP3   OH242605   6.942   4.683   6.645
14221TIP3    H142606   6.904   4.692   6.732
14221TIP3    H242607   6.907   4.601   6.611
14222TIP3   OH242608   3.886   1.067   0.756
14222TIP3    H142609   3.885   1.093   0.848
14222TIP3    H242610   3.931   1.139   0.712
14223TIP3   OH242611   3.744   1.035   0.256
14223TIP3    H142612   3.661   1.005   0.293
14223TIP3    H242613   3.745   1.001   0.167
14224TIP3   OH242614   7.064   5.082   6.841
14224TIP3    H142615   7.022   5.158   6.801
14224TIP3    H242616   7.139   5.063   6.784
14225TIP3   OH242617   4.432   1.003   0.248
14225TIP3    H142618   4.341   0.998   0.219
14225TIP3    H242619   4.482   0.968   0.175
14226TIP3   OH242620   3.717   1.317   0.971
14226TIP3    H142621   3.810   1.313   0.994
14226TIP3    H242622   3.675   1.253   1.028
14227TIP3   OH242623   6.611   4.664   6.632
14227TIP3    H142624   6.600   4.664   6.727
14227TIP3    H242625   6.533   4.709   6.599
14228TIP3   OH242626   3.276   0.710   0.519
14228TIP3    H142627   3.352   0.741   0.568
14228TIP3    H242628   3.313   0.677   0.436
14229TIP3   OH242629   3.227   0.682   0.055
14229TIP3    H142630   3.273   0.717  -0.022
14229TIP3    H242631   3.164   0.749   0.078
14230TIP3   OH242632   4.145   0.905   0.304
14230TIP3    H142633   4.064   0.865   0.337
14230TIP3    H242634   4.214   0.845   0.330
14231TIP3   OH242635   3.529   0.891   0.332
14231TIP3    H142636   3.440   0.903   0.298
14231TIP3    H242637   3.552   0.801   0.307
14232TIP3   OH242638   6.605   4.919   6.957
14232TIP3    H142639   6.700   4.931   6.949
14232TIP3    H242640   6.570   4.940   6.870
14233TIP3   OH242641   4.617   0.863   0.464
14233TIP3    H142642   4.549   0.885   0.527
14233TIP3    H242643   4.585   0.783   0.421
14234TIP3   OH242644   6.510   4.961   6.706
14234TIP3    H142645   6.450   4.910   6.653
14234TIP3    H242646   6.569   5.001   6.643
14235TIP3   OH242647   4.262   1.180   0.426
14235TIP3    H142648   4.257   1.162   0.332
14235TIP3    H242649   4.247   1.095   0.468
14236TIP3   OH242650   3.684   0.649   0.287
14236TIP3    H142651   3.653   0.579   0.344
14236TIP3    H242652   3.705   0.605   0.204
14237TIP3   OH242653   4.194   1.033   0.654
14237TIP3    H142654   4.198   1.115   0.703
14237TIP3    H242655   4.285   1.001   0.653
14238TIP3   OH242656   6.724   5.469   6.720
14238TIP3    H142657   6.650   5.412   6.702
14238TIP3    H242658   6.701   5.513   6.802
14239TIP3   OH242659   7.199   4.774   6.648
14239TIP3    H142660   7.105   4.758   6.639
14239TIP3    H242661   7.208   4.869   6.639
14240TIP3   OH242662   7.285   5.041   6.674
14240TIP3    H142663   7.377   5.029   6.697
14240TIP3    H242664   7.287   5.097   6.596
14241TIP3   OH242665   3.531   1.380   0.334
14241TIP3    H142666   3.583   1.392   0.254
14241TIP3    H242667   3.595   1.353   0.400
14242TIP3   OH242668   6.870   5.644   6.572
14242TIP3    H142669   6.824   5.727   6.579
14242TIP3    H242670   6.811   5.580   6.612
14243TIP3   OH242671   3.338   1.367   1.124
14243TIP3    H142672   3.356   1.328   1.209
14243TIP3    H242673   3.347   1.295   1.062
14244TIP3   OH242674   7.683   5.133   6.535
14244TIP3    H142675   7.620   5.088   6.479
14244TIP3    H242676   7.690   5.221   6.499
14245TIP3   OH242677   7.405   5.921   6.486
14245TIP3    H142678   7.388   5.834   6.521
14245TIP3    H242679   7.433   5.906   6.395
14246TIP3   OH242680   3.753   1.854   0.061
14246TIP3    H142681   3.779   1.943   0.039
14246TIP3    H242682   3.659   1.851   0.042
14247TIP3   OH242683   6.109   5.106   6.781
14247TIP3    H142684   6.152   5.191   6.798
14247TIP3    H242685   6.029   5.109   6.832
14248TIP3   OH242686   3.814   1.593   0.003
14248TIP3    H142687   3.791   1.682   0.030
14248TIP3    H242688   3.756   1.537   0.055
14249TIP3   OH242689   6.482   6.111   6.864
14249TIP3    H142690   6.434   6.181   6.908
14249TIP3    H242691   6.574   6.132   6.880
14250TIP3   OH242692   7.167   5.694   6.388
14250TIP3    H142693   7.125   5.746   6.457
14250TIP3    H242694   7.098   5.637   6.355
14251TIP3   OH242695   7.524   6.169   6.173
14251TIP3    H142696   7.610   6.173   6.131
14251TIP3    H242697   7.468   6.225   6.119
14252TIP3   OH242698   3.592   0.828   1.184
14252TIP3    H142699   3.536   0.804   1.110
14252TIP3    H242700   3.676   0.787   1.166
14253TIP3   OH242701   7.372   5.643   6.575
14253TIP3    H142702   7.313   5.632   6.500
14253TIP3    H242703   7.458   5.619   6.542
14254TIP3   OH242704   3.575   2.120   0.765
14254TIP3    H142705   3.609   2.041   0.807
14254TIP3    H242706   3.520   2.161   0.832
14255TIP3   OH242707   6.538   5.659   6.380
14255TIP3    H142708   6.544   5.568   6.350
14255TIP3    H242709   6.516   5.653   6.473
14256TIP3   OH242710   6.470   5.675   6.648
14256TIP3    H142711   6.520   5.653   6.727
14256TIP3    H242712   6.460   5.770   6.652
14257TIP3   OH242713   6.206   5.354   6.847
14257TIP3    H142714   6.145   5.399   6.906
14257TIP3    H242715   6.231   5.420   6.783
14258TIP3   OH242716   7.252   4.724   6.910
14258TIP3    H142717   7.231   4.738   6.818
14258TIP3    H242718   7.305   4.800   6.935
14259TIP3   OH242719   6.742   5.883   6.614
14259TIP3    H142720   6.648   5.894   6.633
14259TIP3    H242721   6.761   5.950   6.549
14260TIP3   OH242722   4.047   0.932   0.048
14260TIP3    H142723   4.110   0.976  -0.009
14260TIP3    H242724   4.089   0.931   0.134
14261TIP3   OH242725   4.234   0.604   0.134
14261TIP3    H142726   4.259   0.639   0.220
14261TIP3    H242727   4.299   0.640   0.074
14262TIP3   OH242728   6.474   5.949   6.646
14262TIP3    H142729   6.456   6.006   6.571
14262TIP3    H242730   6.472   6.007   6.722
14263TIP3   OH242731   6.577   4.644   6.913
14263TIP3    H142732   6.566   4.735   6.940
14263TIP3    H242733   6.671   4.629   6.918
14264TIP3   OH242734   4.759   1.347   0.205
14264TIP3    H142735   4.667   1.327   0.190
14264TIP3    H242736   4.760   1.400   0.284
14265TIP3   OH242737   6.225   5.544   6.639
14265TIP3    H142738   6.297   5.605   6.648
14265TIP3    H242739   6.255   5.480   6.574
14266TIP3   OH242740   6.132   4.831   6.773
14266TIP3    H142741   6.145   4.925   6.784
14266TIP3    H242742   6.072   4.824   6.699
14267TIP3   OH242743   3.663   0.550   0.695
14267TIP3    H142744   3.644   0.518   0.607
14267TIP3    H242745   3.659   0.471   0.750
14268TIP3   OH242746   3.235   1.774   0.051
14268TIP3    H142747   3.194   1.768   0.138
14268TIP3    H242748   3.170   1.817  -0.004
14269TIP3   OH242749   6.685   5.865   6.275
14269TIP3    H142750   6.637   5.793   6.314
14269TIP3    H242751   6.756   5.822   6.226
14270TIP3   OH242752   7.125   5.895   6.184
14270TIP3    H142753   7.174   5.837   6.242
14270TIP3    H242754   7.174   5.895   6.102
14271TIP3   OH242755   6.347   5.354   6.485
14271TIP3    H142756   6.397   5.325   6.562
14271TIP3    H242757   6.413   5.369   6.418
14272TIP3   OH242758   6.936   5.568   6.314
14272TIP3    H142759   6.901   5.582   6.402
14272TIP3    H242760   6.916   5.476   6.295
14273TIP3   OH242761   6.522   5.284   6.690
14273TIP3    H142762   6.495   5.249   6.775
14273TIP3    H242763   6.573   5.213   6.650
14274TIP3   OH242764   3.992   1.324   1.085
14274TIP3    H142765   4.052   1.344   1.156
14274TIP3    H242766   4.026   1.373   1.010
14275TIP3   OH242767   6.676   5.106   6.541
14275TIP3    H142768   6.645   5.113   6.450
14275TIP3    H242769   6.772   5.113   6.534
14276TIP3   OH242770   7.471   5.407   6.208
14276TIP3    H142771   7.450   5.365   6.124
14276TIP3    H242772   7.444   5.498   6.196
14277TIP3   OH242773   2.004   0.225   3.190
14277TIP3    H142774   2.094   0.202   3.166
14277TIP3    H242775   1.978   0.289   3.125
14278TIP3   OH242776   4.163   0.940   0.919
14278TIP3    H142777   4.158   0.991   0.838
14278TIP3    H242778   4.103   0.985   0.979
14279TIP3   OH242779   4.181   0.661   0.908
14279TIP3    H142780   4.149   0.751   0.915
14279TIP3    H242781   4.111   0.607   0.945
14280TIP3   OH242782   3.880   1.035   1.355
14280TIP3    H142783   3.827   0.972   1.403
14280TIP3    H242784   3.919   1.090   1.423
14281TIP3   OH242785   4.425   0.681   1.362
14281TIP3    H142786   4.502   0.648   1.316
14281TIP3    H242787   4.351   0.645   1.315
14282TIP3   OH242788   6.481   6.139   6.450
14282TIP3    H142789   6.576   6.135   6.438
14282TIP3    H242790   6.450   6.187   6.374
14283TIP3   OH242791   5.953   5.538   6.658
14283TIP3    H142792   6.048   5.550   6.653
14283TIP3    H242793   5.936   5.453   6.619
14284TIP3   OH242794   3.011   2.108   0.136
14284TIP3    H142795   2.949   2.046   0.097
14284TIP3    H242796   3.097   2.076   0.108
14285TIP3   OH242797   2.984   1.951   0.396
14285TIP3    H142798   3.018   1.867   0.365
14285TIP3    H242799   3.038   2.016   0.351
14286TIP3   OH242800   7.634   5.593   6.545
14286TIP3    H142801   7.682   5.664   6.501
14286TIP3    H242802   7.691   5.568   6.618
14287TIP3   OH242803   7.743   5.467   6.776
14287TIP3    H142804   7.679   5.400   6.803
14287TIP3    H242805   7.712   5.547   6.817
14288TIP3   OH242806   7.659   5.366   6.401
14288TIP3    H142807   7.595   5.371   6.330
14288TIP3    H242808   7.648   5.448   6.449
14289TIP3   OH242809   7.493   5.042   6.364
14289TIP3    H142810   7.461   5.076   6.280
14289TIP3    H242811   7.488   4.947   6.354
14290TIP3   OH242812   7.558   5.283   6.871
14290TIP3    H142813   7.568   5.191   6.847
14290TIP3    H242814   7.587   5.287   6.962
14291TIP3   OH242815   3.292   1.379   0.705
14291TIP3    H142816   3.294   1.340   0.618
14291TIP3    H242817   3.384   1.386   0.731
14292TIP3   OH242818   7.475   4.774   6.333
14292TIP3    H142819   7.546   4.738   6.386
14292TIP3    H242820   7.400   4.719   6.353
14293TIP3   OH242821   7.564   5.023   6.759
14293TIP3    H142822   7.610   4.941   6.778
14293TIP3    H242823   7.610   5.060   6.684
14294TIP3   OH242824   3.611   1.117   1.405
14294TIP3    H142825   3.687   1.141   1.351
14294TIP3    H242826   3.637   1.037   1.450
14295TIP3   OH242827   7.672   4.783   6.841
14295TIP3    H142828   7.721   4.773   6.922
14295TIP3    H242829   7.610   4.710   6.842
14296TIP3   OH242830   3.488   0.760   0.681
14296TIP3    H142831   3.538   0.679   0.697
14296TIP3    H242832   3.555   0.825   0.658
14297TIP3   OH242833   3.264   1.024   0.732
14297TIP3    H142834   3.335   1.004   0.670
14297TIP3    H242835   3.237   1.113   0.708
14298TIP3   OH242836   7.709   4.710   6.475
14298TIP3    H142837   7.753   4.649   6.416
14298TIP3    H242838   7.767   4.787   6.478
14299TIP3   OH242839   3.297   0.551   0.282
14299TIP3    H142840   3.210   0.532   0.318
14299TIP3    H242841   3.280   0.602   0.203
14300TIP3   OH242842   3.491   0.577   1.039
14300TIP3    H142843   3.448   0.577   1.124
14300TIP3    H242844   3.432   0.628   0.983
14301TIP3   OH242845   3.404   2.147   0.552
14301TIP3    H142846   3.476   2.138   0.614
14301TIP3    H242847   3.329   2.107   0.595
14302TIP3   OH242848   3.470   1.882   0.299
14302TIP3    H142849   3.505   1.884   0.388
14302TIP3    H242850   3.493   1.968   0.263
14303TIP3   OH242851   3.783   2.096   0.318
14303TIP3    H142852   3.812   2.006   0.333
14303TIP3    H242853   3.843   2.149   0.371
14304TIP3   OH242854   4.332   0.713   0.369
14304TIP3    H142855   4.317   0.705   0.463
14304TIP3    H242856   4.418   0.675   0.355
14305TIP3   OH242857   4.893   0.647   0.335
14305TIP3    H142858   4.935   0.698   0.265
14305TIP3    H242859   4.808   0.689   0.347
14306TIP3   OH242860   5.016   0.743   0.113
14306TIP3    H142861   5.080   0.679   0.081
14306TIP3    H242862   5.056   0.828   0.095
14307TIP3   OH242863   3.605   0.440   0.450
14307TIP3    H142864   3.516   0.407   0.463
14307TIP3    H242865   3.660   0.362   0.443
14308TIP3   OH242866   3.437   0.358   0.122
14308TIP3    H142867   3.459   0.405   0.041
14308TIP3    H242868   3.398   0.425   0.178
14309TIP3   OH242869   4.009   0.485   0.250
14309TIP3    H142870   4.077   0.521   0.192
14309TIP3    H242871   4.040   0.506   0.339
14310TIP3   OH242872   4.587   0.618   0.321
14310TIP3    H142873   4.624   0.585   0.239
14310TIP3    H242874   4.590   0.542   0.380
14311TIP3   OH242875   7.481   4.580   6.847
14311TIP3    H142876   7.398   4.623   6.864
14311TIP3    H242877   7.471   4.493   6.886
14312TIP3   OH242878   5.924   5.929   6.814
14312TIP3    H142879   5.839   5.893   6.788
14312TIP3    H242880   5.931   6.011   6.765
14313TIP3   OH242881   6.368   4.486   6.818
14313TIP3    H142882   6.413   4.425   6.760
14313TIP3    H242883   6.437   4.540   6.855
14314TIP3   OH242884   6.852   4.680   6.906
14314TIP3    H142885   6.919   4.633   6.956
14314TIP3    H242886   6.858   4.771   6.937
14315TIP3   OH242887   6.753   6.086   6.418
14315TIP3    H142888   6.835   6.114   6.377
14315TIP3    H242889   6.721   6.015   6.362
14316TIP3   OH242890   7.483   6.190   6.485
14316TIP3    H142891   7.447   6.104   6.503
14316TIP3    H242892   7.487   6.195   6.389
14317TIP3   OH242893   3.927   0.725   1.522
14317TIP3    H142894   3.839   0.763   1.528
14317TIP3    H242895   3.980   0.794   1.484
14318TIP3   OH242896   4.140   0.862   1.402
14318TIP3    H142897   4.187   0.779   1.398
14318TIP3    H242898   4.154   0.893   1.491
14319TIP3   OH242899   6.048   5.925   6.460
14319TIP3    H142900   6.045   5.943   6.554
14319TIP3    H242901   6.130   5.878   6.447
14320TIP3   OH242902   7.907   5.243   6.704
14320TIP3    H142903   7.866   5.328   6.721
14320TIP3    H242904   7.848   5.199   6.644
14321TIP3   OH242905   7.758   5.789   6.402
14321TIP3    H142906   7.730   5.813   6.314
14321TIP3    H242907   7.783   5.873   6.442
14322TIP3   OH242908   0.217   4.932   6.168
14322TIP3    H142909   0.139   4.988   6.175
14322TIP3    H242910   0.181   4.844   6.153
14323TIP3   OH242911   8.429   4.955   6.124
14323TIP3    H142912   8.410   4.936   6.216
14323TIP3    H242913   8.347   4.990   6.089
14324TIP3   OH242914   7.971   4.966   6.950
14324TIP3    H142915   8.030   5.040   6.937
14324TIP3    H242916   7.975   4.917   6.868
14325TIP3   OH242917   7.870   4.935   6.486
14325TIP3    H142918   7.918   4.963   6.408
14325TIP3    H242919   7.811   5.009   6.505
14326TIP3   OH242920   8.135   5.161   6.848
14326TIP3    H142921   8.069   5.190   6.785
14326TIP3    H242922   8.191   5.102   6.799
14327TIP3   OH242923   8.500   5.171   6.361
14327TIP3    H142924   8.528   5.261   6.348
14327TIP3    H242925   8.413   5.166   6.320
14328TIP3   OH242926   8.251   5.169   6.242
14328TIP3    H142927   8.204   5.105   6.189
14328TIP3    H242928   8.233   5.253   6.200
14329TIP3   OH242929   8.281   4.956   6.727
14329TIP3    H142930   8.260   4.875   6.775
14329TIP3    H242931   8.355   4.932   6.671
14330TIP3   OH242932   7.893   5.332   6.265
14330TIP3    H142933   7.940   5.414   6.277
14330TIP3    H242934   7.813   5.342   6.317
14331TIP3   OH242935   8.408   5.909   5.744
14331TIP3    H142936   8.374   5.820   5.749
14331TIP3    H242937   8.468   5.917   5.818
14332TIP3   OH242938   7.950   5.600   6.319
14332TIP3    H142939   7.887   5.663   6.356
14332TIP3    H242940   7.996   5.649   6.251
14333TIP3   OH242941   8.354   4.896   6.385
14333TIP3    H142942   8.328   4.984   6.412
14333TIP3    H242943   8.442   4.885   6.423
14334TIP3   OH242944   7.993   5.836   6.130
14334TIP3    H142945   8.051   5.911   6.144
14334TIP3    H242946   8.037   5.785   6.063
14335TIP3   OH242947   7.949   5.063   6.258
14335TIP3    H142948   7.947   5.158   6.269
14335TIP3    H242949   7.943   5.049   6.164
14336TIP3   OH242950   8.131   5.687   5.951
14336TIP3    H142951   8.146   5.603   5.995
14336TIP3    H242952   8.200   5.692   5.885
14337TIP3   OH242953   8.437   5.435   6.246
14337TIP3    H142954   8.398   5.474   6.324
14337TIP3    H242955   8.366   5.436   6.181
14338TIP3   OH242956   8.493   5.297   6.000
14338TIP3    H142957   8.400   5.317   5.987
14338TIP3    H242958   8.512   5.333   6.087
14339TIP3   OH242959   7.725   5.797   6.116
14339TIP3    H142960   7.819   5.813   6.123
14339TIP3    H242961   7.718   5.707   6.084
14340TIP3   OH242962   7.929   4.810   6.720
14340TIP3    H142963   7.839   4.790   6.747
14340TIP3    H242964   7.919   4.861   6.640
14341TIP3   OH242965   8.239   4.712   6.852
14341TIP3    H142966   8.151   4.681   6.874
14341TIP3    H242967   8.296   4.636   6.867
14342TIP3   OH242968   8.050   4.617   6.546
14342TIP3    H142969   8.078   4.663   6.467
14342TIP3    H242970   8.027   4.687   6.607
14343TIP3   OH242971   8.147   4.735   6.306
14343TIP3    H142972   8.193   4.672   6.250
14343TIP3    H242973   8.215   4.793   6.339
14344TIP3   OH242974   0.112   4.940   6.466
14344TIP3    H142975   0.192   4.920   6.417
14344TIP3    H242976   0.089   5.029   6.440
14345TIP3   OH242977   7.775   6.172   5.996
14345TIP3    H142978   7.807   6.262   5.991
14345TIP3    H242979   7.847   6.119   5.960
14346TIP3   OH242980   7.878   2.112   1.541
14346TIP3    H142981   7.870   2.207   1.531
14346TIP3    H242982   7.954   2.089   1.488
14347TIP3   OH242983   7.351   1.914   1.178
14347TIP3    H142984   7.345   1.977   1.249
14347TIP3    H242985   7.391   1.962   1.106
14348TIP3   OH242986   7.657   1.961   1.498
14348TIP3    H142987   7.694   1.874   1.512
14348TIP3    H242988   7.731   2.021   1.512
14349TIP3   OH242989   6.853   2.271   0.996
14349TIP3    H142990   6.800   2.330   1.049
14349TIP3    H242991   6.921   2.327   0.959
14350TIP3   OH242992   6.868   2.120   0.741
14350TIP3    H142993   6.865   2.109   0.836
14350TIP3    H242994   6.914   2.043   0.709
14351TIP3   OH242995   7.355   2.312   1.092
14351TIP3    H142996   7.264   2.342   1.097
14351TIP3    H242997   7.391   2.359   1.016
14352TIP3   OH242998   7.132   2.312   0.819
14352TIP3    H142999   7.209   2.365   0.836
14352TIP3    H243000   7.142   2.284   0.729
14353TIP3   OH243001   7.628   1.565   0.882
14353TIP3    H143002   7.537   1.552   0.908
14353TIP3    H243003   7.625   1.632   0.814
14354TIP3   OH243004   7.458   2.889   0.305
14354TIP3    H143005   7.457   2.984   0.307
14354TIP3    H243006   7.544   2.864   0.340
14355TIP3   OH243007   7.167   2.221   0.552
14355TIP3    H143008   7.100   2.244   0.488
14355TIP3    H243009   7.247   2.260   0.517
14356TIP3   OH243010   6.894   1.610   0.827
14356TIP3    H143011   6.835   1.643   0.895
14356TIP3    H243012   6.848   1.536   0.789
14357TIP3   OH243013   7.089   2.223   1.199
14357TIP3    H143014   6.997   2.248   1.202
14357TIP3    H243015   7.099   2.179   1.114
14358TIP3   OH243016   7.157   1.804   0.859
14358TIP3    H143017   7.064   1.821   0.845
14358TIP3    H243018   7.202   1.877   0.816
14359TIP3   OH243019   7.178   2.088   0.972
14359TIP3    H143020   7.273   2.078   0.965
14359TIP3    H243021   7.156   2.158   0.911
14360TIP3   OH243022   7.657   2.101   0.761
14360TIP3    H143023   7.617   2.080   0.677
14360TIP3    H243024   7.666   2.196   0.761
14361TIP3   OH243025   7.087   2.752   0.605
14361TIP3    H143026   7.098   2.752   0.700
14361TIP3    H243027   7.088   2.659   0.582
14362TIP3   OH243028   7.449   3.350   0.402
14362TIP3    H143029   7.435   3.400   0.321
14362TIP3    H243030   7.405   3.401   0.470
14363TIP3   OH243031   7.171   2.654   0.853
14363TIP3    H143032   7.217   2.604   0.786
14363TIP3    H243033   7.231   2.726   0.874
14364TIP3   OH243034   7.208   1.703   1.104
14364TIP3    H143035   7.201   1.735   1.014
14364TIP3    H243036   7.265   1.766   1.148
14365TIP3   OH243037   6.753   2.015   1.274
14365TIP3    H143038   6.796   2.099   1.288
14365TIP3    H243039   6.682   2.013   1.339
14366TIP3   OH243040   7.027   1.662   1.383
14366TIP3    H143041   7.008   1.722   1.455
14366TIP3    H243042   7.123   1.654   1.384
14367TIP3   OH243043   7.014   2.972   0.460
14367TIP3    H143044   7.032   2.928   0.543
14367TIP3    H243045   7.083   2.942   0.401
14368TIP3   OH243046   6.787   2.716   0.571
14368TIP3    H143047   6.750   2.688   0.655
14368TIP3    H243048   6.791   2.637   0.518
14369TIP3   OH243049   6.601   2.227   0.866
14369TIP3    H143050   6.616   2.188   0.779
14369TIP3    H243051   6.689   2.241   0.901
14370TIP3   OH243052   7.394   2.329   0.435
14370TIP3    H143053   7.378   2.358   0.345
14370TIP3    H243054   7.429   2.406   0.479
14371TIP3   OH243055   7.564   2.670   0.803
14371TIP3    H143056   7.637   2.725   0.775
14371TIP3    H243057   7.597   2.620   0.878
14372TIP3   OH243058   7.671   2.477   0.986
14372TIP3    H143059   7.648   2.401   1.041
14372TIP3    H243060   7.737   2.524   1.037
14373TIP3   OH243061   7.646   2.369   0.733
14373TIP3    H143062   7.621   2.438   0.671
14373TIP3    H243063   7.654   2.414   0.817
14374TIP3   OH243064   7.523   2.087   0.521
14374TIP3    H143065   7.478   2.152   0.468
14374TIP3    H243066   7.480   2.004   0.499
14375TIP3   OH243067   7.636   2.347   1.326
14375TIP3    H143068   7.630   2.296   1.245
14375TIP3    H243069   7.548   2.383   1.339
14376TIP3   OH243070   7.408   1.819   0.557
14376TIP3    H143071   7.484   1.790   0.607
14376TIP3    H243072   7.345   1.747   0.566
14377TIP3   OH243073   7.475   2.018   0.961
14377TIP3    H143074   7.527   1.938   0.972
14377TIP3    H243075   7.513   2.060   0.883
14378TIP3   OH243076   7.631   1.803   1.026
14378TIP3    H143077   7.668   1.796   1.114
14378TIP3    H243078   7.632   1.714   0.992
14379TIP3   OH243079   7.649   1.757   0.686
14379TIP3    H143080   7.683   1.689   0.628
14379TIP3    H243081   7.720   1.820   0.693
14380TIP3   OH243082   7.676   1.666   1.489
14380TIP3    H143083   7.667   1.703   1.401
14380TIP3    H243084   7.587   1.644   1.516
14381TIP3   OH243085   7.767   1.792   1.256
14381TIP3    H143086   7.843   1.739   1.232
14381TIP3    H243087   7.800   1.882   1.256
14382TIP3   OH243088   7.426   1.544   1.596
14382TIP3    H143089   7.359   1.552   1.528
14382TIP3    H243090   7.382   1.495   1.666
14383TIP3   OH243091   7.384   1.541   0.979
14383TIP3    H143092   7.327   1.589   1.039
14383TIP3    H243093   7.355   1.450   0.987
14384TIP3   OH243094   6.776   1.739   1.296
14384TIP3    H143095   6.867   1.708   1.300
14384TIP3    H243096   6.784   1.834   1.291
14385TIP3   OH243097   0.350   2.786   0.683
14385TIP3    H143098   0.314   2.872   0.661
14385TIP3    H243099   0.283   2.724   0.658
14386TIP3   OH243100   0.347   2.758   1.073
14386TIP3    H143101   0.382   2.739   1.161
14386TIP3    H243102   0.304   2.677   1.047
14387TIP3   OH243103   0.619   3.063   0.752
14387TIP3    H143104   0.593   3.003   0.821
14387TIP3    H243105   0.639   3.145   0.798
14388TIP3   OH243106   7.879   2.276   0.923
14388TIP3    H143107   7.869   2.369   0.943
14388TIP3    H243108   7.794   2.237   0.946
14389TIP3   OH243109   7.930   2.543   1.078
14389TIP3    H143110   7.957   2.477   1.142
14389TIP3    H243111   7.984   2.620   1.099
14390TIP3   OH243112   0.285   3.507   0.776
14390TIP3    H143113   0.315   3.450   0.706
14390TIP3    H243114   0.304   3.459   0.856
14391TIP3   OH243115   0.185   2.980   1.129
14391TIP3    H143116   0.218   2.901   1.088
14391TIP3    H243117   0.263   3.033   1.146
14392TIP3   OH243118   1.181   2.331   1.114
14392TIP3    H143119   1.194   2.416   1.155
14392TIP3    H243120   1.216   2.341   1.025
14393TIP3   OH243121   0.552   2.490   1.151
14393TIP3    H143122   0.592   2.405   1.172
14393TIP3    H243123   0.531   2.484   1.058
14394TIP3   OH243124   8.432   2.152   1.107
14394TIP3    H143125   8.412   2.225   1.048
14394TIP3    H243126   8.380   2.079   1.072
14395TIP3   OH243127   0.625   2.236   0.756
14395TIP3    H143128   0.692   2.222   0.823
14395TIP3    H243129   0.672   2.274   0.682
14396TIP3   OH243130   8.051   2.359   1.242
14396TIP3    H143131   8.133   2.355   1.292
14396TIP3    H243132   8.067   2.304   1.165
14397TIP3   OH243133  -0.016   2.560   1.029
14397TIP3    H143134   0.077   2.538   1.038
14397TIP3    H243135  -0.057   2.479   0.998
14398TIP3   OH243136   1.242   2.543   1.286
14398TIP3    H143137   1.154   2.580   1.289
14398TIP3    H243138   1.285   2.578   1.365
14399TIP3   OH243139   8.414   2.135   1.550
14399TIP3    H143140   8.363   2.179   1.482
14399TIP3    H243141   8.365   2.152   1.631
14400TIP3   OH243142   0.214   2.991   0.559
14400TIP3    H143143   0.200   2.979   0.465
14400TIP3    H243144   0.178   3.077   0.579
14401TIP3   OH243145   0.798   2.239   0.970
14401TIP3    H143146   0.739   2.237   1.046
14401TIP3    H243147   0.843   2.323   0.978
14402TIP3   OH243148   8.301   2.258   1.332
14402TIP3    H143149   8.351   2.335   1.358
14402TIP3    H243150   8.348   2.222   1.256
14403TIP3   OH243151   7.707   2.877   0.648
14403TIP3    H143152   7.692   2.854   0.557
14403TIP3    H243153   7.800   2.899   0.652
14404TIP3   OH243154   0.652   3.304   0.889
14404TIP3    H143155   0.572   3.303   0.942
14404TIP3    H243156   0.649   3.388   0.843
14405TIP3   OH243157   0.977   2.225   1.274
14405TIP3    H143158   0.892   2.239   1.232
14405TIP3    H243159   1.041   2.253   1.209
14406TIP3   OH243160   0.253   1.844   1.274
14406TIP3    H143161   0.246   1.751   1.296
14406TIP3    H243162   0.174   1.884   1.311
14407TIP3   OH243163   0.377   3.366   0.554
14407TIP3    H143164   0.428   3.285   0.543
14407TIP3    H243165   0.440   3.436   0.536
14408TIP3   OH243166   0.524   3.142   0.506
14408TIP3    H143167   0.529   3.066   0.447
14408TIP3    H243168   0.559   3.110   0.589
14409TIP3   OH243169   0.806   3.233   1.218
14409TIP3    H143170   0.818   3.157   1.161
14409TIP3    H243171   0.830   3.308   1.164
14410TIP3   OH243172   0.187   2.618   0.528
14410TIP3    H143173   0.107   2.665   0.505
14410TIP3    H243174   0.239   2.619   0.448
14411TIP3   OH243175   0.143   2.441   0.219
14411TIP3    H143176   0.210   2.487   0.271
14411TIP3    H243177   0.192   2.373   0.174
14412TIP3   OH243178   1.031   2.831   1.060
14412TIP3    H143179   0.947   2.876   1.059
14412TIP3    H243180   1.079   2.867   0.985
14413TIP3   OH243181   0.531   2.725   0.486
14413TIP3    H143182   0.477   2.750   0.561
14413TIP3    H243183   0.615   2.700   0.524
14414TIP3   OH243184   0.729   2.708   1.364
14414TIP3    H143185   0.722   2.775   1.432
14414TIP3    H243186   0.644   2.709   1.320
14415TIP3   OH243187   8.285   2.696   0.889
14415TIP3    H143188   8.250   2.630   0.828
14415TIP3    H243189   8.360   2.652   0.930
14416TIP3   OH243190   8.430   3.052   1.011
14416TIP3    H143191   8.387   2.981   1.059
14416TIP3    H243192   8.521   3.049   1.040
14417TIP3   OH243193   8.410   2.688   1.262
14417TIP3    H143194   8.434   2.647   1.178
14417TIP3    H243195   8.492   2.724   1.295
14418TIP3   OH243196   0.425   3.312   1.043
14418TIP3    H143197   0.408   3.372   1.116
14418TIP3    H243198   0.422   3.225   1.081
14419TIP3   OH243199   0.370   2.579   0.317
14419TIP3    H143200   0.431   2.636   0.363
14419TIP3    H243201   0.398   2.582   0.225
14420TIP3   OH243202   0.123   3.254   0.565
14420TIP3    H143203   0.208   3.295   0.573
14420TIP3    H243204   0.068   3.319   0.521
14421TIP3   OH243205   0.918   1.841   0.374
14421TIP3    H143206   0.833   1.800   0.362
14421TIP3    H243207   0.901   1.915   0.432
14422TIP3   OH243208   8.167   2.523   0.697
14422TIP3    H143209   8.085   2.563   0.667
14422TIP3    H243210   8.143   2.432   0.717
14423TIP3   OH243211   3.537   7.184   6.873
14423TIP3    H143212   3.534   7.277   6.851
14423TIP3    H243213   3.626   7.157   6.851
14424TIP3   OH243214   8.506   3.463   0.395
14424TIP3    H143215   8.472   3.444   0.307
14424TIP3    H243216   8.468   3.548   0.417
14425TIP3   OH243217   0.210   3.403   0.035
14425TIP3    H143218   0.260   3.329  -0.000
14425TIP3    H243219   0.247   3.417   0.122
14426TIP3   OH243220   0.266   3.442   0.305
14426TIP3    H143221   0.179   3.446   0.344
14426TIP3    H243222   0.321   3.406   0.374
14427TIP3   OH243223   0.881   2.683   1.669
14427TIP3    H143224   0.866   2.768   1.628
14427TIP3    H243225   0.976   2.669   1.663
14428TIP3   OH243226   8.514   1.930   1.390
14428TIP3    H143227   8.430   1.894   1.359
14428TIP3    H243228   8.490   2.011   1.435
14429TIP3   OH243229   0.568   2.064   1.599
14429TIP3    H143230   0.637   2.030   1.656
14429TIP3    H243231   0.487   2.041   1.644
14430TIP3   OH243232   0.781   2.478   1.515
14430TIP3    H143233   0.796   2.535   1.590
14430TIP3    H243234   0.760   2.538   1.443
14431TIP3   OH243235   0.436   2.546   0.046
14431TIP3    H143236   0.398   2.551  -0.042
14431TIP3    H243237   0.519   2.594   0.038
14432TIP3   OH243238   0.159   1.986   0.376
14432TIP3    H143239   0.124   1.992   0.465
14432TIP3    H243240   0.124   1.903   0.342
14433TIP3   OH243241   8.451   2.464   1.427
14433TIP3    H143242   8.482   2.482   1.515
14433TIP3    H243243   8.426   2.550   1.392
14434TIP3   OH243244   8.342   2.346   0.935
14434TIP3    H143245   8.256   2.321   0.968
14434TIP3    H243246   8.344   2.312   0.846
14435TIP3   OH243247   0.316   2.418   0.665
14435TIP3    H143248   0.268   2.490   0.625
14435TIP3    H243249   0.376   2.387   0.597
14436TIP3   OH243250   0.489   2.439   0.886
14436TIP3    H143251   0.420   2.459   0.823
14436TIP3    H243252   0.533   2.363   0.850
14437TIP3   OH243253   8.322   1.961   0.355
14437TIP3    H143254   8.315   1.966   0.450
14437TIP3    H243255   8.244   2.006   0.323
14438TIP3   OH243256   7.864   2.043   1.182
14438TIP3    H143257   7.933   2.069   1.243
14438TIP3    H243258   7.910   2.001   1.110
14439TIP3   OH243259   7.862   1.943   0.696
14439TIP3    H143260   7.899   1.980   0.616
14439TIP3    H243261   7.800   2.008   0.727
14440TIP3   OH243262   0.438   2.667   1.321
14440TIP3    H143263   0.476   2.601   1.263
14440TIP3    H243264   0.433   2.623   1.407
14441TIP3   OH243265   0.191   2.141   0.987
14441TIP3    H143266   0.113   2.142   1.043
14441TIP3    H243267   0.264   2.130   1.048
14442TIP3   OH243268   8.120   2.212   1.021
14442TIP3    H143269   8.037   2.220   0.975
14442TIP3    H243270   8.152   2.125   0.998
14443TIP3   OH243271   8.339   2.226   0.689
14443TIP3    H143272   8.433   2.239   0.679
14443TIP3    H243273   8.303   2.244   0.602
14444TIP3   OH243274   0.636   2.226   1.190
14444TIP3    H143275   0.619   2.243   1.283
14444TIP3    H243276   0.568   2.164   1.164
14445TIP3   OH243277   8.223   2.250   0.443
14445TIP3    H143278   8.159   2.202   0.390
14445TIP3    H243279   8.277   2.296   0.379
14446TIP3   OH243280   0.245   2.488   1.084
14446TIP3    H143281   0.314   2.437   1.041
14446TIP3    H243282   0.242   2.454   1.173
14447TIP3   OH243283   8.255   1.976   0.971
14447TIP3    H143284   8.225   1.900   1.021
14447TIP3    H243285   8.275   1.941   0.884
14448TIP3   OH243286   0.215   2.406   1.353
14448TIP3    H143287   0.125   2.433   1.372
14448TIP3    H243288   0.268   2.451   1.419
14449TIP3   OH243289   8.458   2.759   0.453
14449TIP3    H143290   8.382   2.706   0.430
14449TIP3    H243291   8.434   2.802   0.535
14450TIP3   OH243292   0.818   3.005   1.057
14450TIP3    H143293   0.855   3.053   0.984
14450TIP3    H243294   0.736   2.969   1.024
14451TIP3   OH243295   0.415   2.086   0.373
14451TIP3    H143296   0.321   2.069   0.375
14451TIP3    H243297   0.423   2.179   0.390
14452TIP3   OH243298   0.476   2.346   0.445
14452TIP3    H143299   0.570   2.347   0.461
14452TIP3    H243300   0.459   2.426   0.396
14453TIP3   OH243301   8.143   2.715   1.131
14453TIP3    H143302   8.187   2.722   1.046
14453TIP3    H243303   8.214   2.714   1.194
14454TIP3   OH243304   0.110   2.929   0.297
14454TIP3    H143305   0.059   3.010   0.301
14454TIP3    H243306   0.062   2.867   0.351
14455TIP3   OH243307   1.241   3.339   1.277
14455TIP3    H143308   1.182   3.300   1.341
14455TIP3    H243309   1.219   3.295   1.195
14456TIP3   OH243310   0.620   3.250   0.192
14456TIP3    H143311   0.603   3.180   0.255
14456TIP3    H243312   0.646   3.205   0.112
14457TIP3   OH243313   0.583   2.877   0.975
14457TIP3    H143314   0.493   2.845   0.987
14457TIP3    H243315   0.631   2.802   0.940
14458TIP3   OH243316   8.266   3.104   0.786
14458TIP3    H143317   8.338   3.111   0.849
14458TIP3    H243318   8.187   3.105   0.840
14459TIP3   OH243319   7.818   2.415   0.474
14459TIP3    H143320   7.880   2.478   0.509
14459TIP3    H243321   7.733   2.443   0.506
14460TIP3   OH243322   8.343   2.867   0.673
14460TIP3    H143323   8.327   2.956   0.704
14460TIP3    H243324   8.330   2.812   0.750
14461TIP3   OH243325   0.450   3.067   1.170
14461TIP3    H143326   0.500   3.081   1.250
14461TIP3    H243327   0.502   3.005   1.119
14462TIP3   OH243328   0.384   2.992   0.114
14462TIP3    H143329   0.445   2.977   0.187
14462TIP3    H243330   0.298   2.969   0.150
14463TIP3   OH243331   3.545   7.457   6.829
14463TIP3    H143332   3.578   7.523   6.767
14463TIP3    H243333   3.469   7.498   6.869
14464TIP3   OH243334   0.563   2.938   0.315
14464TIP3    H143335   0.545   2.864   0.373
14464TIP3    H243336   0.657   2.930   0.296
14465TIP3   OH243337   8.245   2.951   0.115
14465TIP3    H143338   8.259   2.859   0.090
14465TIP3    H243339   8.241   2.949   0.210
14466TIP3   OH243340   8.201   2.978   0.393
14466TIP3    H143341   8.262   2.953   0.462
14466TIP3    H243342   8.199   3.073   0.395
14467TIP3   OH243343   7.936   2.635   0.596
14467TIP3    H143344   7.902   2.669   0.679
14467TIP3    H243345   7.951   2.713   0.543
14468TIP3   OH243346   0.586   2.290   1.448
14468TIP3    H143347   0.658   2.341   1.485
14468TIP3    H243348   0.579   2.213   1.504
14469TIP3   OH243349   0.474   2.032   0.644
14469TIP3    H143350   0.458   2.056   0.553
14469TIP3    H243351   0.520   2.108   0.681
14470TIP3   OH243352   8.453   3.150   0.303
14470TIP3    H143353   8.375   3.178   0.350
14470TIP3    H243354   8.478   3.226   0.251
14471TIP3   OH243355   0.119   2.236   0.735
14471TIP3    H143356   0.184   2.302   0.708
14471TIP3    H243357   0.141   2.216   0.826
14472TIP3   OH243358   0.418   2.491   1.534
14472TIP3    H143359   0.458   2.494   1.621
14472TIP3    H243360   0.460   2.417   1.491
14473TIP3   OH243361   0.285   1.933   0.821
14473TIP3    H143362   0.263   2.010   0.872
14473TIP3    H243363   0.356   1.961   0.763
14474TIP3   OH243364   8.209   3.254   0.396
14474TIP3    H143365   8.191   3.319   0.329
14474TIP3    H243366   8.207   3.302   0.479
14475TIP3   OH243367   8.299   1.952   0.635
14475TIP3    H143368   8.288   2.043   0.663
14475TIP3    H243369   8.394   1.938   0.640
14476TIP3   OH243370   1.043   2.387   1.501
14476TIP3    H143371   0.953   2.417   1.513
14476TIP3    H243372   1.040   2.331   1.424
14477TIP3   OH243373   0.700   2.631   0.894
14477TIP3    H143374   0.627   2.570   0.891
14477TIP3    H243375   0.768   2.584   0.942
14478TIP3   OH243376   7.967   2.834   0.398
14478TIP3    H143377   8.039   2.897   0.405
14478TIP3    H243378   7.995   2.773   0.330
14479TIP3   OH243379   7.835   2.132   0.488
14479TIP3    H143380   7.849   2.226   0.497
14479TIP3    H243381   7.741   2.123   0.472
14480TIP3   OH243382   0.658   3.565   0.808
14480TIP3    H143383   0.610   3.643   0.780
14480TIP3    H243384   0.748   3.581   0.780
14481TIP3   OH243385   8.250   1.848   1.356
14481TIP3    H143386   8.226   1.819   1.268
14481TIP3    H243387   8.234   1.771   1.412
14482TIP3   OH243388   2.729   7.156   6.933
14482TIP3    H143389   2.686   7.087   6.983
14482TIP3    H243390   2.804   7.114   6.892
14483TIP3   OH243391   3.169   7.195   6.861
14483TIP3    H143392   3.203   7.134   6.926
14483TIP3    H243393   3.230   7.187   6.787
14484TIP3   OH243394   8.063   2.649   0.220
14484TIP3    H143395   8.113   2.619   0.296
14484TIP3    H243396   8.128   2.664   0.152
14485TIP3   OH243397   0.084   2.871   0.029
14485TIP3    H143398   0.088   2.885   0.124
14485TIP3    H243399   0.082   2.776   0.018
14486TIP3   OH243400   0.614   3.134   1.383
14486TIP3    H143401   0.683   3.170   1.328
14486TIP3    H243402   0.592   3.204   1.444
14487TIP3   OH243403   8.238   2.587   0.427
14487TIP3    H143404   8.226   2.560   0.518
14487TIP3    H243405   8.286   2.514   0.387
14488TIP3   OH243406   8.374   2.402   0.272
14488TIP3    H143407   8.346   2.407   0.181
14488TIP3    H243408   8.469   2.412   0.268
14489TIP3   OH243409   3.480   6.701   6.890
14489TIP3    H143410   3.477   6.662   6.803
14489TIP3    H243411   3.455   6.792   6.877
14490TIP3   OH243412   0.098   2.458   1.661
14490TIP3    H143413   0.136   2.370   1.652
14490TIP3    H243414   0.165   2.507   1.710
14491TIP3   OH243415   0.180   2.208   1.563
14491TIP3    H143416   0.203   2.248   1.478
14491TIP3    H243417   0.089   2.182   1.554
14492TIP3   OH243418   0.164   2.763   1.350
14492TIP3    H143419   0.254   2.731   1.348
14492TIP3    H243420   0.171   2.855   1.323
14493TIP3   OH243421   0.703   2.936   1.557
14493TIP3    H143422   0.660   3.000   1.501
14493TIP3    H243423   0.795   2.939   1.530
14494TIP3   OH243424   0.315   1.990   1.669
14494TIP3    H143425   0.271   2.070   1.641
14494TIP3    H243426   0.244   1.926   1.679
14495TIP3   OH243427   0.580   2.427   1.752
14495TIP3    H143428   0.602   2.463   1.838
14495TIP3    H243429   0.648   2.362   1.735
14496TIP3   OH243430   8.199   3.450   0.203
14496TIP3    H143431   8.288   3.431   0.174
14496TIP3    H243432   8.160   3.500   0.131
14497TIP3   OH243433   7.701   2.792   0.375
14497TIP3    H143434   7.794   2.812   0.380
14497TIP3    H243435   7.696   2.712   0.324
14498TIP3   OH243436   0.920   3.626   0.770
14498TIP3    H143437   0.910   3.686   0.844
14498TIP3    H243438   0.993   3.662   0.720
14499TIP3   OH243439   0.831   2.902   0.278
14499TIP3    H143440   0.895   2.965   0.245
14499TIP3    H243441   0.879   2.852   0.344
14500TIP3   OH243442   0.962   2.743   0.460
14500TIP3    H143443   0.892   2.717   0.520
14500TIP3    H243444   1.031   2.775   0.517
14501TIP3   OH243445   0.978   3.136   0.881
14501TIP3    H143446   1.041   3.075   0.841
14501TIP3    H243447   0.973   3.209   0.819
14502TIP3   OH243448   0.859   3.432   1.026
14502TIP3    H143449   0.816   3.517   1.018
14502TIP3    H243450   0.809   3.374   0.969
14503TIP3   OH243451   0.884   2.705   0.088
14503TIP3    H143452   0.800   2.693   0.041
14503TIP3    H243453   0.863   2.765   0.159
14504TIP3   OH243454   3.659   6.310   6.937
14504TIP3    H143455   3.589   6.372   6.917
14504TIP3    H243456   3.614   6.230   6.964
14505TIP3   OH243457   0.760   2.646   0.620
14505TIP3    H143458   0.768   2.553   0.595
14505TIP3    H243459   0.746   2.644   0.714
14506TIP3   OH243460   0.952   2.903   1.466
14506TIP3    H143461   1.042   2.882   1.491
14506TIP3    H243462   0.960   2.941   1.378
14507TIP3   OH243463   1.221   2.832   1.458
14507TIP3    H143464   1.195   2.759   1.513
14507TIP3    H243465   1.317   2.833   1.463
14508TIP3   OH243466   0.689   2.068   0.087
14508TIP3    H143467   0.703   2.087   0.179
14508TIP3    H243468   0.600   2.033   0.082
14509TIP3   OH243469   0.906   2.489   1.027
14509TIP3    H143470   0.988   2.506   0.979
14509TIP3    H243471   0.922   2.525   1.114
14510TIP3   OH243472   0.981   2.638   1.254
14510TIP3    H143473   0.902   2.668   1.299
14510TIP3    H243474   0.999   2.707   1.190
14511TIP3   OH243475   0.893   2.061   0.535
14511TIP3    H143476   0.865   2.153   0.532
14511TIP3    H243477   0.819   2.014   0.573
14512TIP3   OH243478   8.086   2.070   1.361
14512TIP3    H143479   8.141   1.992   1.367
14512TIP3    H243480   8.148   2.143   1.351
14513TIP3   OH243481   7.872   2.371   1.458
14513TIP3    H143482   7.784   2.372   1.419
14513TIP3    H243483   7.931   2.378   1.383
14514TIP3   OH243484   1.285   2.332   1.624
14514TIP3    H143485   1.199   2.358   1.592
14514TIP3    H243486   1.307   2.254   1.572
14515TIP3   OH243487   1.039   1.991   0.137
14515TIP3    H143488   0.995   1.982   0.053
14515TIP3    H243489   1.052   2.085   0.148
14516TIP3   OH243490   7.901   1.872   0.955
14516TIP3    H143491   7.809   1.855   0.975
14516TIP3    H243492   7.900   1.908   0.866
14517TIP3   OH243493   0.533   3.570   0.465
14517TIP3    H143494   0.576   3.550   0.382
14517TIP3    H243495   0.568   3.655   0.490
14518TIP3   OH243496   1.216   2.097   1.488
14518TIP3    H143497   1.127   2.075   1.460
14518TIP3    H243498   1.264   2.015   1.481
14519TIP3   OH243499   0.409   2.049   1.134
14519TIP3    H143500   0.368   1.977   1.183
14519TIP3    H243501   0.476   2.007   1.081
14520TIP3   OH243502   0.926   1.976   1.026
14520TIP3    H143503   0.984   2.008   0.957
14520TIP3    H243504   0.847   2.030   1.019
14521TIP3   OH243505   1.078   2.013   0.804
14521TIP3    H143506   1.131   1.959   0.746
14521TIP3    H243507   1.087   2.102   0.770
14522TIP3   OH243508   8.177   1.753   1.108
14522TIP3    H143509   8.086   1.723   1.107
14522TIP3    H243510   8.229   1.672   1.107
14523TIP3   OH243511   7.982   1.654   0.772
14523TIP3    H143512   8.008   1.701   0.693
14523TIP3    H243513   7.965   1.723   0.836
14524TIP3   OH243514   0.140   1.791   1.017
14524TIP3    H143515   0.187   1.838   0.948
14524TIP3    H243516   0.183   1.817   1.098
14525TIP3   OH243517   0.618   1.936   1.001
14525TIP3    H143518   0.654   1.911   0.916
14525TIP3    H243519   0.633   1.860   1.057
14526TIP3   OH243520   0.691   1.875   0.569
14526TIP3    H143521   0.611   1.922   0.592
14526TIP3    H243522   0.679   1.787   0.605
14527TIP3   OH243523   8.094   1.784   0.537
14527TIP3    H143524   8.140   1.723   0.481
14527TIP3    H243525   8.163   1.838   0.576
14528TIP3   OH243526   0.074   1.984   0.639
14528TIP3    H143527   0.134   1.933   0.693
14528TIP3    H243528   0.087   2.075   0.667
14529TIP3   OH243529   8.455   3.377   0.131
14529TIP3    H143530   8.539   3.403   0.094
14529TIP3    H243531   8.425   3.304   0.076
14530TIP3   OH243532   0.654   3.518   0.222
14530TIP3    H143533   0.646   3.423   0.217
14530TIP3    H243534   0.611   3.550   0.142
14531TIP3   OH243535   7.791   3.213   0.190
14531TIP3    H143536   7.833   3.274   0.251
14531TIP3    H243537   7.863   3.160   0.156
14532TIP3   OH243538   2.028   3.000   0.209
14532TIP3    H143539   2.015   3.084   0.164
14532TIP3    H243540   1.987   2.935   0.152
14533TIP3   OH243541   2.107   3.056   0.533
14533TIP3    H143542   2.184   3.004   0.556
14533TIP3    H243543   2.075   3.017   0.451
14534TIP3   OH243544   1.430   2.876   0.933
14534TIP3    H143545   1.485   2.805   0.965
14534TIP3    H243546   1.480   2.955   0.953
14535TIP3   OH243547   2.327   3.307   0.241
14535TIP3    H143548   2.369   3.307   0.327
14535TIP3    H243549   2.375   3.373   0.191
14536TIP3   OH243550   1.440   3.279   0.602
14536TIP3    H143551   1.394   3.196   0.601
14536TIP3    H243552   1.470   3.290   0.692
14537TIP3   OH243553   1.064   2.470   0.445
14537TIP3    H143554   1.042   2.562   0.430
14537TIP3    H243555   0.981   2.430   0.470
14538TIP3   OH243556   1.177   2.816   0.612
14538TIP3    H143557   1.235   2.745   0.641
14538TIP3    H243558   1.237   2.884   0.580
14539TIP3   OH243559   1.885   3.828   0.275
14539TIP3    H143560   1.837   3.768   0.218
14539TIP3    H243561   1.919   3.773   0.345
14540TIP3   OH243562   2.004   3.276   0.658
14540TIP3    H143563   2.045   3.201   0.616
14540TIP3    H243564   2.072   3.311   0.716
14541TIP3   OH243565   2.889   2.548   0.449
14541TIP3    H143566   2.948   2.493   0.500
14541TIP3    H243567   2.945   2.617   0.412
14542TIP3   OH243568   2.440   2.722   0.645
14542TIP3    H143569   2.392   2.665   0.705
14542TIP3    H243570   2.371   2.764   0.593
14543TIP3   OH243571   1.697   2.393   0.574
14543TIP3    H143572   1.679   2.473   0.525
14543TIP3    H243573   1.642   2.327   0.533
14544TIP3   OH243574   2.373   2.473   0.190
14544TIP3    H143575   2.435   2.453   0.260
14544TIP3    H243576   2.421   2.533   0.133
14545TIP3   OH243577   1.331   2.609   0.714
14545TIP3    H143578   1.417   2.592   0.752
14545TIP3    H243579   1.331   2.560   0.632
14546TIP3   OH243580   1.728   2.833   0.478
14546TIP3    H143581   1.823   2.820   0.476
14546TIP3    H243582   1.692   2.745   0.464
14547TIP3   OH243583   1.666   2.368   1.038
14547TIP3    H143584   1.620   2.394   0.957
14547TIP3    H243585   1.600   2.376   1.106
14548TIP3   OH243586   4.893   7.203   6.952
14548TIP3    H143587   4.855   7.171   6.871
14548TIP3    H243588   4.859   7.292   6.961
14549TIP3   OH243589   1.740   3.220   0.700
14549TIP3    H143590   1.691   3.274   0.762
14549TIP3    H243591   1.827   3.258   0.698
14550TIP3   OH243592   2.555   2.400   0.384
14550TIP3    H143593   2.546   2.433   0.473
14550TIP3    H243594   2.606   2.467   0.338
14551TIP3   OH243595   1.575   2.491   0.801
14551TIP3    H143596   1.639   2.555   0.832
14551TIP3    H243597   1.616   2.451   0.725
14552TIP3   OH243598   1.564   3.380   0.846
14552TIP3    H143599   1.586   3.472   0.831
14552TIP3    H243600   1.526   3.379   0.934
14553TIP3   OH243601   1.008   3.075   0.156
14553TIP3    H143602   0.977   3.094   0.067
14553TIP3    H243603   1.023   3.162   0.194
14554TIP3   OH243604   2.671   2.398   0.840
14554TIP3    H143605   2.632   2.465   0.897
14554TIP3    H243606   2.652   2.428   0.751
14555TIP3   OH243607   2.013   2.081   0.743
14555TIP3    H143608   2.020   1.992   0.776
14555TIP3    H243609   1.936   2.117   0.787
14556TIP3   OH243610   2.324   3.647   0.083
14556TIP3    H143611   2.325   3.563   0.037
14556TIP3    H243612   2.305   3.712   0.015
14557TIP3   OH243613   5.122   7.402   6.905
14557TIP3    H143614   5.134   7.349   6.826
14557TIP3    H243615   5.054   7.357   6.954
14558TIP3   OH243616   4.773   6.870   6.921
14558TIP3    H143617   4.692   6.919   6.904
14558TIP3    H243618   4.820   6.871   6.838
14559TIP3   OH243619   4.771   6.677   6.636
14559TIP3    H143620   4.838   6.728   6.681
14559TIP3    H243621   4.820   6.610   6.588
14560TIP3   OH243622   5.096   7.025   6.875
14560TIP3    H143623   5.042   7.070   6.940
14560TIP3    H243624   5.151   6.966   6.926
14561TIP3   OH243625   1.526   2.961   0.345
14561TIP3    H143626   1.494   2.895   0.284
14561TIP3    H243627   1.601   2.920   0.389
14562TIP3   OH243628   1.681   3.378   0.473
14562TIP3    H143629   1.597   3.356   0.432
14562TIP3    H243630   1.689   3.315   0.545
14563TIP3   OH243631   1.604   2.984   0.670
14563TIP3    H143632   1.652   2.931   0.606
14563TIP3    H243633   1.648   3.069   0.670
14564TIP3   OH243634   4.977   6.833   6.725
14564TIP3    H143635   5.021   6.905   6.772
14564TIP3    H243636   5.013   6.837   6.637
14565TIP3   OH243637   1.527   3.094   1.090
14565TIP3    H143638   1.513   3.178   1.134
14565TIP3    H243639   1.466   3.034   1.133
14566TIP3   OH243640   4.793   7.446   6.905
14566TIP3    H143641   4.791   7.515   6.972
14566TIP3    H243642   4.712   7.459   6.855
14567TIP3   OH243643   5.495   6.058   6.793
14567TIP3    H143644   5.422   6.083   6.849
14567TIP3    H243645   5.511   6.136   6.739
14568TIP3   OH243646   1.426   2.777   0.166
14568TIP3    H143647   1.348   2.825   0.137
14568TIP3    H243648   1.396   2.686   0.175
14569TIP3   OH243649   5.343   7.448   6.352
14569TIP3    H143650   5.336   7.538   6.322
14569TIP3    H243651   5.430   7.420   6.325
14570TIP3   OH243652   1.182   3.181   1.062
14570TIP3    H143653   1.104   3.169   1.008
14570TIP3    H243654   1.179   3.109   1.124
14571TIP3   OH243655   1.017   3.366   0.733
14571TIP3    H143656   1.108   3.365   0.765
14571TIP3    H243657   0.983   3.450   0.762
14572TIP3   OH243658   4.643   7.731   6.793
14572TIP3    H143659   4.612   7.706   6.706
14572TIP3    H243660   4.608   7.819   6.807
14573TIP3   OH243661   1.214   3.544   0.249
14573TIP3    H143662   1.247   3.542   0.339
14573TIP3    H243663   1.160   3.465   0.242
14574TIP3   OH243664   4.832   7.659   6.438
14574TIP3    H143665   4.880   7.587   6.399
14574TIP3    H243666   4.867   7.667   6.527
14575TIP3   OH243667   4.902   7.697   6.696
14575TIP3    H143668   4.827   7.689   6.754
14575TIP3    H243669   4.976   7.713   6.755
14576TIP3   OH243670   1.437   3.386   1.078
14576TIP3    H143671   1.467   3.367   1.167
14576TIP3    H243672   1.346   3.414   1.090
14577TIP3   OH243673   1.786   2.164   0.867
14577TIP3    H143674   1.692   2.160   0.846
14577TIP3    H243675   1.796   2.247   0.914
14578TIP3   OH243676   2.303   2.398   1.053
14578TIP3    H143677   2.383   2.356   1.086
14578TIP3    H243678   2.247   2.407   1.130
14579TIP3   OH243679   5.083   6.826   6.477
14579TIP3    H143680   5.034   6.826   6.395
14579TIP3    H243681   5.166   6.870   6.456
14580TIP3   OH243682   4.779   6.246   6.803
14580TIP3    H143683   4.740   6.253   6.890
14580TIP3    H243684   4.747   6.162   6.769
14581TIP3   OH243685   1.771   2.640   0.942
14581TIP3    H143686   1.711   2.622   1.014
14581TIP3    H243687   1.756   2.732   0.920
14582TIP3   OH243688   1.593   2.597   0.423
14582TIP3    H143689   1.502   2.574   0.445
14582TIP3    H243690   1.605   2.563   0.334
14583TIP3   OH243691   2.074   2.655   0.098
14583TIP3    H143692   2.025   2.726   0.057
14583TIP3    H243693   2.138   2.630   0.031
14584TIP3   OH243694   2.185   2.621   0.341
14584TIP3    H143695   2.143   2.639   0.257
14584TIP3    H243696   2.257   2.562   0.319
14585TIP3   OH243697   1.553   2.676   1.107
14585TIP3    H143698   1.588   2.719   1.185
14585TIP3    H243699   1.521   2.592   1.139
14586TIP3   OH243700   4.452   6.222   6.783
14586TIP3    H143701   4.439   6.223   6.878
14586TIP3    H243702   4.375   6.265   6.747
14587TIP3   OH243703   1.157   2.254   0.698
14587TIP3    H143704   1.218   2.292   0.761
14587TIP3    H243705   1.121   2.329   0.652
14588TIP3   OH243706   1.092   2.256   0.242
14588TIP3    H143707   1.107   2.298   0.157
14588TIP3    H243708   1.058   2.326   0.298
14589TIP3   OH243709   2.453   2.919   0.838
14589TIP3    H143710   2.445   2.845   0.779
14589TIP3    H243711   2.386   2.904   0.905
14590TIP3   OH243712   1.959   2.392   0.461
14590TIP3    H143713   1.878   2.395   0.512
14590TIP3    H243714   2.027   2.372   0.526
14591TIP3   OH243715   1.348   2.471   0.478
14591TIP3    H143716   1.256   2.461   0.452
14591TIP3    H243717   1.387   2.385   0.461
14592TIP3   OH243718   1.618   2.475   0.179
14592TIP3    H143719   1.713   2.485   0.172
14592TIP3    H243720   1.586   2.496   0.091
14593TIP3   OH243721   2.419   2.387   0.662
14593TIP3    H143722   2.394   2.452   0.727
14593TIP3    H243723   2.337   2.360   0.621
14594TIP3   OH243724   4.351   6.517   6.869
14594TIP3    H143725   4.290   6.466   6.815
14594TIP3    H243726   4.407   6.562   6.806
14595TIP3   OH243727   1.581   3.282   1.292
14595TIP3    H143728   1.676   3.279   1.297
14595TIP3    H243729   1.552   3.211   1.350
14596TIP3   OH243730   1.994   2.753   0.495
14596TIP3    H143731   2.051   2.694   0.444
14596TIP3    H243732   1.953   2.696   0.560
14597TIP3   OH243733   1.507   2.235   0.447
14597TIP3    H143734   1.486   2.158   0.499
14597TIP3    H243735   1.526   2.200   0.360
14598TIP3   OH243736   1.898   2.605   0.700
14598TIP3    H143737   1.859   2.609   0.787
14598TIP3    H243738   1.988   2.577   0.716
14599TIP3   OH243739   4.551   7.035   6.892
14599TIP3    H143740   4.476   6.978   6.873
14599TIP3    H243741   4.529   7.077   6.975
14600TIP3   OH243742   5.033   6.334   6.794
14600TIP3    H143743   4.939   6.318   6.792
14600TIP3    H243744   5.042   6.429   6.804
14601TIP3   OH243745   5.090   6.600   6.838
14601TIP3    H143746   5.185   6.596   6.848
14601TIP3    H243747   5.074   6.682   6.791
14602TIP3   OH243748   1.360   3.012   0.562
14602TIP3    H143749   1.395   3.010   0.473
14602TIP3    H243750   1.435   2.993   0.618
14603TIP3   OH243751   4.715   7.179   6.734
14603TIP3    H143752   4.680   7.268   6.735
14603TIP3    H243753   4.653   7.128   6.785
14604TIP3   OH243754   1.117   2.998   1.257
14604TIP3    H143755   1.183   2.953   1.311
14604TIP3    H243756   1.093   2.933   1.190
14605TIP3   OH243757   5.492   6.697   6.670
14605TIP3    H143758   5.440   6.643   6.610
14605TIP3    H243759   5.493   6.784   6.630
14606TIP3   OH243760   5.278   7.519   6.613
14606TIP3    H143761   5.227   7.448   6.652
14606TIP3    H243762   5.297   7.488   6.524
14607TIP3   OH243763   2.464   3.236   0.466
14607TIP3    H143764   2.451   3.217   0.559
14607TIP3    H243765   2.513   3.161   0.433
14608TIP3   OH243766   1.490   3.372   0.264
14608TIP3    H143767   1.511   3.461   0.239
14608TIP3    H243768   1.411   3.351   0.214
14609TIP3   OH243769   3.958   6.667   6.917
14609TIP3    H143770   4.005   6.748   6.936
14609TIP3    H243771   3.873   6.678   6.960
14610TIP3   OH243772   1.633   3.149   0.176
14610TIP3    H143773   1.612   3.236   0.209
14610TIP3    H243774   1.596   3.089   0.241
14611TIP3   OH243775   1.409   3.607   0.068
14611TIP3    H143776   1.334   3.591   0.125
14611TIP3    H243777   1.454   3.682   0.108
14612TIP3   OH243778   2.206   3.400   0.786
14612TIP3    H143779   2.270   3.329   0.797
14612TIP3    H243780   2.231   3.441   0.703
14613TIP3   OH243781   5.014   7.250   6.490
14613TIP3    H143782   5.057   7.237   6.575
14613TIP3    H243783   4.933   7.200   6.496
14614TIP3   OH243784   5.335   7.718   6.305
14614TIP3    H143785   5.368   7.793   6.256
14614TIP3    H243786   5.261   7.752   6.355
14615TIP3   OH243787   1.493   2.441   1.237
14615TIP3    H143788   1.400   2.460   1.246
14615TIP3    H243789   1.526   2.437   1.327
14616TIP3   OH243790   5.180   7.222   6.708
14616TIP3    H143791   5.150   7.148   6.761
14616TIP3    H243792   5.273   7.204   6.692
14617TIP3   OH243793   1.334   3.612   0.850
14617TIP3    H143794   1.291   3.528   0.867
14617TIP3    H243795   1.279   3.677   0.894
14618TIP3   OH243796   4.365   7.216   6.525
14618TIP3    H143797   4.377   7.125   6.496
14618TIP3    H243798   4.347   7.209   6.618
14619TIP3   OH243799   4.310   7.235   6.798
14619TIP3    H143800   4.381   7.216   6.858
14619TIP3    H243801   4.309   7.331   6.792
14620TIP3   OH243802   1.213   2.913   0.062
14620TIP3    H143803   1.144   2.955   0.114
14620TIP3    H243804   1.231   2.976  -0.008
14621TIP3   OH243805   2.404   2.574   0.873
14621TIP3    H143806   2.480   2.623   0.903
14621TIP3    H243807   2.380   2.519   0.947
14622TIP3   OH243808   2.236   2.253   0.116
14622TIP3    H143809   2.215   2.267   0.024
14622TIP3    H243810   2.276   2.336   0.144
14623TIP3   OH243811   4.578   7.425   6.728
14623TIP3    H143812   4.489   7.453   6.751
14623TIP3    H243813   4.593   7.461   6.641
14624TIP3   OH243814   1.894   2.483   0.209
14624TIP3    H143815   1.957   2.544   0.172
14624TIP3    H243816   1.924   2.469   0.299
14625TIP3   OH243817   2.248   2.839   1.005
14625TIP3    H143818   2.166   2.867   1.045
14625TIP3    H243819   2.298   2.800   1.076
14626TIP3   OH243820   2.054   2.172   0.307
14626TIP3    H143821   2.034   2.253   0.354
14626TIP3    H243822   2.126   2.195   0.248
14627TIP3   OH243823   4.320   7.509   6.770
14627TIP3    H143824   4.297   7.573   6.703
14627TIP3    H243825   4.290   7.548   6.852
14628TIP3   OH243826   1.579   2.201   0.126
14628TIP3    H143827   1.568   2.294   0.149
14628TIP3    H243828   1.674   2.187   0.128
14629TIP3   OH243829   2.543   2.990   0.365
14629TIP3    H143830   2.452   2.984   0.337
14629TIP3    H243831   2.540   2.977   0.459
14630TIP3   OH243832   4.067   7.103   6.791
14630TIP3    H143833   4.140   7.164   6.801
14630TIP3    H243834   4.096   7.040   6.726
14631TIP3   OH243835   3.931   6.388   6.942
14631TIP3    H143836   3.946   6.482   6.930
14631TIP3    H243837   3.837   6.377   6.928
14632TIP3   OH243838   1.516   2.112   0.848
14632TIP3    H143839   1.492   2.083   0.760
14632TIP3    H243840   1.514   2.031   0.900
14633TIP3   OH243841   1.033   3.336   0.240
14633TIP3    H143842   0.998   3.375   0.320
14633TIP3    H243843   0.995   3.388   0.169
14634TIP3   OH243844   4.517   7.420   6.421
14634TIP3    H143845   4.465   7.346   6.454
14634TIP3    H243846   4.586   7.378   6.368
14635TIP3   OH243847   4.962   7.454   6.321
14635TIP3    H143848   4.996   7.388   6.380
14635TIP3    H243849   5.018   7.447   6.243
14636TIP3   OH243850   4.187   6.913   6.637
14636TIP3    H143851   4.236   6.885   6.715
14636TIP3    H243852   4.254   6.925   6.570
14637TIP3   OH243853   4.771   7.121   6.473
14637TIP3    H143854   4.742   7.132   6.563
14637TIP3    H243855   4.752   7.030   6.452
14638TIP3   OH243856   1.547   3.065   1.457
14638TIP3    H143857   1.581   2.976   1.462
14638TIP3    H243858   1.580   3.107   1.537
14639TIP3   OH243859   4.356   6.847   6.849
14639TIP3    H143860   4.333   6.812   6.935
14639TIP3    H243861   4.406   6.778   6.807
14640TIP3   OH243862   1.767   2.999   1.201
14640TIP3    H143863   1.683   3.024   1.161
14640TIP3    H243864   1.830   3.006   1.129
14641TIP3   OH243865   4.502   6.668   6.697
14641TIP3    H143866   4.472   6.671   6.606
14641TIP3    H243867   4.597   6.666   6.691
14642TIP3   OH243868   5.301   6.956   6.363
14642TIP3    H143869   5.285   6.915   6.278
14642TIP3    H243870   5.279   7.048   6.349
14643TIP3   OH243871   1.945   2.676   1.302
14643TIP3    H143872   1.892   2.599   1.284
14643TIP3    H243873   1.955   2.719   1.217
14644TIP3   OH243874   1.945   2.375   1.005
14644TIP3    H143875   1.995   2.455   0.986
14644TIP3    H243876   1.857   2.406   1.023
14645TIP3   OH243877   1.948   3.071   0.999
14645TIP3    H143878   2.006   3.089   0.925
14645TIP3    H243879   1.890   3.148   1.003
14646TIP3   OH243880   1.882   2.850   1.493
14646TIP3    H143881   1.880   2.804   1.577
14646TIP3    H243882   1.897   2.782   1.428
14647TIP3   OH243883   1.994   2.163   1.180
14647TIP3    H143884   1.984   2.237   1.120
14647TIP3    H243885   1.930   2.099   1.151
14648TIP3   OH243886   2.207   2.838   1.447
14648TIP3    H143887   2.219   2.885   1.530
14648TIP3    H243888   2.167   2.755   1.472
14649TIP3   OH243889   1.701   2.559   1.549
14649TIP3    H143890   1.678   2.467   1.561
14649TIP3    H243891   1.732   2.588   1.635
14650TIP3   OH243892   2.160   2.211   1.385
14650TIP3    H143893   2.238   2.156   1.388
14650TIP3    H243894   2.114   2.184   1.306
14651TIP3   OH243895   4.305   7.708   6.573
14651TIP3    H143896   4.401   7.703   6.566
14651TIP3    H243897   4.277   7.751   6.493
14652TIP3   OH243898   3.794   7.098   6.813
14652TIP3    H143899   3.888   7.112   6.807
14652TIP3    H243900   3.779   7.013   6.773
14653TIP3   OH243901   0.855   3.670   0.324
14653TIP3    H143902   0.789   3.620   0.276
14653TIP3    H243903   0.899   3.606   0.379
14654TIP3   OH243904   0.986   3.480   0.477
14654TIP3    H143905   0.970   3.413   0.543
14654TIP3    H243906   1.036   3.547   0.522
14655TIP3   OH243907   5.447   7.166   6.691
14655TIP3    H143908   5.507   7.232   6.657
14655TIP3    H243909   5.484   7.143   6.776
14656TIP3   OH243910   5.601   7.066   6.908
14656TIP3    H143911   5.523   7.064   6.963
14656TIP3    H243912   5.632   7.157   6.914
14657TIP3   OH243913   5.502   6.940   6.547
14657TIP3    H143914   5.436   6.937   6.478
14657TIP3    H243915   5.481   7.018   6.598
14658TIP3   OH243916   5.342   6.580   6.477
14658TIP3    H143917   5.293   6.606   6.399
14658TIP3    H243918   5.343   6.484   6.474
14659TIP3   OH243919   2.431   2.831   0.038
14659TIP3    H143920   2.455   2.740   0.019
14659TIP3    H243921   2.510   2.868   0.077
14660TIP3   OH243922   1.172   2.935   0.855
14660TIP3    H143923   1.164   2.900   0.766
14660TIP3    H243924   1.265   2.925   0.876
14661TIP3   OH243925   5.323   6.309   6.463
14661TIP3    H143926   5.385   6.283   6.530
14661TIP3    H243927   5.240   6.271   6.491
14662TIP3   OH243928   5.368   6.587   6.902
14662TIP3    H143929   5.423   6.515   6.933
14662TIP3    H243930   5.417   6.625   6.829
14663TIP3   OH243931   2.709   2.791   0.503
14663TIP3    H143932   2.776   2.840   0.456
14663TIP3    H243933   2.655   2.858   0.545
14664TIP3   OH243934   1.424   2.582   1.499
14664TIP3    H143935   1.515   2.611   1.509
14664TIP3    H243936   1.414   2.512   1.563
14665TIP3   OH243937   2.702   2.322   0.049
14665TIP3    H143938   2.735   2.300   0.136
14665TIP3    H243939   2.627   2.264   0.036
14666TIP3   OH243940   1.354   2.331   0.885
14666TIP3    H143941   1.404   2.250   0.883
14666TIP3    H243942   1.415   2.399   0.855
14667TIP3   OH243943   1.148   2.583   0.931
14667TIP3    H143944   1.208   2.591   0.857
14667TIP3    H243945   1.139   2.673   0.964
14668TIP3   OH243946   5.546   6.266   6.624
14668TIP3    H143947   5.593   6.209   6.563
14668TIP3    H243948   5.600   6.345   6.629
14669TIP3   OH243949   1.140   2.049   0.413
14669TIP3    H143950   1.078   2.069   0.483
14669TIP3    H243951   1.145   2.130   0.362
14670TIP3   OH243952   5.113   7.823   6.818
14670TIP3    H143953   5.191   7.818   6.762
14670TIP3    H243954   5.086   7.914   6.813
14671TIP3   OH243955   1.338   2.144   1.239
14671TIP3    H143956   1.293   2.144   1.324
14671TIP3    H243957   1.290   2.207   1.186
14672TIP3   OH243958   1.604   3.657   0.866
14672TIP3    H143959   1.612   3.745   0.904
14672TIP3    H243960   1.509   3.644   0.856
14673TIP3   OH243961   3.154   2.438   0.976
14673TIP3    H143962   3.084   2.441   0.911
14673TIP3    H243963   3.204   2.360   0.954
14674TIP3   OH243964   1.590   3.907   0.728
14674TIP3    H143965   1.519   3.956   0.769
14674TIP3    H243966   1.548   3.860   0.656
14675TIP3   OH243967   1.154   3.649   0.622
14675TIP3    H143968   1.201   3.678   0.701
14675TIP3    H243969   1.219   3.598   0.573
14676TIP3   OH243970   1.356   3.511   0.488
14676TIP3    H143971   1.370   3.428   0.535
14676TIP3    H243972   1.425   3.513   0.422
14677TIP3   OH243973   1.707   3.638   0.572
14677TIP3    H143974   1.697   3.559   0.519
14677TIP3    H243975   1.683   3.710   0.513
14678TIP3   OH243976   2.155   2.283   0.624
14678TIP3    H143977   2.113   2.212   0.673
14678TIP3    H243978   2.209   2.237   0.558
14679TIP3   OH243979   2.642   2.145   0.389
14679TIP3    H143980   2.726   2.178   0.356
14679TIP3    H243981   2.591   2.223   0.408
14680TIP3   OH243982   2.867   2.261   0.303
14680TIP3    H143983   2.915   2.194   0.253
14680TIP3    H243984   2.910   2.343   0.279
14681TIP3   OH243985   1.451   2.009   0.599
14681TIP3    H143986   1.360   1.978   0.599
14681TIP3    H243987   1.503   1.928   0.599
14682TIP3   OH243988   1.905   2.028   0.493
14682TIP3    H143989   1.953   2.075   0.425
14682TIP3    H243990   1.946   2.056   0.575
14683TIP3   OH243991   2.335   2.179   0.452
14683TIP3    H143992   2.390   2.202   0.377
14683TIP3    H243993   2.382   2.109   0.496
14684TIP3   OH243994   2.484   2.142   0.045
14684TIP3    H143995   2.402   2.188   0.061
14684TIP3    H243996   2.468   2.053   0.076
14685TIP3   OH243997   0.948   3.489   0.029
14685TIP3    H143998   0.866   3.453  -0.004
14685TIP3    H243999   0.952   3.578  -0.005
14686TIP3   OH244000   4.223   6.042   6.932
14686TIP3    H144001   4.276   5.973   6.892
14686TIP3    H244002   4.285   6.091   6.987
14687TIP3   OH244003   1.852   2.229   0.122
14687TIP3    H144004   1.911   2.177   0.176
14687TIP3    H244005   1.866   2.319   0.151
14688TIP3   OH244006   4.574   7.658   6.533
14688TIP3    H144007   4.660   7.678   6.495
14688TIP3    H244008   4.542   7.583   6.484
14689TIP3   OH244009   5.324   7.790   6.645
14689TIP3    H144010   5.316   7.695   6.640
14689TIP3    H244011   5.282   7.823   6.566
14690TIP3   OH244012   1.609   2.297   1.599
14690TIP3    H144013   1.565   2.212   1.601
14690TIP3    H244014   1.682   2.288   1.661
14691TIP3   OH244015   1.975   2.358   1.514
14691TIP3    H144016   2.038   2.295   1.480
14691TIP3    H244017   2.026   2.437   1.528
14692TIP3   OH244018   3.889   7.489   6.628
14692TIP3    H144019   3.891   7.490   6.724
14692TIP3    H244020   3.968   7.443   6.602
14693TIP3   OH244021   5.705   6.843   6.784
14693TIP3    H144022   5.669   6.923   6.822
14693TIP3    H244023   5.630   6.799   6.745
14694TIP3   OH244024   3.038   3.121   0.127
14694TIP3    H144025   3.110   3.064   0.156
14694TIP3    H244026   3.052   3.131   0.032
14695TIP3   OH244027   3.546   2.673   0.086
14695TIP3    H144028   3.485   2.726   0.035
14695TIP3    H244029   3.518   2.583   0.071
14696TIP3   OH244030   3.232   2.920   0.145
14696TIP3    H144031   3.315   2.948   0.105
14696TIP3    H244032   3.216   2.833   0.108
14697TIP3   OH244033   5.630   7.333   6.566
14697TIP3    H144034   5.604   7.331   6.474
14697TIP3    H244035   5.630   7.426   6.589
14698TIP3   OH244036   6.574   6.938   6.138
14698TIP3    H144037   6.625   7.007   6.180
14698TIP3    H244038   6.640   6.877   6.105
14699TIP3   OH244039   6.071   7.021   6.553
14699TIP3    H144040   5.992   7.074   6.545
14699TIP3    H244041   6.043   6.942   6.601
14700TIP3   OH244042   6.808   7.091   5.938
14700TIP3    H144043   6.804   7.063   5.847
14700TIP3    H244044   6.901   7.107   5.954
14701TIP3   OH244045   6.598   6.477   6.304
14701TIP3    H144046   6.565   6.479   6.393
14701TIP3    H244047   6.549   6.406   6.262
14702TIP3   OH244048   6.233   6.847   6.843
14702TIP3    H144049   6.138   6.845   6.834
14702TIP3    H244050   6.265   6.806   6.763
14703TIP3   OH244051   6.249   6.480   6.260
14703TIP3    H144052   6.237   6.480   6.355
14703TIP3    H244053   6.170   6.523   6.226
14704TIP3   OH244054   3.003   2.460   0.184
14704TIP3    H144055   3.024   2.542   0.229
14704TIP3    H244056   2.992   2.486   0.092
14705TIP3   OH244057   5.695   6.500   6.634
14705TIP3    H144058   5.739   6.536   6.557
14705TIP3    H244059   5.634   6.569   6.661
14706TIP3   OH244060   5.973   6.833   6.741
14706TIP3    H144061   5.878   6.836   6.752
14706TIP3    H244062   5.991   6.745   6.708
14707TIP3   OH244063   6.251   6.733   6.591
14707TIP3    H144064   6.343   6.757   6.576
14707TIP3    H244065   6.207   6.759   6.510
14708TIP3   OH244066   6.139   6.764   6.347
14708TIP3    H144067   6.079   6.716   6.290
14708TIP3    H244068   6.193   6.815   6.287
14709TIP3   OH244069   6.203   6.494   6.828
14709TIP3    H144070   6.163   6.410   6.853
14709TIP3    H244071   6.214   6.488   6.734
14710TIP3   OH244072   6.306   7.329   6.467
14710TIP3    H144073   6.264   7.252   6.428
14710TIP3    H244074   6.242   7.360   6.532
14711TIP3   OH244075   6.821   6.628   6.279
14711TIP3    H144076   6.738   6.581   6.289
14711TIP3    H244077   6.804   6.693   6.211
14712TIP3   OH244078   5.749   6.922   6.420
14712TIP3    H144079   5.793   7.005   6.438
14712TIP3    H244080   5.666   6.927   6.468
14713TIP3   OH244081   6.170   7.467   6.003
14713TIP3    H144082   6.171   7.375   5.976
14713TIP3    H244083   6.166   7.464   6.099
14714TIP3   OH244084   6.170   7.482   6.275
14714TIP3    H144085   6.224   7.426   6.330
14714TIP3    H244086   6.175   7.568   6.317
14715TIP3   OH244087   5.846   7.173   6.486
14715TIP3    H144088   5.781   7.217   6.541
14715TIP3    H244089   5.867   7.237   6.418
14716TIP3   OH244090   6.945   6.610   6.531
14716TIP3    H144091   6.923   6.607   6.437
14716TIP3    H244092   6.869   6.653   6.571
14717TIP3   OH244093   6.522   6.769   6.615
14717TIP3    H144094   6.614   6.773   6.591
14717TIP3    H244095   6.520   6.789   6.709
14718TIP3   OH244096   6.230   6.464   6.539
14718TIP3    H144097   6.223   6.559   6.553
14718TIP3    H244098   6.324   6.446   6.543
14719TIP3   OH244099   5.864   7.366   6.280
14719TIP3    H144100   5.920   7.444   6.276
14719TIP3    H244101   5.904   7.305   6.218
14720TIP3   OH244102   5.771   6.646   6.416
14720TIP3    H144103   5.782   6.741   6.422
14720TIP3    H244104   5.717   6.633   6.338
14721TIP3   OH244105   3.393   2.396   0.427
14721TIP3    H144106   3.346   2.370   0.347
14721TIP3    H244107   3.390   2.317   0.482
14722TIP3   OH244108   5.629   7.601   6.621
14722TIP3    H144109   5.561   7.637   6.679
14722TIP3    H244110   5.625   7.654   6.542
14723TIP3   OH244111   6.326   7.663   5.888
14723TIP3    H144112   6.276   7.595   5.935
14723TIP3    H244113   6.406   7.618   5.861
14724TIP3   OH244114   5.993   7.179   6.130
14724TIP3    H144115   6.048   7.154   6.204
14724TIP3    H244116   6.054   7.186   6.056
14725TIP3   OH244117   6.484   7.387   5.962
14725TIP3    H144118   6.427   7.390   6.038
14725TIP3    H244119   6.499   7.294   5.946
14726TIP3   OH244120   6.182   7.118   6.329
14726TIP3    H144121   6.147   7.075   6.406
14726TIP3    H244122   6.229   7.049   6.282
14727TIP3   OH244123   6.301   6.916   6.182
14727TIP3    H144124   6.271   6.920   6.092
14727TIP3    H244125   6.396   6.915   6.176
14728TIP3   OH244126   5.591   7.346   6.286
14728TIP3    H144127   5.686   7.359   6.284
14728TIP3    H244128   5.577   7.261   6.246
14729TIP3   OH244129   7.039   6.849   5.984
14729TIP3    H144130   7.073   6.892   5.905
14729TIP3    H244131   7.070   6.759   5.977
14730TIP3   OH244132   7.112   6.583   5.955
14730TIP3    H144133   7.180   6.566   6.021
14730TIP3    H244134   7.035   6.539   5.990
14731TIP3   OH244135   3.153   2.513   0.539
14731TIP3    H144136   3.228   2.492   0.595
14731TIP3    H244137   3.192   2.537   0.455
14732TIP3   OH244138   2.896   2.952   0.394
14732TIP3    H144139   2.886   2.930   0.301
14732TIP3    H244140   2.991   2.951   0.409
14733TIP3   OH244141   7.346   6.537   6.093
14733TIP3    H144142   7.382   6.456   6.056
14733TIP3    H244143   7.420   6.598   6.094
14734TIP3   OH244144   5.783   6.323   6.833
14734TIP3    H144145   5.704   6.313   6.886
14734TIP3    H244146   5.769   6.404   6.784
14735TIP3   OH244147   6.057   6.273   6.887
14735TIP3    H144148   5.962   6.277   6.874
14735TIP3    H244149   6.073   6.184   6.920
14736TIP3   OH244150   5.886   6.145   6.648
14736TIP3    H144151   5.923   6.198   6.577
14736TIP3    H244152   5.844   6.208   6.706
14737TIP3   OH244153   6.542   6.439   6.827
14737TIP3    H144154   6.603   6.422   6.899
14737TIP3    H244155   6.456   6.417   6.862
14738TIP3   OH244156   5.600   7.734   6.383
14738TIP3    H144157   5.512   7.699   6.365
14738TIP3    H244158   5.590   7.829   6.373
14739TIP3   OH244159   6.014   6.300   6.448
14739TIP3    H144160   6.060   6.242   6.387
14739TIP3    H244161   6.084   6.353   6.487
14740TIP3   OH244162   6.504   6.497   6.564
14740TIP3    H144163   6.524   6.463   6.651
14740TIP3    H244164   6.507   6.592   6.574
14741TIP3   OH244165   5.689   7.728   6.111
14741TIP3    H144166   5.678   7.725   6.206
14741TIP3    H244167   5.770   7.680   6.094
14742TIP3   OH244168   5.473   0.259   6.776
14742TIP3    H144169   5.501   0.272   6.866
14742TIP3    H244170   5.527   0.186   6.745
14743TIP3   OH244171   0.520   3.612  -0.003
14743TIP3    H144172   0.448   3.631   0.058
14743TIP3    H244173   0.531   3.693  -0.053
14744TIP3   OH244174   5.758   0.329   6.611
14744TIP3    H144175   5.723   0.336   6.523
14744TIP3    H244176   5.766   0.420   6.641
14745TIP3   OH244177   8.282   3.813   0.018
14745TIP3    H144178   8.209   3.846   0.072
14745TIP3    H244179   8.255   3.724  -0.007
14746TIP3   OH244180   2.284   7.797   6.933
14746TIP3    H144181   2.229   7.748   6.994
14746TIP3    H244182   2.223   7.854   6.887
14747TIP3   OH244183   2.876   7.897   6.920
14747TIP3    H144184   2.781   7.886   6.932
14747TIP3    H244185   2.888   7.991   6.908
14748TIP3   OH244186   5.798   0.143   6.886
14748TIP3    H144187   5.881   0.127   6.931
14748TIP3    H244188   5.818   0.211   6.822
14749TIP3   OH244189   6.210   0.254   6.812
14749TIP3    H144190   6.149   0.212   6.751
14749TIP3    H244191   6.206   0.347   6.789
14750TIP3   OH244192   0.139   3.848   0.234
14750TIP3    H144193   0.105   3.854   0.145
14750TIP3    H244194   0.149   3.939   0.262
14751TIP3   OH244195   6.038   0.521   6.514
14751TIP3    H144196   5.993   0.454   6.461
14751TIP3    H244197   6.101   0.560   6.454
14752TIP3   OH244198   6.199   0.523   6.734
14752TIP3    H144199   6.133   0.522   6.665
14752TIP3    H244200   6.200   0.613   6.766
14753TIP3   OH244201   6.039   0.139   6.633
14753TIP3    H144202   5.970   0.171   6.574
14753TIP3    H244203   6.035   0.044   6.626
14754TIP3   OH244204   3.172   7.877   6.610
14754TIP3    H144205   3.233   7.853   6.680
14754TIP3    H244206   3.090   7.835   6.635
14755TIP3   OH244207   0.382   4.103   0.059
14755TIP3    H144208   0.430   4.034   0.105
14755TIP3    H244209   0.449   4.152   0.011
14756TIP3   OH244210   0.529   3.892   0.186
14756TIP3    H144211   0.566   3.889   0.275
14756TIP3    H244212   0.468   3.818   0.184
14757TIP3   OH244213   3.398   7.832   6.768
14757TIP3    H144214   3.445   7.768   6.714
14757TIP3    H244215   3.456   7.909   6.770
14758TIP3   OH244216   0.570   3.810   0.700
14758TIP3    H144217   0.607   3.835   0.615
14758TIP3    H244218   0.476   3.798   0.683
14759TIP3   OH244219   0.670   3.843   0.436
14759TIP3    H144220   0.738   3.784   0.404
14759TIP3    H244221   0.703   3.931   0.418
14760TIP3   OH244222   0.309   3.746   0.641
14760TIP3    H144223   0.279   3.717   0.555
14760TIP3    H244224   0.293   3.672   0.699
14761TIP3   OH244225   0.349   3.681   0.197
14761TIP3    H144226   0.272   3.735   0.212
14761TIP3    H244227   0.330   3.599   0.242
14762TIP3   OH244228   7.763   3.623   0.117
14762TIP3    H144229   7.785   3.542   0.071
14762TIP3    H244230   7.730   3.594   0.202
14763TIP3   OH244231   0.714   4.363   0.069
14763TIP3    H144232   0.661   4.431   0.109
14763TIP3    H244233   0.654   4.316   0.011
14764TIP3   OH244234   1.371   4.163   0.210
14764TIP3    H144235   1.323   4.244   0.194
14764TIP3    H244236   1.322   4.096   0.161
14765TIP3   OH244237   7.694   0.314   6.734
14765TIP3    H144238   7.787   0.310   6.757
14765TIP3    H244239   7.691   0.373   6.658
14766TIP3   OH244240   1.410   4.699   0.068
14766TIP3    H144241   1.459   4.619   0.053
14766TIP3    H244242   1.330   4.671   0.113
14767TIP3   OH244243   1.309   4.435   0.348
14767TIP3    H144244   1.253   4.457   0.423
14767TIP3    H244245   1.382   4.387   0.385
14768TIP3   OH244246   1.636   3.873   0.441
14768TIP3    H144247   1.702   3.935   0.471
14768TIP3    H244248   1.553   3.922   0.447
14769TIP3   OH244249   7.313   0.706   6.623
14769TIP3    H144250   7.226   0.744   6.608
14769TIP3    H244251   7.360   0.719   6.541
14770TIP3   OH244252   7.234   0.450   6.315
14770TIP3    H144253   7.267   0.451   6.405
14770TIP3    H244254   7.300   0.402   6.265
14771TIP3   OH244255   6.901   0.821   6.836
14771TIP3    H144256   6.837   0.751   6.824
14771TIP3    H244257   6.966   0.785   6.897
14772TIP3   OH244258   7.481   0.686   6.394
14772TIP3    H144259   7.492   0.779   6.374
14772TIP3    H244260   7.475   0.644   6.309
14773TIP3   OH244261   5.158   7.879   6.441
14773TIP3    H144262   5.078   7.896   6.490
14773TIP3    H244263   5.163   7.950   6.377
14774TIP3   OH244264   6.745   0.581   6.791
14774TIP3    H144265   6.663   0.619   6.757
14774TIP3    H244266   6.717   0.501   6.835
14775TIP3   OH244267   1.429   4.060   0.462
14775TIP3    H144268   1.409   4.093   0.374
14775TIP3    H244269   1.491   4.123   0.498
14776TIP3   OH244270   7.504   0.605   6.132
14776TIP3    H144271   7.494   0.567   6.044
14776TIP3    H244272   7.539   0.692   6.116
14777TIP3   OH244273   7.242   0.033   6.414
14777TIP3    H144274   7.205   0.030   6.503
14777TIP3    H244275   7.204  -0.043   6.370
14778TIP3   OH244276   1.257   4.367   0.052
14778TIP3    H144277   1.164   4.384   0.061
14778TIP3    H244278   1.267   4.328  -0.035
14779TIP3   OH244279   7.345   0.438   6.579
14779TIP3    H144280   7.333   0.529   6.605
14779TIP3    H244281   7.438   0.430   6.559
14780TIP3   OH244282   0.790   4.059   0.316
14780TIP3    H144283   0.873   4.082   0.358
14780TIP3    H244284   0.815   4.023   0.231
14781TIP3   OH244285   6.397   0.045   6.771
14781TIP3    H144286   6.454   0.071   6.699
14781TIP3    H244287   6.342   0.122   6.786
14782TIP3   OH244288   1.604   4.185   0.047
14782TIP3    H144289   1.520   4.194   0.092
14782TIP3    H244290   1.663   4.147   0.112
14783TIP3   OH244291   0.984   4.369   0.034
14783TIP3    H144292   0.889   4.377   0.037
14783TIP3    H244293   1.004   4.291   0.084
14784TIP3   OH244294   6.922   0.255   6.745
14784TIP3    H144295   7.014   0.274   6.724
14784TIP3    H244296   6.873   0.288   6.669
14785TIP3   OH244297   6.779   0.320   6.525
14785TIP3    H144298   6.705   0.270   6.491
14785TIP3    H244299   6.833   0.339   6.448
14786TIP3   OH244300   1.187   4.002   0.072
14786TIP3    H144301   1.141   3.923   0.097
14786TIP3    H244302   1.197   3.995  -0.023
14787TIP3   OH244303   7.048   0.794   6.600
14787TIP3    H144304   6.985   0.727   6.571
14787TIP3    H244305   7.016   0.821   6.686
14788TIP3   OH244306   7.488   0.157   6.419
14788TIP3    H144307   7.395   0.133   6.413
14788TIP3    H244308   7.488   0.252   6.415
14789TIP3   OH244309   7.596   0.438   6.471
14789TIP3    H144310   7.692   0.433   6.465
14789TIP3    H244311   7.576   0.528   6.443
14790TIP3   OH244312   7.104   0.984   6.409
14790TIP3    H144313   7.168   1.041   6.451
14790TIP3    H244314   7.079   0.921   6.477
14791TIP3   OH244315   8.002   0.471   6.301
14791TIP3    H144316   7.933   0.444   6.240
14791TIP3    H244317   8.033   0.555   6.266
14792TIP3   OH244318   6.428   0.457   6.582
14792TIP3    H144319   6.481   0.534   6.604
14792TIP3    H244320   6.348   0.468   6.634
14793TIP3   OH244321   7.465   0.939   6.270
14793TIP3    H144322   7.517   0.921   6.191
14793TIP3    H244323   7.375   0.916   6.244
14794TIP3   OH244324   6.837   0.904   6.350
14794TIP3    H144325   6.793   0.887   6.266
14794TIP3    H244326   6.917   0.951   6.325
14795TIP3   OH244327   6.523   0.701   6.677
14795TIP3    H144328   6.487   0.758   6.745
14795TIP3    H244329   6.527   0.756   6.599
14796TIP3   OH244330   7.555   0.087   6.672
14796TIP3    H144331   7.531   0.106   6.582
14796TIP3    H244332   7.602   0.165   6.702
14797TIP3   OH244333   7.192   0.280   6.740
14797TIP3    H144334   7.251   0.335   6.689
14797TIP3    H244335   7.236   0.271   6.825
14798TIP3   OH244336   7.372  -0.031   6.835
14798TIP3    H144337   7.342   0.041   6.891
14798TIP3    H244338   7.440   0.008   6.780
14799TIP3   OH244339   6.880  -0.014   6.731
14799TIP3    H144340   6.878   0.081   6.737
14799TIP3    H244341   6.970  -0.034   6.706
14800TIP3   OH244342   6.507   0.865   6.445
14800TIP3    H144343   6.547   0.949   6.425
14800TIP3    H244344   6.560   0.801   6.398
14801TIP3   OH244345   6.485   0.188   6.536
14801TIP3    H144346   6.480   0.278   6.569
14801TIP3    H244347   6.407   0.178   6.482
14802TIP3   OH244348   1.099   3.890   0.487
14802TIP3    H144349   1.172   3.895   0.425
14802TIP3    H244350   1.111   3.806   0.532
14803TIP3   OH244351   6.656   0.660   6.339
14803TIP3    H144352   6.713   0.649   6.414
14803TIP3    H244353   6.715   0.658   6.263
14804TIP3   OH244354   7.215   0.886   6.178
14804TIP3    H144355   7.170   0.940   6.243
14804TIP3    H244356   7.172   0.800   6.185
14805TIP3   OH244357   6.856   0.613   6.530
14805TIP3    H144358   6.823   0.579   6.613
14805TIP3    H244359   6.888   0.536   6.483
14806TIP3   OH244360   6.956   0.417   6.341
14806TIP3    H144361   6.936   0.410   6.248
14806TIP3    H244362   7.049   0.436   6.345
14807TIP3   OH244363   7.833   0.761   6.014
14807TIP3    H144364   7.789   0.706   5.949
14807TIP3    H244365   7.902   0.806   5.965
14808TIP3   OH244366   6.231   0.826   6.443
14808TIP3    H144367   6.319   0.860   6.460
14808TIP3    H244368   6.245   0.736   6.415
14809TIP3   OH244369   8.061   0.690   6.149
14809TIP3    H144370   7.971   0.705   6.119
14809TIP3    H244371   8.111   0.762   6.110
14810TIP3   OH244372   7.816   0.397   6.118
14810TIP3    H144373   7.768   0.426   6.040
14810TIP3    H244374   7.809   0.301   6.116
14811TIP3   OH244375   7.778   0.128   6.103
14811TIP3    H144376   7.846   0.090   6.159
14811TIP3    H244377   7.698   0.080   6.125
14812TIP3   OH244378   7.872   0.424   6.535
14812TIP3    H144379   7.903   0.336   6.557
14812TIP3    H244380   7.922   0.447   6.457
14813TIP3   OH244381   7.958   0.170   6.617
14813TIP3    H144382   7.990   0.176   6.707
14813TIP3    H244383   7.897   0.096   6.618
14814TIP3   OH244384   0.944   4.092   0.595
14814TIP3    H144385   0.978   4.006   0.570
14814TIP3    H244386   1.010   4.154   0.563
14815TIP3   OH244387   8.007   0.054   6.244
14815TIP3    H144388   8.048  -0.008   6.184
14815TIP3    H244389   8.065   0.130   6.245
14816TIP3   OH244390   0.784   3.916   0.065
14816TIP3    H144391   0.696   3.900   0.099
14816TIP3    H244392   0.770   3.971  -0.012
14817TIP3   OH244393   1.735   4.049   0.231
14817TIP3    H144394   1.732   4.090   0.318
14817TIP3    H244395   1.795   3.975   0.241
14818TIP3   OH244396   1.076   3.774   0.176
14818TIP3    H144397   0.988   3.770   0.214
14818TIP3    H244398   1.110   3.685   0.185
14819TIP3   OH244399   3.729   7.729   6.826
14819TIP3    H144400   3.757   7.783   6.752
14819TIP3    H244401   3.702   7.792   6.893
14820TIP3   OH244402   1.526   3.882   0.130
14820TIP3    H144403   1.571   3.868   0.047
14820TIP3    H244404   1.587   3.937   0.181
14821TIP3   OH244405   7.804   0.054   6.866
14821TIP3    H144406   7.861   0.082   6.937
14821TIP3    H244407   7.755  -0.019   6.903
14822TIP3   OH244408   4.943   7.952   6.592
14822TIP3    H144409   4.868   8.003   6.623
14822TIP3    H244410   4.924   7.862   6.620
14823TIP3   OH244411   3.843   7.881   6.584
14823TIP3    H144412   3.890   7.811   6.539
14823TIP3    H244413   3.909   7.924   6.638
14824TIP3   OH244414   7.150   0.018   6.674
14824TIP3    H144415   7.219  -0.026   6.725
14824TIP3    H244416   7.159   0.110   6.696
14825TIP3   OH244417   0.198   0.289   5.896
14825TIP3    H144418   0.216   0.348   5.969
14825TIP3    H244419   0.119   0.325   5.855
14826TIP3   OH244420   8.180   0.268   6.251
14826TIP3    H144421   8.220   0.298   6.170
14826TIP3    H244422   8.123   0.340   6.278
14827TIP3   OH244423   8.204   0.454   6.043
14827TIP3    H144424   8.266   0.524   6.065
14827TIP3    H244425   8.118   0.494   6.053
14828TIP3   OH244426   8.219   0.158   6.498
14828TIP3    H144427   8.132   0.149   6.535
14828TIP3    H244428   8.205   0.200   6.413
14829TIP3   OH244429   8.325  -0.038   6.310
14829TIP3    H144430   8.355   0.016   6.237
14829TIP3    H244431   8.297   0.025   6.377
14830TIP3   OH244432  -0.038   0.090   6.090
14830TIP3    H144433   0.004   0.028   6.030
14830TIP3    H244434   0.035   0.136   6.132
   8.50000   8.01388   6.94022   0.00000   0.00000  -2.83333   0.00000  -2.83333  -4.00694
