Title t=  16.00000 step= 8000
44469
    1GLY      N    1   5.412   5.600   3.626
    1GLY    HT1    2   5.460   5.510   3.642
    1GLY    HT2    3   5.398   5.632   3.724
    1GLY    HT3    4   5.481   5.669   3.590
    1GLY     CA    5   5.279   5.599   3.547
    1GLY    HA1    6   5.255   5.494   3.532
    1GLY    HA2    7   5.287   5.642   3.448
    1GLY      C    8   5.163   5.664   3.609
    1GLY      O    9   5.191   5.751   3.692
    2PRO      N   10   5.042   5.634   3.597
    2PRO     CD   11   4.998   5.547   3.487
    2PRO    HD1   12   5.049   5.449   3.489
    2PRO    HD2   13   5.026   5.597   3.392
    2PRO     CA   14   4.929   5.698   3.659
    2PRO     HA   15   4.942   5.804   3.678
    2PRO     CB   16   4.805   5.651   3.572
    2PRO    HB1   17   4.777   5.736   3.508
    2PRO    HB2   18   4.712   5.629   3.628
    2PRO     CG   19   4.846   5.527   3.495
    2PRO    HG1   20   4.829   5.428   3.543
    2PRO    HG2   21   4.789   5.520   3.400
    2PRO      C   22   4.907   5.651   3.804
    2PRO      O   23   4.804   5.679   3.861
    3GLY      N   24   5.004   5.582   3.867
    3GLY     HN   25   5.089   5.556   3.821
    3GLY     CA   26   4.992   5.546   4.003
    3GLY    HA1   27   5.052   5.457   4.021
    3GLY    HA2   28   4.891   5.535   4.040
    3GLY      C   29   5.055   5.643   4.096
    3GLY      O   30   5.051   5.634   4.215
    4ASN      N   31   5.118   5.745   4.035
    4ASN     HN   32   5.102   5.748   3.937
    4ASN     CA   33   5.191   5.851   4.093
    4ASN     HA   34   5.213   5.826   4.196
    4ASN     CB   35   5.328   5.877   4.013
    4ASN    HB1   36   5.391   5.944   4.075
    4ASN    HB2   37   5.299   5.919   3.914
    4ASN     CG   38   5.407   5.746   3.986
    4ASN    OD1   39   5.444   5.718   3.873
    4ASN    ND2   40   5.434   5.668   4.094
    4ASN   HD21   41   5.483   5.580   4.089
    4ASN   HD22   42   5.412   5.694   4.188
    4ASN      C   43   5.105   5.978   4.087
    4ASN      O   44   5.032   5.984   3.989
    5PRO      N   45   5.113   6.078   4.184
    5PRO     CD   46   5.179   6.061   4.319
    5PRO    HD1   47   5.290   6.066   4.320
    5PRO    HD2   48   5.139   5.977   4.379
    5PRO     CA   49   5.061   6.215   4.167
    5PRO     HA   50   4.954   6.219   4.179
    5PRO     CB   51   5.140   6.292   4.281
    5PRO    HB1   52   5.094   6.389   4.310
    5PRO    HB2   53   5.245   6.316   4.257
    5PRO     CG   54   5.149   6.194   4.398
    5PRO    HG1   55   5.222   6.226   4.476
    5PRO    HG2   56   5.048   6.181   4.441
    5PRO      C   57   5.091   6.277   4.027
    5PRO      O   58   5.184   6.233   3.957
    6GLY      N   59   5.015   6.374   3.978
    6GLY     HN   60   4.930   6.398   4.026
    6GLY     CA   61   5.038   6.439   3.854
    6GLY    HA1   62   4.957   6.510   3.840
    6GLY    HA2   63   5.037   6.365   3.776
    6GLY      C   64   5.163   6.530   3.847
    6GLY      O   65   5.253   6.518   3.933
    7PRO      N   66   5.175   6.621   3.753
    7PRO     CD   67   5.109   6.633   3.616
    7PRO    HD1   68   5.017   6.694   3.629
    7PRO    HD2   69   5.085   6.536   3.568
    7PRO     CA   70   5.286   6.719   3.754
    7PRO     HA   71   5.380   6.667   3.741
    7PRO     CB   72   5.254   6.814   3.644
    7PRO    HB1   73   5.343   6.867   3.603
    7PRO    HB2   74   5.180   6.887   3.683
    7PRO     CG   75   5.192   6.727   3.533
    7PRO    HG1   76   5.146   6.787   3.452
    7PRO    HG2   77   5.280   6.668   3.499
    7PRO      C   78   5.293   6.806   3.888
    7PRO      O   79   5.195   6.839   3.946
    8GLY      N   80   5.422   6.834   3.923
    8GLY     HN   81   5.495   6.805   3.861
    8GLY     CA   82   5.452   6.916   4.039
    8GLY    HA1   83   5.382   6.998   4.044
    8GLY    HA2   84   5.558   6.938   4.030
    8GLY      C   85   5.417   6.855   4.176
    8GLY      O   86   5.415   6.732   4.189
    9ASN      N   87   5.400   6.937   4.282
    9ASN     HN   88   5.399   7.036   4.270
    9ASN     CA   89   5.382   6.885   4.422
    9ASN     HA   90   5.459   6.810   4.434
    9ASN     CB   91   5.380   7.005   4.521
    9ASN    HB1   92   5.339   6.977   4.620
    9ASN    HB2   93   5.338   7.096   4.472
    9ASN     CG   94   5.525   7.039   4.544
    9ASN    OD1   95   5.622   6.990   4.485
    9ASN    ND2   96   5.546   7.151   4.625
    9ASN   HD21   97   5.639   7.180   4.647
    9ASN   HD22   98   5.466   7.201   4.658
    9ASN      C   99   5.240   6.821   4.424
    9ASN      O  100   5.148   6.876   4.357
   10PRO      N  101   5.212   6.713   4.497
   10PRO     CD  102   5.313   6.642   4.575
   10PRO    HD1  103   5.348   6.694   4.666
   10PRO    HD2  104   5.405   6.612   4.520
   10PRO     CA  105   5.078   6.659   4.521
   10PRO     HA  106   5.057   6.616   4.425
   10PRO     CB  107   5.094   6.547   4.633
   10PRO    HB1  108   5.021   6.464   4.617
   10PRO    HB2  109   5.068   6.589   4.733
   10PRO     CG  110   5.243   6.511   4.621
   10PRO    HG1  111   5.294   6.476   4.713
   10PRO    HG2  112   5.250   6.440   4.535
   10PRO      C  113   4.961   6.752   4.537
   10PRO      O  114   4.967   6.826   4.633
   11GLY      N  115   4.851   6.746   4.452
   11GLY     HN  116   4.852   6.672   4.384
   11GLY     CA  117   4.745   6.840   4.447
   11GLY    HA1  118   4.691   6.823   4.355
   11GLY    HA2  119   4.804   6.931   4.447
   11GLY      C  120   4.645   6.855   4.565
   11GLY      O  121   4.631   6.770   4.652
   12PRO      N  122   4.579   6.967   4.571
   12PRO     CD  123   4.617   7.090   4.502
   12PRO    HD1  124   4.586   7.084   4.396
   12PRO    HD2  125   4.722   7.123   4.512
   12PRO     CA  126   4.459   6.987   4.662
   12PRO     HA  127   4.490   6.990   4.766
   12PRO     CB  128   4.401   7.112   4.609
   12PRO    HB1  129   4.335   7.166   4.680
   12PRO    HB2  130   4.335   7.103   4.520
   12PRO     CG  131   4.520   7.196   4.555
   12PRO    HG1  132   4.476   7.259   4.476
   12PRO    HG2  133   4.559   7.256   4.640
   12PRO      C  134   4.355   6.873   4.664
   12PRO      O  135   4.298   6.845   4.559
   13GLY      N  136   4.325   6.828   4.781
   13GLY     HN  137   4.361   6.869   4.865
   13GLY     CA  138   4.228   6.721   4.799
   13GLY    HA1  139   4.133   6.749   4.756
   13GLY    HA2  140   4.214   6.707   4.905
   13GLY      C  141   4.272   6.590   4.739
   13GLY      O  142   4.389   6.554   4.730
   14ASN      N  143   4.170   6.509   4.701
   14ASN     HN  144   4.077   6.546   4.698
   14ASN     CA  145   4.194   6.381   4.636
   14ASN     HA  146   4.292   6.339   4.655
   14ASN     CB  147   4.108   6.269   4.708
   14ASN    HB1  148   4.149   6.174   4.668
   14ASN    HB2  149   4.002   6.282   4.680
   14ASN     CG  150   4.120   6.272   4.859
   14ASN    OD1  151   4.022   6.284   4.935
   14ASN    ND2  152   4.238   6.233   4.914
   14ASN   HD21  153   4.246   6.215   5.012
   14ASN   HD22  154   4.315   6.215   4.854
   14ASN      C  155   4.171   6.370   4.486
   14ASN      O  156   4.056   6.361   4.444
   15PRO      N  157   4.273   6.378   4.401
   15PRO     CD  158   4.407   6.430   4.436
   15PRO    HD1  159   4.453   6.376   4.522
   15PRO    HD2  160   4.394   6.536   4.467
   15PRO     CA  161   4.259   6.361   4.253
   15PRO     HA  162   4.159   6.393   4.228
   15PRO     CB  163   4.378   6.436   4.196
   15PRO    HB1  164   4.335   6.539   4.196
   15PRO    HB2  165   4.407   6.410   4.092
   15PRO     CG  166   4.488   6.417   4.309
   15PRO    HG1  167   4.542   6.321   4.298
   15PRO    HG2  168   4.563   6.497   4.293
   15PRO      C  169   4.276   6.212   4.214
   15PRO    OT1  170   4.246   6.182   4.095
   15PRO    OT2  171   4.311   6.120   4.294
   16LIT    LIT  172   0.330   4.326   2.598
   17LIT    LIT  173   1.551   6.332   0.497
   18LIT    LIT  174   5.142   2.548   5.321
   19LIT    LIT  175   1.404   7.119   4.283
   20LIT    LIT  176   2.586   1.563   3.158
   21LIT    LIT  177   0.773   7.248   5.907
   22LIT    LIT  178   6.197   7.639   3.952
   23LIT    LIT  179   4.138   2.307   3.560
   24LIT    LIT  180   4.577   4.451   4.119
   25LIT    LIT  181   7.683   7.339   5.335
   26LIT    LIT  182   6.221   6.677   0.962
   27LIT    LIT  183   2.388   5.254   2.027
   28LIT    LIT  184   0.240   4.709   5.761
   29LIT    LIT  185   2.844   7.373   0.188
   30LIT    LIT  186   4.027   1.366   3.393
   31LIT    LIT  187   8.187   2.755   0.449
   32LIT    LIT  188   5.259   0.591   3.098
   33LIT    LIT  189   2.237   5.608   4.264
   34LIT    LIT  190   0.402   2.132   1.809
   35LIT    LIT  191   5.947   4.382   2.875
   36LIT    LIT  192   3.085   1.367   6.558
   37LIT    LIT  193   1.808   1.739   6.271
   38LIT    LIT  194   1.857   3.128   3.056
   39LIT    LIT  195   3.244   7.333   4.928
   40LIT    LIT  196   4.400   7.703   5.557
   41LIT    LIT  197   1.759   4.348   6.341
   42LIT    LIT  198   5.443   6.134   0.203
   43LIT    LIT  199   4.348   6.012   4.114
   44LIT    LIT  200   5.094   5.204   4.639
   45LIT    LIT  201   2.671   3.898   6.674
   46LIT    LIT  202   1.935   0.615   1.582
   47LIT    LIT  203   7.422   3.985   5.241
   48LIT    LIT  204   2.748   7.659   0.785
   49LIT    LIT  205   8.008   0.576   5.060
   50LIT    LIT  206   5.325   4.249   1.830
   51LIT    LIT  207   5.176   0.463   1.886
   52LIT    LIT  208   6.007   3.996   1.430
   53LIT    LIT  209   7.837   6.062   1.081
   54LIT    LIT  210   3.819   6.610   0.890
   55LIT    LIT  211   2.368   3.012   1.375
   56LIT    LIT  212   5.877   0.877   5.926
   57LIT    LIT  213   7.351   4.048   4.287
   58CLA    CLA  214   2.780   4.095   2.751
   59CLA    CLA  215   0.400   6.857   0.749
   60CLA    CLA  216   0.352   1.867   2.718
   61CLA    CLA  217   3.667   1.691   3.299
   62CLA    CLA  218   6.773   5.628   0.576
   63CLA    CLA  219   8.290   7.568   4.218
   64CLA    CLA  220   7.200   1.387   1.288
   65CLA    CLA  221   8.272   7.437   0.139
   66CLA    CLA  222   6.850   5.364   0.187
   67CLA    CLA  223   7.078   2.178   2.530
   68CLA    CLA  224   1.000   5.028   0.116
   69CLA    CLA  225   8.179   5.412   5.828
   70CLA    CLA  226   2.247   7.015   5.068
   71CLA    CLA  227   7.407   3.833   4.373
   72CLA    CLA  228   6.572   4.920   2.917
   73CLA    CLA  229   8.219   4.283   2.369
   74CLA    CLA  230   2.669   5.989   5.697
   75CLA    CLA  231   3.983   3.240   5.879
   76CLA    CLA  232   4.075   2.640   4.542
   77CLA    CLA  233   5.656   7.019   6.712
   78CLA    CLA  234   0.041   1.420   3.736
   79CLA    CLA  235   2.165   3.493   2.531
   80CLA    CLA  236   8.147   4.066   3.476
   81CLA    CLA  237   3.363   3.596   0.734
   82CLA    CLA  238   6.294   0.993   1.629
   83CLA    CLA  239   3.769   5.990   2.579
   84CLA    CLA  240   1.023   5.477   4.118
   85CLA    CLA  241   3.600   6.762   5.892
   86CLA    CLA  242   3.509   6.959   1.457
   87CLA    CLA  243   7.549   0.377   0.398
   88CLA    CLA  244   6.835   0.345   5.331
   89CLA    CLA  245   6.355   4.214   0.394
   90CLA    CLA  246   0.998   7.209   6.329
   91CLA    CLA  247   2.020   0.809   2.788
   92CLA    CLA  248   2.655   7.453   0.096
   93CLA    CLA  249   3.937   3.335   4.234
   94CLA    CLA  250   4.935   4.987   2.872
   95CLA    CLA  251   2.256   2.132   6.038
   96CLA    CLA  252   1.641   3.281   6.124
   97CLA    CLA  253   7.827   6.536   0.604
   98CLA    CLA  254   0.552   7.691   5.022
   99CLA    CLA  255   5.402   0.235   6.292
  100TIP3   OH2  256   4.705   0.925   4.394
  100TIP3    H1  257   4.779   0.950   4.339
  100TIP3    H2  258   4.638   0.897   4.332
  101TIP3   OH2  259   1.713   5.886   5.729
  101TIP3    H1  260   1.677   5.877   5.641
  101TIP3    H2  261   1.674   5.966   5.764
  102TIP3   OH2  262   5.514   0.535   0.915
  102TIP3    H1  263   5.491   0.626   0.895
  102TIP3    H2  264   5.569   0.508   0.842
  103TIP3   OH2  265   2.521   4.280   4.983
  103TIP3    H1  266   2.504   4.301   5.075
  103TIP3    H2  267   2.510   4.364   4.937
  104TIP3   OH2  268   7.957   2.986   1.470
  104TIP3    H1  269   8.028   2.923   1.468
  104TIP3    H2  270   7.984   3.050   1.536
  105TIP3   OH2  271   6.594   4.928   0.519
  105TIP3    H1  272   6.577   4.936   0.613
  105TIP3    H2  273   6.687   4.907   0.514
  106TIP3   OH2  274   5.621   5.845   5.782
  106TIP3    H1  275   5.638   5.875   5.871
  106TIP3    H2  276   5.548   5.899   5.752
  107TIP3   OH2  277   3.267   1.048   2.543
  107TIP3    H1  278   3.194   1.039   2.481
  107TIP3    H2  279   3.301   1.136   2.527
  108TIP3   OH2  280   4.548   3.758   0.292
  108TIP3    H1  281   4.515   3.675   0.258
  108TIP3    H2  282   4.488   3.781   0.363
  109TIP3   OH2  283   5.438   5.581   4.384
  109TIP3    H1  284   5.459   5.670   4.412
  109TIP3    H2  285   5.482   5.525   4.448
  110TIP3   OH2  286   5.513   3.596   1.394
  110TIP3    H1  287   5.478   3.678   1.429
  110TIP3    H2  288   5.453   3.528   1.426
  111TIP3   OH2  289   6.412   0.410   4.745
  111TIP3    H1  290   6.368   0.352   4.683
  111TIP3    H2  291   6.473   0.461   4.691
  112TIP3   OH2  292   2.673   1.901   5.779
  112TIP3    H1  293   2.704   1.886   5.690
  112TIP3    H2  294   2.649   1.814   5.811
  113TIP3   OH2  295   5.758   6.654   5.974
  113TIP3    H1  296   5.851   6.653   5.999
  113TIP3    H2  297   5.749   6.578   5.916
  114TIP3   OH2  298   3.243   0.340   6.735
  114TIP3    H1  299   3.288   0.338   6.820
  114TIP3    H2  300   3.305   0.383   6.676
  115TIP3   OH2  301   6.640   4.667   4.849
  115TIP3    H1  302   6.579   4.623   4.789
  115TIP3    H2  303   6.627   4.623   4.933
  116TIP3   OH2  304   4.275   4.350   2.462
  116TIP3    H1  305   4.298   4.283   2.398
  116TIP3    H2  306   4.190   4.384   2.432
  117TIP3   OH2  307   6.420   4.428   5.977
  117TIP3    H1  308   6.421   4.409   6.070
  117TIP3    H2  309   6.455   4.517   5.970
  118TIP3   OH2  310   1.380   6.581   2.587
  118TIP3    H1  311   1.372   6.674   2.607
  118TIP3    H2  312   1.458   6.552   2.633
  119TIP3   OH2  313   1.384   3.637   0.658
  119TIP3    H1  314   1.407   3.727   0.681
  119TIP3    H2  315   1.418   3.585   0.731
  120TIP3   OH2  316   7.807   0.312   4.872
  120TIP3    H1  317   7.754   0.388   4.850
  120TIP3    H2  318   7.750   0.237   4.857
  121TIP3   OH2  319   2.416   5.903   4.941
  121TIP3    H1  320   2.486   5.932   4.882
  121TIP3    H2  321   2.339   5.952   4.912
  122TIP3   OH2  322   0.425   1.132   0.924
  122TIP3    H1  323   0.484   1.117   0.999
  122TIP3    H2  324   0.459   1.211   0.883
  123TIP3   OH2  325   6.678   4.023   0.093
  123TIP3    H1  326   6.773   4.016   0.086
  123TIP3    H2  327   6.663   4.048   0.185
  124TIP3   OH2  328   1.065   5.747   3.934
  124TIP3    H1  329   1.038   5.796   4.011
  124TIP3    H2  330   1.034   5.658   3.949
  125TIP3   OH2  331   0.796   2.604   5.679
  125TIP3    H1  332   0.876   2.625   5.631
  125TIP3    H2  333   0.753   2.538   5.625
  126TIP3   OH2  334   1.495   2.331   5.020
  126TIP3    H1  335   1.545   2.393   5.073
  126TIP3    H2  336   1.498   2.369   4.931
  127TIP3   OH2  337   1.418   1.200   5.856
  127TIP3    H1  338   1.496   1.146   5.852
  127TIP3    H2  339   1.401   1.224   5.764
  128TIP3   OH2  340   6.646   6.759   0.940
  128TIP3    H1  341   6.693   6.839   0.917
  128TIP3    H2  342   6.715   6.697   0.965
  129TIP3   OH2  343   2.331   3.434   5.100
  129TIP3    H1  344   2.279   3.359   5.129
  129TIP3    H2  345   2.284   3.469   5.025
  130TIP3   OH2  346   7.023   5.294   6.626
  130TIP3    H1  347   6.984   5.292   6.539
  130TIP3    H2  348   6.950   5.275   6.685
  131TIP3   OH2  349   0.786   1.141   4.088
  131TIP3    H1  350   0.837   1.061   4.085
  131TIP3    H2  351   0.725   1.129   4.161
  132TIP3   OH2  352   0.463   4.842   0.891
  132TIP3    H1  353   0.488   4.798   0.973
  132TIP3    H2  354   0.543   4.841   0.838
  133TIP3   OH2  355   2.099   2.946   1.060
  133TIP3    H1  356   2.073   3.038   1.051
  133TIP3    H2  357   2.058   2.902   0.985
  134TIP3   OH2  358   2.644   1.645   5.893
  134TIP3    H1  359   2.643   1.549   5.898
  134TIP3    H2  360   2.664   1.674   5.982
  135TIP3   OH2  361   4.462   3.051   0.786
  135TIP3    H1  362   4.465   3.124   0.725
  135TIP3    H2  363   4.481   2.974   0.732
  136TIP3   OH2  364   1.060   3.580   4.976
  136TIP3    H1  365   1.072   3.490   5.005
  136TIP3    H2  366   1.101   3.634   5.044
  137TIP3   OH2  367   0.418   5.389   1.177
  137TIP3    H1  368   0.376   5.374   1.092
  137TIP3    H2  369   0.504   5.346   1.169
  138TIP3   OH2  370   6.084   4.311   0.809
  138TIP3    H1  371   6.068   4.384   0.750
  138TIP3    H2  372   6.072   4.233   0.755
  139TIP3   OH2  373   6.663   0.344   5.600
  139TIP3    H1  374   6.572   0.369   5.583
  139TIP3    H2  375   6.713   0.387   5.530
  140TIP3   OH2  376   7.945   1.836   2.609
  140TIP3    H1  377   7.922   1.906   2.548
  140TIP3    H2  378   7.999   1.878   2.676
  141TIP3   OH2  379   6.796   1.159   3.150
  141TIP3    H1  380   6.724   1.221   3.167
  141TIP3    H2  381   6.873   1.215   3.140
  142TIP3   OH2  382   4.119   0.954   0.150
  142TIP3    H1  383   4.051   1.007   0.110
  142TIP3    H2  384   4.177   1.017   0.193
  143TIP3   OH2  385   4.772   1.749   0.049
  143TIP3    H1  386   4.825   1.819   0.012
  143TIP3    H2  387   4.775   1.764   0.144
  144TIP3   OH2  388   4.205   5.820   2.561
  144TIP3    H1  389   4.269   5.857   2.499
  144TIP3    H2  390   4.150   5.763   2.508
  145TIP3   OH2  391   4.445   2.007   6.498
  145TIP3    H1  392   4.390   1.931   6.484
  145TIP3    H2  393   4.455   2.046   6.411
  146TIP3   OH2  394   3.246   2.985   4.329
  146TIP3    H1  395   3.315   2.949   4.385
  146TIP3    H2  396   3.203   3.050   4.384
  147TIP3   OH2  397   5.047   1.057   1.534
  147TIP3    H1  398   5.035   1.054   1.439
  147TIP3    H2  399   5.005   0.977   1.565
  148TIP3   OH2  400   7.347   2.813   5.636
  148TIP3    H1  401   7.282   2.754   5.673
  148TIP3    H2  402   7.428   2.793   5.684
  149TIP3   OH2  403   2.407   3.126   6.112
  149TIP3    H1  404   2.458   3.129   6.193
  149TIP3    H2  405   2.349   3.051   6.123
  150TIP3   OH2  406   8.331   4.756   6.471
  150TIP3    H1  407   8.277   4.833   6.455
  150TIP3    H2  408   8.274   4.696   6.519
  151TIP3   OH2  409   5.471   3.459   1.965
  151TIP3    H1  410   5.508   3.377   1.996
  151TIP3    H2  411   5.409   3.484   2.034
  152TIP3   OH2  412   4.906   0.553   3.611
  152TIP3    H1  413   4.906   0.476   3.667
  152TIP3    H2  414   4.815   0.563   3.584
  153TIP3   OH2  415   3.039   2.928   0.336
  153TIP3    H1  416   3.051   2.989   0.409
  153TIP3    H2  417   3.087   2.850   0.363
  154TIP3   OH2  418   5.685   4.687   5.874
  154TIP3    H1  419   5.730   4.761   5.834
  154TIP3    H2  420   5.749   4.648   5.932
  155TIP3   OH2  421   2.261   0.481   6.407
  155TIP3    H1  422   2.202   0.536   6.459
  155TIP3    H2  423   2.333   0.459   6.466
  156TIP3   OH2  424   2.505   0.687   4.042
  156TIP3    H1  425   2.527   0.662   4.132
  156TIP3    H2  426   2.428   0.634   4.021
  157TIP3   OH2  427   6.307   2.157   3.777
  157TIP3    H1  428   6.260   2.221   3.722
  157TIP3    H2  429   6.384   2.204   3.807
  158TIP3   OH2  430   0.369   2.376   6.451
  158TIP3    H1  431   0.426   2.429   6.508
  158TIP3    H2  432   0.289   2.364   6.502
  159TIP3   OH2  433   5.977   5.212   3.606
  159TIP3    H1  434   5.896   5.162   3.617
  159TIP3    H2  435   5.997   5.206   3.513
  160TIP3   OH2  436   2.447   1.769   5.560
  160TIP3    H1  437   2.538   1.786   5.582
  160TIP3    H2  438   2.398   1.784   5.641
  161TIP3   OH2  439   4.152   2.431   5.009
  161TIP3    H1  440   4.139   2.472   4.924
  161TIP3    H2  441   4.181   2.342   4.989
  162TIP3   OH2  442   1.286   6.014   2.298
  162TIP3    H1  443   1.315   5.923   2.292
  162TIP3    H2  444   1.354   6.064   2.252
  163TIP3   OH2  445   2.082   1.291   6.666
  163TIP3    H1  446   2.103   1.244   6.747
  163TIP3    H2  447   2.167   1.304   6.624
  164TIP3   OH2  448   5.534   6.827   5.966
  164TIP3    H1  449   5.506   6.836   6.057
  164TIP3    H2  450   5.628   6.812   5.971
  165TIP3   OH2  451   1.951   6.658   3.430
  165TIP3    H1  452   1.898   6.696   3.500
  165TIP3    H2  453   1.989   6.734   3.386
  166TIP3   OH2  454   3.697   0.166   0.443
  166TIP3    H1  455   3.705   0.118   0.525
  166TIP3    H2  456   3.626   0.229   0.459
  167TIP3   OH2  457   8.113   0.942   0.352
  167TIP3    H1  458   8.112   0.889   0.273
  167TIP3    H2  459   8.067   1.022   0.327
  168TIP3   OH2  460   7.257   1.896   0.368
  168TIP3    H1  461   7.319   1.872   0.436
  168TIP3    H2  462   7.177   1.920   0.415
  169TIP3   OH2  463   0.953   0.401   5.386
  169TIP3    H1  464   0.905   0.323   5.414
  169TIP3    H2  465   1.012   0.369   5.318
  170TIP3   OH2  466   8.145   2.572   0.515
  170TIP3    H1  467   8.221   2.514   0.525
  170TIP3    H2  468   8.073   2.524   0.554
  171TIP3   OH2  469   0.749   3.794   1.899
  171TIP3    H1  470   0.751   3.849   1.977
  171TIP3    H2  471   0.726   3.854   1.828
  172TIP3   OH2  472   2.955   1.689   4.885
  172TIP3    H1  473   2.974   1.706   4.793
  172TIP3    H2  474   2.928   1.774   4.920
  173TIP3   OH2  475   0.153   2.374   1.628
  173TIP3    H1  476   0.094   2.420   1.569
  173TIP3    H2  477   0.227   2.349   1.573
  174TIP3   OH2  478   0.808   4.909   3.899
  174TIP3    H1  479   0.744   4.872   3.839
  174TIP3    H2  480   0.773   4.890   3.986
  175TIP3   OH2  481   7.121   0.958   5.555
  175TIP3    H1  482   7.060   0.919   5.492
  175TIP3    H2  483   7.084   0.934   5.640
  176TIP3   OH2  484   0.493   7.137   4.174
  176TIP3    H1  485   0.456   7.075   4.236
  176TIP3    H2  486   0.502   7.218   4.223
  177TIP3   OH2  487   1.292   7.411   6.543
  177TIP3    H1  488   1.276   7.318   6.562
  177TIP3    H2  489   1.320   7.412   6.452
  178TIP3   OH2  490   7.643   2.173   5.787
  178TIP3    H1  491   7.578   2.188   5.856
  178TIP3    H2  492   7.649   2.257   5.742
  179TIP3   OH2  493   0.570   4.295   4.229
  179TIP3    H1  494   0.519   4.340   4.162
  179TIP3    H2  495   0.660   4.296   4.196
  180TIP3   OH2  496   0.412   3.043   4.654
  180TIP3    H1  497   0.393   2.984   4.581
  180TIP3    H2  498   0.393   3.130   4.620
  181TIP3   OH2  499   2.060   0.793   3.591
  181TIP3    H1  500   1.994   0.813   3.524
  181TIP3    H2  501   2.060   0.870   3.648
  182TIP3   OH2  502   5.826   2.893   5.993
  182TIP3    H1  503   5.879   2.860   5.920
  182TIP3    H2  504   5.891   2.919   6.059
  183TIP3   OH2  505   2.528   6.929   0.197
  183TIP3    H1  506   2.451   6.965   0.241
  183TIP3    H2  507   2.550   6.994   0.131
  184TIP3   OH2  508   3.783   5.715   1.132
  184TIP3    H1  509   3.861   5.666   1.159
  184TIP3    H2  510   3.740   5.737   1.215
  185TIP3   OH2  511   0.940   2.070   2.680
  185TIP3    H1  512   0.951   2.040   2.589
  185TIP3    H2  513   0.927   2.164   2.673
  186TIP3   OH2  514   2.624   6.220   0.127
  186TIP3    H1  515   2.676   6.278   0.183
  186TIP3    H2  516   2.538   6.262   0.123
  187TIP3   OH2  517   4.801   1.578   2.308
  187TIP3    H1  518   4.759   1.562   2.392
  187TIP3    H2  519   4.895   1.585   2.328
  188TIP3   OH2  520   6.518   3.755   4.162
  188TIP3    H1  521   6.469   3.802   4.231
  188TIP3    H2  522   6.610   3.772   4.183
  189TIP3   OH2  523   6.110   3.206   3.926
  189TIP3    H1  524   6.192   3.208   3.876
  189TIP3    H2  525   6.072   3.120   3.907
  190TIP3   OH2  526   3.218   5.017   5.719
  190TIP3    H1  527   3.252   5.081   5.657
  190TIP3    H2  528   3.188   4.944   5.664
  191TIP3   OH2  529   1.558   2.191   0.750
  191TIP3    H1  530   1.563   2.149   0.836
  191TIP3    H2  531   1.477   2.158   0.712
  192TIP3   OH2  532   2.076   1.609   1.382
  192TIP3    H1  533   2.039   1.636   1.298
  192TIP3    H2  534   2.049   1.518   1.392
  193TIP3   OH2  535   5.482   4.541   4.463
  193TIP3    H1  536   5.502   4.490   4.541
  193TIP3    H2  537   5.464   4.476   4.395
  194TIP3   OH2  538   2.838   4.270   1.786
  194TIP3    H1  539   2.821   4.186   1.743
  194TIP3    H2  540   2.902   4.313   1.729
  195TIP3   OH2  541   6.614   0.251   6.674
  195TIP3    H1  542   6.581   0.272   6.762
  195TIP3    H2  543   6.535   0.239   6.621
  196TIP3   OH2  544   7.570   4.782   5.737
  196TIP3    H1  545   7.562   4.842   5.664
  196TIP3    H2  546   7.580   4.839   5.814
  197TIP3   OH2  547   2.511   5.854   0.476
  197TIP3    H1  548   2.529   5.877   0.567
  197TIP3    H2  549   2.592   5.875   0.430
  198TIP3   OH2  550   4.104   4.753   5.097
  198TIP3    H1  551   4.032   4.696   5.071
  198TIP3    H2  552   4.135   4.717   5.180
  199TIP3   OH2  553   5.617   2.621   1.874
  199TIP3    H1  554   5.538   2.568   1.877
  199TIP3    H2  555   5.644   2.618   1.782
  200TIP3   OH2  556   3.995   4.969   0.994
  200TIP3    H1  557   3.924   5.033   0.989
  200TIP3    H2  558   4.020   4.953   0.903
  201TIP3   OH2  559   5.278   5.011   4.040
  201TIP3    H1  560   5.287   5.106   4.041
  201TIP3    H2  561   5.348   4.980   4.098
  202TIP3   OH2  562   4.392   6.764   3.914
  202TIP3    H1  563   4.347   6.754   3.829
  202TIP3    H2  564   4.323   6.796   3.973
  203TIP3   OH2  565   3.437   3.300   5.162
  203TIP3    H1  566   3.513   3.309   5.103
  203TIP3    H2  567   3.402   3.389   5.169
  204TIP3   OH2  568   0.785   1.250   4.421
  204TIP3    H1  569   0.780   1.329   4.366
  204TIP3    H2  570   0.723   1.189   4.381
  205TIP3   OH2  571   8.039   5.463   4.864
  205TIP3    H1  572   8.101   5.397   4.895
  205TIP3    H2  573   7.959   5.446   4.913
  206TIP3   OH2  574   4.844   1.026   2.992
  206TIP3    H1  575   4.860   1.049   2.900
  206TIP3    H2  576   4.932   1.012   3.028
  207TIP3   OH2  577   6.181   2.034   5.408
  207TIP3    H1  578   6.218   2.119   5.384
  207TIP3    H2  579   6.122   2.013   5.336
  208TIP3   OH2  580   7.774   0.570   3.166
  208TIP3    H1  581   7.806   0.495   3.218
  208TIP3    H2  582   7.701   0.605   3.217
  209TIP3   OH2  583   7.722   6.970   2.276
  209TIP3    H1  584   7.642   6.966   2.328
  209TIP3    H2  585   7.701   7.030   2.204
  210TIP3   OH2  586   6.556   2.107   1.271
  210TIP3    H1  587   6.599   2.048   1.210
  210TIP3    H2  588   6.626   2.165   1.301
  211TIP3   OH2  589   6.025   4.858   0.882
  211TIP3    H1  590   5.986   4.939   0.850
  211TIP3    H2  591   6.118   4.878   0.892
  212TIP3   OH2  592   0.134   7.329   4.051
  212TIP3    H1  593   0.085   7.395   4.101
  212TIP3    H2  594   0.147   7.369   3.965
  213TIP3   OH2  595   1.247   5.641   2.122
  213TIP3    H1  596   1.153   5.650   2.135
  213TIP3    H2  597   1.256   5.579   2.049
  214TIP3   OH2  598   1.064   5.142   5.751
  214TIP3    H1  599   1.078   5.157   5.658
  214TIP3    H2  600   1.013   5.061   5.755
  215TIP3   OH2  601   7.758   5.948   5.324
  215TIP3    H1  602   7.695   6.013   5.355
  215TIP3    H2  603   7.741   5.871   5.378
  216TIP3   OH2  604   7.963   0.113   1.989
  216TIP3    H1  605   7.921   0.044   2.040
  216TIP3    H2  606   8.033   0.146   2.046
  217TIP3   OH2  607   0.200   7.467   6.519
  217TIP3    H1  608   0.271   7.418   6.478
  217TIP3    H2  609   0.242   7.514   6.591
  218TIP3   OH2  610   0.736   4.108   3.931
  218TIP3    H1  611   0.761   4.164   3.858
  218TIP3    H2  612   0.753   4.160   4.009
  219TIP3   OH2  613   6.101   3.565   2.499
  219TIP3    H1  614   6.174   3.563   2.560
  219TIP3    H2  615   6.023   3.573   2.554
  220TIP3   OH2  616   5.313   2.557   3.239
  220TIP3    H1  617   5.366   2.495   3.290
  220TIP3    H2  618   5.222   2.531   3.259
  221TIP3   OH2  619   4.190   6.432   2.867
  221TIP3    H1  620   4.253   6.403   2.801
  221TIP3    H2  621   4.239   6.433   2.949
  222TIP3   OH2  622   5.201   4.690   0.184
  222TIP3    H1  623   5.219   4.605   0.222
  222TIP3    H2  624   5.146   4.671   0.107
  223TIP3   OH2  625   0.753   0.296   4.073
  223TIP3    H1  626   0.810   0.365   4.041
  223TIP3    H2  627   0.684   0.289   4.007
  224TIP3   OH2  628   0.786   3.424   4.129
  224TIP3    H1  629   0.715   3.401   4.070
  224TIP3    H2  630   0.790   3.519   4.126
  225TIP3   OH2  631   6.024   3.402   1.686
  225TIP3    H1  632   6.089   3.369   1.623
  225TIP3    H2  633   6.075   3.423   1.764
  226TIP3   OH2  634   7.702   5.078   0.149
  226TIP3    H1  635   7.654   5.101   0.228
  226TIP3    H2  636   7.637   5.083   0.079
  227TIP3   OH2  637   7.706   5.786   1.324
  227TIP3    H1  638   7.718   5.719   1.256
  227TIP3    H2  639   7.628   5.757   1.372
  228TIP3   OH2  640   6.699   0.177   5.956
  228TIP3    H1  641   6.735   0.194   5.869
  228TIP3    H2  642   6.607   0.155   5.940
  229TIP3   OH2  643   7.329   1.486   5.429
  229TIP3    H1  644   7.264   1.524   5.369
  229TIP3    H2  645   7.389   1.558   5.447
  230TIP3   OH2  646   6.696   1.461   1.846
  230TIP3    H1  647   6.716   1.555   1.842
  230TIP3    H2  648   6.761   1.421   1.788
  231TIP3   OH2  649   0.394   0.873   5.258
  231TIP3    H1  650   0.464   0.868   5.193
  231TIP3    H2  651   0.313   0.870   5.206
  232TIP3   OH2  652   1.645   7.101   4.918
  232TIP3    H1  653   1.713   7.142   4.971
  232TIP3    H2  654   1.693   7.048   4.855
  233TIP3   OH2  655   3.279   0.172   0.364
  233TIP3    H1  656   3.350   0.220   0.405
  233TIP3    H2  657   3.314   0.143   0.280
  234TIP3   OH2  658   3.093   2.750   2.641
  234TIP3    H1  659   3.051   2.779   2.560
  234TIP3    H2  660   3.116   2.659   2.625
  235TIP3   OH2  661   0.369   7.374   1.950
  235TIP3    H1  662   0.321   7.393   1.870
  235TIP3    H2  663   0.313   7.315   1.999
  236TIP3   OH2  664   7.546   7.583   2.269
  236TIP3    H1  665   7.560   7.509   2.328
  236TIP3    H2  666   7.616   7.577   2.204
  237TIP3   OH2  667   4.906   0.676   0.543
  237TIP3    H1  668   4.944   0.764   0.552
  237TIP3    H2  669   4.813   0.692   0.527
  238TIP3   OH2  670   1.539   1.474   1.685
  238TIP3    H1  671   1.595   1.509   1.754
  238TIP3    H2  672   1.450   1.495   1.714
  239TIP3   OH2  673   5.212   6.951   1.626
  239TIP3    H1  674   5.291   6.896   1.622
  239TIP3    H2  675   5.195   6.960   1.720
  240TIP3   OH2  676   2.307   3.689   0.336
  240TIP3    H1  677   2.296   3.784   0.326
  240TIP3    H2  678   2.310   3.657   0.246
  241TIP3   OH2  679   5.341   1.925   4.472
  241TIP3    H1  680   5.391   1.975   4.408
  241TIP3    H2  681   5.290   1.862   4.421
  242TIP3   OH2  682   2.016   3.232   3.667
  242TIP3    H1  683   2.088   3.171   3.656
  242TIP3    H2  684   2.034   3.302   3.603
  243TIP3   OH2  685   4.054   6.018   1.636
  243TIP3    H1  686   4.009   6.073   1.571
  243TIP3    H2  687   3.983   5.977   1.686
  244TIP3   OH2  688   7.670   4.284   1.248
  244TIP3    H1  689   7.626   4.353   1.198
  244TIP3    H2  690   7.640   4.202   1.208
  245TIP3   OH2  691   2.558   5.734   4.163
  245TIP3    H1  692   2.596   5.707   4.079
  245TIP3    H2  693   2.603   5.680   4.228
  246TIP3   OH2  694   1.561   1.529   5.390
  246TIP3    H1  695   1.506   1.562   5.318
  246TIP3    H2  696   1.641   1.581   5.385
  247TIP3   OH2  697   3.871   2.118   1.321
  247TIP3    H1  698   3.954   2.122   1.369
  247TIP3    H2  699   3.819   2.052   1.367
  248TIP3   OH2  700   1.033   5.739   5.475
  248TIP3    H1  701   1.109   5.778   5.519
  248TIP3    H2  702   0.958   5.773   5.524
  249TIP3   OH2  703   7.554   6.166   0.644
  249TIP3    H1  704   7.565   6.248   0.594
  249TIP3    H2  705   7.469   6.132   0.616
  250TIP3   OH2  706   4.235   5.236   1.232
  250TIP3    H1  707   4.250   5.141   1.235
  250TIP3    H2  708   4.140   5.245   1.221
  251TIP3   OH2  709   3.426   3.806   3.613
  251TIP3    H1  710   3.336   3.816   3.585
  251TIP3    H2  711   3.424   3.820   3.708
  252TIP3   OH2  712   7.869   0.710   0.489
  252TIP3    H1  713   7.862   0.771   0.416
  252TIP3    H2  714   7.835   0.758   0.565
  253TIP3   OH2  715   0.458   3.959   1.927
  253TIP3    H1  716   0.524   3.918   1.983
  253TIP3    H2  717   0.426   4.033   1.978
  254TIP3   OH2  718   2.778   5.413   2.074
  254TIP3    H1  719   2.756   5.463   2.152
  254TIP3    H2  720   2.825   5.475   2.018
  255TIP3   OH2  721   6.174   6.645   2.310
  255TIP3    H1  722   6.240   6.637   2.242
  255TIP3    H2  723   6.191   6.572   2.369
  256TIP3   OH2  724   7.768   4.676   6.783
  256TIP3    H1  725   7.751   4.695   6.690
  256TIP3    H2  726   7.681   4.669   6.822
  257TIP3   OH2  727   6.772   5.572   5.715
  257TIP3    H1  728   6.727   5.636   5.659
  257TIP3    H2  729   6.787   5.497   5.658
  258TIP3   OH2  730   0.903   6.551   4.213
  258TIP3    H1  731   0.932   6.642   4.213
  258TIP3    H2  732   0.951   6.511   4.140
  259TIP3   OH2  733   3.289   1.922   3.918
  259TIP3    H1  734   3.356   1.856   3.934
  259TIP3    H2  735   3.206   1.878   3.937
  260TIP3   OH2  736   6.333   4.215   4.966
  260TIP3    H1  737   6.266   4.214   4.898
  260TIP3    H2  738   6.295   4.265   5.038
  261TIP3   OH2  739   4.927   6.943   0.745
  261TIP3    H1  740   4.995   6.921   0.808
  261TIP3    H2  741   4.896   7.030   0.772
  262TIP3   OH2  742   6.107   6.647   1.445
  262TIP3    H1  743   6.092   6.741   1.435
  262TIP3    H2  744   6.090   6.629   1.537
  263TIP3   OH2  745   3.305   1.497   5.432
  263TIP3    H1  746   3.346   1.484   5.346
  263TIP3    H2  747   3.325   1.417   5.481
  264TIP3   OH2  748   5.671   0.458   4.048
  264TIP3    H1  749   5.598   0.436   4.106
  264TIP3    H2  750   5.730   0.508   4.103
  265TIP3   OH2  751   0.182   1.688   6.485
  265TIP3    H1  752   0.138   1.626   6.543
  265TIP3    H2  753   0.231   1.632   6.424
  266TIP3   OH2  754   0.164   0.608   6.049
  266TIP3    H1  755   0.182   0.631   5.958
  266TIP3    H2  756   0.069   0.617   6.058
  267TIP3   OH2  757   7.530   1.410   6.625
  267TIP3    H1  758   7.563   1.320   6.619
  267TIP3    H2  759   7.508   1.433   6.534
  268TIP3   OH2  760   5.600   2.881   2.138
  268TIP3    H1  761   5.611   2.814   2.206
  268TIP3    H2  762   5.675   2.868   2.080
  269TIP3   OH2  763   8.205   4.587   6.152
  269TIP3    H1  764   8.240   4.562   6.237
  269TIP3    H2  765   8.265   4.653   6.118
  270TIP3   OH2  766   2.350   6.230   2.222
  270TIP3    H1  767   2.411   6.234   2.149
  270TIP3    H2  768   2.403   6.251   2.299
  271TIP3   OH2  769   4.189   4.305   4.053
  271TIP3    H1  770   4.197   4.209   4.056
  271TIP3    H2  771   4.211   4.334   4.142
  272TIP3   OH2  772   4.401   6.443   6.520
  272TIP3    H1  773   4.468   6.431   6.587
  272TIP3    H2  774   4.329   6.486   6.565
  273TIP3   OH2  775   1.627   1.792   1.034
  273TIP3    H1  776   1.616   1.887   1.026
  273TIP3    H2  777   1.561   1.765   1.098
  274TIP3   OH2  778   0.377   5.390   0.863
  274TIP3    H1  779   0.287   5.372   0.836
  274TIP3    H2  780   0.418   5.304   0.868
  275TIP3   OH2  781   0.638   0.075   3.199
  275TIP3    H1  782   0.709   0.124   3.241
  275TIP3    H2  783   0.612   0.129   3.124
  276TIP3   OH2  784   3.143   3.025   0.102
  276TIP3    H1  785   3.106   3.008   0.189
  276TIP3    H2  786   3.068   3.048   0.047
  277TIP3   OH2  787   5.182   2.044   5.003
  277TIP3    H1  788   5.099   2.069   5.044
  277TIP3    H2  789   5.164   2.048   4.909
  278TIP3   OH2  790   7.093   5.721   0.955
  278TIP3    H1  791   7.042   5.721   1.035
  278TIP3    H2  792   7.176   5.680   0.979
  279TIP3   OH2  793   8.166   4.926   5.571
  279TIP3    H1  794   8.168   4.906   5.477
  279TIP3    H2  795   8.125   5.012   5.576
  280TIP3   OH2  796   0.223   1.835   2.013
  280TIP3    H1  797   0.256   1.761   2.064
  280TIP3    H2  798   0.153   1.872   2.066
  281TIP3   OH2  799   3.785   2.603   5.215
  281TIP3    H1  800   3.803   2.695   5.198
  281TIP3    H2  801   3.793   2.561   5.129
  282TIP3   OH2  802   0.653   2.153   2.317
  282TIP3    H1  803   0.728   2.206   2.291
  282TIP3    H2  804   0.644   2.169   2.411
  283TIP3   OH2  805   7.025   1.888   0.526
  283TIP3    H1  806   7.076   1.814   0.561
  283TIP3    H2  807   6.979   1.923   0.603
  284TIP3   OH2  808   0.131   1.041   5.064
  284TIP3    H1  809   0.121   0.947   5.080
  284TIP3    H2  810   0.214   1.048   5.016
  285TIP3   OH2  811   3.699   7.576   1.204
  285TIP3    H1  812   3.730   7.666   1.220
  285TIP3    H2  813   3.722   7.559   1.113
  286TIP3   OH2  814   0.460   3.090   2.536
  286TIP3    H1  815   0.457   2.994   2.530
  286TIP3    H2  816   0.535   3.107   2.593
  287TIP3   OH2  817   8.225   3.747   0.201
  287TIP3    H1  818   8.233   3.810   0.273
  287TIP3    H2  819   8.313   3.709   0.193
  288TIP3   OH2  820   5.526   2.716   3.956
  288TIP3    H1  821   5.431   2.728   3.946
  288TIP3    H2  822   5.553   2.674   3.874
  289TIP3   OH2  823   1.990   1.177   0.109
  289TIP3    H1  824   2.019   1.165   0.199
  289TIP3    H2  825   2.053   1.239   0.072
  290TIP3   OH2  826   7.368   7.180   1.625
  290TIP3    H1  827   7.458   7.207   1.606
  290TIP3    H2  828   7.376   7.112   1.691
  291TIP3   OH2  829   3.373   2.296   2.118
  291TIP3    H1  830   3.418   2.277   2.036
  291TIP3    H2  831   3.430   2.258   2.185
  292TIP3   OH2  832   6.792   3.559   4.581
  292TIP3    H1  833   6.824   3.576   4.669
  292TIP3    H2  834   6.752   3.472   4.586
  293TIP3   OH2  835   7.471   7.759   3.576
  293TIP3    H1  836   7.539   7.811   3.533
  293TIP3    H2  837   7.517   7.686   3.616
  294TIP3   OH2  838   3.123   6.791   2.350
  294TIP3    H1  839   3.119   6.767   2.258
  294TIP3    H2  840   3.161   6.715   2.393
  295TIP3   OH2  841   7.932   5.159   2.418
  295TIP3    H1  842   7.988   5.237   2.422
  295TIP3    H2  843   7.974   5.104   2.352
  296TIP3   OH2  844   0.126   1.885   5.327
  296TIP3    H1  845   0.179   1.871   5.248
  296TIP3    H2  846   0.123   1.980   5.338
  297TIP3   OH2  847   1.747   5.256   3.305
  297TIP3    H1  848   1.703   5.175   3.280
  297TIP3    H2  849   1.817   5.267   3.241
  298TIP3   OH2  850   3.252   7.458   6.450
  298TIP3    H1  851   3.218   7.530   6.504
  298TIP3    H2  852   3.317   7.499   6.393
  299TIP3   OH2  853   1.262   2.803   3.070
  299TIP3    H1  854   1.229   2.745   3.138
  299TIP3    H2  855   1.212   2.884   3.082
  300TIP3   OH2  856   0.727   2.375   6.193
  300TIP3    H1  857   0.662   2.329   6.247
  300TIP3    H2  858   0.725   2.329   6.109
  301TIP3   OH2  859   6.316   2.152   5.671
  301TIP3    H1  860   6.235   2.123   5.629
  301TIP3    H2  861   6.357   2.072   5.704
  302TIP3   OH2  862   7.913   2.255   4.978
  302TIP3    H1  863   7.916   2.344   4.942
  302TIP3    H2  864   7.937   2.199   4.905
  303TIP3   OH2  865   6.935   2.893   6.428
  303TIP3    H1  866   6.940   2.975   6.380
  303TIP3    H2  867   6.907   2.829   6.363
  304TIP3   OH2  868   5.279   3.793   5.220
  304TIP3    H1  869   5.224   3.804   5.298
  304TIP3    H2  870   5.302   3.883   5.195
  305TIP3   OH2  871   4.987   3.484   0.702
  305TIP3    H1  872   4.973   3.437   0.620
  305TIP3    H2  873   5.069   3.532   0.689
  306TIP3   OH2  874   6.127   7.441   2.298
  306TIP3    H1  875   6.067   7.373   2.268
  306TIP3    H2  876   6.125   7.508   2.230
  307TIP3   OH2  877   1.543   3.000   6.211
  307TIP3    H1  878   1.609   2.938   6.180
  307TIP3    H2  879   1.579   3.086   6.189
  308TIP3   OH2  880   7.067   4.746   2.452
  308TIP3    H1  881   7.076   4.794   2.534
  308TIP3    H2  882   7.139   4.683   2.453
  309TIP3   OH2  883   0.469   0.131   6.745
  309TIP3    H1  884   0.461   0.036   6.747
  309TIP3    H2  885   0.563   0.148   6.744
  310TIP3   OH2  886   3.099   4.635   5.356
  310TIP3    H1  887   3.058   4.707   5.309
  310TIP3    H2  888   3.191   4.658   5.360
  311TIP3   OH2  889   0.630   2.467   1.920
  311TIP3    H1  890   0.681   2.462   2.001
  311TIP3    H2  891   0.612   2.561   1.909
  312TIP3   OH2  892   1.680   5.120   1.972
  312TIP3    H1  893   1.751   5.139   1.910
  312TIP3    H2  894   1.722   5.121   2.058
  313TIP3   OH2  895   7.309   0.650   6.060
  313TIP3    H1  896   7.382   0.590   6.045
  313TIP3    H2  897   7.250   0.602   6.119
  314TIP3   OH2  898   1.491   1.095   1.082
  314TIP3    H1  899   1.448   1.091   1.167
  314TIP3    H2  900   1.453   1.023   1.032
  315TIP3   OH2  901   1.246   2.741   5.323
  315TIP3    H1  902   1.186   2.667   5.314
  315TIP3    H2  903   1.283   2.731   5.411
  316TIP3   OH2  904   5.750   2.782   5.213
  316TIP3    H1  905   5.845   2.791   5.205
  316TIP3    H2  906   5.715   2.859   5.168
  317TIP3   OH2  907   3.257   3.187   5.905
  317TIP3    H1  908   3.216   3.272   5.923
  317TIP3    H2  909   3.281   3.192   5.812
  318TIP3   OH2  910   1.711   4.819   3.533
  318TIP3    H1  911   1.717   4.863   3.448
  318TIP3    H2  912   1.626   4.847   3.569
  319TIP3   OH2  913   4.661   2.511   3.929
  319TIP3    H1  914   4.570   2.513   3.960
  319TIP3    H2  915   4.701   2.589   3.968
  320TIP3   OH2  916   0.407   0.220   0.556
  320TIP3    H1  917   0.462   0.190   0.484
  320TIP3    H2  918   0.444   0.178   0.634
  321TIP3   OH2  919   5.746   0.610   4.310
  321TIP3    H1  920   5.835   0.642   4.329
  321TIP3    H2  921   5.691   0.687   4.324
  322TIP3   OH2  922   7.820   5.869   2.745
  322TIP3    H1  923   7.843   5.928   2.817
  322TIP3    H2  924   7.884   5.888   2.677
  323TIP3   OH2  925   2.605   5.845   6.276
  323TIP3    H1  926   2.558   5.805   6.203
  323TIP3    H2  927   2.637   5.770   6.327
  324TIP3   OH2  928   2.570   4.715   1.816
  324TIP3    H1  929   2.597   4.737   1.726
  324TIP3    H2  930   2.606   4.628   1.831
  325TIP3   OH2  931   3.625   3.704   2.033
  325TIP3    H1  932   3.714   3.730   2.058
  325TIP3    H2  933   3.606   3.757   1.955
  326TIP3   OH2  934   1.754   2.876   4.790
  326TIP3    H1  935   1.712   2.957   4.817
  326TIP3    H2  936   1.749   2.819   4.866
  327TIP3   OH2  937   7.437   3.351   4.085
  327TIP3    H1  938   7.417   3.400   4.006
  327TIP3    H2  939   7.446   3.418   4.153
  328TIP3   OH2  940   1.662   0.360   0.541
  328TIP3    H1  941   1.628   0.271   0.545
  328TIP3    H2  942   1.741   0.358   0.595
  329TIP3   OH2  943   3.052   0.238   5.077
  329TIP3    H1  944   3.073   0.163   5.021
  329TIP3    H2  945   2.958   0.228   5.096
  330TIP3   OH2  946   3.996   7.494   3.672
  330TIP3    H1  947   3.915   7.505   3.622
  330TIP3    H2  948   4.060   7.550   3.627
  331TIP3   OH2  949   5.402   6.857   6.212
  331TIP3    H1  950   5.398   6.951   6.200
  331TIP3    H2  951   5.366   6.842   6.299
  332TIP3   OH2  952   0.017   4.770   0.176
  332TIP3    H1  953  -0.046   4.701   0.156
  332TIP3    H2  954   0.037   4.809   0.091
  333TIP3   OH2  955   0.071   0.429   1.126
  333TIP3    H1  956  -0.018   0.464   1.133
  333TIP3    H2  957   0.068   0.372   1.049
  334TIP3   OH2  958   5.818   1.380   3.805
  334TIP3    H1  959   5.821   1.466   3.765
  334TIP3    H2  960   5.860   1.392   3.891
  335TIP3   OH2  961   0.424   2.784   6.404
  335TIP3    H1  962   0.406   2.842   6.478
  335TIP3    H2  963   0.340   2.775   6.359
  336TIP3   OH2  964   6.444   1.819   3.790
  336TIP3    H1  965   6.423   1.858   3.874
  336TIP3    H2  966   6.423   1.887   3.726
  337TIP3   OH2  967   3.280   2.391   1.377
  337TIP3    H1  968   3.339   2.372   1.304
  337TIP3    H2  969   3.197   2.352   1.350
  338TIP3   OH2  970   8.154   6.636   3.206
  338TIP3    H1  971   8.136   6.657   3.115
  338TIP3    H2  972   8.197   6.715   3.240
  339TIP3   OH2  973   0.122   5.256   1.698
  339TIP3    H1  974   0.114   5.165   1.669
  339TIP3    H2  975   0.198   5.290   1.651
  340TIP3   OH2  976   1.860   3.002   3.870
  340TIP3    H1  977   1.780   2.998   3.922
  340TIP3    H2  978   1.853   2.929   3.809
  341TIP3   OH2  979   3.637   0.128   5.180
  341TIP3    H1  980   3.633   0.116   5.275
  341TIP3    H2  981   3.606   0.217   5.166
  342TIP3   OH2  982   0.600   4.598   1.826
  342TIP3    H1  983   0.523   4.655   1.830
  342TIP3    H2  984   0.613   4.583   1.732
  343TIP3   OH2  985   6.883   3.567   5.103
  343TIP3    H1  986   6.952   3.522   5.056
  343TIP3    H2  987   6.805   3.554   5.050
  344TIP3   OH2  988   7.795   6.136   4.173
  344TIP3    H1  989   7.736   6.185   4.116
  344TIP3    H2  990   7.863   6.103   4.115
  345TIP3   OH2  991   4.738   7.004   4.888
  345TIP3    H1  992   4.753   7.044   4.802
  345TIP3    H2  993   4.689   7.070   4.936
  346TIP3   OH2  994   0.976   3.080   2.572
  346TIP3    H1  995   0.973   3.046   2.662
  346TIP3    H2  996   1.002   3.004   2.519
  347TIP3   OH2  997   0.090   7.495   3.788
  347TIP3    H1  998   0.002   7.515   3.755
  347TIP3    H2  999   0.130   7.440   3.720
  348TIP3   OH2 1000   1.390   6.208   0.523
  348TIP3    H1 1001   1.352   6.152   0.455
  348TIP3    H2 1002   1.392   6.152   0.601
  349TIP3   OH2 1003   5.661   2.157   4.141
  349TIP3    H1 1004   5.734   2.095   4.138
  349TIP3    H2 1005   5.649   2.183   4.049
  350TIP3   OH2 1006   1.556   4.949   5.141
  350TIP3    H1 1007   1.531   5.037   5.113
  350TIP3    H2 1008   1.561   4.955   5.237
  351TIP3   OH2 1009   7.315   6.352   4.588
  351TIP3    H1 1010   7.234   6.303   4.604
  351TIP3    H2 1011   7.313   6.424   4.651
  352TIP3   OH2 1012   7.966   4.848   0.991
  352TIP3    H1 1013   7.958   4.906   1.067
  352TIP3    H2 1014   7.914   4.891   0.923
  353TIP3   OH2 1015   6.370   6.021   4.637
  353TIP3    H1 1016   6.443   6.076   4.610
  353TIP3    H2 1017   6.296   6.081   4.644
  354TIP3   OH2 1018   4.415   1.407   3.596
  354TIP3    H1 1019   4.364   1.331   3.623
  354TIP3    H2 1020   4.493   1.406   3.652
  355TIP3   OH2 1021   0.649   3.539   5.109
  355TIP3    H1 1022   0.704   3.561   5.034
  355TIP3    H2 1023   0.590   3.614   5.119
  356TIP3   OH2 1024   0.176   0.321   4.208
  356TIP3    H1 1025   0.174   0.373   4.288
  356TIP3    H2 1026   0.165   0.384   4.137
  357TIP3   OH2 1027   1.913   7.739   5.535
  357TIP3    H1 1028   1.841   7.801   5.524
  357TIP3    H2 1029   1.953   7.763   5.619
  358TIP3   OH2 1030   5.336   2.459   2.961
  358TIP3    H1 1031   5.302   2.523   3.024
  358TIP3    H2 1032   5.378   2.512   2.893
  359TIP3   OH2 1033   3.912   4.812   2.814
  359TIP3    H1 1034   3.901   4.717   2.819
  359TIP3    H2 1035   3.993   4.829   2.860
  360TIP3   OH2 1036   0.181   5.949   4.494
  360TIP3    H1 1037   0.231   5.902   4.561
  360TIP3    H2 1038   0.100   5.976   4.537
  361TIP3   OH2 1039  -0.029   2.778   5.249
  361TIP3    H1 1040   0.064   2.785   5.270
  361TIP3    H2 1041  -0.030   2.741   5.160
  362TIP3   OH2 1042   3.445   2.430   4.068
  362TIP3    H1 1043   3.372   2.460   4.123
  362TIP3    H2 1044   3.421   2.341   4.043
  363TIP3   OH2 1045   4.861   2.766   1.882
  363TIP3    H1 1046   4.920   2.691   1.888
  363TIP3    H2 1047   4.898   2.821   1.813
  364TIP3   OH2 1048   0.679   3.954   0.572
  364TIP3    H1 1049   0.683   3.983   0.481
  364TIP3    H2 1050   0.743   3.883   0.578
  365TIP3   OH2 1051   5.852   6.500   1.440
  365TIP3    H1 1052   5.826   6.579   1.487
  365TIP3    H2 1053   5.925   6.529   1.384
  366TIP3   OH2 1054   6.824   3.898   5.126
  366TIP3    H1 1055   6.837   3.963   5.057
  366TIP3    H2 1056   6.870   3.933   5.202
  367TIP3   OH2 1057   7.595   2.297   0.077
  367TIP3    H1 1058   7.587   2.390   0.054
  367TIP3    H2 1059   7.674   2.293   0.132
  368TIP3   OH2 1060   5.528   3.646   2.303
  368TIP3    H1 1061   5.587   3.571   2.313
  368TIP3    H2 1062   5.578   3.721   2.335
  369TIP3   OH2 1063   8.072   0.272   0.578
  369TIP3    H1 1064   8.151   0.319   0.551
  369TIP3    H2 1065   8.000   0.327   0.547
  370TIP3   OH2 1066   7.257   7.174   0.629
  370TIP3    H1 1067   7.267   7.242   0.563
  370TIP3    H2 1068   7.196   7.210   0.692
  371TIP3   OH2 1069   2.947   4.391   2.480
  371TIP3    H1 1070   2.863   4.368   2.519
  371TIP3    H2 1071   2.931   4.389   2.386
  372TIP3   OH2 1072   5.420   7.370   4.005
  372TIP3    H1 1073   5.454   7.368   3.916
  372TIP3    H2 1074   5.327   7.392   3.995
  373TIP3   OH2 1075   1.361   3.535   2.563
  373TIP3    H1 1076   1.303   3.476   2.514
  373TIP3    H2 1077   1.319   3.621   2.557
  374TIP3   OH2 1078   3.418   1.011   4.824
  374TIP3    H1 1079   3.361   1.079   4.861
  374TIP3    H2 1080   3.433   0.951   4.897
  375TIP3   OH2 1081   0.928   5.962   2.091
  375TIP3    H1 1082   0.867   6.025   2.131
  375TIP3    H2 1083   1.010   6.010   2.083
  376TIP3   OH2 1084   7.253   0.294   0.198
  376TIP3    H1 1085   7.325   0.292   0.261
  376TIP3    H2 1086   7.262   0.212   0.149
  377TIP3   OH2 1087   7.326   1.128   2.698
  377TIP3    H1 1088   7.261   1.189   2.734
  377TIP3    H2 1089   7.407   1.179   2.698
  378TIP3   OH2 1090   1.332   0.174   6.714
  378TIP3    H1 1091   1.351   0.266   6.701
  378TIP3    H2 1092   1.306   0.141   6.628
  379TIP3   OH2 1093   6.913   4.750   3.769
  379TIP3    H1 1094   6.939   4.801   3.692
  379TIP3    H2 1095   6.904   4.815   3.839
  380TIP3   OH2 1096   3.556   2.637   3.902
  380TIP3    H1 1097   3.580   2.544   3.908
  380TIP3    H2 1098   3.461   2.636   3.886
  381TIP3   OH2 1099   2.600   2.407   4.944
  381TIP3    H1 1100   2.543   2.484   4.953
  381TIP3    H2 1101   2.540   2.333   4.936
  382TIP3   OH2 1102   5.783   3.768   6.652
  382TIP3    H1 1103   5.745   3.723   6.576
  382TIP3    H2 1104   5.804   3.855   6.620
  383TIP3   OH2 1105   6.748   0.868   3.785
  383TIP3    H1 1106   6.694   0.942   3.755
  383TIP3    H2 1107   6.810   0.907   3.845
  384TIP3   OH2 1108   4.242   4.759   3.932
  384TIP3    H1 1109   4.250   4.791   3.843
  384TIP3    H2 1110   4.155   4.719   3.936
  385TIP3   OH2 1111   7.096   4.908   2.659
  385TIP3    H1 1112   7.192   4.907   2.667
  385TIP3    H2 1113   7.066   4.853   2.732
  386TIP3   OH2 1114   8.255   6.810   3.452
  386TIP3    H1 1115   8.163   6.795   3.474
  386TIP3    H2 1116   8.257   6.900   3.419
  387TIP3   OH2 1117   2.907   6.522   5.709
  387TIP3    H1 1118   2.899   6.436   5.751
  387TIP3    H2 1119   2.975   6.567   5.758
  388TIP3   OH2 1120   0.879   7.196   3.489
  388TIP3    H1 1121   0.860   7.178   3.581
  388TIP3    H2 1122   0.972   7.172   3.479
  389TIP3   OH2 1123   7.955   2.138   3.207
  389TIP3    H1 1124   7.863   2.152   3.230
  389TIP3    H2 1125   7.982   2.063   3.259
  390TIP3   OH2 1126   6.733   5.003   2.413
  390TIP3    H1 1127   6.652   5.046   2.387
  390TIP3    H2 1128   6.720   4.981   2.505
  391TIP3   OH2 1129   3.054   4.093   1.474
  391TIP3    H1 1130   2.996   4.166   1.497
  391TIP3    H2 1131   3.124   4.133   1.422
  392TIP3   OH2 1132   2.090   7.315   3.378
  392TIP3    H1 1133   2.155   7.349   3.316
  392TIP3    H2 1134   2.140   7.259   3.437
  393TIP3   OH2 1135   1.950   5.047   4.905
  393TIP3    H1 1136   1.968   5.036   4.999
  393TIP3    H2 1137   2.036   5.049   4.864
  394TIP3   OH2 1138   7.116   3.729   5.167
  394TIP3    H1 1139   7.131   3.635   5.178
  394TIP3    H2 1140   7.031   3.734   5.124
  395TIP3   OH2 1141   7.489   0.757   4.306
  395TIP3    H1 1142   7.533   0.702   4.240
  395TIP3    H2 1143   7.558   0.813   4.340
  396TIP3   OH2 1144   5.169   2.430   0.506
  396TIP3    H1 1145   5.212   2.345   0.515
  396TIP3    H2 1146   5.226   2.490   0.554
  397TIP3   OH2 1147   0.392   4.017   0.091
  397TIP3    H1 1148   0.300   3.991   0.095
  397TIP3    H2 1149   0.393   4.109   0.115
  398TIP3   OH2 1150   4.054   3.368   2.030
  398TIP3    H1 1151   3.969   3.385   1.991
  398TIP3    H2 1152   4.098   3.309   1.969
  399TIP3   OH2 1153   1.961   3.433   1.168
  399TIP3    H1 1154   1.886   3.493   1.160
  399TIP3    H2 1155   2.001   3.458   1.252
  400TIP3   OH2 1156   3.841   0.674   0.671
  400TIP3    H1 1157   3.908   0.668   0.602
  400TIP3    H2 1158   3.871   0.745   0.727
  401TIP3   OH2 1159   4.611   1.402   1.844
  401TIP3    H1 1160   4.614   1.476   1.783
  401TIP3    H2 1161   4.656   1.434   1.922
  402TIP3   OH2 1162   0.115   1.513   5.342
  402TIP3    H1 1163   0.199   1.498   5.385
  402TIP3    H2 1164   0.091   1.603   5.368
  403TIP3   OH2 1165   3.785   1.882   3.082
  403TIP3    H1 1166   3.801   1.948   3.149
  403TIP3    H2 1167   3.745   1.809   3.130
  404TIP3   OH2 1168   5.459   0.698   4.942
  404TIP3    H1 1169   5.496   0.774   4.987
  404TIP3    H2 1170   5.444   0.727   4.852
  405TIP3   OH2 1171   6.075   0.457   5.841
  405TIP3    H1 1172   6.088   0.477   5.749
  405TIP3    H2 1173   6.111   0.532   5.888
  406TIP3   OH2 1174   1.735   6.588   0.364
  406TIP3    H1 1175   1.822   6.610   0.330
  406TIP3    H2 1176   1.675   6.608   0.292
  407TIP3   OH2 1177   1.752   7.163   1.027
  407TIP3    H1 1178   1.669   7.201   0.997
  407TIP3    H2 1179   1.771   7.095   0.963
  408TIP3   OH2 1180   6.791   7.628   5.086
  408TIP3    H1 1181   6.853   7.694   5.053
  408TIP3    H2 1182   6.832   7.544   5.064
  409TIP3   OH2 1183   0.509   5.990   5.484
  409TIP3    H1 1184   0.530   6.005   5.576
  409TIP3    H2 1185   0.433   6.046   5.467
  410TIP3   OH2 1186   3.371   6.598   0.088
  410TIP3    H1 1187   3.429   6.598   0.011
  410TIP3    H2 1188   3.403   6.670   0.142
  411TIP3   OH2 1189   6.971   5.618   5.390
  411TIP3    H1 1190   6.959   5.526   5.412
  411TIP3    H2 1191   6.882   5.653   5.380
  412TIP3   OH2 1192   1.621   6.633   1.097
  412TIP3    H1 1193   1.588   6.706   1.046
  412TIP3    H2 1194   1.543   6.592   1.135
  413TIP3   OH2 1195   3.587   4.283   6.344
  413TIP3    H1 1196   3.657   4.291   6.280
  413TIP3    H2 1197   3.525   4.222   6.305
  414TIP3   OH2 1198   3.846   5.170   4.450
  414TIP3    H1 1199   3.807   5.255   4.429
  414TIP3    H2 1200   3.822   5.114   4.376
  415TIP3   OH2 1201   1.921   5.585   2.010
  415TIP3    H1 1202   1.967   5.666   2.030
  415TIP3    H2 1203   1.962   5.553   1.930
  416TIP3   OH2 1204   2.249   0.689   4.407
  416TIP3    H1 1205   2.251   0.597   4.434
  416TIP3    H2 1206   2.298   0.691   4.325
  417TIP3   OH2 1207   2.313   5.778   0.735
  417TIP3    H1 1208   2.280   5.688   0.740
  417TIP3    H2 1209   2.280   5.812   0.652
  418TIP3   OH2 1210   4.499   0.061   3.467
  418TIP3    H1 1211   4.527   0.042   3.377
  418TIP3    H2 1212   4.411   0.025   3.473
  419TIP3   OH2 1213   4.244   3.296   4.133
  419TIP3    H1 1214   4.298   3.361   4.177
  419TIP3    H2 1215   4.165   3.290   4.186
  420TIP3   OH2 1216   8.285   5.725   3.089
  420TIP3    H1 1217   8.259   5.639   3.120
  420TIP3    H2 1218   8.218   5.784   3.122
  421TIP3   OH2 1219  -0.026   5.586   2.404
  421TIP3    H1 1220  -0.037   5.557   2.494
  421TIP3    H2 1221   0.069   5.582   2.389
  422TIP3   OH2 1222   1.119   2.718   6.748
  422TIP3    H1 1223   1.100   2.633   6.709
  422TIP3    H2 1224   1.062   2.779   6.700
  423TIP3   OH2 1225   0.203   4.043   5.774
  423TIP3    H1 1226   0.199   3.949   5.795
  423TIP3    H2 1227   0.156   4.086   5.846
  424TIP3   OH2 1228   5.461   3.028   0.749
  424TIP3    H1 1229   5.536   2.985   0.706
  424TIP3    H2 1230   5.493   3.050   0.836
  425TIP3   OH2 1231   1.648   4.572   2.717
  425TIP3    H1 1232   1.625   4.575   2.810
  425TIP3    H2 1233   1.722   4.632   2.708
  426TIP3   OH2 1234   2.169   5.207   0.662
  426TIP3    H1 1235   2.243   5.231   0.717
  426TIP3    H2 1236   2.209   5.174   0.581
  427TIP3   OH2 1237   1.359   3.813   3.612
  427TIP3    H1 1238   1.306   3.834   3.536
  427TIP3    H2 1239   1.372   3.718   3.607
  428TIP3   OH2 1240   2.085   6.315   2.955
  428TIP3    H1 1241   2.049   6.306   3.043
  428TIP3    H2 1242   2.011   6.295   2.897
  429TIP3   OH2 1243   8.163   3.148   1.215
  429TIP3    H1 1244   8.102   3.075   1.210
  429TIP3    H2 1245   8.134   3.198   1.291
  430TIP3   OH2 1246   1.668   1.176   6.458
  430TIP3    H1 1247   1.758   1.171   6.489
  430TIP3    H2 1248   1.663   1.115   6.385
  431TIP3   OH2 1249   0.774   1.401   0.374
  431TIP3    H1 1250   0.868   1.417   0.359
  431TIP3    H2 1251   0.741   1.484   0.406
  432TIP3   OH2 1252   4.771   0.331   6.387
  432TIP3    H1 1253   4.758   0.257   6.446
  432TIP3    H2 1254   4.684   0.348   6.350
  433TIP3   OH2 1255   3.991   1.120   6.240
  433TIP3    H1 1256   3.999   1.105   6.334
  433TIP3    H2 1257   4.060   1.066   6.201
  434TIP3   OH2 1258   1.852   4.102   4.019
  434TIP3    H1 1259   1.789   4.048   4.067
  434TIP3    H2 1260   1.833   4.192   4.046
  435TIP3   OH2 1261   3.390   1.339   1.496
  435TIP3    H1 1262   3.421   1.263   1.447
  435TIP3    H2 1263   3.470   1.381   1.527
  436TIP3   OH2 1264   0.991   2.489   1.081
  436TIP3    H1 1265   1.071   2.452   1.119
  436TIP3    H2 1266   0.920   2.450   1.132
  437TIP3   OH2 1267   5.820   7.578   2.473
  437TIP3    H1 1268   5.901   7.566   2.523
  437TIP3    H2 1269   5.796   7.669   2.488
  438TIP3   OH2 1270   1.338   3.537   5.599
  438TIP3    H1 1271   1.428   3.532   5.633
  438TIP3    H2 1272   1.285   3.562   5.675
  439TIP3   OH2 1273   3.425   1.747   0.878
  439TIP3    H1 1274   3.366   1.781   0.811
  439TIP3    H2 1275   3.437   1.820   0.938
  440TIP3   OH2 1276   8.011   3.299   0.896
  440TIP3    H1 1277   8.042   3.385   0.867
  440TIP3    H2 1278   8.060   3.237   0.842
  441TIP3   OH2 1279   7.479   2.897   6.023
  441TIP3    H1 1280   7.414   2.958   5.988
  441TIP3    H2 1281   7.445   2.872   6.109
  442TIP3   OH2 1282   0.161   4.869   5.689
  442TIP3    H1 1283   0.066   4.861   5.678
  442TIP3    H2 1284   0.175   4.962   5.705
  443TIP3   OH2 1285   2.339   3.507   1.977
  443TIP3    H1 1286   2.380   3.422   1.998
  443TIP3    H2 1287   2.273   3.518   2.045
  444TIP3   OH2 1288   3.039   6.795   6.376
  444TIP3    H1 1289   2.964   6.855   6.376
  444TIP3    H2 1290   3.002   6.710   6.402
  445TIP3   OH2 1291   5.782   6.827   2.005
  445TIP3    H1 1292   5.836   6.844   2.082
  445TIP3    H2 1293   5.766   6.733   2.007
  446TIP3   OH2 1294   4.741   5.487   4.651
  446TIP3    H1 1295   4.701   5.441   4.725
  446TIP3    H2 1296   4.805   5.545   4.691
  447TIP3   OH2 1297   7.714   2.380   4.180
  447TIP3    H1 1298   7.742   2.327   4.254
  447TIP3    H2 1299   7.712   2.320   4.105
  448TIP3   OH2 1300   0.624   6.221   1.610
  448TIP3    H1 1301   0.565   6.276   1.558
  448TIP3    H2 1302   0.674   6.171   1.546
  449TIP3   OH2 1303   2.346   4.984   6.538
  449TIP3    H1 1304   2.368   4.926   6.611
  449TIP3    H2 1305   2.318   5.065   6.580
  450TIP3   OH2 1306   7.629   1.643   4.115
  450TIP3    H1 1307   7.681   1.617   4.039
  450TIP3    H2 1308   7.569   1.710   4.082
  451TIP3   OH2 1309   1.827   5.860   3.925
  451TIP3    H1 1310   1.801   5.862   4.017
  451TIP3    H2 1311   1.765   5.801   3.883
  452TIP3   OH2 1312   7.554   3.335   2.419
  452TIP3    H1 1313   7.621   3.297   2.362
  452TIP3    H2 1314   7.529   3.416   2.374
  453TIP3   OH2 1315   6.928   7.056   3.015
  453TIP3    H1 1316   7.020   7.053   2.990
  453TIP3    H2 1317   6.922   7.128   3.078
  454TIP3   OH2 1318   0.764   5.090   3.379
  454TIP3    H1 1319   0.712   5.110   3.300
  454TIP3    H2 1320   0.712   5.126   3.451
  455TIP3   OH2 1321   5.334   3.652   1.787
  455TIP3    H1 1322   5.389   3.593   1.838
  455TIP3    H2 1323   5.375   3.738   1.796
  456TIP3   OH2 1324   0.321   3.748   1.819
  456TIP3    H1 1325   0.260   3.716   1.886
  456TIP3    H2 1326   0.354   3.830   1.855
  457TIP3   OH2 1327   6.281   6.848   4.931
  457TIP3    H1 1328   6.190   6.817   4.938
  457TIP3    H2 1329   6.299   6.889   5.015
  458TIP3   OH2 1330   4.988   2.888   3.304
  458TIP3    H1 1331   4.987   2.978   3.272
  458TIP3    H2 1332   4.896   2.861   3.303
  459TIP3   OH2 1333   2.005   0.766   4.796
  459TIP3    H1 1334   2.090   0.732   4.821
  459TIP3    H2 1335   2.024   0.838   4.736
  460TIP3   OH2 1336   1.015   4.807   5.840
  460TIP3    H1 1337   0.937   4.861   5.856
  460TIP3    H2 1338   0.982   4.731   5.793
  461TIP3   OH2 1339   7.488   0.605   2.906
  461TIP3    H1 1340   7.542   0.529   2.926
  461TIP3    H2 1341   7.434   0.578   2.832
  462TIP3   OH2 1342   4.339   2.609   4.290
  462TIP3    H1 1343   4.331   2.555   4.369
  462TIP3    H2 1344   4.259   2.662   4.290
  463TIP3   OH2 1345   6.367   6.337   6.151
  463TIP3    H1 1346   6.315   6.325   6.071
  463TIP3    H2 1347   6.303   6.328   6.222
  464TIP3   OH2 1348   1.003   7.336   5.644
  464TIP3    H1 1349   1.022   7.329   5.550
  464TIP3    H2 1350   1.003   7.245   5.675
  465TIP3   OH2 1351   7.221   0.796   5.835
  465TIP3    H1 1352   7.158   0.731   5.803
  465TIP3    H2 1353   7.255   0.759   5.917
  466TIP3   OH2 1354   2.323   7.704   6.507
  466TIP3    H1 1355   2.317   7.799   6.500
  466TIP3    H2 1356   2.238   7.672   6.477
  467TIP3   OH2 1357   1.066   0.630   2.859
  467TIP3    H1 1358   1.082   0.682   2.781
  467TIP3    H2 1359   1.141   0.572   2.866
  468TIP3   OH2 1360   0.937   3.578   2.458
  468TIP3    H1 1361   0.883   3.589   2.380
  468TIP3    H2 1362   0.902   3.500   2.501
  469TIP3   OH2 1363   3.166   7.091   0.801
  469TIP3    H1 1364   3.233   7.105   0.868
  469TIP3    H2 1365   3.169   7.170   0.747
  470TIP3   OH2 1366   4.320   4.223   0.812
  470TIP3    H1 1367   4.231   4.210   0.844
  470TIP3    H2 1368   4.373   4.231   0.891
  471TIP3   OH2 1369   4.012   7.227   6.373
  471TIP3    H1 1370   3.956   7.245   6.297
  471TIP3    H2 1371   3.962   7.260   6.447
  472TIP3   OH2 1372   4.333   0.969   4.100
  472TIP3    H1 1373   4.347   0.876   4.085
  472TIP3    H2 1374   4.270   0.995   4.034
  473TIP3   OH2 1375   5.926   4.771   3.605
  473TIP3    H1 1376   5.883   4.767   3.520
  473TIP3    H2 1377   6.015   4.741   3.588
  474TIP3   OH2 1378   3.887   4.921   5.543
  474TIP3    H1 1379   3.801   4.951   5.514
  474TIP3    H2 1380   3.898   4.959   5.630
  475TIP3   OH2 1381   8.184   7.148   4.215
  475TIP3    H1 1382   8.210   7.199   4.292
  475TIP3    H2 1383   8.103   7.105   4.240
  476TIP3   OH2 1384   8.226   3.749   5.439
  476TIP3    H1 1385   8.293   3.703   5.489
  476TIP3    H2 1386   8.174   3.796   5.504
  477TIP3   OH2 1387   3.505   1.096   6.228
  477TIP3    H1 1388   3.573   1.031   6.214
  477TIP3    H2 1389   3.443   1.054   6.289
  478TIP3   OH2 1390   3.631   7.352   2.571
  478TIP3    H1 1391   3.592   7.274   2.612
  478TIP3    H2 1392   3.691   7.317   2.506
  479TIP3   OH2 1393   1.076   3.628   3.434
  479TIP3    H1 1394   1.139   3.564   3.399
  479TIP3    H2 1395   0.993   3.582   3.435
  480TIP3   OH2 1396   1.777   2.401   1.722
  480TIP3    H1 1397   1.864   2.434   1.700
  480TIP3    H2 1398   1.786   2.363   1.809
  481TIP3   OH2 1399   6.283   3.547   0.948
  481TIP3    H1 1400   6.309   3.506   1.031
  481TIP3    H2 1401   6.193   3.576   0.963
  482TIP3   OH2 1402   3.513   1.411   1.888
  482TIP3    H1 1403   3.536   1.334   1.940
  482TIP3    H2 1404   3.426   1.392   1.853
  483TIP3   OH2 1405   4.007   6.770   1.287
  483TIP3    H1 1406   3.921   6.781   1.327
  483TIP3    H2 1407   4.033   6.681   1.311
  484TIP3   OH2 1408   7.334   2.472   6.457
  484TIP3    H1 1409   7.313   2.380   6.471
  484TIP3    H2 1410   7.310   2.489   6.366
  485TIP3   OH2 1411   2.296   7.555   5.963
  485TIP3    H1 1412   2.340   7.470   5.966
  485TIP3    H2 1413   2.341   7.608   6.029
  486TIP3   OH2 1414   7.800   0.229   2.659
  486TIP3    H1 1415   7.724   0.225   2.601
  486TIP3    H2 1416   7.841   0.314   2.640
  487TIP3   OH2 1417   5.182   1.308   6.180
  487TIP3    H1 1418   5.126   1.232   6.198
  487TIP3    H2 1419   5.247   1.306   6.250
  488TIP3   OH2 1420   4.919   1.118   2.057
  488TIP3    H1 1421   4.989   1.168   2.099
  488TIP3    H2 1422   4.944   1.115   1.965
  489TIP3   OH2 1423   4.925   2.913   5.530
  489TIP3    H1 1424   4.862   2.937   5.463
  489TIP3    H2 1425   4.887   2.836   5.572
  490TIP3   OH2 1426   5.290   4.396   6.688
  490TIP3    H1 1427   5.344   4.322   6.714
  490TIP3    H2 1428   5.352   4.460   6.653
  491TIP3   OH2 1429   7.946   7.382   2.222
  491TIP3    H1 1430   8.023   7.436   2.202
  491TIP3    H2 1431   7.970   7.294   2.193
  492TIP3   OH2 1432   7.237   1.371   1.627
  492TIP3    H1 1433   7.289   1.427   1.570
  492TIP3    H2 1434   7.167   1.428   1.659
  493TIP3   OH2 1435   2.133   4.929   1.715
  493TIP3    H1 1436   2.169   4.881   1.790
  493TIP3    H2 1437   2.108   4.860   1.654
  494TIP3   OH2 1438   2.535   7.066   6.548
  494TIP3    H1 1439   2.596   7.003   6.510
  494TIP3    H2 1440   2.520   7.130   6.479
  495TIP3   OH2 1441   2.479   0.711   0.032
  495TIP3    H1 1442   2.410   0.765  -0.006
  495TIP3    H2 1443   2.464   0.624  -0.004
  496TIP3   OH2 1444   1.453   3.927   5.984
  496TIP3    H1 1445   1.457   3.861   6.053
  496TIP3    H2 1446   1.543   3.960   5.978
  497TIP3   OH2 1447   5.420   1.526   2.681
  497TIP3    H1 1448   5.428   1.501   2.589
  497TIP3    H2 1449   5.448   1.448   2.729
  498TIP3   OH2 1450   6.480   0.298   2.945
  498TIP3    H1 1451   6.471   0.382   2.899
  498TIP3    H2 1452   6.507   0.321   3.034
  499TIP3   OH2 1453   5.471   6.004   6.088
  499TIP3    H1 1454   5.559   6.039   6.099
  499TIP3    H2 1455   5.458   6.001   5.993
  500TIP3   OH2 1456   0.236   3.293   4.021
  500TIP3    H1 1457   0.227   3.247   4.104
  500TIP3    H2 1458   0.187   3.374   4.032
  501TIP3   OH2 1459   5.903   0.440   2.285
  501TIP3    H1 1460   5.981   0.493   2.272
  501TIP3    H2 1461   5.833   0.489   2.242
  502TIP3   OH2 1462   0.095   7.722   3.976
  502TIP3    H1 1463   0.096   7.689   4.066
  502TIP3    H2 1464   0.087   7.643   3.922
  503TIP3   OH2 1465   7.602   0.986   2.876
  503TIP3    H1 1466   7.608   1.039   2.797
  503TIP3    H2 1467   7.692   0.984   2.911
  504TIP3   OH2 1468   5.881   3.886   1.509
  504TIP3    H1 1469   5.850   3.802   1.540
  504TIP3    H2 1470   5.802   3.936   1.490
  505TIP3   OH2 1471   3.632   4.875   0.172
  505TIP3    H1 1472   3.591   4.795   0.206
  505TIP3    H2 1473   3.581   4.946   0.211
  506TIP3   OH2 1474   6.509   2.138   1.583
  506TIP3    H1 1475   6.489   2.230   1.570
  506TIP3    H2 1476   6.595   2.137   1.626
  507TIP3   OH2 1477   3.004   2.296   0.412
  507TIP3    H1 1478   2.939   2.278   0.480
  507TIP3    H2 1479   2.952   2.326   0.337
  508TIP3   OH2 1480   2.711   0.943   4.964
  508TIP3    H1 1481   2.792   0.902   4.935
  508TIP3    H2 1482   2.736   1.033   4.984
  509TIP3   OH2 1483   6.561   7.351   5.065
  509TIP3    H1 1484   6.467   7.343   5.052
  509TIP3    H2 1485   6.599   7.318   4.983
  510TIP3   OH2 1486   4.480   7.093   1.773
  510TIP3    H1 1487   4.437   7.083   1.688
  510TIP3    H2 1488   4.566   7.051   1.761
  511TIP3   OH2 1489   6.388   6.865   3.241
  511TIP3    H1 1490   6.325   6.902   3.302
  511TIP3    H2 1491   6.404   6.934   3.177
  512TIP3   OH2 1492   3.018   0.559   1.588
  512TIP3    H1 1493   3.083   0.585   1.654
  512TIP3    H2 1494   3.064   0.497   1.532
  513TIP3   OH2 1495   5.670   3.362   1.437
  513TIP3    H1 1496   5.644   3.453   1.426
  513TIP3    H2 1497   5.631   3.316   1.362
  514TIP3   OH2 1498   2.276   1.581   1.043
  514TIP3    H1 1499   2.367   1.574   1.014
  514TIP3    H2 1500   2.277   1.649   1.110
  515TIP3   OH2 1501   3.343   5.098   5.038
  515TIP3    H1 1502   3.406   5.133   4.975
  515TIP3    H2 1503   3.373   5.008   5.054
  516TIP3   OH2 1504   0.182   5.692   0.327
  516TIP3    H1 1505   0.179   5.772   0.275
  516TIP3    H2 1506   0.227   5.717   0.408
  517TIP3   OH2 1507   2.068   2.619   3.603
  517TIP3    H1 1508   2.011   2.695   3.589
  517TIP3    H2 1509   2.009   2.544   3.595
  518TIP3   OH2 1510   1.493   5.589   1.577
  518TIP3    H1 1511   1.551   5.603   1.651
  518TIP3    H2 1512   1.417   5.545   1.614
  519TIP3   OH2 1513   1.841   4.095   3.747
  519TIP3    H1 1514   1.827   4.086   3.841
  519TIP3    H2 1515   1.768   4.048   3.707
  520TIP3   OH2 1516   3.881   4.621   4.415
  520TIP3    H1 1517   3.808   4.629   4.354
  520TIP3    H2 1518   3.851   4.665   4.494
  521TIP3   OH2 1519   6.957   6.540   6.606
  521TIP3    H1 1520   6.996   6.518   6.521
  521TIP3    H2 1521   6.878   6.588   6.584
  522TIP3   OH2 1522   1.877   6.616   2.054
  522TIP3    H1 1523   1.800   6.646   2.103
  522TIP3    H2 1524   1.912   6.544   2.106
  523TIP3   OH2 1525   3.514   4.247   4.262
  523TIP3    H1 1526   3.457   4.254   4.185
  523TIP3    H2 1527   3.518   4.336   4.296
  524TIP3   OH2 1528   0.791   2.518   0.893
  524TIP3    H1 1529   0.835   2.488   0.814
  524TIP3    H2 1530   0.855   2.506   0.963
  525TIP3   OH2 1531   6.522   3.566   5.993
  525TIP3    H1 1532   6.497   3.477   6.019
  525TIP3    H2 1533   6.512   3.566   5.897
  526TIP3   OH2 1534   5.702   5.789   6.636
  526TIP3    H1 1535   5.780   5.812   6.585
  526TIP3    H2 1536   5.669   5.709   6.595
  527TIP3   OH2 1537   1.609   2.232   0.236
  527TIP3    H1 1538   1.703   2.237   0.222
  527TIP3    H2 1539   1.597   2.255   0.328
  528TIP3   OH2 1540   0.480   5.848   6.686
  528TIP3    H1 1541   0.419   5.797   6.632
  528TIP3    H2 1542   0.460   5.822   6.776
  529TIP3   OH2 1543   2.259   4.637   2.360
  529TIP3    H1 1544   2.167   4.659   2.374
  529TIP3    H2 1545   2.308   4.705   2.408
  530TIP3   OH2 1546   5.382   1.590   3.531
  530TIP3    H1 1547   5.376   1.660   3.596
  530TIP3    H2 1548   5.445   1.622   3.466
  531TIP3   OH2 1549   7.612   4.832   2.768
  531TIP3    H1 1550   7.636   4.772   2.839
  531TIP3    H2 1551   7.634   4.784   2.688
  532TIP3   OH2 1552   2.982   6.053   0.521
  532TIP3    H1 1553   3.076   6.065   0.511
  532TIP3    H2 1554   2.944   6.087   0.439
  533TIP3   OH2 1555   2.033   3.882   0.321
  533TIP3    H1 1556   2.085   3.851   0.248
  533TIP3    H2 1557   2.011   3.973   0.298
  534TIP3   OH2 1558   4.994   1.613   1.655
  534TIP3    H1 1559   4.953   1.584   1.573
  534TIP3    H2 1560   4.937   1.682   1.687
  535TIP3   OH2 1561   4.683   2.532   3.600
  535TIP3    H1 1562   4.611   2.530   3.537
  535TIP3    H2 1563   4.655   2.593   3.668
  536TIP3   OH2 1564   5.224   1.006   4.415
  536TIP3    H1 1565   5.167   0.940   4.375
  536TIP3    H2 1566   5.259   1.056   4.341
  537TIP3   OH2 1567   5.999   4.067   5.707
  537TIP3    H1 1568   6.038   4.044   5.792
  537TIP3    H2 1569   6.029   4.156   5.690
  538TIP3   OH2 1570   6.047   7.327   3.282
  538TIP3    H1 1571   6.097   7.318   3.201
  538TIP3    H2 1572   5.983   7.257   3.279
  539TIP3   OH2 1573   2.259   0.494   0.267
  539TIP3    H1 1574   2.263   0.580   0.227
  539TIP3    H2 1575   2.215   0.439   0.203
  540TIP3   OH2 1576   2.132   7.251   0.278
  540TIP3    H1 1577   2.146   7.157   0.289
  540TIP3    H2 1578   2.156   7.268   0.186
  541TIP3   OH2 1579   6.026   3.600   0.936
  541TIP3    H1 1580   5.951   3.550   0.969
  541TIP3    H2 1581   5.998   3.692   0.945
  542TIP3   OH2 1582   0.041   2.500   6.554
  542TIP3    H1 1583   0.093   2.431   6.595
  542TIP3    H2 1584   0.071   2.581   6.596
  543TIP3   OH2 1585   5.715   5.429   6.019
  543TIP3    H1 1586   5.673   5.452   5.935
  543TIP3    H2 1587   5.733   5.513   6.061
  544TIP3   OH2 1588   4.331   4.668   3.609
  544TIP3    H1 1589   4.403   4.663   3.672
  544TIP3    H2 1590   4.252   4.680   3.663
  545TIP3   OH2 1591   6.033   6.315   0.512
  545TIP3    H1 1592   6.097   6.266   0.460
  545TIP3    H2 1593   5.960   6.330   0.452
  546TIP3   OH2 1594   4.612   0.620   3.577
  546TIP3    H1 1595   4.532   0.567   3.579
  546TIP3    H2 1596   4.588   0.699   3.529
  547TIP3   OH2 1597   7.722   7.431   6.695
  547TIP3    H1 1598   7.808   7.404   6.725
  547TIP3    H2 1599   7.696   7.501   6.755
  548TIP3   OH2 1600   4.362   1.679   2.377
  548TIP3    H1 1601   4.361   1.739   2.303
  548TIP3    H2 1602   4.383   1.734   2.452
  549TIP3   OH2 1603   4.856   4.940   6.534
  549TIP3    H1 1604   4.870   4.943   6.440
  549TIP3    H2 1605   4.783   4.879   6.545
  550TIP3   OH2 1606   6.114   3.951   5.054
  550TIP3    H1 1607   6.130   4.017   4.987
  550TIP3    H2 1608   6.198   3.907   5.065
  551TIP3   OH2 1609   6.051   4.561   0.060
  551TIP3    H1 1610   5.955   4.563   0.057
  551TIP3    H2 1611   6.076   4.497  -0.007
  552TIP3   OH2 1612   6.952   7.271   3.172
  552TIP3    H1 1613   6.935   7.352   3.219
  552TIP3    H2 1614   6.981   7.210   3.239
  553TIP3   OH2 1615   6.466   2.669   3.404
  553TIP3    H1 1616   6.496   2.675   3.494
  553TIP3    H2 1617   6.403   2.741   3.394
  554TIP3   OH2 1618   7.219   7.522   0.211
  554TIP3    H1 1619   7.152   7.481   0.265
  554TIP3    H2 1620   7.206   7.485   0.124
  555TIP3   OH2 1621   5.361   5.718   1.271
  555TIP3    H1 1622   5.361   5.774   1.349
  555TIP3    H2 1623   5.302   5.646   1.294
  556TIP3   OH2 1624   6.876   0.293   6.651
  556TIP3    H1 1625   6.881   0.366   6.713
  556TIP3    H2 1626   6.782   0.274   6.644
  557TIP3   OH2 1627   0.060   6.874   3.090
  557TIP3    H1 1628   0.071   6.953   3.143
  557TIP3    H2 1629   0.095   6.804   3.144
  558TIP3   OH2 1630   3.751   0.342   0.924
  558TIP3    H1 1631   3.773   0.389   0.843
  558TIP3    H2 1632   3.659   0.363   0.940
  559TIP3   OH2 1633   4.083   2.240   3.378
  559TIP3    H1 1634   4.151   2.238   3.312
  559TIP3    H2 1635   4.031   2.161   3.361
  560TIP3   OH2 1636   3.568   5.870   2.132
  560TIP3    H1 1637   3.642   5.924   2.158
  560TIP3    H2 1638   3.545   5.821   2.211
  561TIP3   OH2 1639   5.604   7.564   0.885
  561TIP3    H1 1640   5.624   7.549   0.792
  561TIP3    H2 1641   5.663   7.505   0.932
  562TIP3   OH2 1642   8.152   1.654   3.687
  562TIP3    H1 1643   8.237   1.645   3.729
  562TIP3    H2 1644   8.165   1.622   3.598
  563TIP3   OH2 1645   4.806   4.185   3.593
  563TIP3    H1 1646   4.845   4.272   3.588
  563TIP3    H2 1647   4.760   4.174   3.510
  564TIP3   OH2 1648   4.831   6.834   6.219
  564TIP3    H1 1649   4.867   6.912   6.263
  564TIP3    H2 1650   4.769   6.869   6.155
  565TIP3   OH2 1651   3.177   2.175   4.858
  565TIP3    H1 1652   3.159   2.203   4.768
  565TIP3    H2 1653   3.270   2.189   4.870
  566TIP3   OH2 1654   7.309   2.253   5.831
  566TIP3    H1 1655   7.299   2.317   5.761
  566TIP3    H2 1656   7.386   2.283   5.880
  567TIP3   OH2 1657   1.393   3.967   4.694
  567TIP3    H1 1658   1.431   4.051   4.719
  567TIP3    H2 1659   1.393   3.916   4.775
  568TIP3   OH2 1660   8.013   4.025   6.718
  568TIP3    H1 1661   7.941   3.990   6.770
  568TIP3    H2 1662   7.989   4.004   6.627
  569TIP3   OH2 1663   2.422   7.357   4.841
  569TIP3    H1 1664   2.358   7.421   4.809
  569TIP3    H2 1665   2.490   7.409   4.884
  570TIP3   OH2 1666   3.365   5.428   5.364
  570TIP3    H1 1667   3.444   5.378   5.342
  570TIP3    H2 1668   3.392   5.520   5.356
  571TIP3   OH2 1669   4.157   7.305   5.655
  571TIP3    H1 1670   4.126   7.257   5.732
  571TIP3    H2 1671   4.170   7.394   5.686
  572TIP3   OH2 1672   3.643   2.565   2.355
  572TIP3    H1 1673   3.619   2.653   2.384
  572TIP3    H2 1674   3.731   2.552   2.392
  573TIP3   OH2 1675   6.659   4.212   2.950
  573TIP3    H1 1676   6.657   4.164   3.032
  573TIP3    H2 1677   6.736   4.270   2.957
  574TIP3   OH2 1678   3.606   4.818   2.221
  574TIP3    H1 1679   3.658   4.738   2.216
  574TIP3    H2 1680   3.535   4.797   2.282
  575TIP3   OH2 1681   0.452   3.331   2.775
  575TIP3    H1 1682   0.542   3.314   2.748
  575TIP3    H2 1683   0.413   3.245   2.789
  576TIP3   OH2 1684   0.381   7.623   0.128
  576TIP3    H1 1685   0.411   7.532   0.127
  576TIP3    H2 1686   0.375   7.647   0.036
  577TIP3   OH2 1687   7.127   0.735   2.253
  577TIP3    H1 1688   7.074   0.712   2.177
  577TIP3    H2 1689   7.154   0.826   2.237
  578TIP3   OH2 1690   1.722   3.510   4.228
  578TIP3    H1 1691   1.693   3.471   4.145
  578TIP3    H2 1692   1.670   3.591   4.236
  579TIP3   OH2 1693   6.165   0.284   0.561
  579TIP3    H1 1694   6.254   0.319   0.569
  579TIP3    H2 1695   6.176   0.189   0.557
  580TIP3   OH2 1696   0.267   3.126   2.057
  580TIP3    H1 1697   0.199   3.191   2.075
  580TIP3    H2 1698   0.223   3.058   2.006
  581TIP3   OH2 1699   0.451   4.775   6.643
  581TIP3    H1 1700   0.504   4.699   6.666
  581TIP3    H2 1701   0.514   4.842   6.617
  582TIP3   OH2 1702   0.100   4.462   1.543
  582TIP3    H1 1703   0.059   4.376   1.544
  582TIP3    H2 1704   0.135   4.473   1.632
  583TIP3   OH2 1705   3.147   5.109   3.326
  583TIP3    H1 1706   3.068   5.058   3.310
  583TIP3    H2 1707   3.117   5.200   3.331
  584TIP3   OH2 1708   3.806   7.668   6.048
  584TIP3    H1 1709   3.818   7.629   5.961
  584TIP3    H2 1710   3.785   7.593   6.105
  585TIP3   OH2 1711   2.030   4.759   3.340
  585TIP3    H1 1712   2.081   4.680   3.324
  585TIP3    H2 1713   1.972   4.766   3.264
  586TIP3   OH2 1714   2.787   7.741   5.738
  586TIP3    H1 1715   2.821   7.824   5.705
  586TIP3    H2 1716   2.865   7.690   5.760
  587TIP3   OH2 1717   3.294   2.328   5.281
  587TIP3    H1 1718   3.250   2.304   5.200
  587TIP3    H2 1719   3.354   2.398   5.256
  588TIP3   OH2 1720   0.368   7.159   0.172
  588TIP3    H1 1721   0.400   7.241   0.135
  588TIP3    H2 1722   0.280   7.148   0.135
  589TIP3   OH2 1723   5.160   0.125   1.665
  589TIP3    H1 1724   5.072   0.096   1.643
  589TIP3    H2 1725   5.192   0.061   1.728
  590TIP3   OH2 1726   2.591   0.583   5.078
  590TIP3    H1 1727   2.610   0.508   5.134
  590TIP3    H2 1728   2.615   0.659   5.131
  591TIP3   OH2 1729   5.605   3.341   5.699
  591TIP3    H1 1730   5.647   3.256   5.682
  591TIP3    H2 1731   5.512   3.321   5.709
  592TIP3   OH2 1732   1.563   2.273   1.807
  592TIP3    H1 1733   1.605   2.335   1.748
  592TIP3    H2 1734   1.613   2.192   1.796
  593TIP3   OH2 1735   6.310   3.955   0.221
  593TIP3    H1 1736   6.216   3.941   0.232
  593TIP3    H2 1737   6.332   4.021   0.287
  594TIP3   OH2 1738   2.296   7.538   0.156
  594TIP3    H1 1739   2.293   7.554   0.250
  594TIP3    H2 1740   2.388   7.547   0.133
  595TIP3   OH2 1741   4.504   2.396   6.251
  595TIP3    H1 1742   4.581   2.453   6.256
  595TIP3    H2 1743   4.445   2.429   6.318
  596TIP3   OH2 1744   7.407   6.724   0.446
  596TIP3    H1 1745   7.442   6.778   0.517
  596TIP3    H2 1746   7.350   6.661   0.489
  597TIP3   OH2 1747   7.672   5.435   4.402
  597TIP3    H1 1748   7.644   5.505   4.461
  597TIP3    H2 1749   7.743   5.391   4.448
  598TIP3   OH2 1750   2.093   1.265   3.881
  598TIP3    H1 1751   2.178   1.274   3.838
  598TIP3    H2 1752   2.053   1.351   3.871
  599TIP3   OH2 1753   0.753   3.868   4.772
  599TIP3    H1 1754   0.776   3.894   4.683
  599TIP3    H2 1755   0.769   3.946   4.826
  600TIP3   OH2 1756   5.835   4.374   5.784
  600TIP3    H1 1757   5.835   4.296   5.729
  600TIP3    H2 1758   5.775   4.353   5.856
  601TIP3   OH2 1759   6.716   1.038   5.600
  601TIP3    H1 1760   6.638   1.029   5.545
  601TIP3    H2 1761   6.789   1.020   5.541
  602TIP3   OH2 1762   1.971   6.518   3.175
  602TIP3    H1 1763   1.985   6.558   3.261
  602TIP3    H2 1764   2.003   6.583   3.112
  603TIP3   OH2 1765   1.235   2.002   5.714
  603TIP3    H1 1766   1.233   1.972   5.805
  603TIP3    H2 1767   1.243   2.097   5.719
  604TIP3   OH2 1768   7.762   5.846   3.885
  604TIP3    H1 1769   7.767   5.761   3.840
  604TIP3    H2 1770   7.673   5.876   3.869
  605TIP3   OH2 1771   5.539   6.982   1.305
  605TIP3    H1 1772   5.539   6.887   1.289
  605TIP3    H2 1773   5.470   7.016   1.249
  606TIP3   OH2 1774   6.761   0.509   1.413
  606TIP3    H1 1775   6.814   0.568   1.358
  606TIP3    H2 1776   6.678   0.554   1.423
  607TIP3   OH2 1777   6.116   5.046   0.201
  607TIP3    H1 1778   6.094   4.983   0.131
  607TIP3    H2 1779   6.126   4.992   0.279
  608TIP3   OH2 1780   7.807   4.313   0.122
  608TIP3    H1 1781   7.766   4.322   0.035
  608TIP3    H2 1782   7.784   4.225   0.150
  609TIP3   OH2 1783   0.827   3.232   5.089
  609TIP3    H1 1784   0.916   3.198   5.098
  609TIP3    H2 1785   0.809   3.275   5.173
  610TIP3   OH2 1786   4.363   4.047   0.260
  610TIP3    H1 1787   4.395   4.133   0.287
  610TIP3    H2 1788   4.370   3.993   0.339
  611TIP3   OH2 1789   2.933   6.480   3.971
  611TIP3    H1 1790   2.841   6.503   3.978
  611TIP3    H2 1791   2.936   6.386   3.987
  612TIP3   OH2 1792   4.988   0.793   1.882
  612TIP3    H1 1793   4.894   0.806   1.867
  612TIP3    H2 1794   5.023   0.770   1.796
  613TIP3   OH2 1795   2.382   1.871   0.889
  613TIP3    H1 1796   2.408   1.955   0.928
  613TIP3    H2 1797   2.288   1.880   0.873
  614TIP3   OH2 1798   0.320   5.849   5.218
  614TIP3    H1 1799   0.319   5.943   5.200
  614TIP3    H2 1800   0.379   5.813   5.152
  615TIP3   OH2 1801   7.862   0.011   4.580
  615TIP3    H1 1802   7.921  -0.061   4.560
  615TIP3    H2 1803   7.911   0.066   4.641
  616TIP3   OH2 1804   7.374   4.751   4.966
  616TIP3    H1 1805   7.402   4.779   5.053
  616TIP3    H2 1806   7.293   4.702   4.981
  617TIP3   OH2 1807   5.783   6.670   5.151
  617TIP3    H1 1808   5.751   6.715   5.229
  617TIP3    H2 1809   5.811   6.740   5.092
  618TIP3   OH2 1810   7.043   3.449   1.743
  618TIP3    H1 1811   7.055   3.544   1.733
  618TIP3    H2 1812   7.043   3.415   1.654
  619TIP3   OH2 1813   2.168   5.021   4.344
  619TIP3    H1 1814   2.202   4.943   4.298
  619TIP3    H2 1815   2.105   5.059   4.283
  620TIP3   OH2 1816   3.714   1.686   4.053
  620TIP3    H1 1817   3.763   1.678   3.971
  620TIP3    H2 1818   3.710   1.596   4.087
  621TIP3   OH2 1819   0.523   1.394   6.417
  621TIP3    H1 1820   0.492   1.348   6.339
  621TIP3    H2 1821   0.496   1.338   6.490
  622TIP3   OH2 1822   4.330   0.473   3.297
  622TIP3    H1 1823   4.338   0.381   3.269
  622TIP3    H2 1824   4.340   0.470   3.392
  623TIP3   OH2 1825   5.821   5.178   2.922
  623TIP3    H1 1826   5.793   5.124   2.995
  623TIP3    H2 1827   5.782   5.136   2.845
  624TIP3   OH2 1828   3.931   6.340   0.196
  624TIP3    H1 1829   3.842   6.354   0.230
  624TIP3    H2 1830   3.922   6.265   0.137
  625TIP3   OH2 1831   0.463   1.287   1.493
  625TIP3    H1 1832   0.550   1.307   1.459
  625TIP3    H2 1833   0.423   1.233   1.425
  626TIP3   OH2 1834   2.613   1.667   4.984
  626TIP3    H1 1835   2.521   1.653   5.008
  626TIP3    H2 1836   2.643   1.582   4.954
  627TIP3   OH2 1837   1.040   2.963   5.418
  627TIP3    H1 1838   1.116   2.906   5.431
  627TIP3    H2 1839   1.049   3.030   5.486
  628TIP3   OH2 1840   1.085   0.861   0.907
  628TIP3    H1 1841   0.990   0.852   0.917
  628TIP3    H2 1842   1.102   0.953   0.927
  629TIP3   OH2 1843   0.795   7.134   1.765
  629TIP3    H1 1844   0.728   7.177   1.711
  629TIP3    H2 1845   0.838   7.206   1.811
  630TIP3   OH2 1846   0.594   1.461   5.629
  630TIP3    H1 1847   0.588   1.371   5.597
  630TIP3    H2 1848   0.544   1.513   5.567
  631TIP3   OH2 1849   4.850   6.271   5.515
  631TIP3    H1 1850   4.833   6.199   5.575
  631TIP3    H2 1851   4.824   6.349   5.564
  632TIP3   OH2 1852   6.805   4.905   6.065
  632TIP3    H1 1853   6.848   4.855   5.996
  632TIP3    H2 1854   6.772   4.839   6.126
  633TIP3   OH2 1855   7.726   4.636   6.312
  633TIP3    H1 1856   7.675   4.580   6.254
  633TIP3    H2 1857   7.810   4.648   6.267
  634TIP3   OH2 1858   0.178   6.217   3.028
  634TIP3    H1 1859   0.169   6.122   3.038
  634TIP3    H2 1860   0.172   6.233   2.934
  635TIP3   OH2 1861   6.648   5.698   4.823
  635TIP3    H1 1862   6.591   5.706   4.746
  635TIP3    H2 1863   6.710   5.628   4.800
  636TIP3   OH2 1864   0.762   0.757   4.731
  636TIP3    H1 1865   0.748   0.679   4.678
  636TIP3    H2 1866   0.799   0.724   4.813
  637TIP3   OH2 1867   0.675   6.722   3.477
  637TIP3    H1 1868   0.693   6.629   3.472
  637TIP3    H2 1869   0.649   6.737   3.568
  638TIP3   OH2 1870   1.444   6.837   2.975
  638TIP3    H1 1871   1.476   6.919   3.011
  638TIP3    H2 1872   1.422   6.784   3.051
  639TIP3   OH2 1873   1.128   5.853   1.621
  639TIP3    H1 1874   1.218   5.857   1.588
  639TIP3    H2 1875   1.081   5.803   1.555
  640TIP3   OH2 1876   1.140   5.419   2.982
  640TIP3    H1 1877   1.191   5.338   2.983
  640TIP3    H2 1878   1.096   5.419   2.897
  641TIP3   OH2 1879   5.521   6.257   1.700
  641TIP3    H1 1880   5.601   6.241   1.751
  641TIP3    H2 1881   5.450   6.248   1.763
  642TIP3   OH2 1882   6.762   2.770   3.838
  642TIP3    H1 1883   6.838   2.826   3.824
  642TIP3    H2 1884   6.787   2.712   3.909
  643TIP3   OH2 1885   2.982   5.643   6.351
  643TIP3    H1 1886   2.965   5.714   6.290
  643TIP3    H2 1887   2.994   5.566   6.296
  644TIP3   OH2 1888   4.517   6.291   5.898
  644TIP3    H1 1889   4.523   6.378   5.939
  644TIP3    H2 1890   4.587   6.290   5.833
  645TIP3   OH2 1891   2.468   4.446   2.709
  645TIP3    H1 1892   2.484   4.515   2.774
  645TIP3    H2 1893   2.373   4.436   2.708
  646TIP3   OH2 1894   8.030   0.387   5.009
  646TIP3    H1 1895   7.951   0.353   4.967
  646TIP3    H2 1896   8.088   0.311   5.016
  647TIP3   OH2 1897   2.252   5.400   1.282
  647TIP3    H1 1898   2.321   5.437   1.337
  647TIP3    H2 1899   2.200   5.475   1.254
  648TIP3   OH2 1900   5.841   2.715   2.664
  648TIP3    H1 1901   5.837   2.804   2.629
  648TIP3    H2 1902   5.864   2.727   2.756
  649TIP3   OH2 1903   2.274   6.729   5.144
  649TIP3    H1 1904   2.259   6.822   5.127
  649TIP3    H2 1905   2.369   6.721   5.151
  650TIP3   OH2 1906   0.248   7.068   4.289
  650TIP3    H1 1907   0.180   7.029   4.234
  650TIP3    H2 1908   0.215   7.155   4.311
  651TIP3   OH2 1909   4.846   4.713   4.555
  651TIP3    H1 1910   4.755   4.700   4.582
  651TIP3    H2 1911   4.842   4.726   4.461
  652TIP3   OH2 1912   5.802   7.825   1.320
  652TIP3    H1 1913   5.708   7.819   1.303
  652TIP3    H2 1914   5.843   7.783   1.244
  653TIP3   OH2 1915   0.070   3.023   4.475
  653TIP3    H1 1916   0.075   2.940   4.523
  653TIP3    H2 1917  -0.024   3.042   4.470
  654TIP3   OH2 1918   5.336   3.293   5.704
  654TIP3    H1 1919   5.254   3.300   5.655
  654TIP3    H2 1920   5.309   3.294   5.796
  655TIP3   OH2 1921   4.512   7.413   2.335
  655TIP3    H1 1922   4.572   7.348   2.297
  655TIP3    H2 1923   4.530   7.493   2.287
  656TIP3   OH2 1924   4.331   3.897   6.256
  656TIP3    H1 1925   4.399   3.864   6.314
  656TIP3    H2 1926   4.257   3.837   6.268
  657TIP3   OH2 1927   7.452   0.749   0.558
  657TIP3    H1 1928   7.482   0.659   0.547
  657TIP3    H2 1929   7.357   0.744   0.548
  658TIP3   OH2 1930   0.189   2.241   6.034
  658TIP3    H1 1931   0.225   2.320   6.074
  658TIP3    H2 1932   0.158   2.269   5.948
  659TIP3   OH2 1933   6.874   1.585   0.597
  659TIP3    H1 1934   6.840   1.671   0.623
  659TIP3    H2 1935   6.800   1.541   0.555
  660TIP3   OH2 1936   0.376   0.027   5.871
  660TIP3    H1 1937   0.288   0.064   5.883
  660TIP3    H2 1938   0.420   0.044   5.954
  661TIP3   OH2 1939   0.075   3.899   6.413
  661TIP3    H1 1940  -0.015   3.924   6.390
  661TIP3    H2 1941   0.085   3.811   6.378
  662TIP3   OH2 1942   1.494   7.230   5.911
  662TIP3    H1 1943   1.454   7.231   5.824
  662TIP3    H2 1944   1.476   7.142   5.945
  663TIP3   OH2 1945   0.455   1.989   5.111
  663TIP3    H1 1946   0.528   1.957   5.058
  663TIP3    H2 1947   0.389   1.920   5.104
  664TIP3   OH2 1948   5.748   2.622   4.150
  664TIP3    H1 1949   5.729   2.533   4.118
  664TIP3    H2 1950   5.730   2.618   4.244
  665TIP3   OH2 1951   3.203   1.523   2.583
  665TIP3    H1 1952   3.186   1.429   2.575
  665TIP3    H2 1953   3.143   1.552   2.652
  666TIP3   OH2 1954   7.991   0.563   2.124
  666TIP3    H1 1955   7.996   0.557   2.029
  666TIP3    H2 1956   8.009   0.655   2.144
  667TIP3   OH2 1957   1.989   3.580   4.227
  667TIP3    H1 1958   1.960   3.669   4.207
  667TIP3    H2 1959   1.908   3.532   4.245
  668TIP3   OH2 1960   0.345   3.537   0.575
  668TIP3    H1 1961   0.326   3.621   0.616
  668TIP3    H2 1962   0.437   3.519   0.597
  669TIP3   OH2 1963   6.805   5.106   3.836
  669TIP3    H1 1964   6.806   5.192   3.878
  669TIP3    H2 1965   6.821   5.124   3.744
  670TIP3   OH2 1966   7.803   4.886   6.214
  670TIP3    H1 1967   7.865   4.827   6.170
  670TIP3    H2 1968   7.737   4.828   6.252
  671TIP3   OH2 1969   8.044   2.346   3.674
  671TIP3    H1 1970   8.109   2.322   3.607
  671TIP3    H2 1971   8.096   2.369   3.751
  672TIP3   OH2 1972   5.976   5.361   5.093
  672TIP3    H1 1973   6.035   5.345   5.166
  672TIP3    H2 1974   6.010   5.306   5.022
  673TIP3   OH2 1975   4.006   2.133   6.586
  673TIP3    H1 1976   4.058   2.057   6.613
  673TIP3    H2 1977   3.961   2.105   6.507
  674TIP3   OH2 1978   5.869   6.706   2.240
  674TIP3    H1 1979   5.960   6.692   2.264
  674TIP3    H2 1980   5.820   6.684   2.319
  675TIP3   OH2 1981   1.696   7.327   3.638
  675TIP3    H1 1982   1.663   7.306   3.726
  675TIP3    H2 1983   1.623   7.372   3.596
  676TIP3   OH2 1984   4.764   5.779   6.233
  676TIP3    H1 1985   4.725   5.728   6.162
  676TIP3    H2 1986   4.780   5.865   6.194
  677TIP3   OH2 1987   3.965   0.847   1.852
  677TIP3    H1 1988   4.036   0.788   1.877
  677TIP3    H2 1989   3.988   0.876   1.763
  678TIP3   OH2 1990   6.072   1.998   4.880
  678TIP3    H1 1991   6.101   2.014   4.789
  678TIP3    H2 1992   6.072   1.903   4.888
  679TIP3   OH2 1993   3.555   5.203   4.837
  679TIP3    H1 1994   3.509   5.121   4.821
  679TIP3    H2 1995   3.492   5.271   4.812
  680TIP3   OH2 1996   2.670   5.255   5.926
  680TIP3    H1 1997   2.642   5.180   5.979
  680TIP3    H2 1998   2.721   5.216   5.855
  681TIP3   OH2 1999   0.670   6.832   1.443
  681TIP3    H1 2000   0.679   6.791   1.357
  681TIP3    H2 2001   0.736   6.788   1.497
  682TIP3   OH2 2002   2.063   3.127   4.407
  682TIP3    H1 2003   2.144   3.178   4.401
  682TIP3    H2 2004   2.060   3.078   4.325
  683TIP3   OH2 2005   7.680   5.453   0.054
  683TIP3    H1 2006   7.639   5.485   0.134
  683TIP3    H2 2007   7.611   5.406   0.007
  684TIP3   OH2 2008   1.697   0.768   3.528
  684TIP3    H1 2009   1.757   0.827   3.483
  684TIP3    H2 2010   1.681   0.698   3.465
  685TIP3   OH2 2011   1.247   4.809   0.768
  685TIP3    H1 2012   1.184   4.811   0.696
  685TIP3    H2 2013   1.214   4.743   0.828
  686TIP3   OH2 2014   4.363   4.918   3.192
  686TIP3    H1 2015   4.302   4.866   3.244
  686TIP3    H2 2016   4.439   4.931   3.248
  687TIP3   OH2 2017   0.661   3.358   5.557
  687TIP3    H1 2018   0.649   3.448   5.528
  687TIP3    H2 2019   0.574   3.331   5.588
  688TIP3   OH2 2020   5.193   5.389   6.245
  688TIP3    H1 2021   5.274   5.357   6.205
  688TIP3    H2 2022   5.133   5.315   6.239
  689TIP3   OH2 2023   4.222   4.936   4.804
  689TIP3    H1 2024   4.210   4.845   4.832
  689TIP3    H2 2025   4.241   4.930   4.710
  690TIP3   OH2 2026   6.249   5.669   4.955
  690TIP3    H1 2027   6.296   5.605   4.902
  690TIP3    H2 2028   6.181   5.703   4.896
  691TIP3   OH2 2029   2.229   2.488   2.631
  691TIP3    H1 2030   2.150   2.496   2.683
  691TIP3    H2 2031   2.288   2.555   2.666
  692TIP3   OH2 2032   8.034   1.597   2.535
  692TIP3    H1 2033   8.005   1.678   2.578
  692TIP3    H2 2034   8.107   1.567   2.587
  693TIP3   OH2 2035   1.007   1.470   1.656
  693TIP3    H1 2036   0.946   1.479   1.583
  693TIP3    H2 2037   0.958   1.418   1.721
  694TIP3   OH2 2038   2.378   0.503   1.003
  694TIP3    H1 2039   2.287   0.485   0.980
  694TIP3    H2 2040   2.408   0.564   0.935
  695TIP3   OH2 2041   2.620   1.276   4.159
  695TIP3    H1 2042   2.535   1.319   4.148
  695TIP3    H2 2043   2.610   1.224   4.239
  696TIP3   OH2 2044   8.052   1.452   1.123
  696TIP3    H1 2045   8.070   1.436   1.215
  696TIP3    H2 2046   8.071   1.545   1.109
  697TIP3   OH2 2047   1.952   5.727   4.647
  697TIP3    H1 2048   2.032   5.684   4.678
  697TIP3    H2 2049   1.881   5.666   4.669
  698TIP3   OH2 2050   7.388   3.059   5.020
  698TIP3    H1 2051   7.464   3.062   4.962
  698TIP3    H2 2052   7.321   3.014   4.970
  699TIP3   OH2 2053   4.564   7.598   5.080
  699TIP3    H1 2054   4.527   7.553   5.004
  699TIP3    H2 2055   4.605   7.677   5.043
  700TIP3   OH2 2056   7.020   1.082   4.181
  700TIP3    H1 2057   7.019   1.129   4.264
  700TIP3    H2 2058   7.032   1.150   4.114
  701TIP3   OH2 2059   7.371   6.126   2.898
  701TIP3    H1 2060   7.382   6.152   2.806
  701TIP3    H2 2061   7.443   6.170   2.943
  702TIP3   OH2 2062   4.277   4.778   0.257
  702TIP3    H1 2063   4.331   4.716   0.306
  702TIP3    H2 2064   4.335   4.811   0.188
  703TIP3   OH2 2065   5.205   0.588   0.033
  703TIP3    H1 2066   5.137   0.644   0.070
  703TIP3    H2 2067   5.245   0.545   0.108
  704TIP3   OH2 2068   6.558   0.331   0.958
  704TIP3    H1 2069   6.489   0.282   1.002
  704TIP3    H2 2070   6.521   0.419   0.946
  705TIP3   OH2 2071   6.642   3.879   6.778
  705TIP3    H1 2072   6.715   3.819   6.761
  705TIP3    H2 2073   6.582   3.865   6.705
  706TIP3   OH2 2074   4.674   2.072   3.086
  706TIP3    H1 2075   4.580   2.072   3.102
  706TIP3    H2 2076   4.702   2.161   3.105
  707TIP3   OH2 2077   0.356   0.830   3.552
  707TIP3    H1 2078   0.349   0.925   3.550
  707TIP3    H2 2079   0.363   0.805   3.460
  708TIP3   OH2 2080   7.138   5.334   4.796
  708TIP3    H1 2081   7.180   5.378   4.870
  708TIP3    H2 2082   7.051   5.311   4.828
  709TIP3   OH2 2083   3.828   4.295   5.122
  709TIP3    H1 2084   3.902   4.284   5.182
  709TIP3    H2 2085   3.751   4.274   5.174
  710TIP3   OH2 2086   0.545   7.454   3.842
  710TIP3    H1 2087   0.586   7.521   3.897
  710TIP3    H2 2088   0.467   7.496   3.807
  711TIP3   OH2 2089   7.441   0.833   3.034
  711TIP3    H1 2090   7.494   0.885   2.973
  711TIP3    H2 2091   7.442   0.745   2.997
  712TIP3   OH2 2092   5.744   2.963   3.884
  712TIP3    H1 2093   5.655   2.954   3.850
  712TIP3    H2 2094   5.733   3.004   3.970
  713TIP3   OH2 2095   6.728   2.713   5.719
  713TIP3    H1 2096   6.659   2.718   5.786
  713TIP3    H2 2097   6.684   2.736   5.637
  714TIP3   OH2 2098   4.103   5.046   5.135
  714TIP3    H1 2099   4.116   4.953   5.115
  714TIP3    H2 2100   4.176   5.090   5.092
  715TIP3   OH2 2101   3.397   5.171   5.543
  715TIP3    H1 2102   3.331   5.177   5.475
  715TIP3    H2 2103   3.412   5.261   5.571
  716TIP3   OH2 2104   1.693   1.839   5.470
  716TIP3    H1 2105   1.709   1.872   5.382
  716TIP3    H2 2106   1.598   1.846   5.481
  717TIP3   OH2 2107   7.949   7.098   2.673
  717TIP3    H1 2108   7.865   7.143   2.683
  717TIP3    H2 2109   7.933   7.033   2.604
  718TIP3   OH2 2110   6.791   3.335   1.703
  718TIP3    H1 2111   6.869   3.379   1.738
  718TIP3    H2 2112   6.718   3.378   1.747
  719TIP3   OH2 2113   7.046   4.326   0.851
  719TIP3    H1 2114   7.023   4.272   0.775
  719TIP3    H2 2115   7.001   4.409   0.836
  720TIP3   OH2 2116   0.006   7.719   2.321
  720TIP3    H1 2117   0.034   7.695   2.409
  720TIP3    H2 2118   0.067   7.788   2.294
  721TIP3   OH2 2119   6.597   1.339   0.767
  721TIP3    H1 2120   6.581   1.327   0.674
  721TIP3    H2 2121   6.595   1.434   0.780
  722TIP3   OH2 2122   7.991   2.147   2.941
  722TIP3    H1 2123   7.923   2.192   2.890
  722TIP3    H2 2124   7.968   2.166   3.032
  723TIP3   OH2 2125   1.366   2.000   5.357
  723TIP3    H1 2126   1.285   2.035   5.393
  723TIP3    H2 2127   1.403   1.947   5.428
  724TIP3   OH2 2128   2.222   4.770   0.290
  724TIP3    H1 2129   2.233   4.745   0.198
  724TIP3    H2 2130   2.131   4.745   0.311
  725TIP3   OH2 2131   7.396   3.696   4.672
  725TIP3    H1 2132   7.391   3.749   4.593
  725TIP3    H2 2133   7.360   3.752   4.741
  726TIP3   OH2 2134   4.812   6.872   3.622
  726TIP3    H1 2135   4.788   6.789   3.665
  726TIP3    H2 2136   4.732   6.924   3.625
  727TIP3   OH2 2137   0.139   3.675   6.257
  727TIP3    H1 2138   0.097   3.593   6.231
  727TIP3    H2 2139   0.125   3.734   6.184
  728TIP3   OH2 2140   0.172   4.544   2.964
  728TIP3    H1 2141   0.124   4.506   3.038
  728TIP3    H2 2142   0.133   4.631   2.953
  729TIP3   OH2 2143   0.062   2.576   1.405
  729TIP3    H1 2144   0.071   2.496   1.354
  729TIP3    H2 2145   0.146   2.620   1.396
  730TIP3   OH2 2146   5.561   4.441   1.540
  730TIP3    H1 2147   5.644   4.426   1.495
  730TIP3    H2 2148   5.582   4.503   1.610
  731TIP3   OH2 2149   4.475   7.412   2.603
  731TIP3    H1 2150   4.383   7.386   2.591
  731TIP3    H2 2151   4.505   7.435   2.514
  732TIP3   OH2 2152   2.066   2.952   6.114
  732TIP3    H1 2153   2.130   2.929   6.047
  732TIP3    H2 2154   2.015   3.023   6.076
  733TIP3   OH2 2155   7.593   1.860   2.718
  733TIP3    H1 2156   7.637   1.820   2.643
  733TIP3    H2 2157   7.550   1.937   2.682
  734TIP3   OH2 2158   5.286   0.981   3.980
  734TIP3    H1 2159   5.274   1.043   4.052
  734TIP3    H2 2160   5.378   0.955   3.986
  735TIP3   OH2 2161   2.632   5.951   2.452
  735TIP3    H1 2162   2.640   6.034   2.405
  735TIP3    H2 2163   2.679   5.888   2.398
  736TIP3   OH2 2164   5.707   4.269   6.005
  736TIP3    H1 2165   5.741   4.183   5.983
  736TIP3    H2 2166   5.663   4.257   6.089
  737TIP3   OH2 2167   6.012   6.629   3.842
  737TIP3    H1 2168   6.020   6.642   3.937
  737TIP3    H2 2169   6.033   6.536   3.829
  738TIP3   OH2 2170   7.664   5.038   4.323
  738TIP3    H1 2171   7.587   5.026   4.268
  738TIP3    H2 2172   7.733   5.067   4.262
  739TIP3   OH2 2173   7.121   5.370   2.820
  739TIP3    H1 2174   7.210   5.341   2.799
  739TIP3    H2 2175   7.065   5.318   2.763
  740TIP3   OH2 2176   8.093   6.505   2.498
  740TIP3    H1 2177   8.036   6.506   2.422
  740TIP3    H2 2178   8.034   6.516   2.573
  741TIP3   OH2 2179   1.780   1.561   3.460
  741TIP3    H1 2180   1.794   1.612   3.539
  741TIP3    H2 2181   1.864   1.563   3.414
  742TIP3   OH2 2182   7.576   0.768   2.055
  742TIP3    H1 2183   7.541   0.854   2.077
  742TIP3    H2 2184   7.554   0.713   2.131
  743TIP3   OH2 2185   0.759   3.690   4.063
  743TIP3    H1 2186   0.745   3.740   3.982
  743TIP3    H2 2187   0.751   3.754   4.133
  744TIP3   OH2 2188   8.234   1.671   0.227
  744TIP3    H1 2189   8.240   1.576   0.231
  744TIP3    H2 2190   8.201   1.690   0.139
  745TIP3   OH2 2191   2.229   5.802   4.255
  745TIP3    H1 2192   2.294   5.869   4.239
  745TIP3    H2 2193   2.160   5.846   4.304
  746TIP3   OH2 2194   1.528   5.064   2.288
  746TIP3    H1 2195   1.509   5.143   2.339
  746TIP3    H2 2196   1.623   5.058   2.289
  747TIP3   OH2 2197   4.075   5.882   5.027
  747TIP3    H1 2198   4.091   5.792   5.058
  747TIP3    H2 2199   4.109   5.882   4.937
  748TIP3   OH2 2200   6.394   0.650   3.028
  748TIP3    H1 2201   6.447   0.612   2.959
  748TIP3    H2 2202   6.316   0.683   2.983
  749TIP3   OH2 2203   7.445   0.436   2.661
  749TIP3    H1 2204   7.359   0.442   2.620
  749TIP3    H2 2205   7.436   0.367   2.726
  750TIP3   OH2 2206   0.815   5.730   1.083
  750TIP3    H1 2207   0.722   5.731   1.059
  750TIP3    H2 2208   0.860   5.702   1.003
  751TIP3   OH2 2209   2.589   6.606   1.678
  751TIP3    H1 2210   2.614   6.624   1.768
  751TIP3    H2 2211   2.581   6.693   1.637
  752TIP3   OH2 2212   3.961   5.509   1.173
  752TIP3    H1 2213   3.950   5.514   1.268
  752TIP3    H2 2214   3.985   5.418   1.156
  753TIP3   OH2 2215   6.852   5.594   4.582
  753TIP3    H1 2216   6.943   5.564   4.590
  753TIP3    H2 2217   6.856   5.664   4.517
  754TIP3   OH2 2218   7.348   2.306   0.243
  754TIP3    H1 2219   7.369   2.232   0.299
  754TIP3    H2 2220   7.430   2.324   0.196
  755TIP3   OH2 2221   4.946   6.196   3.206
  755TIP3    H1 2222   4.913   6.146   3.281
  755TIP3    H2 2223   4.953   6.286   3.238
  756TIP3   OH2 2224   4.447   7.665   4.706
  756TIP3    H1 2225   4.446   7.583   4.756
  756TIP3    H2 2226   4.369   7.712   4.737
  757TIP3   OH2 2227   7.032   1.238   4.415
  757TIP3    H1 2228   7.005   1.307   4.477
  757TIP3    H2 2229   7.111   1.274   4.374
  758TIP3   OH2 2230   3.017   4.105   1.019
  758TIP3    H1 2231   3.004   4.122   0.926
  758TIP3    H2 2232   3.106   4.071   1.026
  759TIP3   OH2 2233   1.222   6.320   2.832
  759TIP3    H1 2234   1.216   6.324   2.736
  759TIP3    H2 2235   1.135   6.346   2.862
  760TIP3   OH2 2236   6.926   5.693   2.753
  760TIP3    H1 2237   6.967   5.765   2.800
  760TIP3    H2 2238   6.963   5.614   2.792
  761TIP3   OH2 2239   5.469   7.658   2.558
  761TIP3    H1 2240   5.463   7.601   2.635
  761TIP3    H2 2241   5.554   7.702   2.567
  762TIP3   OH2 2242   3.684   4.097   6.525
  762TIP3    H1 2243   3.777   4.110   6.539
  762TIP3    H2 2244   3.659   4.162   6.459
  763TIP3   OH2 2245   2.220   7.001   5.703
  763TIP3    H1 2246   2.147   7.061   5.715
  763TIP3    H2 2247   2.203   6.931   5.766
  764TIP3   OH2 2248   1.258   3.409   3.268
  764TIP3    H1 2249   1.275   3.348   3.340
  764TIP3    H2 2250   1.328   3.474   3.275
  765TIP3   OH2 2251   3.601   3.040   2.243
  765TIP3    H1 2252   3.546   3.110   2.277
  765TIP3    H2 2253   3.664   3.022   2.313
  766TIP3   OH2 2254   0.040   5.014   1.548
  766TIP3    H1 2255   0.006   4.925   1.547
  766TIP3    H2 2256  -0.031   5.067   1.510
  767TIP3   OH2 2257   6.571   6.482   1.196
  767TIP3    H1 2258   6.528   6.533   1.265
  767TIP3    H2 2259   6.498   6.445   1.146
  768TIP3   OH2 2260   2.455   1.794   2.775
  768TIP3    H1 2261   2.475   1.701   2.763
  768TIP3    H2 2262   2.482   1.835   2.693
  769TIP3   OH2 2263   2.123   1.254   5.306
  769TIP3    H1 2264   2.099   1.187   5.241
  769TIP3    H2 2265   2.136   1.334   5.255
  770TIP3   OH2 2266   0.463   4.484   2.581
  770TIP3    H1 2267   0.551   4.507   2.551
  770TIP3    H2 2268   0.425   4.567   2.610
  771TIP3   OH2 2269   2.619   2.636   6.208
  771TIP3    H1 2270   2.621   2.595   6.122
  771TIP3    H2 2271   2.659   2.722   6.195
  772TIP3   OH2 2272   3.518   4.225   3.352
  772TIP3    H1 2273   3.528   4.130   3.349
  772TIP3    H2 2274   3.578   4.258   3.285
  773TIP3   OH2 2275   2.496   1.584   4.387
  773TIP3    H1 2276   2.583   1.623   4.376
  773TIP3    H2 2277   2.441   1.656   4.417
  774TIP3   OH2 2278   7.788   5.293   5.089
  774TIP3    H1 2279   7.720   5.305   5.022
  774TIP3    H2 2280   7.743   5.313   5.171
  775TIP3   OH2 2281   1.394   6.049   4.421
  775TIP3    H1 2282   1.334   6.120   4.397
  775TIP3    H2 2283   1.471   6.064   4.365
  776TIP3   OH2 2284   7.020   1.275   1.945
  776TIP3    H1 2285   6.963   1.292   1.870
  776TIP3    H2 2286   7.000   1.185   1.970
  777TIP3   OH2 2287   7.551   5.906   0.028
  777TIP3    H1 2288   7.634   5.883   0.069
  777TIP3    H2 2289   7.485   5.859   0.080
  778TIP3   OH2 2290   7.961   1.371   5.288
  778TIP3    H1 2291   7.969   1.337   5.377
  778TIP3    H2 2292   8.050   1.393   5.263
  779TIP3   OH2 2293   1.107   7.233   4.945
  779TIP3    H1 2294   1.201   7.239   4.925
  779TIP3    H2 2295   1.088   7.314   4.992
  780TIP3   OH2 2296   6.598   1.857   3.372
  780TIP3    H1 2297   6.686   1.891   3.354
  780TIP3    H2 2298   6.561   1.919   3.435
  781TIP3   OH2 2299   6.466   1.955   4.957
  781TIP3    H1 2300   6.445   1.868   4.922
  781TIP3    H2 2301   6.562   1.958   4.959
  782TIP3   OH2 2302   3.511   2.632   3.507
  782TIP3    H1 2303   3.531   2.663   3.595
  782TIP3    H2 2304   3.568   2.557   3.494
  783TIP3   OH2 2305   3.803   3.413   1.909
  783TIP3    H1 2306   3.823   3.480   1.843
  783TIP3    H2 2307   3.811   3.330   1.862
  784TIP3   OH2 2308   4.641   5.171   1.214
  784TIP3    H1 2309   4.579   5.241   1.192
  784TIP3    H2 2310   4.716   5.218   1.251
  785TIP3   OH2 2311   1.422   6.629   2.317
  785TIP3    H1 2312   1.419   6.597   2.406
  785TIP3    H2 2313   1.332   6.655   2.297
  786TIP3   OH2 2314   6.715   4.197   0.319
  786TIP3    H1 2315   6.627   4.229   0.296
  786TIP3    H2 2316   6.768   4.276   0.324
  787TIP3   OH2 2317   6.444   2.730   4.350
  787TIP3    H1 2318   6.491   2.813   4.359
  787TIP3    H2 2319   6.434   2.718   4.255
  788TIP3   OH2 2320   7.885   6.369   5.238
  788TIP3    H1 2321   7.837   6.410   5.166
  788TIP3    H2 2322   7.905   6.281   5.208
  789TIP3   OH2 2323   2.884   5.906   5.086
  789TIP3    H1 2324   2.926   5.896   5.001
  789TIP3    H2 2325   2.867   5.999   5.094
  790TIP3   OH2 2326   1.375   0.531   1.841
  790TIP3    H1 2327   1.280   0.526   1.852
  790TIP3    H2 2328   1.404   0.596   1.906
  791TIP3   OH2 2329   4.574   3.803   5.820
  791TIP3    H1 2330   4.497   3.753   5.849
  791TIP3    H2 2331   4.538   3.888   5.796
  792TIP3   OH2 2332   0.821   1.971   3.291
  792TIP3    H1 2333   0.770   1.910   3.237
  792TIP3    H2 2334   0.859   1.916   3.360
  793TIP3   OH2 2335   7.427   1.890   1.393
  793TIP3    H1 2336   7.431   1.817   1.330
  793TIP3    H2 2337   7.343   1.878   1.438
  794TIP3   OH2 2338   0.019   1.046   6.345
  794TIP3    H1 2339  -0.015   1.095   6.270
  794TIP3    H2 2340   0.006   0.954   6.321
  795TIP3   OH2 2341   3.745   2.192   4.708
  795TIP3    H1 2342   3.741   2.278   4.749
  795TIP3    H2 2343   3.726   2.208   4.616
  796TIP3   OH2 2344   4.406   4.943   0.786
  796TIP3    H1 2345   4.481   4.970   0.840
  796TIP3    H2 2346   4.366   5.024   0.757
  797TIP3   OH2 2347   3.592   7.362   5.301
  797TIP3    H1 2348   3.608   7.319   5.216
  797TIP3    H2 2349   3.583   7.454   5.279
  798TIP3   OH2 2350   4.655   0.702   6.402
  798TIP3    H1 2351   4.706   0.740   6.473
  798TIP3    H2 2352   4.720   0.659   6.346
  799TIP3   OH2 2353   8.277   4.938   1.246
  799TIP3    H1 2354   8.357   4.931   1.193
  799TIP3    H2 2355   8.237   4.851   1.241
  800TIP3   OH2 2356   5.791   0.645   1.106
  800TIP3    H1 2357   5.711   0.652   1.157
  800TIP3    H2 2358   5.812   0.735   1.081
  801TIP3   OH2 2359   6.344   2.853   3.815
  801TIP3    H1 2360   6.401   2.926   3.839
  801TIP3    H2 2361   6.287   2.888   3.747
  802TIP3   OH2 2362   6.533   6.035   6.450
  802TIP3    H1 2363   6.483   5.972   6.399
  802TIP3    H2 2364   6.605   5.985   6.487
  803TIP3   OH2 2365   5.278   7.217   1.251
  803TIP3    H1 2366   5.263   7.127   1.222
  803TIP3    H2 2367   5.211   7.233   1.317
  804TIP3   OH2 2368   2.717   5.488   2.321
  804TIP3    H1 2369   2.641   5.436   2.347
  804TIP3    H2 2370   2.785   5.465   2.385
  805TIP3   OH2 2371   3.635   7.699   3.793
  805TIP3    H1 2372   3.648   7.646   3.714
  805TIP3    H2 2373   3.713   7.755   3.797
  806TIP3   OH2 2374   0.200   2.118   6.392
  806TIP3    H1 2375   0.193   2.063   6.470
  806TIP3    H2 2376   0.114   2.110   6.350
  807TIP3   OH2 2377   2.627   6.010   1.108
  807TIP3    H1 2378   2.628   6.087   1.165
  807TIP3    H2 2379   2.535   5.999   1.084
  808TIP3   OH2 2380   7.635   1.899   2.313
  808TIP3    H1 2381   7.632   1.804   2.325
  808TIP3    H2 2382   7.611   1.913   2.222
  809TIP3   OH2 2383   3.633   1.269   5.497
  809TIP3    H1 2384   3.649   1.361   5.478
  809TIP3    H2 2385   3.696   1.247   5.566
  810TIP3   OH2 2386   5.546   7.174   3.356
  810TIP3    H1 2387   5.453   7.164   3.375
  810TIP3    H2 2388   5.590   7.149   3.437
  811TIP3   OH2 2389   1.268   5.433   1.572
  811TIP3    H1 2390   1.184   5.439   1.617
  811TIP3    H2 2391   1.252   5.370   1.501
  812TIP3   OH2 2392   3.929   5.476   3.960
  812TIP3    H1 2393   3.847   5.439   3.929
  812TIP3    H2 2394   3.936   5.560   3.916
  813TIP3   OH2 2395   0.101   0.222   1.500
  813TIP3    H1 2396   0.129   0.285   1.567
  813TIP3    H2 2397   0.010   0.203   1.522
  814TIP3   OH2 2398   4.473   2.315   6.542
  814TIP3    H1 2399   4.432   2.256   6.479
  814TIP3    H2 2400   4.406   2.329   6.609
  815TIP3   OH2 2401   7.005   2.794   6.688
  815TIP3    H1 2402   7.044   2.867   6.735
  815TIP3    H2 2403   6.997   2.826   6.597
  816TIP3   OH2 2404   0.495   0.455   3.519
  816TIP3    H1 2405   0.470   0.481   3.607
  816TIP3    H2 2406   0.436   0.505   3.462
  817TIP3   OH2 2407   0.681   0.495   0.322
  817TIP3    H1 2408   0.694   0.582   0.361
  817TIP3    H2 2409   0.745   0.491   0.251
  818TIP3   OH2 2410   5.568   5.825   3.558
  818TIP3    H1 2411   5.505   5.894   3.537
  818TIP3    H2 2412   5.638   5.836   3.493
  819TIP3   OH2 2413   4.560   5.436   5.789
  819TIP3    H1 2414   4.587   5.476   5.706
  819TIP3    H2 2415   4.497   5.498   5.826
  820TIP3   OH2 2416   4.440   5.625   0.519
  820TIP3    H1 2417   4.502   5.612   0.590
  820TIP3    H2 2418   4.426   5.720   0.516
  821TIP3   OH2 2419   6.441   4.573   4.184
  821TIP3    H1 2420   6.362   4.625   4.167
  821TIP3    H2 2421   6.425   4.491   4.138
  822TIP3   OH2 2422   8.165   1.831   4.903
  822TIP3    H1 2423   8.110   1.900   4.865
  822TIP3    H2 2424   8.190   1.776   4.829
  823TIP3   OH2 2425   8.260   2.282   4.359
  823TIP3    H1 2426   8.236   2.203   4.309
  823TIP3    H2 2427   8.353   2.272   4.377
  824TIP3   OH2 2428   1.652   0.992   0.805
  824TIP3    H1 2429   1.616   0.910   0.770
  824TIP3    H2 2430   1.612   1.060   0.751
  825TIP3   OH2 2431   2.648   3.998   1.234
  825TIP3    H1 2432   2.572   3.963   1.189
  825TIP3    H2 2433   2.639   3.968   1.324
  826TIP3   OH2 2434   2.248   3.908   3.464
  826TIP3    H1 2435   2.302   3.974   3.506
  826TIP3    H2 2436   2.176   3.958   3.423
  827TIP3   OH2 2437   0.909   7.084   0.668
  827TIP3    H1 2438   0.814   7.080   0.673
  827TIP3    H2 2439   0.935   6.998   0.635
  828TIP3   OH2 2440   3.582   1.352   0.183
  828TIP3    H1 2441   3.643   1.422   0.161
  828TIP3    H2 2442   3.521   1.392   0.245
  829TIP3   OH2 2443   4.759   5.882   0.518
  829TIP3    H1 2444   4.665   5.880   0.536
  829TIP3    H2 2445   4.770   5.824   0.443
  830TIP3   OH2 2446   5.957   1.654   4.397
  830TIP3    H1 2447   5.915   1.666   4.482
  830TIP3    H2 2448   6.050   1.648   4.417
  831TIP3   OH2 2449   5.151   7.533   1.274
  831TIP3    H1 2450   5.238   7.492   1.274
  831TIP3    H2 2451   5.152   7.593   1.348
  832TIP3   OH2 2452   1.539   1.865   1.853
  832TIP3    H1 2453   1.473   1.883   1.785
  832TIP3    H2 2454   1.592   1.945   1.857
  833TIP3   OH2 2455   2.083   4.322   3.455
  833TIP3    H1 2456   1.997   4.282   3.465
  833TIP3    H2 2457   2.143   4.261   3.498
  834TIP3   OH2 2458   5.859   7.249   6.303
  834TIP3    H1 2459   5.925   7.277   6.366
  834TIP3    H2 2460   5.823   7.168   6.339
  835TIP3   OH2 2461   2.959   5.318   3.693
  835TIP3    H1 2462   2.938   5.257   3.763
  835TIP3    H2 2463   2.920   5.280   3.615
  836TIP3   OH2 2464   3.029   4.825   2.078
  836TIP3    H1 2465   3.114   4.805   2.039
  836TIP3    H2 2466   2.968   4.819   2.004
  837TIP3   OH2 2467   5.213   3.544   2.510
  837TIP3    H1 2468   5.301   3.537   2.473
  837TIP3    H2 2469   5.171   3.461   2.487
  838TIP3   OH2 2470   0.880   0.982   2.831
  838TIP3    H1 2471   0.807   0.922   2.850
  838TIP3    H2 2472   0.941   0.930   2.779
  839TIP3   OH2 2473   7.681   4.995   0.530
  839TIP3    H1 2474   7.621   4.921   0.537
  839TIP3    H2 2475   7.633   5.060   0.480
  840TIP3   OH2 2476   7.601   2.032   1.127
  840TIP3    H1 2477   7.550   2.112   1.112
  840TIP3    H2 2478   7.590   2.014   1.221
  841TIP3   OH2 2479   6.112   4.124   3.877
  841TIP3    H1 2480   6.077   4.052   3.929
  841TIP3    H2 2481   6.206   4.123   3.894
  842TIP3   OH2 2482   3.033   2.337   0.753
  842TIP3    H1 2483   3.086   2.374   0.683
  842TIP3    H2 2484   3.084   2.352   0.833
  843TIP3   OH2 2485   6.474   4.894   4.835
  843TIP3    H1 2486   6.404   4.879   4.899
  843TIP3    H2 2487   6.515   4.808   4.825
  844TIP3   OH2 2488   5.764   6.220   5.538
  844TIP3    H1 2489   5.782   6.188   5.626
  844TIP3    H2 2490   5.789   6.147   5.481
  845TIP3   OH2 2491   3.834   6.597   6.222
  845TIP3    H1 2492   3.850   6.629   6.133
  845TIP3    H2 2493   3.921   6.578   6.256
  846TIP3   OH2 2494   7.781   4.730   4.331
  846TIP3    H1 2495   7.845   4.673   4.374
  846TIP3    H2 2496   7.834   4.790   4.278
  847TIP3   OH2 2497   1.040   4.263   5.217
  847TIP3    H1 2498   1.107   4.326   5.191
  847TIP3    H2 2499   1.085   4.179   5.217
  848TIP3   OH2 2500   4.100   1.492   5.966
  848TIP3    H1 2501   4.058   1.563   5.919
  848TIP3    H2 2502   4.037   1.419   5.960
  849TIP3   OH2 2503   5.674   6.429   5.168
  849TIP3    H1 2504   5.745   6.492   5.156
  849TIP3    H2 2505   5.609   6.454   5.103
  850TIP3   OH2 2506   7.776   4.001   2.166
  850TIP3    H1 2507   7.730   3.919   2.146
  850TIP3    H2 2508   7.863   3.972   2.195
  851TIP3   OH2 2509   4.595   3.187   3.927
  851TIP3    H1 2510   4.645   3.226   3.998
  851TIP3    H2 2511   4.546   3.261   3.889
  852TIP3   OH2 2512   1.419   7.722   0.924
  852TIP3    H1 2513   1.436   7.767   0.842
  852TIP3    H2 2514   1.493   7.662   0.934
  853TIP3   OH2 2515   8.199   4.999   6.022
  853TIP3    H1 2516   8.125   4.977   5.966
  853TIP3    H2 2517   8.238   5.076   5.980
  854TIP3   OH2 2518   2.746   1.010   4.278
  854TIP3    H1 2519   2.700   1.018   4.195
  854TIP3    H2 2520   2.675   1.005   4.343
  855TIP3   OH2 2521   2.743   0.490   4.828
  855TIP3    H1 2522   2.824   0.443   4.807
  855TIP3    H2 2523   2.761   0.532   4.912
  856TIP3   OH2 2524   7.206   2.907   6.206
  856TIP3    H1 2525   7.164   2.926   6.290
  856TIP3    H2 2526   7.204   2.990   6.159
  857TIP3   OH2 2527   6.430   1.662   6.153
  857TIP3    H1 2528   6.346   1.660   6.106
  857TIP3    H2 2529   6.423   1.593   6.218
  858TIP3   OH2 2530   7.043   1.557   1.743
  858TIP3    H1 2531   6.971   1.621   1.744
  858TIP3    H2 2532   7.108   1.594   1.803
  859TIP3   OH2 2533   4.316   5.963   5.608
  859TIP3    H1 2534   4.263   5.887   5.582
  859TIP3    H2 2535   4.367   5.984   5.530
  860TIP3   OH2 2536   3.292   5.465   2.687
  860TIP3    H1 2537   3.203   5.433   2.698
  860TIP3    H2 2538   3.344   5.413   2.748
  861TIP3   OH2 2539   0.852   7.161   6.587
  861TIP3    H1 2540   0.797   7.239   6.587
  861TIP3    H2 2541   0.911   7.174   6.513
  862TIP3   OH2 2542   5.545   7.369   5.494
  862TIP3    H1 2543   5.630   7.401   5.524
  862TIP3    H2 2544   5.510   7.320   5.568
  863TIP3   OH2 2545   7.575   2.010   5.571
  863TIP3    H1 2546   7.639   2.020   5.500
  863TIP3    H2 2547   7.600   2.078   5.635
  864TIP3   OH2 2548   7.951   0.815   4.204
  864TIP3    H1 2549   7.904   0.890   4.167
  864TIP3    H2 2550   8.034   0.852   4.234
  865TIP3   OH2 2551   6.287   0.689   4.454
  865TIP3    H1 2552   6.206   0.733   4.481
  865TIP3    H2 2553   6.303   0.721   4.365
  866TIP3   OH2 2554   1.246   5.104   4.905
  866TIP3    H1 2555   1.266   5.010   4.908
  866TIP3    H2 2556   1.325   5.147   4.937
  867TIP3   OH2 2557   5.281   5.986   5.839
  867TIP3    H1 2558   5.227   5.907   5.839
  867TIP3    H2 2559   5.222   6.056   5.813
  868TIP3   OH2 2560   4.248   3.015   1.467
  868TIP3    H1 2561   4.257   3.109   1.449
  868TIP3    H2 2562   4.285   2.972   1.389
  869TIP3   OH2 2563   7.793   6.789   3.153
  869TIP3    H1 2564   7.878   6.825   3.128
  869TIP3    H2 2565   7.744   6.785   3.071
  870TIP3   OH2 2566   4.808   5.306   5.630
  870TIP3    H1 2567   4.872   5.319   5.700
  870TIP3    H2 2568   4.849   5.242   5.572
  871TIP3   OH2 2569   5.130   5.849   6.209
  871TIP3    H1 2570   5.128   5.900   6.291
  871TIP3    H2 2571   5.049   5.872   6.165
  872TIP3   OH2 2572   2.609   1.386   5.880
  872TIP3    H1 2573   2.603   1.381   5.975
  872TIP3    H2 2574   2.529   1.344   5.848
  873TIP3   OH2 2575   0.660   6.965   6.616
  873TIP3    H1 2576   0.703   7.044   6.585
  873TIP3    H2 2577   0.694   6.896   6.559
  874TIP3   OH2 2578   1.773   0.893   0.488
  874TIP3    H1 2579   1.780   0.983   0.522
  874TIP3    H2 2580   1.743   0.904   0.398
  875TIP3   OH2 2581   4.830   3.004   2.317
  875TIP3    H1 2582   4.745   2.979   2.280
  875TIP3    H2 2583   4.894   2.968   2.256
  876TIP3   OH2 2584   4.036   1.042   0.701
  876TIP3    H1 2585   3.993   1.047   0.615
  876TIP3    H2 2586   4.115   1.094   0.692
  877TIP3   OH2 2587   4.302   6.952   1.929
  877TIP3    H1 2588   4.303   6.864   1.891
  877TIP3    H2 2589   4.357   7.004   1.870
  878TIP3   OH2 2590   0.861   6.775   3.286
  878TIP3    H1 2591   0.790   6.776   3.351
  878TIP3    H2 2592   0.835   6.707   3.224
  879TIP3   OH2 2593   2.538   1.561   0.080
  879TIP3    H1 2594   2.631   1.554   0.057
  879TIP3    H2 2595   2.529   1.650   0.114
  880TIP3   OH2 2596   3.938   4.070   2.591
  880TIP3    H1 2597   3.890   4.029   2.519
  880TIP3    H2 2598   3.908   4.161   2.590
  881TIP3   OH2 2599   5.051   0.026   2.323
  881TIP3    H1 2600   5.147   0.030   2.318
  881TIP3    H2 2601   5.021   0.097   2.266
  882TIP3   OH2 2602   7.950   2.531   5.471
  882TIP3    H1 2603   7.927   2.467   5.403
  882TIP3    H2 2604   7.955   2.480   5.552
  883TIP3   OH2 2605   5.774   3.071   4.166
  883TIP3    H1 2606   5.787   3.164   4.150
  883TIP3    H2 2607   5.706   3.067   4.234
  884TIP3   OH2 2608   0.975   6.636   6.631
  884TIP3    H1 2609   1.019   6.587   6.700
  884TIP3    H2 2610   0.884   6.642   6.660
  885TIP3   OH2 2611   0.086   4.883   4.696
  885TIP3    H1 2612   0.142   4.937   4.752
  885TIP3    H2 2613   0.083   4.798   4.739
  886TIP3   OH2 2614   5.951   5.373   3.992
  886TIP3    H1 2615   5.885   5.408   3.933
  886TIP3    H2 2616   5.926   5.281   4.004
  887TIP3   OH2 2617   7.217   0.757   2.536
  887TIP3    H1 2618   7.157   0.697   2.581
  887TIP3    H2 2619   7.188   0.755   2.445
  888TIP3   OH2 2620   7.251   6.084   3.843
  888TIP3    H1 2621   7.312   6.024   3.799
  888TIP3    H2 2622   7.222   6.036   3.920
  889TIP3   OH2 2623   6.618   2.603   3.164
  889TIP3    H1 2624   6.649   2.513   3.156
  889TIP3    H2 2625   6.589   2.611   3.256
  890TIP3   OH2 2626   6.169   7.045   3.847
  890TIP3    H1 2627   6.097   7.000   3.801
  890TIP3    H2 2628   6.210   7.099   3.780
  891TIP3   OH2 2629   3.241   3.200   3.824
  891TIP3    H1 2630   3.233   3.295   3.820
  891TIP3    H2 2631   3.265   3.181   3.914
  892TIP3   OH2 2632   2.989   6.906   3.516
  892TIP3    H1 2633   2.901   6.867   3.508
  892TIP3    H2 2634   2.982   6.967   3.589
  893TIP3   OH2 2635   0.716   5.634   3.572
  893TIP3    H1 2636   0.649   5.701   3.584
  893TIP3    H2 2637   0.725   5.626   3.477
  894TIP3   OH2 2638   8.042   4.409   1.281
  894TIP3    H1 2639   8.107   4.355   1.236
  894TIP3    H2 2640   7.968   4.413   1.220
  895TIP3   OH2 2641   6.049   2.814   5.164
  895TIP3    H1 2642   6.121   2.756   5.191
  895TIP3    H2 2643   6.030   2.788   5.074
  896TIP3   OH2 2644   4.588   1.042   6.541
  896TIP3    H1 2645   4.643   1.058   6.465
  896TIP3    H2 2646   4.512   0.994   6.506
  897TIP3   OH2 2647   5.611   0.461   2.814
  897TIP3    H1 2648   5.597   0.367   2.830
  897TIP3    H2 2649   5.563   0.479   2.733
  898TIP3   OH2 2650   4.976   6.112   2.503
  898TIP3    H1 2651   4.990   6.097   2.410
  898TIP3    H2 2652   5.055   6.077   2.545
  899TIP3   OH2 2653   6.698   0.073   0.997
  899TIP3    H1 2654   6.794   0.075   1.000
  899TIP3    H2 2655   6.675   0.145   0.938
  900TIP3   OH2 2656   7.955   1.843   3.723
  900TIP3    H1 2657   7.873   1.838   3.674
  900TIP3    H2 2658   8.008   1.772   3.687
  901TIP3   OH2 2659   7.534   7.616   2.564
  901TIP3    H1 2660   7.514   7.533   2.607
  901TIP3    H2 2661   7.627   7.612   2.545
  902TIP3   OH2 2662   2.747   5.888   0.332
  902TIP3    H1 2663   2.811   5.833   0.376
  902TIP3    H2 2664   2.796   5.966   0.306
  903TIP3   OH2 2665   2.848   5.159   1.417
  903TIP3    H1 2666   2.850   5.145   1.512
  903TIP3    H2 2667   2.768   5.209   1.402
  904TIP3   OH2 2668   0.865   5.804   4.867
  904TIP3    H1 2669   0.780   5.784   4.827
  904TIP3    H2 2670   0.871   5.899   4.866
  905TIP3   OH2 2671   3.244   2.996   6.304
  905TIP3    H1 2672   3.313   3.052   6.340
  905TIP3    H2 2673   3.265   2.988   6.211
  906TIP3   OH2 2674   7.544   2.581   0.608
  906TIP3    H1 2675   7.519   2.668   0.638
  906TIP3    H2 2676   7.556   2.590   0.514
  907TIP3   OH2 2677   6.053   5.584   1.005
  907TIP3    H1 2678   6.012   5.502   0.977
  907TIP3    H2 2679   6.092   5.564   1.090
  908TIP3   OH2 2680   6.249   5.840   6.602
  908TIP3    H1 2681   6.235   5.747   6.621
  908TIP3    H2 2682   6.171   5.883   6.636
  909TIP3   OH2 2683   7.119   5.013   5.586
  909TIP3    H1 2684   7.193   5.073   5.577
  909TIP3    H2 2685   7.116   4.966   5.502
  910TIP3   OH2 2686   7.301   1.152   5.559
  910TIP3    H1 2687   7.341   1.181   5.477
  910TIP3    H2 2688   7.244   1.080   5.533
  911TIP3   OH2 2689   1.887   7.405   5.658
  911TIP3    H1 2690   1.821   7.450   5.605
  911TIP3    H2 2691   1.918   7.470   5.720
  912TIP3   OH2 2692   2.044   0.394   4.173
  912TIP3    H1 2693   2.033   0.395   4.268
  912TIP3    H2 2694   1.961   0.427   4.139
  913TIP3   OH2 2695   5.367   0.659   3.251
  913TIP3    H1 2696   5.330   0.698   3.330
  913TIP3    H2 2697   5.440   0.717   3.227
  914TIP3   OH2 2698   5.915   0.333   0.716
  914TIP3    H1 2699   5.967   0.410   0.691
  914TIP3    H2 2700   5.970   0.259   0.692
  915TIP3   OH2 2701   4.620   6.268   4.871
  915TIP3    H1 2702   4.676   6.195   4.844
  915TIP3    H2 2703   4.668   6.347   4.844
  916TIP3   OH2 2704   1.440   3.553   3.889
  916TIP3    H1 2705   1.411   3.643   3.878
  916TIP3    H2 2706   1.487   3.553   3.973
  917TIP3   OH2 2707   4.921   4.160   1.691
  917TIP3    H1 2708   4.884   4.077   1.721
  917TIP3    H2 2709   4.855   4.194   1.631
  918TIP3   OH2 2710   7.037   1.895   3.468
  918TIP3    H1 2711   7.106   1.854   3.416
  918TIP3    H2 2712   6.967   1.913   3.405
  919TIP3   OH2 2713   5.710   2.424   1.617
  919TIP3    H1 2714   5.651   2.479   1.565
  919TIP3    H2 2715   5.787   2.480   1.632
  920TIP3   OH2 2716   6.346   2.437   5.810
  920TIP3    H1 2717   6.327   2.372   5.743
  920TIP3    H2 2718   6.299   2.515   5.783
  921TIP3   OH2 2719   4.908   5.559   1.260
  921TIP3    H1 2720   4.877   5.473   1.288
  921TIP3    H2 2721   4.876   5.567   1.170
  922TIP3   OH2 2722   0.707   5.156   2.623
  922TIP3    H1 2723   0.685   5.249   2.626
  922TIP3    H2 2724   0.777   5.150   2.559
  923TIP3   OH2 2725   7.820   4.928   5.435
  923TIP3    H1 2726   7.868   4.989   5.379
  923TIP3    H2 2727   7.837   4.842   5.397
  924TIP3   OH2 2728   1.554   5.076   1.578
  924TIP3    H1 2729   1.542   5.127   1.658
  924TIP3    H2 2730   1.525   4.988   1.602
  925TIP3   OH2 2731   4.100   4.019   1.940
  925TIP3    H1 2732   4.025   4.079   1.934
  925TIP3    H2 2733   4.161   4.050   1.873
  926TIP3   OH2 2734   6.960   1.732   2.972
  926TIP3    H1 2735   6.971   1.813   3.023
  926TIP3    H2 2736   7.001   1.665   3.026
  927TIP3   OH2 2737   0.903   1.360   2.114
  927TIP3    H1 2738   0.819   1.355   2.161
  927TIP3    H2 2739   0.914   1.273   2.076
  928TIP3   OH2 2740   1.171   3.269   0.011
  928TIP3    H1 2741   1.104   3.201   0.027
  928TIP3    H2 2742   1.139   3.345   0.060
  929TIP3   OH2 2743   5.055   4.766   1.403
  929TIP3    H1 2744   5.108   4.718   1.340
  929TIP3    H2 2745   5.099   4.850   1.415
  930TIP3   OH2 2746   1.608   4.480   6.276
  930TIP3    H1 2747   1.513   4.485   6.290
  930TIP3    H2 2748   1.634   4.571   6.261
  931TIP3   OH2 2749   7.550   0.027   2.977
  931TIP3    H1 2750   7.609   0.023   3.052
  931TIP3    H2 2751   7.577   0.105   2.929
  932TIP3   OH2 2752   2.918   2.017   4.915
  932TIP3    H1 2753   3.010   2.028   4.891
  932TIP3    H2 2754   2.904   2.080   4.986
  933TIP3   OH2 2755   5.204   4.274   1.087
  933TIP3    H1 2756   5.193   4.262   0.993
  933TIP3    H2 2757   5.118   4.302   1.119
  934TIP3   OH2 2758   4.597   6.547   6.246
  934TIP3    H1 2759   4.653   6.576   6.319
  934TIP3    H2 2760   4.534   6.618   6.235
  935TIP3   OH2 2761   2.472   0.830   1.258
  935TIP3    H1 2762   2.425   0.837   1.174
  935TIP3    H2 2763   2.518   0.913   1.266
  936TIP3   OH2 2764   2.145   2.454   6.186
  936TIP3    H1 2765   2.194   2.375   6.163
  936TIP3    H2 2766   2.195   2.494   6.257
  937TIP3   OH2 2767   3.665   0.989   3.210
  937TIP3    H1 2768   3.666   0.985   3.306
  937TIP3    H2 2769   3.756   1.002   3.185
  938TIP3   OH2 2770   7.233   6.929   3.926
  938TIP3    H1 2771   7.175   6.997   3.893
  938TIP3    H2 2772   7.321   6.966   3.916
  939TIP3   OH2 2773   7.105   6.724   4.978
  939TIP3    H1 2774   7.160   6.773   5.041
  939TIP3    H2 2775   7.026   6.702   5.028
  940TIP3   OH2 2776   3.640   3.481   4.356
  940TIP3    H1 2777   3.582   3.439   4.419
  940TIP3    H2 2778   3.703   3.413   4.333
  941TIP3   OH2 2779   4.112   3.399   6.716
  941TIP3    H1 2780   4.198   3.402   6.758
  941TIP3    H2 2781   4.105   3.309   6.683
  942TIP3   OH2 2782   4.953   3.576   1.912
  942TIP3    H1 2783   5.047   3.564   1.895
  942TIP3    H2 2784   4.910   3.511   1.856
  943TIP3   OH2 2785   2.214   0.346   6.111
  943TIP3    H1 2786   2.239   0.412   6.175
  943TIP3    H2 2787   2.122   0.364   6.092
  944TIP3   OH2 2788   6.734   7.435   0.237
  944TIP3    H1 2789   6.761   7.388   0.158
  944TIP3    H2 2790   6.732   7.527   0.211
  945TIP3   OH2 2791   0.236   2.856   5.173
  945TIP3    H1 2792   0.200   2.909   5.102
  945TIP3    H2 2793   0.290   2.917   5.224
  946TIP3   OH2 2794   5.601   1.407   4.383
  946TIP3    H1 2795   5.631   1.339   4.322
  946TIP3    H2 2796   5.521   1.371   4.421
  947TIP3   OH2 2797   2.956   3.929   1.946
  947TIP3    H1 2798   2.958   3.834   1.950
  947TIP3    H2 2799   2.863   3.951   1.937
  948TIP3   OH2 2800   4.491   4.091   1.039
  948TIP3    H1 2801   4.521   4.008   1.075
  948TIP3    H2 2802   4.408   4.108   1.084
  949TIP3   OH2 2803   5.918   7.491   1.380
  949TIP3    H1 2804   5.940   7.567   1.326
  949TIP3    H2 2805   5.855   7.524   1.444
  950TIP3   OH2 2806   5.527   4.319   5.669
  950TIP3    H1 2807   5.502   4.411   5.669
  950TIP3    H2 2808   5.592   4.311   5.600
  951TIP3   OH2 2809   1.829   6.430   1.144
  951TIP3    H1 2810   1.752   6.375   1.131
  951TIP3    H2 2811   1.794   6.514   1.173
  952TIP3   OH2 2812   3.744   5.221   0.551
  952TIP3    H1 2813   3.792   5.263   0.622
  952TIP3    H2 2814   3.749   5.128   0.570
  953TIP3   OH2 2815   3.146   6.309   5.902
  953TIP3    H1 2816   3.197   6.363   5.842
  953TIP3    H2 2817   3.098   6.248   5.846
  954TIP3   OH2 2818   4.632   6.390   0.746
  954TIP3    H1 2819   4.641   6.475   0.702
  954TIP3    H2 2820   4.705   6.387   0.808
  955TIP3   OH2 2821   7.089   3.365   4.650
  955TIP3    H1 2822   7.129   3.436   4.600
  955TIP3    H2 2823   7.017   3.334   4.595
  956TIP3   OH2 2824   3.713   0.186   1.475
  956TIP3    H1 2825   3.735   0.190   1.568
  956TIP3    H2 2826   3.792   0.151   1.434
  957TIP3   OH2 2827   7.413   4.630   5.477
  957TIP3    H1 2828   7.378   4.618   5.565
  957TIP3    H2 2829   7.336   4.637   5.421
  958TIP3   OH2 2830   0.310   7.240   0.453
  958TIP3    H1 2831   0.385   7.292   0.480
  958TIP3    H2 2832   0.333   7.205   0.367
  959TIP3   OH2 2833   3.003   2.449   5.049
  959TIP3    H1 2834   2.947   2.377   5.079
  959TIP3    H2 2835   3.046   2.416   4.971
  960TIP3   OH2 2836   1.100   2.515   1.561
  960TIP3    H1 2837   1.081   2.482   1.649
  960TIP3    H2 2838   1.020   2.562   1.535
  961TIP3   OH2 2839   2.791   0.023   6.587
  961TIP3    H1 2840   2.842  -0.009   6.661
  961TIP3    H2 2841   2.842  -0.002   6.510
  962TIP3   OH2 2842   2.568   4.748   0.737
  962TIP3    H1 2843   2.637   4.703   0.689
  962TIP3    H2 2844   2.596   4.745   0.828
  963TIP3   OH2 2845   3.900   6.915   4.811
  963TIP3    H1 2846   3.959   6.987   4.789
  963TIP3    H2 2847   3.913   6.901   4.905
  964TIP3   OH2 2848   6.820   5.619   1.612
  964TIP3    H1 2849   6.885   5.629   1.543
  964TIP3    H2 2850   6.743   5.667   1.579
  965TIP3   OH2 2851   7.709   2.367   4.470
  965TIP3    H1 2852   7.649   2.431   4.507
  965TIP3    H2 2853   7.706   2.293   4.530
  966TIP3   OH2 2854   6.333   3.210   2.713
  966TIP3    H1 2855   6.368   3.158   2.640
  966TIP3    H2 2856   6.326   3.148   2.785
  967TIP3   OH2 2857   7.050   4.928   4.501
  967TIP3    H1 2858   7.133   4.891   4.532
  967TIP3    H2 2859   7.047   4.907   4.408
  968TIP3   OH2 2860   7.200   1.956   6.373
  968TIP3    H1 2861   7.145   2.001   6.308
  968TIP3    H2 2862   7.138   1.908   6.428
  969TIP3   OH2 2863   3.797   6.246   6.233
  969TIP3    H1 2864   3.808   6.256   6.138
  969TIP3    H2 2865   3.707   6.273   6.249
  970TIP3   OH2 2866   4.376   5.896   5.093
  970TIP3    H1 2867   4.444   5.963   5.100
  970TIP3    H2 2868   4.296   5.944   5.071
  971TIP3   OH2 2869   1.378   1.644   4.475
  971TIP3    H1 2870   1.442   1.703   4.434
  971TIP3    H2 2871   1.425   1.561   4.484
  972TIP3   OH2 2872   0.111   6.174   0.856
  972TIP3    H1 2873   0.021   6.190   0.829
  972TIP3    H2 2874   0.142   6.259   0.888
  973TIP3   OH2 2875   0.633   3.997   4.436
  973TIP3    H1 2876   0.689   4.038   4.502
  973TIP3    H2 2877   0.695   3.957   4.375
  974TIP3   OH2 2878   6.739   6.274   0.860
  974TIP3    H1 2879   6.680   6.333   0.814
  974TIP3    H2 2880   6.809   6.255   0.797
  975TIP3   OH2 2881   0.696   5.583   5.322
  975TIP3    H1 2882   0.621   5.551   5.273
  975TIP3    H2 2883   0.756   5.508   5.325
  976TIP3   OH2 2884   4.145   3.662   2.485
  976TIP3    H1 2885   4.100   3.721   2.545
  976TIP3    H2 2886   4.078   3.598   2.460
  977TIP3   OH2 2887   4.984   2.324   3.337
  977TIP3    H1 2888   4.902   2.307   3.384
  977TIP3    H2 2889   4.959   2.319   3.244
  978TIP3   OH2 2890   5.151   1.083   5.811
  978TIP3    H1 2891   5.135   1.081   5.717
  978TIP3    H2 2892   5.064   1.087   5.851
  979TIP3   OH2 2893   1.566   5.319   5.996
  979TIP3    H1 2894   1.543   5.399   6.044
  979TIP3    H2 2895   1.568   5.251   6.062
  980TIP3   OH2 2896   4.950   6.336   1.775
  980TIP3    H1 2897   4.960   6.325   1.869
  980TIP3    H2 2898   4.860   6.309   1.757
  981TIP3   OH2 2899   4.592   3.573   2.846
  981TIP3    H1 2900   4.632   3.561   2.760
  981TIP3    H2 2901   4.626   3.657   2.877
  982TIP3   OH2 2902   7.959   6.460   0.338
  982TIP3    H1 2903   8.039   6.512   0.342
  982TIP3    H2 2904   7.909   6.485   0.416
  983TIP3   OH2 2905   5.065   6.410   5.370
  983TIP3    H1 2906   5.119   6.333   5.388
  983TIP3    H2 2907   4.975   6.377   5.374
  984TIP3   OH2 2908   5.080   4.280   5.109
  984TIP3    H1 2909   5.085   4.225   5.188
  984TIP3    H2 2910   4.989   4.270   5.080
  985TIP3   OH2 2911   3.964   1.221   3.500
  985TIP3    H1 2912   3.927   1.205   3.586
  985TIP3    H2 2913   3.992   1.134   3.470
  986TIP3   OH2 2914   1.070   0.763   3.658
  986TIP3    H1 2915   1.106   0.840   3.613
  986TIP3    H2 2916   1.046   0.703   3.587
  987TIP3   OH2 2917   2.087   6.056   1.127
  987TIP3    H1 2918   2.066   6.145   1.098
  987TIP3    H2 2919   2.001   6.017   1.144
  988TIP3   OH2 2920   7.232   4.074   1.442
  988TIP3    H1 2921   7.221   3.979   1.438
  988TIP3    H2 2922   7.261   4.091   1.532
  989TIP3   OH2 2923   1.826   5.114   2.216
  989TIP3    H1 2924   1.861   5.058   2.285
  989TIP3    H2 2925   1.880   5.193   2.220
  990TIP3   OH2 2926   7.914   5.287   4.540
  990TIP3    H1 2927   7.890   5.217   4.600
  990TIP3    H2 2928   7.880   5.367   4.581
  991TIP3   OH2 2929   1.741   3.756   6.303
  991TIP3    H1 2930   1.747   3.850   6.322
  991TIP3    H2 2931   1.832   3.728   6.291
  992TIP3   OH2 2932   3.897   4.838   6.150
  992TIP3    H1 2933   3.916   4.785   6.072
  992TIP3    H2 2934   3.961   4.809   6.214
  993TIP3   OH2 2935   0.091   0.441   2.782
  993TIP3    H1 2936   0.159   0.398   2.730
  993TIP3    H2 2937   0.113   0.534   2.779
  994TIP3   OH2 2938   2.866   3.451   0.058
  994TIP3    H1 2939   2.922   3.397   0.114
  994TIP3    H2 2940   2.847   3.395  -0.018
  995TIP3   OH2 2941   1.611   0.787   6.745
  995TIP3    H1 2942   1.678   0.735   6.702
  995TIP3    H2 2943   1.581   0.732   6.817
  996TIP3   OH2 2944   7.040   3.824   0.281
  996TIP3    H1 2945   6.963   3.881   0.296
  996TIP3    H2 2946   7.114   3.879   0.306
  997TIP3   OH2 2947   3.811   1.247   4.181
  997TIP3    H1 2948   3.721   1.280   4.180
  997TIP3    H2 2949   3.845   1.271   4.268
  998TIP3   OH2 2950   0.159   4.787   3.879
  998TIP3    H1 2951   0.158   4.738   3.962
  998TIP3    H2 2952   0.071   4.825   3.873
  999TIP3   OH2 2953   1.146   6.677   4.610
  999TIP3    H1 2954   1.169   6.589   4.582
  999TIP3    H2 2955   1.053   6.672   4.631
 1000TIP3   OH2 2956   1.918   2.670   0.002
 1000TIP3    H1 2957   1.971   2.678   0.082
 1000TIP3    H2 2958   1.835   2.635   0.032
 1001TIP3   OH2 2959   6.110   4.872   2.886
 1001TIP3    H1 2960   6.085   4.940   2.824
 1001TIP3    H2 2961   6.173   4.818   2.838
 1002TIP3   OH2 2962   6.344   5.561   0.878
 1002TIP3    H1 2963   6.385   5.645   0.899
 1002TIP3    H2 2964   6.270   5.555   0.938
 1003TIP3   OH2 2965   1.787   2.653   5.322
 1003TIP3    H1 2966   1.841   2.600   5.381
 1003TIP3    H2 2967   1.845   2.724   5.294
 1004TIP3   OH2 2968   4.246   1.140   0.276
 1004TIP3    H1 2969   4.290   1.225   0.279
 1004TIP3    H2 2970   4.216   1.125   0.366
 1005TIP3   OH2 2971   1.613   7.198   3.874
 1005TIP3    H1 2972   1.578   7.110   3.886
 1005TIP3    H2 2973   1.681   7.205   3.942
 1006TIP3   OH2 2974   4.378   1.955   0.721
 1006TIP3    H1 2975   4.373   2.036   0.671
 1006TIP3    H2 2976   4.287   1.935   0.745
 1007TIP3   OH2 2977   4.574   6.557   4.975
 1007TIP3    H1 2978   4.540   6.567   4.886
 1007TIP3    H2 2979   4.517   6.491   5.015
 1008TIP3   OH2 2980   3.440   4.498   3.413
 1008TIP3    H1 2981   3.497   4.514   3.488
 1008TIP3    H2 2982   3.463   4.410   3.383
 1009TIP3   OH2 2983   7.856   3.687   2.065
 1009TIP3    H1 2984   7.877   3.648   1.980
 1009TIP3    H2 2985   7.766   3.716   2.057
 1010TIP3   OH2 2986   0.138   1.017   1.932
 1010TIP3    H1 2987   0.199   1.007   1.859
 1010TIP3    H2 2988   0.072   0.950   1.918
 1011TIP3   OH2 2989   4.713   0.335   4.576
 1011TIP3    H1 2990   4.624   0.318   4.544
 1011TIP3    H2 2991   4.717   0.289   4.660
 1012TIP3   OH2 2992   5.508   0.846   4.040
 1012TIP3    H1 2993   5.573   0.826   3.972
 1012TIP3    H2 2994   5.560   0.859   4.119
 1013TIP3   OH2 2995   2.280   1.982   2.865
 1013TIP3    H1 2996   2.342   2.026   2.924
 1013TIP3    H2 2997   2.333   1.915   2.821
 1014TIP3   OH2 2998   5.563   1.168   3.058
 1014TIP3    H1 2999   5.647   1.212   3.068
 1014TIP3    H2 3000   5.507   1.207   3.125
 1015TIP3   OH2 3001   3.354   4.943   2.403
 1015TIP3    H1 3002   3.340   5.017   2.345
 1015TIP3    H2 3003   3.267   4.922   2.437
 1016TIP3   OH2 3004   7.274   2.223   6.520
 1016TIP3    H1 3005   7.234   2.184   6.598
 1016TIP3    H2 3006   7.249   2.164   6.449
 1017TIP3   OH2 3007   3.925   4.966   1.793
 1017TIP3    H1 3008   3.885   4.935   1.713
 1017TIP3    H2 3009   3.902   5.059   1.797
 1018TIP3   OH2 3010   6.428   6.587   2.580
 1018TIP3    H1 3011   6.515   6.582   2.619
 1018TIP3    H2 3012   6.384   6.656   2.630
 1019TIP3   OH2 3013   3.910   6.888   5.105
 1019TIP3    H1 3014   3.914   6.868   5.198
 1019TIP3    H2 3015   3.817   6.881   5.083
 1020TIP3   OH2 3016   4.008   4.269   1.796
 1020TIP3    H1 3017   4.053   4.342   1.839
 1020TIP3    H2 3018   4.076   4.225   1.745
 1021TIP3   OH2 3019   3.703   4.113   4.110
 1021TIP3    H1 3020   3.667   4.042   4.057
 1021TIP3    H2 3021   3.627   4.155   4.149
 1022TIP3   OH2 3022   3.605   5.662   4.833
 1022TIP3    H1 3023   3.552   5.679   4.755
 1022TIP3    H2 3024   3.669   5.733   4.835
 1023TIP3   OH2 3025   4.120   2.504   3.536
 1023TIP3    H1 3026   4.039   2.554   3.526
 1023TIP3    H2 3027   4.189   2.571   3.530
 1024TIP3   OH2 3028   1.532   4.234   4.701
 1024TIP3    H1 3029   1.472   4.235   4.627
 1024TIP3    H2 3030   1.544   4.327   4.724
 1025TIP3   OH2 3031   1.015   3.082   0.903
 1025TIP3    H1 3032   1.010   3.146   0.973
 1025TIP3    H2 3033   0.982   3.129   0.826
 1026TIP3   OH2 3034   8.265   1.933   3.144
 1026TIP3    H1 3035   8.254   1.977   3.229
 1026TIP3    H2 3036   8.351   1.960   3.114
 1027TIP3   OH2 3037   7.470   4.829   0.839
 1027TIP3    H1 3038   7.444   4.920   0.826
 1027TIP3    H2 3039   7.459   4.814   0.933
 1028TIP3   OH2 3040   0.124   4.740   1.024
 1028TIP3    H1 3041   0.199   4.797   1.005
 1028TIP3    H2 3042   0.148   4.697   1.106
 1029TIP3   OH2 3043   6.042   3.498   3.273
 1029TIP3    H1 3044   6.103   3.516   3.202
 1029TIP3    H2 3045   6.038   3.403   3.277
 1030TIP3   OH2 3046   7.776   1.880   4.182
 1030TIP3    H1 3047   7.733   1.842   4.258
 1030TIP3    H2 3048   7.714   1.868   4.110
 1031TIP3   OH2 3049   3.906   0.970   4.618
 1031TIP3    H1 3050   3.817   0.996   4.640
 1031TIP3    H2 3051   3.896   0.889   4.568
 1032TIP3   OH2 3052   1.154   7.117   5.184
 1032TIP3    H1 3053   1.118   7.144   5.099
 1032TIP3    H2 3054   1.239   7.078   5.163
 1033TIP3   OH2 3055   1.614   6.748   5.303
 1033TIP3    H1 3056   1.657   6.675   5.348
 1033TIP3    H2 3057   1.575   6.708   5.225
 1034TIP3   OH2 3058   6.739   7.042   0.875
 1034TIP3    H1 3059   6.757   7.135   0.862
 1034TIP3    H2 3060   6.810   7.011   0.930
 1035TIP3   OH2 3061   3.064   2.545   4.061
 1035TIP3    H1 3062   3.120   2.489   4.114
 1035TIP3    H2 3063   3.044   2.620   4.116
 1036TIP3   OH2 3064   7.012   0.320   3.756
 1036TIP3    H1 3065   7.021   0.415   3.751
 1036TIP3    H2 3066   6.966   0.305   3.839
 1037TIP3   OH2 3067   2.586   3.740   6.336
 1037TIP3    H1 3068   2.501   3.700   6.319
 1037TIP3    H2 3069   2.571   3.834   6.325
 1038TIP3   OH2 3070   0.522   2.908   2.940
 1038TIP3    H1 3071   0.504   2.911   3.034
 1038TIP3    H2 3072   0.472   2.834   2.907
 1039TIP3   OH2 3073   0.256   2.130   5.631
 1039TIP3    H1 3074   0.227   2.063   5.692
 1039TIP3    H2 3075   0.325   2.088   5.579
 1040TIP3   OH2 3076   0.311   3.759   4.466
 1040TIP3    H1 3077   0.252   3.706   4.413
 1040TIP3    H2 3078   0.398   3.730   4.440
 1041TIP3   OH2 3079   2.808   5.357   6.537
 1041TIP3    H1 3080   2.748   5.321   6.602
 1041TIP3    H2 3081   2.782   5.315   6.455
 1042TIP3   OH2 3082   5.795   4.595   5.621
 1042TIP3    H1 3083   5.738   4.600   5.544
 1042TIP3    H2 3084   5.771   4.513   5.663
 1043TIP3   OH2 3085   0.754   4.670   6.085
 1043TIP3    H1 3086   0.663   4.696   6.076
 1043TIP3    H2 3087   0.800   4.750   6.110
 1044TIP3   OH2 3088   2.103   3.495   3.150
 1044TIP3    H1 3089   2.166   3.457   3.088
 1044TIP3    H2 3090   2.148   3.571   3.188
 1045TIP3   OH2 3091   0.774   0.844   6.145
 1045TIP3    H1 3092   0.842   0.793   6.189
 1045TIP3    H2 3093   0.816   0.927   6.125
 1046TIP3   OH2 3094   1.455   1.866   5.604
 1046TIP3    H1 3095   1.465   1.771   5.609
 1046TIP3    H2 3096   1.378   1.885   5.658
 1047TIP3   OH2 3097   2.707   7.201   5.171
 1047TIP3    H1 3098   2.613   7.222   5.176
 1047TIP3    H2 3099   2.749   7.285   5.150
 1048TIP3   OH2 3100   1.032   5.135   3.434
 1048TIP3    H1 3101   1.015   5.094   3.518
 1048TIP3    H2 3102   0.949   5.127   3.386
 1049TIP3   OH2 3103   2.172   6.128  -0.018
 1049TIP3    H1 3104   2.229   6.052  -0.012
 1049TIP3    H2 3105   2.154   6.152   0.073
 1050TIP3   OH2 3106   3.641   4.035   5.992
 1050TIP3    H1 3107   3.676   4.112   5.947
 1050TIP3    H2 3108   3.704   3.965   5.972
 1051TIP3   OH2 3109   0.788   4.107   4.948
 1051TIP3    H1 3110   0.737   4.188   4.946
 1051TIP3    H2 3111   0.878   4.135   4.932
 1052TIP3   OH2 3112   7.286   3.969   4.668
 1052TIP3    H1 3113   7.278   3.956   4.573
 1052TIP3    H2 3114   7.196   3.985   4.697
 1053TIP3   OH2 3115   1.276   5.355   0.037
 1053TIP3    H1 3116   1.253   5.388   0.124
 1053TIP3    H2 3117   1.192   5.345  -0.008
 1054TIP3   OH2 3118   4.884   2.143   4.330
 1054TIP3    H1 3119   4.809   2.093   4.360
 1054TIP3    H2 3120   4.926   2.088   4.265
 1055TIP3   OH2 3121   3.703   3.267   5.040
 1055TIP3    H1 3122   3.714   3.354   5.078
 1055TIP3    H2 3123   3.643   3.280   4.967
 1056TIP3   OH2 3124   3.966   7.231   3.788
 1056TIP3    H1 3125   3.973   7.324   3.810
 1056TIP3    H2 3126   4.016   7.221   3.707
 1057TIP3   OH2 3127   1.390   6.905   1.425
 1057TIP3    H1 3128   1.326   6.844   1.387
 1057TIP3    H2 3129   1.466   6.900   1.366
 1058TIP3   OH2 3130   4.825   7.810   6.238
 1058TIP3    H1 3131   4.752   7.775   6.289
 1058TIP3    H2 3132   4.790   7.821   6.150
 1059TIP3   OH2 3133   4.110   6.132   5.636
 1059TIP3    H1 3134   4.195   6.088   5.640
 1059TIP3    H2 3135   4.114   6.200   5.703
 1060TIP3   OH2 3136   0.391   2.152   2.608
 1060TIP3    H1 3137   0.351   2.070   2.636
 1060TIP3    H2 3138   0.478   2.151   2.648
 1061TIP3   OH2 3139   5.831   0.609   5.200
 1061TIP3    H1 3140   5.789   0.583   5.118
 1061TIP3    H2 3141   5.764   0.594   5.267
 1062TIP3   OH2 3142   5.606   5.846   0.468
 1062TIP3    H1 3143   5.543   5.861   0.539
 1062TIP3    H2 3144   5.577   5.764   0.427
 1063TIP3   OH2 3145   6.313   1.136   2.741
 1063TIP3    H1 3146   6.288   1.114   2.651
 1063TIP3    H2 3147   6.365   1.215   2.733
 1064TIP3   OH2 3148   6.257   0.294   2.293
 1064TIP3    H1 3149   6.209   0.241   2.229
 1064TIP3    H2 3150   6.325   0.236   2.326
 1065TIP3   OH2 3151   7.705   0.178   0.736
 1065TIP3    H1 3152   7.730   0.261   0.776
 1065TIP3    H2 3153   7.609   0.180   0.735
 1066TIP3   OH2 3154   3.585   3.449   0.435
 1066TIP3    H1 3155   3.513   3.499   0.396
 1066TIP3    H2 3156   3.566   3.358   0.411
 1067TIP3   OH2 3157   6.884   5.282   1.144
 1067TIP3    H1 3158   6.972   5.273   1.179
 1067TIP3    H2 3159   6.831   5.222   1.195
 1068TIP3   OH2 3160   4.941   4.178   6.276
 1068TIP3    H1 3161   4.855   4.189   6.317
 1068TIP3    H2 3162   5.003   4.199   6.346
 1069TIP3   OH2 3163   3.655   6.129   4.418
 1069TIP3    H1 3164   3.731   6.168   4.376
 1069TIP3    H2 3165   3.584   6.140   4.354
 1070TIP3   OH2 3166   7.818   2.092   2.199
 1070TIP3    H1 3167   7.867   2.155   2.145
 1070TIP3    H2 3168   7.756   2.052   2.140
 1071TIP3   OH2 3169   0.918   4.600   5.654
 1071TIP3    H1 3170   0.986   4.575   5.591
 1071TIP3    H2 3171   0.904   4.520   5.705
 1072TIP3   OH2 3172   2.712   5.768   2.285
 1072TIP3    H1 3173   2.786   5.788   2.229
 1072TIP3    H2 3174   2.723   5.676   2.308
 1073TIP3   OH2 3175   5.840   4.151   0.702
 1073TIP3    H1 3176   5.831   4.110   0.788
 1073TIP3    H2 3177   5.914   4.106   0.662
 1074TIP3   OH2 3178   2.092   0.023   1.134
 1074TIP3    H1 3179   2.184   0.049   1.136
 1074TIP3    H2 3180   2.044   0.106   1.140
 1075TIP3   OH2 3181   2.219   1.944   5.665
 1075TIP3    H1 3182   2.257   2.015   5.614
 1075TIP3    H2 3183   2.281   1.931   5.737
 1076TIP3   OH2 3184   2.997   4.873   5.281
 1076TIP3    H1 3185   2.906   4.883   5.308
 1076TIP3    H2 3186   3.023   4.960   5.249
 1077TIP3   OH2 3187   4.038   4.175   0.925
 1077TIP3    H1 3188   4.023   4.086   0.892
 1077TIP3    H2 3189   3.953   4.218   0.917
 1078TIP3   OH2 3190   3.580   3.583   2.291
 1078TIP3    H1 3191   3.500   3.560   2.338
 1078TIP3    H2 3192   3.550   3.620   2.208
 1079TIP3   OH2 3193   2.726   6.357   4.355
 1079TIP3    H1 3194   2.649   6.402   4.392
 1079TIP3    H2 3195   2.786   6.348   4.428
 1080TIP3   OH2 3196   3.292   1.155   1.844
 1080TIP3    H1 3197   3.383   1.135   1.822
 1080TIP3    H2 3198   3.275   1.106   1.924
 1081TIP3   OH2 3199   5.352   7.502   2.360
 1081TIP3    H1 3200   5.403   7.541   2.431
 1081TIP3    H2 3201   5.400   7.422   2.338
 1082TIP3   OH2 3202   2.263   4.492   4.919
 1082TIP3    H1 3203   2.304   4.530   4.997
 1082TIP3    H2 3204   2.325   4.510   4.848
 1083TIP3   OH2 3205   0.546   0.321   1.115
 1083TIP3    H1 3206   0.481   0.352   1.052
 1083TIP3    H2 3207   0.518   0.359   1.198
 1084TIP3   OH2 3208   7.610   0.914   1.218
 1084TIP3    H1 3209   7.579   0.840   1.271
 1084TIP3    H2 3210   7.552   0.986   1.242
 1085TIP3   OH2 3211   1.071   3.096   5.159
 1085TIP3    H1 3212   1.117   3.020   5.122
 1085TIP3    H2 3213   1.037   3.063   5.243
 1086TIP3   OH2 3214   6.637   2.322   5.963
 1086TIP3    H1 3215   6.712   2.362   5.920
 1086TIP3    H2 3216   6.674   2.261   6.027
 1087TIP3   OH2 3217   6.564   4.540   5.092
 1087TIP3    H1 3218   6.558   4.511   5.183
 1087TIP3    H2 3219   6.475   4.530   5.059
 1088TIP3   OH2 3220   2.285   6.346   4.963
 1088TIP3    H1 3221   2.275   6.441   4.967
 1088TIP3    H2 3222   2.376   6.331   4.989
 1089TIP3   OH2 3223   7.655   1.727   0.063
 1089TIP3    H1 3224   7.740   1.762   0.037
 1089TIP3    H2 3225   7.670   1.692   0.151
 1090TIP3   OH2 3226   1.304   4.118   1.963
 1090TIP3    H1 3227   1.274   4.209   1.967
 1090TIP3    H2 3228   1.252   4.073   2.029
 1091TIP3   OH2 3229   3.783   0.419   2.293
 1091TIP3    H1 3230   3.700   0.459   2.270
 1091TIP3    H2 3231   3.836   0.490   2.328
 1092TIP3   OH2 3232   2.433   4.205   1.934
 1092TIP3    H1 3233   2.491   4.250   1.995
 1092TIP3    H2 3234   2.435   4.114   1.963
 1093TIP3   OH2 3235   0.641   6.083   0.196
 1093TIP3    H1 3236   0.575   6.146   0.225
 1093TIP3    H2 3237   0.681   6.051   0.277
 1094TIP3   OH2 3238   7.017   7.462   0.954
 1094TIP3    H1 3239   7.041   7.522   1.024
 1094TIP3    H2 3240   7.046   7.506   0.873
 1095TIP3   OH2 3241   3.589   2.627   1.146
 1095TIP3    H1 3242   3.564   2.691   1.080
 1095TIP3    H2 3243   3.675   2.596   1.119
 1096TIP3   OH2 3244   2.978   2.019   0.299
 1096TIP3    H1 3245   2.900   1.967   0.318
 1096TIP3    H2 3246   2.962   2.103   0.341
 1097TIP3   OH2 3247   6.215   2.392   1.314
 1097TIP3    H1 3248   6.151   2.389   1.386
 1097TIP3    H2 3249   6.166   2.364   1.237
 1098TIP3   OH2 3250   6.821   4.553   2.634
 1098TIP3    H1 3251   6.856   4.583   2.550
 1098TIP3    H2 3252   6.898   4.523   2.682
 1099TIP3   OH2 3253   5.609   5.070   0.722
 1099TIP3    H1 3254   5.578   5.127   0.792
 1099TIP3    H2 3255   5.540   5.071   0.656
 1100TIP3   OH2 3256   7.749   6.353   2.123
 1100TIP3    H1 3257   7.658   6.370   2.147
 1100TIP3    H2 3258   7.762   6.260   2.144
 1101TIP3   OH2 3259   3.761   5.371   6.359
 1101TIP3    H1 3260   3.681   5.330   6.326
 1101TIP3    H2 3261   3.749   5.374   6.454
 1102TIP3   OH2 3262   4.978   6.664   2.019
 1102TIP3    H1 3263   4.990   6.586   2.072
 1102TIP3    H2 3264   5.004   6.637   1.931
 1103TIP3   OH2 3265   5.193   7.495   5.837
 1103TIP3    H1 3266   5.249   7.572   5.846
 1103TIP3    H2 3267   5.226   7.433   5.903
 1104TIP3   OH2 3268   7.982   0.941   4.566
 1104TIP3    H1 3269   7.943   0.854   4.576
 1104TIP3    H2 3270   8.033   0.935   4.485
 1105TIP3   OH2 3271   3.673   2.808   3.692
 1105TIP3    H1 3272   3.640   2.898   3.681
 1105TIP3    H2 3273   3.648   2.784   3.781
 1106TIP3   OH2 3274   5.709   4.719   2.800
 1106TIP3    H1 3275   5.717   4.629   2.768
 1106TIP3    H2 3276   5.653   4.763   2.735
 1107TIP3   OH2 3277   3.403   7.724   4.395
 1107TIP3    H1 3278   3.384   7.813   4.425
 1107TIP3    H2 3279   3.494   7.727   4.366
 1108TIP3   OH2 3280   2.453   6.748   3.730
 1108TIP3    H1 3281   2.509   6.734   3.806
 1108TIP3    H2 3282   2.452   6.664   3.685
 1109TIP3   OH2 3283   5.555   0.145   1.434
 1109TIP3    H1 3284   5.585   0.218   1.488
 1109TIP3    H2 3285   5.563   0.069   1.490
 1110TIP3   OH2 3286   7.444   6.997   5.500
 1110TIP3    H1 3287   7.515   6.953   5.453
 1110TIP3    H2 3288   7.466   6.986   5.593
 1111TIP3   OH2 3289   5.313   3.639   4.419
 1111TIP3    H1 3290   5.366   3.707   4.461
 1111TIP3    H2 3291   5.284   3.584   4.492
 1112TIP3   OH2 3292   2.552   0.875   3.207
 1112TIP3    H1 3293   2.601   0.949   3.171
 1112TIP3    H2 3294   2.576   0.801   3.153
 1113TIP3   OH2 3295   1.578   1.821   4.411
 1113TIP3    H1 3296   1.655   1.843   4.464
 1113TIP3    H2 3297   1.573   1.890   4.346
 1114TIP3   OH2 3298   1.449   0.096   6.242
 1114TIP3    H1 3299   1.438   0.044   6.322
 1114TIP3    H2 3300   1.465   0.031   6.174
 1115TIP3   OH2 3301   5.372   0.882   3.738
 1115TIP3    H1 3302   5.328   0.918   3.815
 1115TIP3    H2 3303   5.446   0.832   3.773
 1116TIP3   OH2 3304   2.257   0.630   1.256
 1116TIP3    H1 3305   2.329   0.668   1.307
 1116TIP3    H2 3306   2.300   0.585   1.183
 1117TIP3   OH2 3307   1.649   6.980   1.739
 1117TIP3    H1 3308   1.602   6.897   1.740
 1117TIP3    H2 3309   1.658   7.001   1.646
 1118TIP3   OH2 3310   0.097   1.408   0.449
 1118TIP3    H1 3311   0.039   1.466   0.498
 1118TIP3    H2 3312   0.060   1.406   0.361
 1119TIP3   OH2 3313   2.168   3.562   1.363
 1119TIP3    H1 3314   2.225   3.523   1.297
 1119TIP3    H2 3315   2.176   3.505   1.439
 1120TIP3   OH2 3316   6.478   2.814   6.234
 1120TIP3    H1 3317   6.536   2.831   6.308
 1120TIP3    H2 3318   6.452   2.723   6.244
 1121TIP3   OH2 3319   0.416   2.646   3.919
 1121TIP3    H1 3320   0.448   2.562   3.954
 1121TIP3    H2 3321   0.494   2.699   3.909
 1122TIP3   OH2 3322   6.307   7.041   4.078
 1122TIP3    H1 3323   6.267   7.031   3.992
 1122TIP3    H2 3324   6.355   7.123   4.073
 1123TIP3   OH2 3325   1.576   6.962   0.709
 1123TIP3    H1 3326   1.670   6.943   0.712
 1123TIP3    H2 3327   1.570   7.043   0.658
 1124TIP3   OH2 3328   1.576   6.452   2.047
 1124TIP3    H1 3329   1.618   6.391   2.107
 1124TIP3    H2 3330   1.495   6.478   2.093
 1125TIP3   OH2 3331   1.393   0.388   6.300
 1125TIP3    H1 3332   1.326   0.367   6.365
 1125TIP3    H2 3333   1.445   0.307   6.293
 1126TIP3   OH2 3334   3.792   3.509   3.348
 1126TIP3    H1 3335   3.803   3.458   3.429
 1126TIP3    H2 3336   3.856   3.471   3.288
 1127TIP3   OH2 3337   0.094   6.917   0.357
 1127TIP3    H1 3338   0.066   6.932   0.448
 1127TIP3    H2 3339   0.016   6.937   0.305
 1128TIP3   OH2 3340   5.294   7.573   1.512
 1128TIP3    H1 3341   5.360   7.639   1.534
 1128TIP3    H2 3342   5.317   7.497   1.566
 1129TIP3   OH2 3343   5.338   7.201   4.218
 1129TIP3    H1 3344   5.394   7.243   4.153
 1129TIP3    H2 3345   5.251   7.238   4.201
 1130TIP3   OH2 3346   7.153   7.693   3.701
 1130TIP3    H1 3347   7.084   7.675   3.765
 1130TIP3    H2 3348   7.164   7.788   3.705
 1131TIP3   OH2 3349   7.657   2.173   4.665
 1131TIP3    H1 3350   7.694   2.085   4.670
 1131TIP3    H2 3351   7.562   2.160   4.666
 1132TIP3   OH2 3352   4.399   1.848   1.150
 1132TIP3    H1 3353   4.456   1.799   1.090
 1132TIP3    H2 3354   4.402   1.938   1.117
 1133TIP3   OH2 3355   0.742   0.094   1.573
 1133TIP3    H1 3356   0.835   0.115   1.565
 1133TIP3    H2 3357   0.698   0.153   1.511
 1134TIP3   OH2 3358   5.566   1.676   4.291
 1134TIP3    H1 3359   5.554   1.594   4.338
 1134TIP3    H2 3360   5.491   1.681   4.232
 1135TIP3   OH2 3361   1.585   2.625   3.937
 1135TIP3    H1 3362   1.676   2.649   3.922
 1135TIP3    H2 3363   1.586   2.530   3.946
 1136TIP3   OH2 3364   5.675   0.806   1.610
 1136TIP3    H1 3365   5.746   0.810   1.546
 1136TIP3    H2 3366   5.677   0.891   1.654
 1137TIP3   OH2 3367   2.585   6.271   6.164
 1137TIP3    H1 3368   2.499   6.302   6.137
 1137TIP3    H2 3369   2.636   6.270   6.083
 1138TIP3   OH2 3370   5.780   2.445   4.812
 1138TIP3    H1 3371   5.704   2.443   4.754
 1138TIP3    H2 3372   5.794   2.354   4.837
 1139TIP3   OH2 3373   2.562   2.043   4.144
 1139TIP3    H1 3374   2.630   2.102   4.174
 1139TIP3    H2 3375   2.485   2.098   4.130
 1140TIP3   OH2 3376   7.944   4.461   6.526
 1140TIP3    H1 3377   7.979   4.548   6.505
 1140TIP3    H2 3378   7.947   4.456   6.621
 1141TIP3   OH2 3379   1.716   6.039   3.681
 1141TIP3    H1 3380   1.703   5.945   3.693
 1141TIP3    H2 3381   1.665   6.061   3.603
 1142TIP3   OH2 3382   0.117   5.554   2.907
 1142TIP3    H1 3383   0.210   5.556   2.928
 1142TIP3    H2 3384   0.082   5.636   2.943
 1143TIP3   OH2 3385   1.228   7.740   5.825
 1143TIP3    H1 3386   1.169   7.668   5.849
 1143TIP3    H2 3387   1.273   7.762   5.906
 1144TIP3   OH2 3388   7.385   3.091   2.414
 1144TIP3    H1 3389   7.475   3.123   2.414
 1144TIP3    H2 3390   7.393   2.996   2.421
 1145TIP3   OH2 3391   2.625   0.883   1.747
 1145TIP3    H1 3392   2.669   0.939   1.683
 1145TIP3    H2 3393   2.628   0.795   1.708
 1146TIP3   OH2 3394   8.287   3.772   2.759
 1146TIP3    H1 3395   8.273   3.776   2.854
 1146TIP3    H2 3396   8.284   3.679   2.738
 1147TIP3   OH2 3397   4.783   3.588   3.180
 1147TIP3    H1 3398   4.692   3.574   3.208
 1147TIP3    H2 3399   4.783   3.676   3.143
 1148TIP3   OH2 3400   5.658   2.165   3.581
 1148TIP3    H1 3401   5.649   2.178   3.675
 1148TIP3    H2 3402   5.669   2.071   3.571
 1149TIP3   OH2 3403   8.118   1.241   2.598
 1149TIP3    H1 3404   8.158   1.179   2.537
 1149TIP3    H2 3405   8.179   1.315   2.600
 1150TIP3   OH2 3406   5.403   2.370   5.058
 1150TIP3    H1 3407   5.323   2.388   5.106
 1150TIP3    H2 3408   5.453   2.311   5.115
 1151TIP3   OH2 3409   1.849   5.261   4.634
 1151TIP3    H1 3410   1.925   5.209   4.661
 1151TIP3    H2 3411   1.801   5.203   4.575
 1152TIP3   OH2 3412   7.276   6.350   2.382
 1152TIP3    H1 3413   7.241   6.437   2.401
 1152TIP3    H2 3414   7.307   6.318   2.467
 1153TIP3   OH2 3415   6.356   4.401   6.246
 1153TIP3    H1 3416   6.341   4.472   6.309
 1153TIP3    H2 3417   6.347   4.321   6.298
 1154TIP3   OH2 3418   6.548   2.460   5.433
 1154TIP3    H1 3419   6.623   2.438   5.378
 1154TIP3    H2 3420   6.548   2.556   5.436
 1155TIP3   OH2 3421   2.691   6.228   1.625
 1155TIP3    H1 3422   2.646   6.304   1.588
 1155TIP3    H2 3423   2.751   6.199   1.556
 1156TIP3   OH2 3424   6.980   0.951   5.028
 1156TIP3    H1 3425   7.002   0.911   5.113
 1156TIP3    H2 3426   6.891   0.985   5.040
 1157TIP3   OH2 3427   7.090   1.872   3.933
 1157TIP3    H1 3428   7.119   1.868   4.024
 1157TIP3    H2 3429   6.999   1.901   3.938
 1158TIP3   OH2 3430   7.833   7.368   3.893
 1158TIP3    H1 3431   7.806   7.457   3.916
 1158TIP3    H2 3432   7.928   7.368   3.907
 1159TIP3   OH2 3433   5.997   3.564   3.895
 1159TIP3    H1 3434   5.963   3.526   3.977
 1159TIP3    H2 3435   5.919   3.588   3.846
 1160TIP3   OH2 3436   1.134   1.174   3.245
 1160TIP3    H1 3437   1.192   1.238   3.203
 1160TIP3    H2 3438   1.119   1.107   3.179
 1161TIP3   OH2 3439   2.176   3.802   0.112
 1161TIP3    H1 3440   2.151   3.861   0.041
 1161TIP3    H2 3441   2.221   3.730   0.068
 1162TIP3   OH2 3442   4.528   0.358   4.865
 1162TIP3    H1 3443   4.497   0.350   4.956
 1162TIP3    H2 3444   4.577   0.278   4.849
 1163TIP3   OH2 3445   5.658   4.226   6.520
 1163TIP3    H1 3446   5.600   4.247   6.594
 1163TIP3    H2 3447   5.746   4.225   6.559
 1164TIP3   OH2 3448   3.228   5.207   5.336
 1164TIP3    H1 3449   3.286   5.284   5.333
 1164TIP3    H2 3450   3.188   5.204   5.249
 1165TIP3   OH2 3451   5.510   3.079   1.420
 1165TIP3    H1 3452   5.557   3.040   1.493
 1165TIP3    H2 3453   5.575   3.085   1.350
 1166TIP3   OH2 3454   1.137   3.323   2.140
 1166TIP3    H1 3455   1.166   3.404   2.096
 1166TIP3    H2 3456   1.072   3.286   2.080
 1167TIP3   OH2 3457   4.774   2.482   1.477
 1167TIP3    H1 3458   4.822   2.427   1.540
 1167TIP3    H2 3459   4.731   2.419   1.419
 1168TIP3   OH2 3460   0.766   1.557   1.816
 1168TIP3    H1 3461   0.719   1.498   1.875
 1168TIP3    H2 3462   0.839   1.590   1.869
 1169TIP3   OH2 3463   1.413   2.542   1.679
 1169TIP3    H1 3464   1.371   2.628   1.687
 1169TIP3    H2 3465   1.495   2.560   1.633
 1170TIP3   OH2 3466   2.235   3.605   1.042
 1170TIP3    H1 3467   2.177   3.572   0.974
 1170TIP3    H2 3468   2.244   3.531   1.103
 1171TIP3   OH2 3469   7.088   7.733   2.920
 1171TIP3    H1 3470   7.091   7.728   3.016
 1171TIP3    H2 3471   7.024   7.667   2.895
 1172TIP3   OH2 3472   5.282   0.817   6.514
 1172TIP3    H1 3473   5.260   0.891   6.570
 1172TIP3    H2 3474   5.249   0.740   6.560
 1173TIP3   OH2 3475   4.173   3.956   2.188
 1173TIP3    H1 3476   4.158   3.966   2.094
 1173TIP3    H2 3477   4.093   3.917   2.222
 1174TIP3   OH2 3478   0.421   6.980   2.956
 1174TIP3    H1 3479   0.395   7.060   3.002
 1174TIP3    H2 3480   0.443   7.009   2.868
 1175TIP3   OH2 3481   1.310   2.331   5.708
 1175TIP3    H1 3482   1.400   2.299   5.695
 1175TIP3    H2 3483   1.290   2.308   5.799
 1176TIP3   OH2 3484   6.291   6.797   2.683
 1176TIP3    H1 3485   6.300   6.880   2.635
 1176TIP3    H2 3486   6.325   6.817   2.770
 1177TIP3   OH2 3487   0.415   2.320   1.866
 1177TIP3    H1 3488   0.503   2.353   1.885
 1177TIP3    H2 3489   0.360   2.398   1.868
 1178TIP3   OH2 3490   0.864   4.428   6.507
 1178TIP3    H1 3491   0.837   4.368   6.576
 1178TIP3    H2 3492   0.882   4.510   6.553
 1179TIP3   OH2 3493   4.854   2.604   4.777
 1179TIP3    H1 3494   4.889   2.618   4.689
 1179TIP3    H2 3495   4.788   2.672   4.788
 1180TIP3   OH2 3496   5.553   1.804   4.745
 1180TIP3    H1 3497   5.482   1.820   4.807
 1180TIP3    H2 3498   5.576   1.891   4.712
 1181TIP3   OH2 3499   0.911   5.460   4.540
 1181TIP3    H1 3500   0.960   5.432   4.462
 1181TIP3    H2 3501   0.923   5.388   4.602
 1182TIP3   OH2 3502   1.914   4.374   0.366
 1182TIP3    H1 3503   1.978   4.443   0.380
 1182TIP3    H2 3504   1.834   4.419   0.340
 1183TIP3   OH2 3505   1.937   6.302   1.435
 1183TIP3    H1 3506   1.989   6.356   1.376
 1183TIP3    H2 3507   1.897   6.235   1.379
 1184TIP3   OH2 3508   5.060   6.411   2.804
 1184TIP3    H1 3509   5.000   6.434   2.734
 1184TIP3    H2 3510   5.005   6.403   2.882
 1185TIP3   OH2 3511   7.500   2.080   2.557
 1185TIP3    H1 3512   7.588   2.116   2.557
 1185TIP3    H2 3513   7.455   2.127   2.487
 1186TIP3   OH2 3514   2.617   6.807   4.163
 1186TIP3    H1 3515   2.613   6.711   4.170
 1186TIP3    H2 3516   2.554   6.838   4.228
 1187TIP3   OH2 3517   4.758   4.154   0.805
 1187TIP3    H1 3518   4.724   4.114   0.725
 1187TIP3    H2 3519   4.683   4.158   0.864
 1188TIP3   OH2 3520   0.153   4.441   5.318
 1188TIP3    H1 3521   0.061   4.450   5.293
 1188TIP3    H2 3522   0.164   4.347   5.336
 1189TIP3   OH2 3523   6.362   7.599   5.271
 1189TIP3    H1 3524   6.389   7.691   5.272
 1189TIP3    H2 3525   6.317   7.588   5.188
 1190TIP3   OH2 3526   7.732   1.271   5.736
 1190TIP3    H1 3527   7.769   1.353   5.767
 1190TIP3    H2 3528   7.645   1.266   5.776
 1191TIP3   OH2 3529   7.433   2.993   1.903
 1191TIP3    H1 3530   7.426   2.943   1.984
 1191TIP3    H2 3531   7.366   2.956   1.846
 1192TIP3   OH2 3532   6.977   6.543   2.566
 1192TIP3    H1 3533   6.983   6.448   2.579
 1192TIP3    H2 3534   7.025   6.581   2.639
 1193TIP3   OH2 3535   7.371   2.964   5.414
 1193TIP3    H1 3536   7.459   3.001   5.407
 1193TIP3    H2 3537   7.372   2.917   5.497
 1194TIP3   OH2 3538   4.157   7.331   1.723
 1194TIP3    H1 3539   4.219   7.308   1.653
 1194TIP3    H2 3540   4.208   7.382   1.785
 1195TIP3   OH2 3541   1.090   3.724   0.798
 1195TIP3    H1 3542   1.155   3.655   0.787
 1195TIP3    H2 3543   1.141   3.801   0.825
 1196TIP3   OH2 3544   0.853   4.244   2.473
 1196TIP3    H1 3545   0.803   4.312   2.428
 1196TIP3    H2 3546   0.882   4.186   2.403
 1197TIP3   OH2 3547   2.298   6.515   2.967
 1197TIP3    H1 3548   2.244   6.440   2.942
 1197TIP3    H2 3549   2.388   6.485   2.950
 1198TIP3   OH2 3550   0.974   0.828   5.381
 1198TIP3    H1 3551   1.064   0.839   5.411
 1198TIP3    H2 3552   0.952   0.912   5.340
 1199TIP3   OH2 3553   3.205   0.916   5.160
 1199TIP3    H1 3554   3.272   0.980   5.140
 1199TIP3    H2 3555   3.123   0.966   5.162
 1200TIP3   OH2 3556   3.900   3.772   5.685
 1200TIP3    H1 3557   3.933   3.829   5.615
 1200TIP3    H2 3558   3.821   3.732   5.649
 1201TIP3   OH2 3559   7.067   3.348   1.472
 1201TIP3    H1 3560   7.054   3.288   1.398
 1201TIP3    H2 3561   7.139   3.404   1.445
 1202TIP3   OH2 3562   2.880   3.696   1.046
 1202TIP3    H1 3563   2.803   3.730   1.001
 1202TIP3    H2 3564   2.954   3.724   0.992
 1203TIP3   OH2 3565   8.124   3.524   2.641
 1203TIP3    H1 3566   8.028   3.524   2.649
 1203TIP3    H2 3567   8.140   3.553   2.551
 1204TIP3   OH2 3568   3.152   6.944   4.742
 1204TIP3    H1 3569   3.149   6.934   4.647
 1204TIP3    H2 3570   3.166   6.855   4.775
 1205TIP3   OH2 3571   4.761   6.216   1.254
 1205TIP3    H1 3572   4.793   6.126   1.264
 1205TIP3    H2 3573   4.707   6.214   1.175
 1206TIP3   OH2 3574   0.319   7.747   1.661
 1206TIP3    H1 3575   0.406   7.714   1.684
 1206TIP3    H2 3576   0.314   7.833   1.703
 1207TIP3   OH2 3577   4.242   2.919   5.507
 1207TIP3    H1 3578   4.307   2.860   5.469
 1207TIP3    H2 3579   4.186   2.862   5.560
 1208TIP3   OH2 3580   5.048   1.612   2.394
 1208TIP3    H1 3581   5.078   1.565   2.472
 1208TIP3    H2 3582   5.129   1.637   2.349
 1209TIP3   OH2 3583   0.099   4.346   0.219
 1209TIP3    H1 3584   0.084   4.419   0.158
 1209TIP3    H2 3585   0.190   4.319   0.202
 1210TIP3   OH2 3586   4.161   2.578   3.159
 1210TIP3    H1 3587   4.127   2.666   3.174
 1210TIP3    H2 3588   4.234   2.590   3.099
 1211TIP3   OH2 3589   8.024   5.453   6.412
 1211TIP3    H1 3590   8.053   5.412   6.330
 1211TIP3    H2 3591   8.069   5.537   6.413
 1212TIP3   OH2 3592   2.829   3.436   5.812
 1212TIP3    H1 3593   2.913   3.405   5.846
 1212TIP3    H2 3594   2.853   3.505   5.750
 1213TIP3   OH2 3595   6.964   5.369   6.340
 1213TIP3    H1 3596   7.056   5.352   6.322
 1213TIP3    H2 3597   6.917   5.295   6.301
 1214TIP3   OH2 3598   0.029   0.698   0.319
 1214TIP3    H1 3599   0.074   0.640   0.257
 1214TIP3    H2 3600  -0.049   0.727   0.273
 1215TIP3   OH2 3601   4.010   1.129   6.505
 1215TIP3    H1 3602   3.962   1.097   6.581
 1215TIP3    H2 3603   4.064   1.200   6.538
 1216TIP3   OH2 3604   8.151   6.858   5.831
 1216TIP3    H1 3605   8.177   6.925   5.768
 1216TIP3    H2 3606   8.185   6.889   5.915
 1217TIP3   OH2 3607   2.623   2.056   6.377
 1217TIP3    H1 3608   2.661   1.974   6.346
 1217TIP3    H2 3609   2.629   2.115   6.302
 1218TIP3   OH2 3610   5.644   7.416   1.772
 1218TIP3    H1 3611   5.609   7.329   1.753
 1218TIP3    H2 3612   5.613   7.435   1.861
 1219TIP3   OH2 3613   5.345   0.401   0.216
 1219TIP3    H1 3614   5.386   0.351   0.145
 1219TIP3    H2 3615   5.405   0.393   0.290
 1220TIP3   OH2 3616   2.521   4.982   5.780
 1220TIP3    H1 3617   2.541   4.889   5.771
 1220TIP3    H2 3618   2.549   5.021   5.697
 1221TIP3   OH2 3619   1.431   0.555   0.877
 1221TIP3    H1 3620   1.350   0.606   0.870
 1221TIP3    H2 3621   1.402   0.464   0.879
 1222TIP3   OH2 3622   2.087   7.780   3.207
 1222TIP3    H1 3623   2.101   7.737   3.123
 1222TIP3    H2 3624   2.049   7.713   3.264
 1223TIP3   OH2 3625   4.538   4.833   4.828
 1223TIP3    H1 3626   4.543   4.859   4.736
 1223TIP3    H2 3627   4.461   4.777   4.834
 1224TIP3   OH2 3628   3.270   6.251   1.686
 1224TIP3    H1 3629   3.241   6.322   1.743
 1224TIP3    H2 3630   3.226   6.173   1.721
 1225TIP3   OH2 3631   4.437   1.728   1.418
 1225TIP3    H1 3632   4.451   1.762   1.330
 1225TIP3    H2 3633   4.487   1.646   1.421
 1226TIP3   OH2 3634   6.796   4.309   4.288
 1226TIP3    H1 3635   6.810   4.233   4.231
 1226TIP3    H2 3636   6.870   4.367   4.270
 1227TIP3   OH2 3637   5.466   3.909   1.750
 1227TIP3    H1 3638   5.537   3.862   1.793
 1227TIP3    H2 3639   5.484   4.002   1.767
 1228TIP3   OH2 3640   8.278   4.417   6.373
 1228TIP3    H1 3641   8.283   4.346   6.309
 1228TIP3    H2 3642   8.216   4.386   6.439
 1229TIP3   OH2 3643   5.476   5.069   3.500
 1229TIP3    H1 3644   5.522   5.129   3.441
 1229TIP3    H2 3645   5.385   5.071   3.469
 1230TIP3   OH2 3646   4.024   6.081   2.234
 1230TIP3    H1 3647   3.944   6.029   2.226
 1230TIP3    H2 3648   4.042   6.110   2.144
 1231TIP3   OH2 3649   7.327   2.367   2.109
 1231TIP3    H1 3650   7.314   2.347   2.202
 1231TIP3    H2 3651   7.409   2.324   2.086
 1232TIP3   OH2 3652   4.687   6.913   5.988
 1232TIP3    H1 3653   4.750   6.883   5.923
 1232TIP3    H2 3654   4.615   6.850   5.983
 1233TIP3   OH2 3655   1.062   2.992   3.022
 1233TIP3    H1 3656   0.976   2.965   3.053
 1233TIP3    H2 3657   1.045   3.035   2.938
 1234TIP3   OH2 3658   7.083   0.424   4.250
 1234TIP3    H1 3659   7.006   0.478   4.270
 1234TIP3    H2 3660   7.149   0.452   4.314
 1235TIP3   OH2 3661   4.381   1.230   3.350
 1235TIP3    H1 3662   4.418   1.207   3.435
 1235TIP3    H2 3663   4.417   1.164   3.290
 1236TIP3   OH2 3664   0.280   6.561   5.147
 1236TIP3    H1 3665   0.296   6.652   5.172
 1236TIP3    H2 3666   0.215   6.566   5.077
 1237TIP3   OH2 3667   1.469   3.288   4.433
 1237TIP3    H1 3668   1.378   3.268   4.457
 1237TIP3    H2 3669   1.466   3.299   4.338
 1238TIP3   OH2 3670   8.123   6.737   4.024
 1238TIP3    H1 3671   8.214   6.766   4.015
 1238TIP3    H2 3672   8.130   6.645   4.049
 1239TIP3   OH2 3673   6.176   4.976   4.227
 1239TIP3    H1 3674   6.246   4.964   4.291
 1239TIP3    H2 3675   6.115   5.036   4.269
 1240TIP3   OH2 3676   5.462   2.898   3.065
 1240TIP3    H1 3677   5.402   2.882   3.138
 1240TIP3    H2 3678   5.447   2.826   3.005
 1241TIP3   OH2 3679   4.645   1.798   4.263
 1241TIP3    H1 3680   4.652   1.871   4.324
 1241TIP3    H2 3681   4.727   1.751   4.272
 1242TIP3   OH2 3682   6.741   5.024   1.001
 1242TIP3    H1 3683   6.730   5.024   1.096
 1242TIP3    H2 3684   6.783   5.108   0.982
 1243TIP3   OH2 3685   1.471   2.219   1.273
 1243TIP3    H1 3686   1.438   2.251   1.357
 1243TIP3    H2 3687   1.423   2.138   1.258
 1244TIP3   OH2 3688   0.806   7.309   2.390
 1244TIP3    H1 3689   0.732   7.249   2.405
 1244TIP3    H2 3690   0.824   7.348   2.475
 1245TIP3   OH2 3691   4.166   3.272   1.395
 1245TIP3    H1 3692   4.072   3.259   1.388
 1245TIP3    H2 3693   4.175   3.358   1.437
 1246TIP3   OH2 3694   5.900   3.840   0.988
 1246TIP3    H1 3695   5.812   3.847   0.953
 1246TIP3    H2 3696   5.894   3.878   1.076
 1247TIP3   OH2 3697   0.926   5.810   3.599
 1247TIP3    H1 3698   0.855   5.758   3.562
 1247TIP3    H2 3699   0.966   5.753   3.664
 1248TIP3   OH2 3700   1.061   6.650   5.115
 1248TIP3    H1 3701   1.022   6.640   5.029
 1248TIP3    H2 3702   0.999   6.607   5.174
 1249TIP3   OH2 3703   4.102   1.066   5.763
 1249TIP3    H1 3704   4.096   1.075   5.668
 1249TIP3    H2 3705   4.186   1.023   5.778
 1250TIP3   OH2 3706   6.776   3.241   2.457
 1250TIP3    H1 3707   6.767   3.154   2.495
 1250TIP3    H2 3708   6.797   3.298   2.531
 1251TIP3   OH2 3709   1.596   4.615   5.460
 1251TIP3    H1 3710   1.651   4.630   5.537
 1251TIP3    H2 3711   1.658   4.591   5.391
 1252TIP3   OH2 3712   7.292   1.429   5.691
 1252TIP3    H1 3713   7.330   1.496   5.749
 1252TIP3    H2 3714   7.322   1.455   5.603
 1253TIP3   OH2 3715   6.458   2.553   2.790
 1253TIP3    H1 3716   6.511   2.626   2.822
 1253TIP3    H2 3717   6.368   2.578   2.810
 1254TIP3   OH2 3718   1.989   6.368   0.089
 1254TIP3    H1 3719   1.908   6.396   0.047
 1254TIP3    H2 3720   2.046   6.344   0.016
 1255TIP3   OH2 3721   3.316   3.274   2.501
 1255TIP3    H1 3722   3.355   3.203   2.553
 1255TIP3    H2 3723   3.275   3.331   2.566
 1256TIP3   OH2 3724   2.278   0.610   5.480
 1256TIP3    H1 3725   2.306   0.689   5.433
 1256TIP3    H2 3726   2.308   0.537   5.424
 1257TIP3   OH2 3727   1.305   6.170   1.505
 1257TIP3    H1 3728   1.378   6.146   1.448
 1257TIP3    H2 3729   1.275   6.087   1.542
 1258TIP3   OH2 3730   8.018   4.712   6.371
 1258TIP3    H1 3731   7.991   4.803   6.371
 1258TIP3    H2 3732   8.029   4.690   6.278
 1259TIP3   OH2 3733   7.110   0.119   1.723
 1259TIP3    H1 3734   7.045   0.053   1.699
 1259TIP3    H2 3735   7.155   0.139   1.640
 1260TIP3   OH2 3736   1.133   1.712   2.308
 1260TIP3    H1 3737   1.137   1.626   2.266
 1260TIP3    H2 3738   1.053   1.752   2.274
 1261TIP3   OH2 3739   1.000   4.629   3.466
 1261TIP3    H1 3740   0.971   4.671   3.385
 1261TIP3    H2 3741   1.075   4.575   3.439
 1262TIP3   OH2 3742   3.188   4.725   5.081
 1262TIP3    H1 3743   3.262   4.780   5.106
 1262TIP3    H2 3744   3.220   4.675   5.005
 1263TIP3   OH2 3745   2.151   0.493   5.853
 1263TIP3    H1 3746   2.071   0.440   5.863
 1263TIP3    H2 3747   2.222   0.429   5.859
 1264TIP3   OH2 3748   3.288   1.806   3.647
 1264TIP3    H1 3749   3.223   1.738   3.663
 1264TIP3    H2 3750   3.263   1.877   3.706
 1265TIP3   OH2 3751   6.536   6.000   0.421
 1265TIP3    H1 3752   6.483   5.944   0.478
 1265TIP3    H2 3753   6.526   5.962   0.334
 1266TIP3   OH2 3754   6.113   7.640   5.378
 1266TIP3    H1 3755   6.187   7.610   5.326
 1266TIP3    H2 3756   6.048   7.668   5.313
 1267TIP3   OH2 3757   0.802   0.289   2.682
 1267TIP3    H1 3758   0.845   0.205   2.698
 1267TIP3    H2 3759   0.755   0.277   2.600
 1268TIP3   OH2 3760   5.855   1.334   5.829
 1268TIP3    H1 3761   5.869   1.412   5.883
 1268TIP3    H2 3762   5.816   1.368   5.748
 1269TIP3   OH2 3763   6.967   2.387   4.228
 1269TIP3    H1 3764   6.988   2.343   4.146
 1269TIP3    H2 3765   7.042   2.443   4.246
 1270TIP3   OH2 3766   6.016   6.909   1.193
 1270TIP3    H1 3767   6.078   6.981   1.205
 1270TIP3    H2 3768   6.001   6.876   1.282
 1271TIP3   OH2 3769   0.131   2.919   2.374
 1271TIP3    H1 3770   0.219   2.887   2.354
 1271TIP3    H2 3771   0.145   3.003   2.416
 1272TIP3   OH2 3772   3.225   1.182   2.953
 1272TIP3    H1 3773   3.309   1.158   2.992
 1272TIP3    H2 3774   3.220   1.277   2.961
 1273TIP3   OH2 3775   2.333   5.406   4.999
 1273TIP3    H1 3776   2.261   5.352   4.966
 1273TIP3    H2 3777   2.337   5.385   5.092
 1274TIP3   OH2 3778   1.560   5.990   2.778
 1274TIP3    H1 3779   1.554   6.025   2.867
 1274TIP3    H2 3780   1.625   6.046   2.735
 1275TIP3   OH2 3781   5.043   3.138   5.677
 1275TIP3    H1 3782   4.983   3.203   5.641
 1275TIP3    H2 3783   5.017   3.056   5.637
 1276TIP3   OH2 3784   6.040   5.938   2.824
 1276TIP3    H1 3785   6.015   6.012   2.768
 1276TIP3    H2 3786   6.064   5.979   2.908
 1277TIP3   OH2 3787   0.574   0.258   2.136
 1277TIP3    H1 3788   0.660   0.238   2.101
 1277TIP3    H2 3789   0.515   0.249   2.062
 1278TIP3   OH2 3790   4.433   0.219   1.035
 1278TIP3    H1 3791   4.352   0.264   1.058
 1278TIP3    H2 3792   4.418   0.128   1.059
 1279TIP3   OH2 3793   1.657   3.188   5.647
 1279TIP3    H1 3794   1.589   3.162   5.709
 1279TIP3    H2 3795   1.614   3.250   5.588
 1280TIP3   OH2 3796   2.786   7.710   5.335
 1280TIP3    H1 3797   2.854   7.777   5.342
 1280TIP3    H2 3798   2.800   7.654   5.411
 1281TIP3   OH2 3799   0.028   2.010   3.459
 1281TIP3    H1 3800   0.028   2.014   3.555
 1281TIP3    H2 3801   0.074   1.929   3.438
 1282TIP3   OH2 3802   5.050   7.671   5.075
 1282TIP3    H1 3803   5.002   7.594   5.044
 1282TIP3    H2 3804   5.134   7.637   5.106
 1283TIP3   OH2 3805   2.032   6.516   5.838
 1283TIP3    H1 3806   2.048   6.576   5.911
 1283TIP3    H2 3807   2.112   6.464   5.832
 1284TIP3   OH2 3808   0.232   0.538   4.041
 1284TIP3    H1 3809   0.204   0.628   4.025
 1284TIP3    H2 3810   0.308   0.527   3.983
 1285TIP3   OH2 3811   6.308   3.006   4.662
 1285TIP3    H1 3812   6.253   2.988   4.738
 1285TIP3    H2 3813   6.259   2.971   4.588
 1286TIP3   OH2 3814   2.985   6.639   1.210
 1286TIP3    H1 3815   3.011   6.559   1.164
 1286TIP3    H2 3816   2.940   6.609   1.288
 1287TIP3   OH2 3817   1.048   7.499   3.674
 1287TIP3    H1 3818   0.978   7.509   3.609
 1287TIP3    H2 3819   1.019   7.427   3.729
 1288TIP3   OH2 3820   5.965   2.407   4.611
 1288TIP3    H1 3821   5.903   2.437   4.677
 1288TIP3    H2 3822   5.913   2.349   4.555
 1289TIP3   OH2 3823   3.091   1.582   1.586
 1289TIP3    H1 3824   3.038   1.646   1.634
 1289TIP3    H2 3825   3.037   1.503   1.583
 1290TIP3   OH2 3826   5.818   1.056   5.854
 1290TIP3    H1 3827   5.733   1.069   5.813
 1290TIP3    H2 3828   5.848   1.144   5.876
 1291TIP3   OH2 3829   5.860   0.876   1.967
 1291TIP3    H1 3830   5.815   0.804   1.924
 1291TIP3    H2 3831   5.953   0.855   1.957
 1292TIP3   OH2 3832   8.202   1.067   3.900
 1292TIP3    H1 3833   8.204   0.973   3.881
 1292TIP3    H2 3834   8.163   1.106   3.823
 1293TIP3   OH2 3835   4.310   0.093   3.883
 1293TIP3    H1 3836   4.323   0.001   3.857
 1293TIP3    H2 3837   4.261   0.131   3.810
 1294TIP3   OH2 3838   3.677   5.171   5.908
 1294TIP3    H1 3839   3.699   5.242   5.968
 1294TIP3    H2 3840   3.582   5.177   5.897
 1295TIP3   OH2 3841   3.561   5.537   0.199
 1295TIP3    H1 3842   3.631   5.521   0.135
 1295TIP3    H2 3843   3.531   5.626   0.179
 1296TIP3   OH2 3844   6.974   3.498   2.411
 1296TIP3    H1 3845   7.067   3.489   2.390
 1296TIP3    H2 3846   6.973   3.550   2.492
 1297TIP3   OH2 3847   5.406   4.780   2.847
 1297TIP3    H1 3848   5.396   4.696   2.802
 1297TIP3    H2 3849   5.322   4.794   2.890
 1298TIP3   OH2 3850   5.048   5.587   0.996
 1298TIP3    H1 3851   5.012   5.671   1.022
 1298TIP3    H2 3852   4.975   5.526   1.003
 1299TIP3   OH2 3853   6.581   7.755   0.914
 1299TIP3    H1 3854   6.569   7.817   0.842
 1299TIP3    H2 3855   6.573   7.669   0.874
 1300TIP3   OH2 3856   4.488   5.905   0.581
 1300TIP3    H1 3857   4.457   5.889   0.670
 1300TIP3    H2 3858   4.461   5.995   0.562
 1301TIP3   OH2 3859   8.007   5.331   4.235
 1301TIP3    H1 3860   7.984   5.424   4.240
 1301TIP3    H2 3861   8.013   5.303   4.327
 1302TIP3   OH2 3862   1.469   1.018   3.300
 1302TIP3    H1 3863   1.445   1.080   3.370
 1302TIP3    H2 3864   1.560   1.039   3.280
 1303TIP3   OH2 3865   4.914   6.012   3.466
 1303TIP3    H1 3866   4.975   5.961   3.412
 1303TIP3    H2 3867   4.965   6.037   3.543
 1304TIP3   OH2 3868   5.105   6.659   4.116
 1304TIP3    H1 3869   5.183   6.606   4.103
 1304TIP3    H2 3870   5.108   6.725   4.047
 1305TIP3   OH2 3871   7.037   0.620   5.738
 1305TIP3    H1 3872   7.019   0.552   5.802
 1305TIP3    H2 3873   7.009   0.582   5.654
 1306TIP3   OH2 3874   1.662   3.495   1.630
 1306TIP3    H1 3875   1.672   3.438   1.554
 1306TIP3    H2 3876   1.624   3.439   1.697
 1307TIP3   OH2 3877   2.926   4.375   1.546
 1307TIP3    H1 3878   2.850   4.379   1.488
 1307TIP3    H2 3879   2.984   4.445   1.515
 1308TIP3   OH2 3880   0.614   3.926   1.701
 1308TIP3    H1 3881   0.563   3.947   1.779
 1308TIP3    H2 3882   0.550   3.899   1.636
 1309TIP3   OH2 3883   0.332   2.567   3.665
 1309TIP3    H1 3884   0.373   2.625   3.730
 1309TIP3    H2 3885   0.290   2.626   3.603
 1310TIP3   OH2 3886   1.437   3.556   3.600
 1310TIP3    H1 3887   1.462   3.532   3.689
 1310TIP3    H2 3888   1.462   3.481   3.546
 1311TIP3   OH2 3889   6.103   2.187   4.217
 1311TIP3    H1 3890   6.047   2.146   4.284
 1311TIP3    H2 3891   6.189   2.193   4.259
 1312TIP3   OH2 3892   7.208   2.104   4.411
 1312TIP3    H1 3893   7.225   2.075   4.321
 1312TIP3    H2 3894   7.114   2.093   4.422
 1313TIP3   OH2 3895   7.655   6.246   2.634
 1313TIP3    H1 3896   7.595   6.189   2.586
 1313TIP3    H2 3897   7.737   6.242   2.586
 1314TIP3   OH2 3898   5.425   3.921   3.226
 1314TIP3    H1 3899   5.423   3.855   3.294
 1314TIP3    H2 3900   5.391   3.877   3.148
 1315TIP3   OH2 3901   2.807   0.342   6.222
 1315TIP3    H1 3902   2.715   0.335   6.246
 1315TIP3    H2 3903   2.834   0.428   6.256
 1316TIP3   OH2 3904   3.913   6.676   4.624
 1316TIP3    H1 3905   3.864   6.615   4.680
 1316TIP3    H2 3906   3.912   6.759   4.673
 1317TIP3   OH2 3907   4.187   5.734   3.414
 1317TIP3    H1 3908   4.140   5.756   3.494
 1317TIP3    H2 3909   4.125   5.753   3.343
 1318TIP3   OH2 3910   5.735   2.276   6.214
 1318TIP3    H1 3911   5.823   2.256   6.246
 1318TIP3    H2 3912   5.745   2.285   6.119
 1319TIP3   OH2 3913   0.545   5.118   0.874
 1319TIP3    H1 3914   0.632   5.107   0.912
 1319TIP3    H2 3915   0.489   5.058   0.923
 1320TIP3   OH2 3916   0.473   3.874   4.826
 1320TIP3    H1 3917   0.554   3.841   4.787
 1320TIP3    H2 3918   0.473   3.967   4.804
 1321TIP3   OH2 3919   7.871   3.153   5.794
 1321TIP3    H1 3920   7.825   3.232   5.767
 1321TIP3    H2 3921   7.804   3.099   5.835
 1322TIP3   OH2 3922   7.052   1.210   3.125
 1322TIP3    H1 3923   7.082   1.259   3.201
 1322TIP3    H2 3924   7.122   1.147   3.108
 1323TIP3   OH2 3925   0.698   7.271   4.889
 1323TIP3    H1 3926   0.779   7.224   4.869
 1323TIP3    H2 3927   0.706   7.354   4.841
 1324TIP3   OH2 3928   2.513   5.460   4.029
 1324TIP3    H1 3929   2.570   5.536   4.015
 1324TIP3    H2 3930   2.543   5.423   4.112
 1325TIP3   OH2 3931   3.795   0.471   3.422
 1325TIP3    H1 3932   3.886   0.473   3.393
 1325TIP3    H2 3933   3.746   0.445   3.345
 1326TIP3   OH2 3934   3.646   5.479   2.518
 1326TIP3    H1 3935   3.623   5.563   2.556
 1326TIP3    H2 3936   3.729   5.455   2.560
 1327TIP3   OH2 3937   3.245   3.867   3.392
 1327TIP3    H1 3938   3.335   3.874   3.362
 1327TIP3    H2 3939   3.194   3.917   3.328
 1328TIP3   OH2 3940   6.386   5.438   5.322
 1328TIP3    H1 3941   6.388   5.531   5.297
 1328TIP3    H2 3942   6.409   5.438   5.415
 1329TIP3   OH2 3943   4.479   1.301   6.491
 1329TIP3    H1 3944   4.455   1.309   6.399
 1329TIP3    H2 3945   4.487   1.207   6.506
 1330TIP3   OH2 3946   6.103   0.587   1.919
 1330TIP3    H1 3947   6.075   0.498   1.938
 1330TIP3    H2 3948   6.077   0.602   1.828
 1331TIP3   OH2 3949   6.184   3.793  -0.005
 1331TIP3    H1 3950   6.275   3.792   0.026
 1331TIP3    H2 3951   6.136   3.837   0.066
 1332TIP3   OH2 3952   0.407   4.752   6.248
 1332TIP3    H1 3953   0.444   4.815   6.311
 1332TIP3    H2 3954   0.340   4.706   6.297
 1333TIP3   OH2 3955   1.090   5.650   3.103
 1333TIP3    H1 3956   0.997   5.662   3.086
 1333TIP3    H2 3957   1.113   5.571   3.054
 1334TIP3   OH2 3958   8.255   7.732   6.111
 1334TIP3    H1 3959   8.272   7.762   6.022
 1334TIP3    H2 3960   8.207   7.650   6.100
 1335TIP3   OH2 3961   2.757   1.377   1.445
 1335TIP3    H1 3962   2.776   1.315   1.375
 1335TIP3    H2 3963   2.764   1.463   1.404
 1336TIP3   OH2 3964   5.946   2.735   3.457
 1336TIP3    H1 3965   5.923   2.671   3.390
 1336TIP3    H2 3966   5.890   2.811   3.439
 1337TIP3   OH2 3967   1.376   3.867   5.334
 1337TIP3    H1 3968   1.301   3.919   5.307
 1337TIP3    H2 3969   1.446   3.931   5.350
 1338TIP3   OH2 3970   4.427   4.111   2.379
 1338TIP3    H1 3971   4.483   4.139   2.451
 1338TIP3    H2 3972   4.365   4.050   2.420
 1339TIP3   OH2 3973   8.087   6.083   0.087
 1339TIP3    H1 3974   8.092   6.145   0.160
 1339TIP3    H2 3975   8.122   6.131   0.012
 1340TIP3   OH2 3976   4.887   1.036   4.240
 1340TIP3    H1 3977   4.880   1.060   4.148
 1340TIP3    H2 3978   4.880   1.119   4.288
 1341TIP3   OH2 3979   2.358   2.199   1.844
 1341TIP3    H1 3980   2.269   2.179   1.873
 1341TIP3    H2 3981   2.392   2.257   1.912
 1342TIP3   OH2 3982   2.412   2.094   1.049
 1342TIP3    H1 3983   2.326   2.130   1.027
 1342TIP3    H2 3984   2.472   2.166   1.032
 1343TIP3   OH2 3985   7.187   3.995   1.736
 1343TIP3    H1 3986   7.268   4.041   1.713
 1343TIP3    H2 3987   7.142   4.054   1.797
 1344TIP3   OH2 3988   7.707   4.714  -0.010
 1344TIP3    H1 3989   7.797   4.745   0.001
 1344TIP3    H2 3990   7.665   4.729   0.074
 1345TIP3   OH2 3991   0.560   6.226   5.270
 1345TIP3    H1 3992   0.491   6.183   5.320
 1345TIP3    H2 3993   0.514   6.277   5.204
 1346TIP3   OH2 3994   1.361   1.099   3.035
 1346TIP3    H1 3995   1.411   1.090   3.116
 1346TIP3    H2 3996   1.420   1.068   2.966
 1347TIP3   OH2 3997   7.290   4.910   6.641
 1347TIP3    H1 3998   7.256   4.942   6.557
 1347TIP3    H2 3999   7.286   4.987   6.698
 1348TIP3   OH2 4000   6.050   1.635   5.484
 1348TIP3    H1 4001   6.125   1.581   5.509
 1348TIP3    H2 4002   6.080   1.683   5.407
 1349TIP3   OH2 4003   4.583   4.420   5.326
 1349TIP3    H1 4004   4.620   4.505   5.303
 1349TIP3    H2 4005   4.550   4.431   5.415
 1350TIP3   OH2 4006   2.761   3.473   6.254
 1350TIP3    H1 4007   2.673   3.494   6.285
 1350TIP3    H2 4008   2.789   3.552   6.207
 1351TIP3   OH2 4009   6.481   4.085   0.630
 1351TIP3    H1 4010   6.418   4.022   0.597
 1351TIP3    H2 4011   6.494   4.147   0.558
 1352TIP3   OH2 4012   3.638   0.611   1.484
 1352TIP3    H1 4013   3.564   0.670   1.472
 1352TIP3    H2 4014   3.625   0.542   1.419
 1353TIP3   OH2 4015   2.152   1.183   3.068
 1353TIP3    H1 4016   2.238   1.222   3.049
 1353TIP3    H2 4017   2.153   1.099   3.023
 1354TIP3   OH2 4018   3.044   3.157   2.775
 1354TIP3    H1 4019   3.091   3.232   2.740
 1354TIP3    H2 4020   2.953   3.173   2.750
 1355TIP3   OH2 4021   4.857   6.227   0.874
 1355TIP3    H1 4022   4.857   6.190   0.785
 1355TIP3    H2 4023   4.921   6.298   0.869
 1356TIP3   OH2 4024   7.422   4.333   1.545
 1356TIP3    H1 4025   7.463   4.383   1.475
 1356TIP3    H2 4026   7.433   4.388   1.623
 1357TIP3   OH2 4027   3.798   1.752   5.584
 1357TIP3    H1 4028   3.827   1.823   5.526
 1357TIP3    H2 4029   3.723   1.713   5.538
 1358TIP3   OH2 4030   0.712   3.441   4.610
 1358TIP3    H1 4031   0.772   3.503   4.650
 1358TIP3    H2 4032   0.716   3.364   4.665
 1359TIP3   OH2 4033   5.257   1.028   0.506
 1359TIP3    H1 4034   5.252   1.034   0.411
 1359TIP3    H2 4035   5.337   0.979   0.524
 1360TIP3   OH2 4036   1.953   4.719   3.622
 1360TIP3    H1 4037   1.871   4.765   3.605
 1360TIP3    H2 4038   1.995   4.715   3.536
 1361TIP3   OH2 4039   1.696   2.088   6.019
 1361TIP3    H1 4040   1.602   2.085   6.037
 1361TIP3    H2 4041   1.710   2.019   5.954
 1362TIP3   OH2 4042   6.286   6.224   3.724
 1362TIP3    H1 4043   6.336   6.165   3.781
 1362TIP3    H2 4044   6.347   6.245   3.653
 1363TIP3   OH2 4045   4.665   2.603   6.201
 1363TIP3    H1 4046   4.676   2.665   6.273
 1363TIP3    H2 4047   4.754   2.580   6.175
 1364TIP3   OH2 4048   0.343   3.221   6.484
 1364TIP3    H1 4049   0.378   3.215   6.395
 1364TIP3    H2 4050   0.338   3.315   6.502
 1365TIP3   OH2 4051   4.052   5.542   6.695
 1365TIP3    H1 4052   3.966   5.577   6.719
 1365TIP3    H2 4053   4.113   5.613   6.712
 1366TIP3   OH2 4054   5.269   6.129   4.838
 1366TIP3    H1 4055   5.303   6.102   4.923
 1366TIP3    H2 4056   5.347   6.161   4.791
 1367TIP3   OH2 4057   2.110   3.556   5.474
 1367TIP3    H1 4058   2.204   3.538   5.474
 1367TIP3    H2 4059   2.069   3.473   5.448
 1368TIP3   OH2 4060   5.750   0.158   3.018
 1368TIP3    H1 4061   5.828   0.211   3.034
 1368TIP3    H2 4062   5.704   0.156   3.102
 1369TIP3   OH2 4063   1.054   1.072   2.347
 1369TIP3    H1 4064   1.133   1.122   2.369
 1369TIP3    H2 4065   0.983   1.119   2.391
 1370TIP3   OH2 4066   6.075   1.601   6.740
 1370TIP3    H1 4067   6.028   1.533   6.790
 1370TIP3    H2 4068   6.007   1.666   6.720
 1371TIP3   OH2 4069   3.864   1.648   2.223
 1371TIP3    H1 4070   3.900   1.655   2.312
 1371TIP3    H2 4071   3.866   1.738   2.190
 1372TIP3   OH2 4072   1.332   4.428   4.559
 1372TIP3    H1 4073   1.332   4.366   4.486
 1372TIP3    H2 4074   1.416   4.472   4.553
 1373TIP3   OH2 4075   0.072   3.097   6.490
 1373TIP3    H1 4076   0.047   3.189   6.498
 1373TIP3    H2 4077   0.164   3.095   6.516
 1374TIP3   OH2 4078   2.959   3.717   2.258
 1374TIP3    H1 4079   3.027   3.783   2.248
 1374TIP3    H2 4080   2.947   3.709   2.353
 1375TIP3   OH2 4081   1.090   2.384   5.541
 1375TIP3    H1 4082   1.169   2.359   5.588
 1375TIP3    H2 4083   1.103   2.351   5.452
 1376TIP3   OH2 4084   0.829   1.488   5.051
 1376TIP3    H1 4085   0.813   1.435   5.129
 1376TIP3    H2 4086   0.742   1.507   5.016
 1377TIP3   OH2 4087   8.184   3.882   3.711
 1377TIP3    H1 4088   8.187   3.951   3.645
 1377TIP3    H2 4089   8.217   3.804   3.666
 1378TIP3   OH2 4090   6.057   1.115   2.063
 1378TIP3    H1 4091   6.066   1.177   1.990
 1378TIP3    H2 4092   6.092   1.033   2.028
 1379TIP3   OH2 4093   0.245   0.320   1.786
 1379TIP3    H1 4094   0.152   0.320   1.808
 1379TIP3    H2 4095   0.288   0.276   1.859
 1380TIP3   OH2 4096   2.642   3.123   5.177
 1380TIP3    H1 4097   2.553   3.092   5.157
 1380TIP3    H2 4098   2.696   3.044   5.171
 1381TIP3   OH2 4099   1.465   2.167   3.511
 1381TIP3    H1 4100   1.404   2.103   3.548
 1381TIP3    H2 4101   1.409   2.235   3.474
 1382TIP3   OH2 4102   4.610   7.191   1.376
 1382TIP3    H1 4103   4.592   7.115   1.321
 1382TIP3    H2 4104   4.571   7.265   1.329
 1383TIP3   OH2 4105   1.661   6.362   6.094
 1383TIP3    H1 4106   1.651   6.352   6.189
 1383TIP3    H2 4107   1.755   6.371   6.081
 1384TIP3   OH2 4108   6.992   5.829   6.623
 1384TIP3    H1 4109   7.019   5.864   6.708
 1384TIP3    H2 4110   6.992   5.734   6.636
 1385TIP3   OH2 4111   6.061   4.249   2.966
 1385TIP3    H1 4112   6.136   4.283   3.015
 1385TIP3    H2 4113   6.057   4.157   2.989
 1386TIP3   OH2 4114   2.077   7.427   2.608
 1386TIP3    H1 4115   2.151   7.486   2.597
 1386TIP3    H2 4116   2.061   7.426   2.703
 1387TIP3   OH2 4117   1.382   6.470   5.461
 1387TIP3    H1 4118   1.375   6.488   5.368
 1387TIP3    H2 4119   1.471   6.438   5.473
 1388TIP3   OH2 4120   0.595   3.234   1.407
 1388TIP3    H1 4121   0.535   3.250   1.335
 1388TIP3    H2 4122   0.597   3.316   1.456
 1389TIP3   OH2 4123   2.111   1.490   5.128
 1389TIP3    H1 4124   2.110   1.534   5.213
 1389TIP3    H2 4125   2.030   1.519   5.086
 1390TIP3   OH2 4126   1.531   4.007   2.953
 1390TIP3    H1 4127   1.537   3.968   2.866
 1390TIP3    H2 4128   1.524   4.101   2.937
 1391TIP3   OH2 4129   2.721   0.320  -0.001
 1391TIP3    H1 4130   2.745   0.228   0.013
 1391TIP3    H2 4131   2.744   0.363   0.081
 1392TIP3   OH2 4132   1.842   5.251   1.687
 1392TIP3    H1 4133   1.795   5.319   1.735
 1392TIP3    H2 4134   1.932   5.255   1.720
 1393TIP3   OH2 4135   7.267   6.002   3.486
 1393TIP3    H1 4136   7.198   6.062   3.512
 1393TIP3    H2 4137   7.317   6.050   3.420
 1394TIP3   OH2 4138   5.607   5.377   1.959
 1394TIP3    H1 4139   5.654   5.316   1.902
 1394TIP3    H2 4140   5.600   5.457   1.906
 1395TIP3   OH2 4141   1.701   5.878   6.297
 1395TIP3    H1 4142   1.743   5.798   6.266
 1395TIP3    H2 4143   1.655   5.911   6.220
 1396TIP3   OH2 4144   0.174   6.644   3.249
 1396TIP3    H1 4145   0.085   6.611   3.262
 1396TIP3    H2 4146   0.226   6.567   3.228
 1397TIP3   OH2 4147   6.980   6.669   3.539
 1397TIP3    H1 4148   7.021   6.628   3.615
 1397TIP3    H2 4149   6.987   6.763   3.556
 1398TIP3   OH2 4150   0.018   7.811   2.782
 1398TIP3    H1 4151   0.111   7.817   2.803
 1398TIP3    H2 4152   0.015   7.752   2.707
 1399TIP3   OH2 4153   4.785   2.158   5.836
 1399TIP3    H1 4154   4.785   2.156   5.932
 1399TIP3    H2 4155   4.817   2.071   5.810
 1400TIP3   OH2 4156   0.388   0.540   2.897
 1400TIP3    H1 4157   0.388   0.465   2.837
 1400TIP3    H2 4158   0.431   0.610   2.848
 1401TIP3   OH2 4159   6.716   2.977   5.317
 1401TIP3    H1 4160   6.669   3.059   5.299
 1401TIP3    H2 4161   6.765   2.995   5.398
 1402TIP3   OH2 4162   4.891   2.090   6.380
 1402TIP3    H1 4163   4.958   2.024   6.362
 1402TIP3    H2 4164   4.829   2.047   6.439
 1403TIP3   OH2 4165   0.191   5.182   4.421
 1403TIP3    H1 4166   0.104   5.164   4.386
 1403TIP3    H2 4167   0.247   5.116   4.379
 1404TIP3   OH2 4168   1.154   4.112   2.719
 1404TIP3    H1 4169   1.201   4.194   2.708
 1404TIP3    H2 4170   1.198   4.069   2.793
 1405TIP3   OH2 4171   6.442   6.912   5.517
 1405TIP3    H1 4172   6.531   6.926   5.486
 1405TIP3    H2 4173   6.451   6.907   5.613
 1406TIP3   OH2 4174   5.492   4.895   4.184
 1406TIP3    H1 4175   5.552   4.903   4.258
 1406TIP3    H2 4176   5.549   4.873   4.110
 1407TIP3   OH2 4177   8.267   3.293   1.722
 1407TIP3    H1 4178   8.362   3.282   1.712
 1407TIP3    H2 4179   8.258   3.353   1.796
 1408TIP3   OH2 4180   7.943   0.174   5.247
 1408TIP3    H1 4181   8.014   0.110   5.239
 1408TIP3    H2 4182   7.864   0.125   5.220
 1409TIP3   OH2 4183   3.745   3.476   1.409
 1409TIP3    H1 4184   3.805   3.419   1.361
 1409TIP3    H2 4185   3.667   3.422   1.423
 1410TIP3   OH2 4186   6.473   4.482   5.350
 1410TIP3    H1 4187   6.481   4.505   5.443
 1410TIP3    H2 4188   6.396   4.530   5.320
 1411TIP3   OH2 4189   4.022   3.839   2.705
 1411TIP3    H1 4190   3.985   3.912   2.656
 1411TIP3    H2 4191   3.946   3.782   2.722
 1412TIP3   OH2 4192   4.847   0.470   2.724
 1412TIP3    H1 4193   4.924   0.498   2.774
 1412TIP3    H2 4194   4.773   0.512   2.767
 1413TIP3   OH2 4195   0.528   7.232   1.637
 1413TIP3    H1 4196   0.513   7.305   1.698
 1413TIP3    H2 4197   0.450   7.231   1.582
 1414TIP3   OH2 4198   2.644   5.313   1.846
 1414TIP3    H1 4199   2.670   5.399   1.881
 1414TIP3    H2 4200   2.603   5.333   1.762
 1415TIP3   OH2 4201   8.130   1.285   0.435
 1415TIP3    H1 4202   8.116   1.356   0.498
 1415TIP3    H2 4203   8.098   1.207   0.479
 1416TIP3   OH2 4204   1.734   7.505   5.434
 1416TIP3    H1 4205   1.650   7.462   5.421
 1416TIP3    H2 4206   1.798   7.443   5.398
 1417TIP3   OH2 4207   7.143   0.612   2.816
 1417TIP3    H1 4208   7.166   0.589   2.905
 1417TIP3    H2 4209   7.135   0.708   2.817
 1418TIP3   OH2 4210   7.681   1.244   0.832
 1418TIP3    H1 4211   7.748   1.202   0.885
 1418TIP3    H2 4212   7.691   1.205   0.745
 1419TIP3   OH2 4213   5.229   5.302   4.065
 1419TIP3    H1 4214   5.228   5.309   4.161
 1419TIP3    H2 4215   5.321   5.300   4.042
 1420TIP3   OH2 4216   6.124   4.083   3.278
 1420TIP3    H1 4217   6.147   4.159   3.332
 1420TIP3    H2 4218   6.170   4.098   3.195
 1421TIP3   OH2 4219   1.446   0.497   5.555
 1421TIP3    H1 4220   1.408   0.409   5.557
 1421TIP3    H2 4221   1.377   0.553   5.590
 1422TIP3   OH2 4222   4.717   5.838   4.538
 1422TIP3    H1 4223   4.716   5.806   4.628
 1422TIP3    H2 4224   4.630   5.877   4.526
 1423TIP3   OH2 4225   1.800   3.766   4.393
 1423TIP3    H1 4226   1.827   3.680   4.426
 1423TIP3    H2 4227   1.713   3.779   4.430
 1424TIP3   OH2 4228   5.302   0.821   3.476
 1424TIP3    H1 4229   5.307   0.831   3.571
 1424TIP3    H2 4230   5.376   0.872   3.442
 1425TIP3   OH2 4231   2.763   4.093   0.762
 1425TIP3    H1 4232   2.766   4.034   0.838
 1425TIP3    H2 4233   2.701   4.161   0.787
 1426TIP3   OH2 4234   7.310   4.833   1.290
 1426TIP3    H1 4235   7.344   4.758   1.241
 1426TIP3    H2 4236   7.284   4.896   1.223
 1427TIP3   OH2 4237   3.224   7.081   6.578
 1427TIP3    H1 4238   3.225   7.008   6.516
 1427TIP3    H2 4239   3.131   7.099   6.593
 1428TIP3   OH2 4240   4.927   5.594   1.540
 1428TIP3    H1 4241   4.912   5.545   1.459
 1428TIP3    H2 4242   4.874   5.548   1.606
 1429TIP3   OH2 4243   0.878   6.429   2.732
 1429TIP3    H1 4244   0.896   6.355   2.790
 1429TIP3    H2 4245   0.794   6.463   2.762
 1430TIP3   OH2 4246   6.156   7.005   6.687
 1430TIP3    H1 4247   6.078   7.059   6.681
 1430TIP3    H2 4248   6.144   6.937   6.622
 1431TIP3   OH2 4249   8.197   2.766   2.393
 1431TIP3    H1 4250   8.253   2.690   2.412
 1431TIP3    H2 4251   8.258   2.834   2.366
 1432TIP3   OH2 4252   7.408   1.478   4.182
 1432TIP3    H1 4253   7.489   1.529   4.176
 1432TIP3    H2 4254   7.344   1.539   4.218
 1433TIP3   OH2 4255   6.903   5.190   0.770
 1433TIP3    H1 4256   6.849   5.228   0.700
 1433TIP3    H2 4257   6.958   5.263   0.799
 1434TIP3   OH2 4258   2.019   2.305   3.176
 1434TIP3    H1 4259   2.042   2.228   3.229
 1434TIP3    H2 4260   1.926   2.319   3.193
 1435TIP3   OH2 4261   1.658   4.137   0.201
 1435TIP3    H1 4262   1.674   4.143   0.107
 1435TIP3    H2 4263   1.588   4.071   0.209
 1436TIP3   OH2 4264   5.808   3.943   5.559
 1436TIP3    H1 4265   5.726   3.969   5.602
 1436TIP3    H2 4266   5.875   3.993   5.606
 1437TIP3   OH2 4267   3.423   6.279   3.755
 1437TIP3    H1 4268   3.481   6.220   3.708
 1437TIP3    H2 4269   3.461   6.366   3.741
 1438TIP3   OH2 4270   3.649   2.532   5.649
 1438TIP3    H1 4271   3.683   2.515   5.736
 1438TIP3    H2 4272   3.725   2.523   5.591
 1439TIP3   OH2 4273   3.733   3.604   5.459
 1439TIP3    H1 4274   3.647   3.563   5.469
 1439TIP3    H2 4275   3.740   3.623   5.366
 1440TIP3   OH2 4276   5.125   2.863   4.821
 1440TIP3    H1 4277   5.070   2.876   4.898
 1440TIP3    H2 4278   5.066   2.876   4.747
 1441TIP3   OH2 4279   6.766   1.837   0.748
 1441TIP3    H1 4280   6.750   1.921   0.704
 1441TIP3    H2 4281   6.819   1.860   0.824
 1442TIP3   OH2 4282   2.944   0.322   0.641
 1442TIP3    H1 4283   3.013   0.312   0.707
 1442TIP3    H2 4284   2.947   0.241   0.590
 1443TIP3   OH2 4285   5.924   5.844   6.469
 1443TIP3    H1 4286   5.970   5.763   6.492
 1443TIP3    H2 4287   5.963   5.871   6.386
 1444TIP3   OH2 4288   6.166   6.349   1.718
 1444TIP3    H1 4289   6.235   6.410   1.745
 1444TIP3    H2 4290   6.207   6.263   1.722
 1445TIP3   OH2 4291   0.904   1.656   6.293
 1445TIP3    H1 4292   0.972   1.721   6.276
 1445TIP3    H2 4293   0.824   1.707   6.303
 1446TIP3   OH2 4294   1.000   7.682   3.029
 1446TIP3    H1 4295   1.077   7.626   3.020
 1446TIP3    H2 4296   0.973   7.669   3.120
 1447TIP3   OH2 4297   5.454   5.267   3.208
 1447TIP3    H1 4298   5.432   5.187   3.160
 1447TIP3    H2 4299   5.537   5.247   3.250
 1448TIP3   OH2 4300   7.556   7.342   3.866
 1448TIP3    H1 4301   7.632   7.342   3.924
 1448TIP3    H2 4302   7.481   7.331   3.925
 1449TIP3   OH2 4303   5.197   2.242   3.542
 1449TIP3    H1 4304   5.139   2.264   3.469
 1449TIP3    H2 4305   5.153   2.171   3.588
 1450TIP3   OH2 4306   6.785   4.077   2.108
 1450TIP3    H1 4307   6.735   4.132   2.168
 1450TIP3    H2 4308   6.843   4.027   2.165
 1451TIP3   OH2 4309   3.600   5.995   1.649
 1451TIP3    H1 4310   3.584   6.016   1.741
 1451TIP3    H2 4311   3.566   5.907   1.639
 1452TIP3   OH2 4312   6.520   6.091   3.265
 1452TIP3    H1 4313   6.555   6.045   3.188
 1452TIP3    H2 4314   6.587   6.156   3.285
 1453TIP3   OH2 4315   3.005   5.776   3.225
 1453TIP3    H1 4316   2.970   5.857   3.262
 1453TIP3    H2 4317   2.937   5.744   3.166
 1454TIP3   OH2 4318   0.047   1.895   1.699
 1454TIP3    H1 4319  -0.013   1.881   1.771
 1454TIP3    H2 4320   0.102   1.817   1.698
 1455TIP3   OH2 4321   5.610   4.055   4.686
 1455TIP3    H1 4322   5.531   4.035   4.737
 1455TIP3    H2 4323   5.644   3.970   4.659
 1456TIP3   OH2 4324   3.866   6.921   3.433
 1456TIP3    H1 4325   3.912   6.934   3.350
 1456TIP3    H2 4326   3.773   6.932   3.411
 1457TIP3   OH2 4327   5.019   0.369   4.686
 1457TIP3    H1 4328   4.972   0.428   4.745
 1457TIP3    H2 4329   4.998   0.402   4.598
 1458TIP3   OH2 4330   7.981   1.398   2.350
 1458TIP3    H1 4331   7.908   1.368   2.404
 1458TIP3    H2 4332   8.030   1.457   2.408
 1459TIP3   OH2 4333   0.632   7.771   0.501
 1459TIP3    H1 4334   0.575   7.817   0.439
 1459TIP3    H2 4335   0.656   7.837   0.566
 1460TIP3   OH2 4336   3.166   3.689   3.686
 1460TIP3    H1 4337   3.252   3.654   3.707
 1460TIP3    H2 4338   3.145   3.652   3.600
 1461TIP3   OH2 4339   4.318   5.296   5.263
 1461TIP3    H1 4340   4.338   5.326   5.352
 1461TIP3    H2 4341   4.223   5.286   5.261
 1462TIP3   OH2 4342   2.336   5.577   3.213
 1462TIP3    H1 4343   2.296   5.636   3.277
 1462TIP3    H2 4344   2.304   5.490   3.238
 1463TIP3   OH2 4345   7.955   6.914   2.438
 1463TIP3    H1 4346   7.913   6.831   2.459
 1463TIP3    H2 4347   7.894   6.958   2.379
 1464TIP3   OH2 4348   3.470   4.857   5.093
 1464TIP3    H1 4349   3.537   4.794   5.066
 1464TIP3    H2 4350   3.508   4.902   5.169
 1465TIP3   OH2 4351   3.255   0.408   2.996
 1465TIP3    H1 4352   3.330   0.356   2.969
 1465TIP3    H2 4353   3.217   0.441   2.914
 1466TIP3   OH2 4354   2.032   4.493   6.628
 1466TIP3    H1 4355   1.973   4.424   6.658
 1466TIP3    H2 4356   1.977   4.572   6.625
 1467TIP3   OH2 4357   5.875   3.894   2.020
 1467TIP3    H1 4358   5.893   3.987   2.008
 1467TIP3    H2 4359   5.823   3.889   2.101
 1468TIP3   OH2 4360   8.101   7.680   2.994
 1468TIP3    H1 4361   8.187   7.717   2.978
 1468TIP3    H2 4362   8.043   7.728   2.934
 1469TIP3   OH2 4363   0.730   2.252   4.380
 1469TIP3    H1 4364   0.683   2.233   4.461
 1469TIP3    H2 4365   0.767   2.168   4.353
 1470TIP3   OH2 4366   6.721   2.432   5.209
 1470TIP3    H1 4367   6.797   2.471   5.252
 1470TIP3    H2 4368   6.753   2.409   5.121
 1471TIP3   OH2 4369   0.742   1.231   6.466
 1471TIP3    H1 4370   0.694   1.148   6.457
 1471TIP3    H2 4371   0.677   1.299   6.450
 1472TIP3   OH2 4372   2.600   3.335   4.373
 1472TIP3    H1 4373   2.583   3.388   4.451
 1472TIP3    H2 4374   2.634   3.252   4.407
 1473TIP3   OH2 4375   5.995   2.115   0.353
 1473TIP3    H1 4376   5.982   2.208   0.334
 1473TIP3    H2 4377   5.983   2.072   0.269
 1474TIP3   OH2 4378   1.346   7.646   6.715
 1474TIP3    H1 4379   1.376   7.556   6.707
 1474TIP3    H2 4380   1.288   7.646   6.790
 1475TIP3   OH2 4381   2.610   5.603   1.751
 1475TIP3    H1 4382   2.589   5.693   1.775
 1475TIP3    H2 4383   2.685   5.611   1.692
 1476TIP3   OH2 4384   0.004   6.524   2.076
 1476TIP3    H1 4385   0.061   6.511   2.151
 1476TIP3    H2 4386   0.064   6.541   2.003
 1477TIP3   OH2 4387   0.880   2.041   1.930
 1477TIP3    H1 4388   0.831   2.015   2.009
 1477TIP3    H2 4389   0.842   1.989   1.860
 1478TIP3   OH2 4390   2.895   6.774   2.704
 1478TIP3    H1 4391   2.842   6.740   2.777
 1478TIP3    H2 4392   2.972   6.811   2.746
 1479TIP3   OH2 4393   4.759   0.271   5.843
 1479TIP3    H1 4394   4.706   0.268   5.923
 1479TIP3    H2 4395   4.820   0.343   5.859
 1480TIP3   OH2 4396   4.880   3.781   5.747
 1480TIP3    H1 4397   4.911   3.860   5.701
 1480TIP3    H2 4398   4.951   3.761   5.809
 1481TIP3   OH2 4399   4.773   7.062   1.067
 1481TIP3    H1 4400   4.704   7.093   1.008
 1481TIP3    H2 4401   4.785   7.133   1.129
 1482TIP3   OH2 4402   4.787   7.785   5.649
 1482TIP3    H1 4403   4.838   7.733   5.711
 1482TIP3    H2 4404   4.847   7.803   5.577
 1483TIP3   OH2 4405   8.127   6.573   6.384
 1483TIP3    H1 4406   8.039   6.539   6.374
 1483TIP3    H2 4407   8.178   6.528   6.317
 1484TIP3   OH2 4408   6.637   2.967   0.784
 1484TIP3    H1 4409   6.689   3.043   0.809
 1484TIP3    H2 4410   6.663   2.948   0.694
 1485TIP3   OH2 4411   1.203   2.332   1.792
 1485TIP3    H1 4412   1.263   2.405   1.801
 1485TIP3    H2 4413   1.255   2.255   1.815
 1486TIP3   OH2 4414   7.611   0.625   2.543
 1486TIP3    H1 4415   7.544   0.585   2.598
 1486TIP3    H2 4416   7.562   0.675   2.477
 1487TIP3   OH2 4417   5.410   7.327   5.953
 1487TIP3    H1 4418   5.393   7.376   6.034
 1487TIP3    H2 4419   5.376   7.239   5.970
 1488TIP3   OH2 4420   1.164   3.610   4.375
 1488TIP3    H1 4421   1.165   3.683   4.313
 1488TIP3    H2 4422   1.188   3.649   4.459
 1489TIP3   OH2 4423   0.644   2.144   1.033
 1489TIP3    H1 4424   0.620   2.221   0.982
 1489TIP3    H2 4425   0.593   2.072   0.996
 1490TIP3   OH2 4426   0.285   4.222   6.580
 1490TIP3    H1 4427   0.351   4.199   6.645
 1490TIP3    H2 4428   0.233   4.291   6.621
 1491TIP3   OH2 4429   3.661   3.414   2.524
 1491TIP3    H1 4430   3.595   3.483   2.532
 1491TIP3    H2 4431   3.657   3.386   2.433
 1492TIP3   OH2 4432   4.670   0.212   0.907
 1492TIP3    H1 4433   4.587   0.228   0.953
 1492TIP3    H2 4434   4.644   0.170   0.825
 1493TIP3   OH2 4435   1.225   4.556   4.259
 1493TIP3    H1 4436   1.216   4.649   4.282
 1493TIP3    H2 4437   1.319   4.538   4.269
 1494TIP3   OH2 4438   0.267   3.535   1.226
 1494TIP3    H1 4439   0.199   3.603   1.227
 1494TIP3    H2 4440   0.349   3.583   1.236
 1495TIP3   OH2 4441   6.925   3.261   2.207
 1495TIP3    H1 4442   6.995   3.300   2.259
 1495TIP3    H2 4443   6.867   3.220   2.272
 1496TIP3   OH2 4444   7.995   0.879   2.522
 1496TIP3    H1 4445   8.021   0.787   2.524
 1496TIP3    H2 4446   7.904   0.878   2.552
 1497TIP3   OH2 4447   1.499   1.387   4.427
 1497TIP3    H1 4448   1.566   1.395   4.359
 1497TIP3    H2 4449   1.447   1.312   4.401
 1498TIP3   OH2 4450   2.375   5.979   5.229
 1498TIP3    H1 4451   2.336   6.066   5.234
 1498TIP3    H2 4452   2.374   5.957   5.136
 1499TIP3   OH2 4453   5.657   2.231   2.564
 1499TIP3    H1 4454   5.647   2.306   2.504
 1499TIP3    H2 4455   5.743   2.195   2.542
 1500TIP3   OH2 4456   6.584   2.686   4.697
 1500TIP3    H1 4457   6.592   2.757   4.760
 1500TIP3    H2 4458   6.490   2.668   4.692
 1501TIP3   OH2 4459   1.785   0.599   3.968
 1501TIP3    H1 4460   1.791   0.540   3.893
 1501TIP3    H2 4461   1.692   0.610   3.983
 1502TIP3   OH2 4462   3.165   2.176   4.327
 1502TIP3    H1 4463   3.111   2.147   4.400
 1502TIP3    H2 4464   3.198   2.095   4.288
 1503TIP3   OH2 4465   0.111   3.010   3.049
 1503TIP3    H1 4466   0.199   3.046   3.065
 1503TIP3    H2 4467   0.103   3.010   2.954
 1504TIP3   OH2 4468   2.744   4.522   6.237
 1504TIP3    H1 4469   2.747   4.490   6.327
 1504TIP3    H2 4470   2.651   4.538   6.220
 1505TIP3   OH2 4471   6.644   0.103   2.727
 1505TIP3    H1 4472   6.735   0.104   2.697
 1505TIP3    H2 4473   6.645   0.155   2.808
 1506TIP3   OH2 4474   1.889   2.562   6.427
 1506TIP3    H1 4475   1.953   2.522   6.485
 1506TIP3    H2 4476   1.941   2.601   6.356
 1507TIP3   OH2 4477   4.815   6.704   3.379
 1507TIP3    H1 4478   4.818   6.753   3.461
 1507TIP3    H2 4479   4.811   6.771   3.311
 1508TIP3   OH2 4480   8.149   0.257   6.042
 1508TIP3    H1 4481   8.183   0.230   6.127
 1508TIP3    H2 4482   8.127   0.349   6.052
 1509TIP3   OH2 4483   2.676   4.039   3.266
 1509TIP3    H1 4484   2.658   4.080   3.181
 1509TIP3    H2 4485   2.702   3.950   3.245
 1510TIP3   OH2 4486   7.038   6.393   2.804
 1510TIP3    H1 4487   7.022   6.307   2.844
 1510TIP3    H2 4488   7.129   6.413   2.825
 1511TIP3   OH2 4489   1.000   6.787   3.912
 1511TIP3    H1 4490   0.994   6.772   4.006
 1511TIP3    H2 4491   0.937   6.726   3.874
 1512TIP3   OH2 4492   6.480   2.147   0.381
 1512TIP3    H1 4493   6.462   2.074   0.440
 1512TIP3    H2 4494   6.502   2.220   0.439
 1513TIP3   OH2 4495   2.348   5.231   1.063
 1513TIP3    H1 4496   2.257   5.224   1.032
 1513TIP3    H2 4497   2.340   5.259   1.154
 1514TIP3   OH2 4498   4.842   1.784   3.833
 1514TIP3    H1 4499   4.844   1.728   3.754
 1514TIP3    H2 4500   4.772   1.745   3.887
 1515TIP3   OH2 4501   4.467   5.687   4.899
 1515TIP3    H1 4502   4.436   5.603   4.932
 1515TIP3    H2 4503   4.458   5.747   4.973
 1516TIP3   OH2 4504   6.058   5.591   4.181
 1516TIP3    H1 4505   6.024   5.510   4.142
 1516TIP3    H2 4506   6.065   5.652   4.108
 1517TIP3   OH2 4507   2.229   2.625   1.397
 1517TIP3    H1 4508   2.221   2.569   1.474
 1517TIP3    H2 4509   2.161   2.594   1.337
 1518TIP3   OH2 4510   1.987   7.620   6.416
 1518TIP3    H1 4511   1.931   7.545   6.434
 1518TIP3    H2 4512   2.067   7.582   6.380
 1519TIP3   OH2 4513   4.716   7.695   2.442
 1519TIP3    H1 4514   4.744   7.607   2.419
 1519TIP3    H2 4515   4.705   7.740   2.358
 1520TIP3   OH2 4516   1.813   3.211   0.428
 1520TIP3    H1 4517   1.737   3.210   0.369
 1520TIP3    H2 4518   1.886   3.183   0.372
 1521TIP3   OH2 4519   3.980   2.536   0.175
 1521TIP3    H1 4520   3.991   2.442   0.193
 1521TIP3    H2 4521   4.066   2.574   0.194
 1522TIP3   OH2 4522   3.026   7.570   1.536
 1522TIP3    H1 4523   3.119   7.562   1.513
 1522TIP3    H2 4524   2.999   7.480   1.554
 1523TIP3   OH2 4525   7.280   4.573   3.612
 1523TIP3    H1 4526   7.198   4.559   3.564
 1523TIP3    H2 4527   7.293   4.668   3.610
 1524TIP3   OH2 4528   4.982   5.215   1.664
 1524TIP3    H1 4529   5.067   5.185   1.630
 1524TIP3    H2 4530   4.917   5.163   1.616
 1525TIP3   OH2 4531   1.462   3.049   3.258
 1525TIP3    H1 4532   1.391   3.074   3.317
 1525TIP3    H2 4533   1.532   3.020   3.316
 1526TIP3   OH2 4534   6.153   6.636   1.154
 1526TIP3    H1 4535   6.141   6.666   1.244
 1526TIP3    H2 4536   6.086   6.568   1.143
 1527TIP3   OH2 4537   7.131   6.802   2.444
 1527TIP3    H1 4538   7.074   6.860   2.393
 1527TIP3    H2 4539   7.203   6.781   2.385
 1528TIP3   OH2 4540   3.300   0.396   2.652
 1528TIP3    H1 4541   3.312   0.490   2.664
 1528TIP3    H2 4542   3.206   0.382   2.665
 1529TIP3   OH2 4543   1.021   1.304   4.945
 1529TIP3    H1 4544   0.959   1.347   5.003
 1529TIP3    H2 4545   1.079   1.255   5.003
 1530TIP3   OH2 4546   6.385   7.740   4.712
 1530TIP3    H1 4547   6.471   7.741   4.671
 1530TIP3    H2 4548   6.398   7.692   4.794
 1531TIP3   OH2 4549   4.570   1.113   1.760
 1531TIP3    H1 4550   4.503   1.067   1.810
 1531TIP3    H2 4551   4.569   1.203   1.794
 1532TIP3   OH2 4552   7.276   1.073   6.454
 1532TIP3    H1 4553   7.363   1.051   6.489
 1532TIP3    H2 4554   7.215   1.031   6.516
 1533TIP3   OH2 4555   5.454   4.593   0.052
 1533TIP3    H1 4556   5.497   4.664   0.099
 1533TIP3    H2 4557   5.378   4.634   0.010
 1534TIP3   OH2 4558   2.445   3.429   3.229
 1534TIP3    H1 4559   2.464   3.458   3.140
 1534TIP3    H2 4560   2.416   3.508   3.275
 1535TIP3   OH2 4561   0.598   5.198   5.510
 1535TIP3    H1 4562   0.520   5.149   5.484
 1535TIP3    H2 4563   0.658   5.132   5.545
 1536TIP3   OH2 4564   1.938   0.109   5.747
 1536TIP3    H1 4565   1.941   0.201   5.771
 1536TIP3    H2 4566   1.856   0.076   5.785
 1537TIP3   OH2 4567   7.734   0.466   4.490
 1537TIP3    H1 4568   7.738   0.371   4.479
 1537TIP3    H2 4569   7.783   0.501   4.416
 1538TIP3   OH2 4570   0.833   3.560   2.194
 1538TIP3    H1 4571   0.802   3.572   2.104
 1538TIP3    H2 4572   0.806   3.471   2.217
 1539TIP3   OH2 4573   3.375   7.534   4.180
 1539TIP3    H1 4574   3.286   7.526   4.146
 1539TIP3    H2 4575   3.366   7.594   4.255
 1540TIP3   OH2 4576   4.214   7.274   3.960
 1540TIP3    H1 4577   4.297   7.257   4.003
 1540TIP3    H2 4578   4.154   7.210   3.997
 1541TIP3   OH2 4579   3.489   6.759   6.737
 1541TIP3    H1 4580   3.523   6.839   6.696
 1541TIP3    H2 4581   3.520   6.764   6.827
 1542TIP3   OH2 4582   1.537   1.113   1.627
 1542TIP3    H1 4583   1.588   1.140   1.703
 1542TIP3    H2 4584   1.575   1.162   1.554
 1543TIP3   OH2 4585   2.512   4.496   2.397
 1543TIP3    H1 4586   2.417   4.512   2.402
 1543TIP3    H2 4587   2.537   4.480   2.488
 1544TIP3   OH2 4588   5.263   3.927   0.034
 1544TIP3    H1 4589   5.174   3.908   0.064
 1544TIP3    H2 4590   5.316   3.923   0.113
 1545TIP3   OH2 4591   0.516   0.466   1.349
 1545TIP3    H1 4592   0.486   0.396   1.407
 1545TIP3    H2 4593   0.556   0.530   1.408
 1546TIP3   OH2 4594   4.727   3.558   4.590
 1546TIP3    H1 4595   4.812   3.518   4.609
 1546TIP3    H2 4596   4.748   3.635   4.538
 1547TIP3   OH2 4597   7.251   6.598   0.025
 1547TIP3    H1 4598   7.340   6.611   0.057
 1547TIP3    H2 4599   7.200   6.669   0.064
 1548TIP3   OH2 4600   7.847   1.058   2.194
 1548TIP3    H1 4601   7.926   1.004   2.192
 1548TIP3    H2 4602   7.804   1.036   2.277
 1549TIP3   OH2 4603   7.034   6.518   2.277
 1549TIP3    H1 4604   7.029   6.566   2.360
 1549TIP3    H2 4605   6.943   6.495   2.258
 1550TIP3   OH2 4606   3.653   0.646   6.385
 1550TIP3    H1 4607   3.722   0.696   6.430
 1550TIP3    H2 4608   3.674   0.555   6.402
 1551TIP3   OH2 4609   7.315   3.731   3.200
 1551TIP3    H1 4610   7.393   3.769   3.161
 1551TIP3    H2 4611   7.321   3.637   3.180
 1552TIP3   OH2 4612   5.997   2.621   6.028
 1552TIP3    H1 4613   5.927   2.626   5.964
 1552TIP3    H2 4614   5.954   2.634   6.112
 1553TIP3   OH2 4615   4.934   4.435   3.716
 1553TIP3    H1 4616   4.878   4.456   3.641
 1553TIP3    H2 4617   4.958   4.519   3.753
 1554TIP3   OH2 4618   7.128   4.632   4.995
 1554TIP3    H1 4619   7.089   4.639   4.908
 1554TIP3    H2 4620   7.098   4.548   5.028
 1555TIP3   OH2 4621   7.214   7.159   5.542
 1555TIP3    H1 4622   7.221   7.254   5.549
 1555TIP3    H2 4623   7.294   7.131   5.499
 1556TIP3   OH2 4624   4.677   7.169   3.433
 1556TIP3    H1 4625   4.618   7.132   3.498
 1556TIP3    H2 4626   4.736   7.225   3.483
 1557TIP3   OH2 4627   3.093   6.461   3.676
 1557TIP3    H1 4628   3.138   6.506   3.747
 1557TIP3    H2 4629   3.062   6.379   3.716
 1558TIP3   OH2 4630   2.655   0.179   4.717
 1558TIP3    H1 4631   2.715   0.197   4.645
 1558TIP3    H2 4632   2.712   0.162   4.792
 1559TIP3   OH2 4633   2.342   0.517   1.619
 1559TIP3    H1 4634   2.333   0.606   1.585
 1559TIP3    H2 4635   2.299   0.462   1.553
 1560TIP3   OH2 4636   3.473   3.307   4.836
 1560TIP3    H1 4637   3.379   3.325   4.838
 1560TIP3    H2 4638   3.508   3.366   4.770
 1561TIP3   OH2 4639   6.153   5.091   3.795
 1561TIP3    H1 4640   6.079   5.048   3.837
 1561TIP3    H2 4641   6.114   5.144   3.726
 1562TIP3   OH2 4642   2.468   7.248   1.926
 1562TIP3    H1 4643   2.547   7.251   1.872
 1562TIP3    H2 4644   2.500   7.231   2.015
 1563TIP3   OH2 4645   2.876   7.054   0.431
 1563TIP3    H1 4646   2.836   7.116   0.492
 1563TIP3    H2 4647   2.819   6.977   0.435
 1564TIP3   OH2 4648   1.195   2.874   4.995
 1564TIP3    H1 4649   1.103   2.854   4.977
 1564TIP3    H2 4650   1.220   2.936   4.926
 1565TIP3   OH2 4651   0.360   0.775   5.545
 1565TIP3    H1 4652   0.351   0.832   5.620
 1565TIP3    H2 4653   0.389   0.832   5.474
 1566TIP3   OH2 4654   4.344   7.480   0.715
 1566TIP3    H1 4655   4.409   7.453   0.650
 1566TIP3    H2 4656   4.395   7.493   0.795
 1567TIP3   OH2 4657   1.597   0.097   1.904
 1567TIP3    H1 4658   1.687   0.071   1.885
 1567TIP3    H2 4659   1.597   0.118   1.998
 1568TIP3   OH2 4660   7.854   6.956   3.617
 1568TIP3    H1 4661   7.831   7.035   3.667
 1568TIP3    H2 4662   7.780   6.897   3.629
 1569TIP3   OH2 4663   7.366   1.851   4.622
 1569TIP3    H1 4664   7.338   1.830   4.711
 1569TIP3    H2 4665   7.398   1.941   4.627
 1570TIP3   OH2 4666   5.446   3.248   3.840
 1570TIP3    H1 4667   5.448   3.319   3.775
 1570TIP3    H2 4668   5.513   3.272   3.904
 1571TIP3   OH2 4669   7.995   3.913   6.464
 1571TIP3    H1 4670   8.053   3.844   6.495
 1571TIP3    H2 4671   7.907   3.881   6.483
 1572TIP3   OH2 4672   7.537   2.659   6.504
 1572TIP3    H1 4673   7.595   2.596   6.547
 1572TIP3    H2 4674   7.453   2.614   6.496
 1573TIP3   OH2 4675   0.056   6.179   4.928
 1573TIP3    H1 4676   0.108   6.237   4.985
 1573TIP3    H2 4677  -0.002   6.133   4.988
 1574TIP3   OH2 4678   7.555   2.790   1.661
 1574TIP3    H1 4679   7.572   2.850   1.733
 1574TIP3    H2 4680   7.473   2.747   1.684
 1575TIP3   OH2 4681   0.749   6.620   3.088
 1575TIP3    H1 4682   0.717   6.687   3.028
 1575TIP3    H2 4683   0.681   6.552   3.085
 1576TIP3   OH2 4684   8.133   1.460   4.285
 1576TIP3    H1 4685   8.183   1.427   4.210
 1576TIP3    H2 4686   8.074   1.526   4.248
 1577TIP3   OH2 4687   2.732   5.463   1.362
 1577TIP3    H1 4688   2.769   5.479   1.448
 1577TIP3    H2 4689   2.808   5.444   1.306
 1578TIP3   OH2 4690   4.921   3.838   1.133
 1578TIP3    H1 4691   4.912   3.776   1.060
 1578TIP3    H2 4692   4.967   3.913   1.095
 1579TIP3   OH2 4693   1.639   0.714   0.087
 1579TIP3    H1 4694   1.602   0.787   0.037
 1579TIP3    H2 4695   1.639   0.640   0.026
 1580TIP3   OH2 4696   5.805   1.772   5.750
 1580TIP3    H1 4697   5.747   1.842   5.780
 1580TIP3    H2 4698   5.763   1.738   5.671
 1581TIP3   OH2 4699   0.471   3.976   0.986
 1581TIP3    H1 4700   0.528   4.019   0.923
 1581TIP3    H2 4701   0.419   3.914   0.934
 1582TIP3   OH2 4702   3.181   1.022   3.411
 1582TIP3    H1 4703   3.117   1.056   3.473
 1582TIP3    H2 4704   3.182   0.928   3.427
 1583TIP3   OH2 4705   4.709   4.658   5.773
 1583TIP3    H1 4706   4.629   4.637   5.822
 1583TIP3    H2 4707   4.771   4.590   5.800
 1584TIP3   OH2 4708   6.617   6.501   6.464
 1584TIP3    H1 4709   6.540   6.558   6.454
 1584TIP3    H2 4710   6.638   6.506   6.557
 1585TIP3   OH2 4711   0.229   0.482   6.354
 1585TIP3    H1 4712   0.245   0.389   6.340
 1585TIP3    H2 4713   0.316   0.520   6.361
 1586TIP3   OH2 4714   2.253   5.051   0.419
 1586TIP3    H1 4715   2.217   4.969   0.452
 1586TIP3    H2 4716   2.192   5.078   0.350
 1587TIP3   OH2 4717   7.704   3.457   2.874
 1587TIP3    H1 4718   7.682   3.527   2.812
 1587TIP3    H2 4719   7.706   3.378   2.821
 1588TIP3   OH2 4720   5.311   4.429   4.212
 1588TIP3    H1 4721   5.232   4.458   4.166
 1588TIP3    H2 4722   5.301   4.334   4.220
 1589TIP3   OH2 4723   4.505   1.763   0.897
 1589TIP3    H1 4724   4.446   1.820   0.848
 1589TIP3    H2 4725   4.511   1.683   0.845
 1590TIP3   OH2 4726   2.448   3.831   3.659
 1590TIP3    H1 4727   2.413   3.853   3.745
 1590TIP3    H2 4728   2.521   3.771   3.677
 1591TIP3   OH2 4729   5.204   4.850   3.024
 1591TIP3    H1 4730   5.166   4.825   3.108
 1591TIP3    H2 4731   5.136   4.903   2.983
 1592TIP3   OH2 4732   6.721   4.758   2.307
 1592TIP3    H1 4733   6.729   4.821   2.236
 1592TIP3    H2 4734   6.718   4.811   2.387
 1593TIP3   OH2 4735   1.773   5.591   1.470
 1593TIP3    H1 4736   1.811   5.678   1.483
 1593TIP3    H2 4737   1.692   5.593   1.520
 1594TIP3   OH2 4738   6.035   3.896   3.499
 1594TIP3    H1 4739   6.087   3.951   3.441
 1594TIP3    H2 4740   6.073   3.808   3.490
 1595TIP3   OH2 4741   0.792   1.173   4.699
 1595TIP3    H1 4742   0.710   1.218   4.723
 1595TIP3    H2 4743   0.799   1.185   4.604
 1596TIP3   OH2 4744   7.005   2.901   3.799
 1596TIP3    H1 4745   7.050   2.874   3.719
 1596TIP3    H2 4746   7.074   2.905   3.865
 1597TIP3   OH2 4747   2.295   6.499   2.284
 1597TIP3    H1 4748   2.327   6.410   2.271
 1597TIP3    H2 4749   2.320   6.521   2.374
 1598TIP3   OH2 4750   0.683   7.177   2.611
 1598TIP3    H1 4751   0.766   7.170   2.659
 1598TIP3    H2 4752   0.641   7.092   2.623
 1599TIP3   OH2 4753   4.134   0.603   1.074
 1599TIP3    H1 4754   4.200   0.670   1.093
 1599TIP3    H2 4755   4.055   0.632   1.119
 1600TIP3   OH2 4756   7.830   1.134   5.233
 1600TIP3    H1 4757   7.914   1.175   5.258
 1600TIP3    H2 4758   7.788   1.116   5.317
 1601TIP3   OH2 4759   2.398   6.585   3.214
 1601TIP3    H1 4760   2.369   6.528   3.142
 1601TIP3    H2 4761   2.351   6.553   3.291
 1602TIP3   OH2 4762   4.222   1.079   3.713
 1602TIP3    H1 4763   4.157   1.103   3.647
 1602TIP3    H2 4764   4.170   1.054   3.790
 1603TIP3   OH2 4765   5.608   1.448   5.930
 1603TIP3    H1 4766   5.648   1.361   5.922
 1603TIP3    H2 4767   5.673   1.499   5.978
 1604TIP3   OH2 4768   3.005   0.645   5.318
 1604TIP3    H1 4769   2.938   0.705   5.350
 1604TIP3    H2 4770   3.053   0.695   5.252
 1605TIP3   OH2 4771   7.512   5.449   5.730
 1605TIP3    H1 4772   7.499   5.490   5.816
 1605TIP3    H2 4773   7.523   5.356   5.750
 1606TIP3   OH2 4774   6.351   1.550   3.405
 1606TIP3    H1 4775   6.310   1.634   3.384
 1606TIP3    H2 4776   6.286   1.504   3.458
 1607TIP3   OH2 4777   4.103   1.418   1.611
 1607TIP3    H1 4778   4.088   1.491   1.671
 1607TIP3    H2 4779   4.023   1.366   1.617
 1608TIP3   OH2 4780   0.400   3.764   5.063
 1608TIP3    H1 4781   0.400   3.853   5.100
 1608TIP3    H2 4782   0.411   3.778   4.968
 1609TIP3   OH2 4783   3.482   0.034   1.396
 1609TIP3    H1 4784   3.555   0.093   1.415
 1609TIP3    H2 4785   3.521  -0.053   1.392
 1610TIP3   OH2 4786   4.595   5.592   2.374
 1610TIP3    H1 4787   4.680   5.550   2.388
 1610TIP3    H2 4788   4.611   5.654   2.302
 1611TIP3   OH2 4789   1.966   3.322   2.309
 1611TIP3    H1 4790   1.904   3.265   2.354
 1611TIP3    H2 4791   2.000   3.379   2.378
 1612TIP3   OH2 4792   4.600   2.221   4.219
 1612TIP3    H1 4793   4.546   2.157   4.266
 1612TIP3    H2 4794   4.537   2.274   4.169
 1613TIP3   OH2 4795   2.228   3.181   5.167
 1613TIP3    H1 4796   2.310   3.133   5.180
 1613TIP3    H2 4797   2.182   3.131   5.099
 1614TIP3   OH2 4798   6.960   7.319   3.711
 1614TIP3    H1 4799   6.932   7.403   3.747
 1614TIP3    H2 4800   7.056   7.327   3.706
 1615TIP3   OH2 4801   4.138   3.498   5.679
 1615TIP3    H1 4802   4.122   3.417   5.727
 1615TIP3    H2 4803   4.080   3.493   5.603
 1616TIP3   OH2 4804   8.210   3.781   3.051
 1616TIP3    H1 4805   8.241   3.693   3.030
 1616TIP3    H2 4806   8.166   3.771   3.136
 1617TIP3   OH2 4807   6.327   0.771   4.742
 1617TIP3    H1 4808   6.407   0.778   4.795
 1617TIP3    H2 4809   6.354   0.720   4.666
 1618TIP3   OH2 4810   1.788   1.060   3.891
 1618TIP3    H1 4811   1.751   1.130   3.836
 1618TIP3    H2 4812   1.738   0.982   3.868
 1619TIP3   OH2 4813   3.972   5.704   6.364
 1619TIP3    H1 4814   3.945   5.627   6.314
 1619TIP3    H2 4815   4.056   5.679   6.403
 1620TIP3   OH2 4816   6.423   7.085   3.076
 1620TIP3    H1 4817   6.373   7.025   3.020
 1620TIP3    H2 4818   6.505   7.099   3.029
 1621TIP3   OH2 4819   6.391   4.931   2.054
 1621TIP3    H1 4820   6.440   4.946   1.974
 1621TIP3    H2 4821   6.399   4.837   2.071
 1622TIP3   OH2 4822   6.120   4.779   6.642
 1622TIP3    H1 4823   6.041   4.739   6.678
 1622TIP3    H2 4824   6.187   4.712   6.651
 1623TIP3   OH2 4825   4.577   7.699   2.859
 1623TIP3    H1 4826   4.636   7.624   2.849
 1623TIP3    H2 4827   4.636   7.773   2.876
 1624TIP3   OH2 4828   4.733   1.873   4.788
 1624TIP3    H1 4829   4.774   1.960   4.789
 1624TIP3    H2 4830   4.640   1.890   4.778
 1625TIP3   OH2 4831   2.264   2.428   0.402
 1625TIP3    H1 4832   2.319   2.350   0.405
 1625TIP3    H2 4833   2.175   2.394   0.398
 1626TIP3   OH2 4834   3.090   0.123   1.838
 1626TIP3    H1 4835   3.039   0.064   1.894
 1626TIP3    H2 4836   3.181   0.112   1.868
 1627TIP3   OH2 4837   5.909   7.582   5.799
 1627TIP3    H1 4838   5.983   7.581   5.738
 1627TIP3    H2 4839   5.886   7.675   5.807
 1628TIP3   OH2 4840   7.596   7.374   6.093
 1628TIP3    H1 4841   7.514   7.324   6.090
 1628TIP3    H2 4842   7.570   7.462   6.121
 1629TIP3   OH2 4843   7.294   2.350   4.502
 1629TIP3    H1 4844   7.242   2.274   4.478
 1629TIP3    H2 4845   7.339   2.375   4.422
 1630TIP3   OH2 4846   7.607   7.395   5.507
 1630TIP3    H1 4847   7.667   7.430   5.574
 1630TIP3    H2 4848   7.525   7.443   5.522
 1631TIP3   OH2 4849   3.412   1.677   4.719
 1631TIP3    H1 4850   3.431   1.620   4.644
 1631TIP3    H2 4851   3.461   1.757   4.701
 1632TIP3   OH2 4852   7.080   6.149   6.666
 1632TIP3    H1 4853   6.990   6.156   6.698
 1632TIP3    H2 4854   7.131   6.202   6.728
 1633TIP3   OH2 4855   0.639   6.366   5.874
 1633TIP3    H1 4856   0.667   6.300   5.938
 1633TIP3    H2 4857   0.609   6.316   5.799
 1634TIP3   OH2 4858   2.705   7.701   2.140
 1634TIP3    H1 4859   2.754   7.624   2.169
 1634TIP3    H2 4860   2.735   7.717   2.051
 1635TIP3   OH2 4861   2.712   7.562   5.107
 1635TIP3    H1 4862   2.721   7.634   5.171
 1635TIP3    H2 4863   2.627   7.578   5.066
 1636TIP3   OH2 4864   0.624   5.113   3.798
 1636TIP3    H1 4865   0.696   5.051   3.799
 1636TIP3    H2 4866   0.652   5.181   3.736
 1637TIP3   OH2 4867   6.141   0.427   1.050
 1637TIP3    H1 4868   6.064   0.388   1.090
 1637TIP3    H2 4869   6.115   0.517   1.030
 1638TIP3   OH2 4870   0.174   0.193   3.301
 1638TIP3    H1 4871   0.082   0.176   3.322
 1638TIP3    H2 4872   0.171   0.247   3.222
 1639TIP3   OH2 4873   6.424   0.608   4.983
 1639TIP3    H1 4874   6.339   0.601   5.026
 1639TIP3    H2 4875   6.422   0.543   4.913
 1640TIP3   OH2 4876   7.552   7.300   5.198
 1640TIP3    H1 4877   7.581   7.281   5.109
 1640TIP3    H2 4878   7.456   7.297   5.194
 1641TIP3   OH2 4879   5.124   4.276   3.601
 1641TIP3    H1 4880   5.064   4.330   3.652
 1641TIP3    H2 4881   5.179   4.339   3.553
 1642TIP3   OH2 4882   1.727   1.106   3.270
 1642TIP3    H1 4883   1.756   1.173   3.208
 1642TIP3    H2 4884   1.808   1.073   3.310
 1643TIP3   OH2 4885   0.436   1.248   4.386
 1643TIP3    H1 4886   0.512   1.191   4.376
 1643TIP3    H2 4887   0.406   1.263   4.296
 1644TIP3   OH2 4888   2.829   1.346   3.723
 1644TIP3    H1 4889   2.836   1.436   3.756
 1644TIP3    H2 4890   2.765   1.304   3.780
 1645TIP3   OH2 4891   4.957   2.481   5.349
 1645TIP3    H1 4892   4.938   2.396   5.390
 1645TIP3    H2 4893   4.884   2.537   5.376
 1646TIP3   OH2 4894   0.880   6.038   3.187
 1646TIP3    H1 4895   0.875   5.970   3.121
 1646TIP3    H2 4896   0.973   6.043   3.210
 1647TIP3   OH2 4897   0.754   6.175   6.032
 1647TIP3    H1 4898   0.801   6.102   5.991
 1647TIP3    H2 4899   0.822   6.238   6.055
 1648TIP3   OH2 4900   2.163   3.662   5.757
 1648TIP3    H1 4901   2.113   3.655   5.675
 1648TIP3    H2 4902   2.133   3.588   5.810
 1649TIP3   OH2 4903   1.474   1.630   0.244
 1649TIP3    H1 4904   1.496   1.592   0.159
 1649TIP3    H2 4905   1.391   1.676   0.228
 1650TIP3   OH2 4906   6.307   3.542   6.225
 1650TIP3    H1 4907   6.283   3.470   6.284
 1650TIP3    H2 4908   6.399   3.558   6.244
 1651TIP3   OH2 4909   4.153   3.780   1.610
 1651TIP3    H1 4910   4.092   3.836   1.563
 1651TIP3    H2 4911   4.239   3.816   1.587
 1652TIP3   OH2 4912   6.310   4.681   1.868
 1652TIP3    H1 4913   6.334   4.629   1.945
 1652TIP3    H2 4914   6.391   4.727   1.845
 1653TIP3   OH2 4915   6.890   1.709   2.702
 1653TIP3    H1 4916   6.825   1.779   2.696
 1653TIP3    H2 4917   6.917   1.710   2.794
 1654TIP3   OH2 4918   7.652   3.059   4.118
 1654TIP3    H1 4919   7.643   2.964   4.113
 1654TIP3    H2 4920   7.737   3.073   4.160
 1655TIP3   OH2 4921   6.409   1.172   4.931
 1655TIP3    H1 4922   6.409   1.084   4.967
 1655TIP3    H2 4923   6.337   1.217   4.976
 1656TIP3   OH2 4924   1.099   5.319   4.383
 1656TIP3    H1 4925   1.047   5.248   4.344
 1656TIP3    H2 4926   1.110   5.382   4.312
 1657TIP3   OH2 4927   5.878   7.051   4.739
 1657TIP3    H1 4928   5.828   7.123   4.779
 1657TIP3    H2 4929   5.815   6.980   4.733
 1658TIP3   OH2 4930   7.449   7.140   3.212
 1658TIP3    H1 4931   7.480   7.101   3.295
 1658TIP3    H2 4932   7.516   7.115   3.148
 1659TIP3   OH2 4933   5.963   4.605   3.168
 1659TIP3    H1 4934   6.039   4.559   3.130
 1659TIP3    H2 4935   5.918   4.643   3.092
 1660TIP3   OH2 4936   6.248   2.020   2.132
 1660TIP3    H1 4937   6.191   2.077   2.183
 1660TIP3    H2 4938   6.317   1.995   2.194
 1661TIP3   OH2 4939   1.354   5.081   1.284
 1661TIP3    H1 4940   1.439   5.117   1.260
 1661TIP3    H2 4941   1.303   5.157   1.313
 1662TIP3   OH2 4942   3.597   1.350   6.262
 1662TIP3    H1 4943   3.571   1.258   6.253
 1662TIP3    H2 4944   3.533   1.398   6.209
 1663TIP3   OH2 4945   2.133   7.184   2.482
 1663TIP3    H1 4946   2.164   7.152   2.567
 1663TIP3    H2 4947   2.089   7.267   2.502
 1664TIP3   OH2 4948   7.984   1.279   2.116
 1664TIP3    H1 4949   7.913   1.221   2.142
 1664TIP3    H2 4950   7.990   1.343   2.186
 1665TIP3   OH2 4951   3.343   6.619   5.372
 1665TIP3    H1 4952   3.340   6.640   5.279
 1665TIP3    H2 4953   3.315   6.699   5.416
 1666TIP3   OH2 4954   2.178   7.371   0.534
 1666TIP3    H1 4955   2.143   7.327   0.457
 1666TIP3    H2 4956   2.101   7.409   0.577
 1667TIP3   OH2 4957   2.359   2.263   0.674
 1667TIP3    H1 4958   2.442   2.304   0.649
 1667TIP3    H2 4959   2.321   2.323   0.738
 1668TIP3   OH2 4960   0.707   4.866   6.717
 1668TIP3    H1 4961   0.739   4.952   6.690
 1668TIP3    H2 4962   0.693   4.875   6.812
 1669TIP3   OH2 4963   0.214   4.010   4.592
 1669TIP3    H1 4964   0.134   4.018   4.541
 1669TIP3    H2 4965   0.267   3.947   4.544
 1670TIP3   OH2 4966   4.845   1.252   1.368
 1670TIP3    H1 4967   4.827   1.339   1.403
 1670TIP3    H2 4968   4.875   1.202   1.443
 1671TIP3   OH2 4969   5.547   7.348   2.106
 1671TIP3    H1 4970   5.562   7.258   2.135
 1671TIP3    H2 4971   5.616   7.399   2.149
 1672TIP3   OH2 4972   1.619   0.463   1.745
 1672TIP3    H1 4973   1.662   0.467   1.830
 1672TIP3    H2 4974   1.525   0.460   1.765
 1673TIP3   OH2 4975   0.728   1.580   0.761
 1673TIP3    H1 4976   0.762   1.653   0.710
 1673TIP3    H2 4977   0.794   1.511   0.753
 1674TIP3   OH2 4978   6.749   5.589   6.044
 1674TIP3    H1 4979   6.662   5.625   6.065
 1674TIP3    H2 4980   6.782   5.645   5.974
 1675TIP3   OH2 4981   4.940   4.155   4.110
 1675TIP3    H1 4982   5.022   4.165   4.160
 1675TIP3    H2 4983   4.968   4.158   4.019
 1676TIP3   OH2 4984   4.211   6.153   6.024
 1676TIP3    H1 4985   4.282   6.096   6.054
 1676TIP3    H2 4986   4.163   6.176   6.104
 1677TIP3   OH2 4987   6.283   2.866   3.348
 1677TIP3    H1 4988   6.196   2.903   3.360
 1677TIP3    H2 4989   6.337   2.939   3.319
 1678TIP3   OH2 4990   7.136   1.466   4.691
 1678TIP3    H1 4991   7.207   1.463   4.754
 1678TIP3    H2 4992   7.096   1.380   4.696
 1679TIP3   OH2 4993   7.263   0.141   4.117
 1679TIP3    H1 4994   7.188   0.145   4.058
 1679TIP3    H2 4995   7.273   0.048   4.138
 1680TIP3   OH2 4996   3.886   2.443   4.704
 1680TIP3    H1 4997   3.932   2.360   4.702
 1680TIP3    H2 4998   3.935   2.499   4.644
 1681TIP3   OH2 4999   1.914   4.874   6.713
 1681TIP3    H1 5000   1.990   4.926   6.741
 1681TIP3    H2 5001   1.839   4.929   6.735
 1682TIP3   OH2 5002   5.481   0.229   5.437
 1682TIP3    H1 5003   5.432   0.149   5.419
 1682TIP3    H2 5004   5.417   0.299   5.425
 1683TIP3   OH2 5005   0.993   7.405   6.574
 1683TIP3    H1 5006   0.979   7.327   6.520
 1683TIP3    H2 5007   1.073   7.444   6.540
 1684TIP3   OH2 5008   4.989   5.074   1.099
 1684TIP3    H1 5009   4.924   5.010   1.070
 1684TIP3    H2 5010   5.058   5.069   1.032
 1685TIP3   OH2 5011   3.167   5.539   3.154
 1685TIP3    H1 5012   3.124   5.620   3.182
 1685TIP3    H2 5013   3.095   5.478   3.138
 1686TIP3   OH2 5014   1.157   7.055   0.799
 1686TIP3    H1 5015   1.070   7.065   0.760
 1686TIP3    H2 5016   1.212   7.116   0.749
 1687TIP3   OH2 5017   8.226   5.691   4.829
 1687TIP3    H1 5018   8.178   5.609   4.839
 1687TIP3    H2 5019   8.279   5.697   4.909
 1688TIP3   OH2 5020   2.879   1.957   1.109
 1688TIP3    H1 5021   2.924   1.972   1.192
 1688TIP3    H2 5022   2.946   1.971   1.042
 1689TIP3   OH2 5023   4.570   5.149   0.212
 1689TIP3    H1 5024   4.569   5.075   0.273
 1689TIP3    H2 5025   4.510   5.213   0.250
 1690TIP3   OH2 5026   3.790   7.215   6.194
 1690TIP3    H1 5027   3.704   7.248   6.221
 1690TIP3    H2 5028   3.798   7.242   6.102
 1691TIP3   OH2 5029   2.807   0.042   0.831
 1691TIP3    H1 5030   2.790   0.035   0.925
 1691TIP3    H2 5031   2.859  -0.035   0.811
 1692TIP3   OH2 5032   2.271   4.692   5.780
 1692TIP3    H1 5033   2.359   4.697   5.744
 1692TIP3    H2 5034   2.279   4.727   5.869
 1693TIP3   OH2 5035   1.349   5.512   4.118
 1693TIP3    H1 5036   1.358   5.555   4.203
 1693TIP3    H2 5037   1.255   5.510   4.101
 1694TIP3   OH2 5038   1.124   3.867   0.010
 1694TIP3    H1 5039   1.213   3.897  -0.008
 1694TIP3    H2 5040   1.088   3.932   0.070
 1695TIP3   OH2 5041   6.746   4.979   2.667
 1695TIP3    H1 5042   6.680   4.956   2.733
 1695TIP3    H2 5043   6.816   5.020   2.717
 1696TIP3   OH2 5044   4.605   7.174   0.899
 1696TIP3    H1 5045   4.659   7.196   0.823
 1696TIP3    H2 5046   4.535   7.119   0.864
 1697TIP3   OH2 5047   4.841   7.442   4.079
 1697TIP3    H1 5048   4.759   7.428   4.031
 1697TIP3    H2 5049   4.839   7.536   4.100
 1698TIP3   OH2 5050   3.131   0.913   1.516
 1698TIP3    H1 5051   3.141   0.860   1.595
 1698TIP3    H2 5052   3.037   0.911   1.498
 1699TIP3   OH2 5053   0.147   5.717   1.149
 1699TIP3    H1 5054   0.073   5.696   1.207
 1699TIP3    H2 5055   0.218   5.739   1.209
 1700TIP3   OH2 5056   6.028   5.026   1.860
 1700TIP3    H1 5057   6.011   5.115   1.828
 1700TIP3    H2 5058   6.014   4.970   1.783
 1701TIP3   OH2 5059   5.854   2.182   0.098
 1701TIP3    H1 5060   5.827   2.098   0.059
 1701TIP3    H2 5061   5.904   2.225   0.028
 1702TIP3   OH2 5062   2.787   1.106   0.239
 1702TIP3    H1 5063   2.863   1.164   0.255
 1702TIP3    H2 5064   2.750   1.138   0.157
 1703TIP3   OH2 5065   2.673   5.002   1.175
 1703TIP3    H1 5066   2.617   4.970   1.245
 1703TIP3    H2 5067   2.678   5.097   1.189
 1704TIP3   OH2 5068   2.993   3.312   1.366
 1704TIP3    H1 5069   2.925   3.370   1.333
 1704TIP3    H2 5070   2.994   3.328   1.461
 1705TIP3   OH2 5071   7.759   4.676   5.153
 1705TIP3    H1 5072   7.824   4.648   5.089
 1705TIP3    H2 5073   7.785   4.635   5.235
 1706TIP3   OH2 5074   6.398   4.461   2.783
 1706TIP3    H1 5075   6.427   4.440   2.872
 1706TIP3    H2 5076   6.451   4.405   2.727
 1707TIP3   OH2 5077   7.591   6.005   5.869
 1707TIP3    H1 5078   7.622   6.008   5.960
 1707TIP3    H2 5079   7.638   5.931   5.830
 1708TIP3   OH2 5080   2.561   3.014   1.318
 1708TIP3    H1 5081   2.599   3.067   1.389
 1708TIP3    H2 5082   2.632   3.004   1.256
 1709TIP3   OH2 5083   4.583   7.386   1.558
 1709TIP3    H1 5084   4.597   7.302   1.515
 1709TIP3    H2 5085   4.669   7.427   1.559
 1710TIP3   OH2 5086   5.087   3.900   3.348
 1710TIP3    H1 5087   5.080   3.963   3.275
 1710TIP3    H2 5088   5.156   3.936   3.404
 1711TIP3   OH2 5089   2.356   5.996   1.363
 1711TIP3    H1 5090   2.351   5.998   1.267
 1711TIP3    H2 5091   2.425   6.058   1.384
 1712TIP3   OH2 5092   0.526   5.442   2.334
 1712TIP3    H1 5093   0.508   5.533   2.356
 1712TIP3    H2 5094   0.498   5.434   2.242
 1713TIP3   OH2 5095   3.356   1.911   0.525
 1713TIP3    H1 5096   3.405   1.854   0.466
 1713TIP3    H2 5097   3.308   1.971   0.468
 1714TIP3   OH2 5098   2.741   7.793   3.961
 1714TIP3    H1 5099   2.784   7.738   3.896
 1714TIP3    H2 5100   2.798   7.870   3.970
 1715TIP3   OH2 5101   8.032   4.079   4.335
 1715TIP3    H1 5102   7.961   4.121   4.382
 1715TIP3    H2 5103   7.989   4.022   4.272
 1716TIP3   OH2 5104   6.921   3.579   6.047
 1716TIP3    H1 5105   6.882   3.547   6.129
 1716TIP3    H2 5106   6.992   3.637   6.075
 1717TIP3   OH2 5107   4.570   5.290   5.483
 1717TIP3    H1 5108   4.508   5.362   5.491
 1717TIP3    H2 5109   4.647   5.319   5.532
 1718TIP3   OH2 5110   6.409   5.086   2.669
 1718TIP3    H1 5111   6.449   5.016   2.720
 1718TIP3    H2 5112   6.404   5.160   2.730
 1719TIP3   OH2 5113   3.538   4.785   2.564
 1719TIP3    H1 5114   3.514   4.791   2.656
 1719TIP3    H2 5115   3.464   4.825   2.517
 1720TIP3   OH2 5116   0.080   6.189   2.223
 1720TIP3    H1 5117  -0.010   6.208   2.200
 1720TIP3    H2 5118   0.087   6.214   2.315
 1721TIP3   OH2 5119   8.118   6.178   4.193
 1721TIP3    H1 5120   8.168   6.216   4.265
 1721TIP3    H2 5121   8.164   6.208   4.114
 1722TIP3   OH2 5122   0.877   7.733   6.555
 1722TIP3    H1 5123   0.909   7.730   6.645
 1722TIP3    H2 5124   0.949   7.696   6.503
 1723TIP3   OH2 5125   2.291   3.126   1.837
 1723TIP3    H1 5126   2.238   3.062   1.789
 1723TIP3    H2 5127   2.239   3.148   1.914
 1724TIP3   OH2 5128   4.591   0.101   1.285
 1724TIP3    H1 5129   4.529   0.173   1.275
 1724TIP3    H2 5130   4.677   0.141   1.274
 1725TIP3   OH2 5131   4.111   1.312   4.050
 1725TIP3    H1 5132   4.170   1.386   4.069
 1725TIP3    H2 5133   4.075   1.332   3.963
 1726TIP3   OH2 5134   4.910   7.217   1.265
 1726TIP3    H1 5135   4.971   7.224   1.338
 1726TIP3    H2 5136   4.844   7.283   1.282
 1727TIP3   OH2 5137   1.047   1.019   0.265
 1727TIP3    H1 5138   1.078   1.104   0.294
 1727TIP3    H2 5139   1.124   0.978   0.225
 1728TIP3   OH2 5140   0.121   4.546   5.716
 1728TIP3    H1 5141   0.193   4.486   5.730
 1728TIP3    H2 5142   0.046   4.490   5.694
 1729TIP3   OH2 5143   3.398   6.169   4.246
 1729TIP3    H1 5144   3.448   6.102   4.200
 1729TIP3    H2 5145   3.328   6.192   4.185
 1730TIP3   OH2 5146   1.844   4.801   6.008
 1730TIP3    H1 5147   1.916   4.861   6.029
 1730TIP3    H2 5148   1.786   4.853   5.952
 1731TIP3   OH2 5149   6.427   0.091   5.873
 1731TIP3    H1 5150   6.394   0.178   5.849
 1731TIP3    H2 5151   6.368   0.062   5.943
 1732TIP3   OH2 5152   4.770   1.010   2.703
 1732TIP3    H1 5153   4.779   0.943   2.635
 1732TIP3    H2 5154   4.791   1.092   2.658
 1733TIP3   OH2 5155   1.319   2.780   0.415
 1733TIP3    H1 5156   1.232   2.740   0.424
 1733TIP3    H2 5157   1.316   2.827   0.332
 1734TIP3   OH2 5158   3.583   5.677   3.858
 1734TIP3    H1 5159   3.606   5.584   3.852
 1734TIP3    H2 5160   3.665   5.720   3.881
 1735TIP3   OH2 5161   1.237   7.216   3.899
 1735TIP3    H1 5162   1.213   7.126   3.876
 1735TIP3    H2 5163   1.153   7.260   3.910
 1736TIP3   OH2 5164   5.156   6.943   6.716
 1736TIP3    H1 5165   5.178   6.871   6.776
 1736TIP3    H2 5166   5.088   6.992   6.762
 1737TIP3   OH2 5167   0.233   1.015   6.176
 1737TIP3    H1 5168   0.257   0.929   6.209
 1737TIP3    H2 5169   0.169   1.048   6.240
 1738TIP3   OH2 5170   6.086   6.940   6.410
 1738TIP3    H1 5171   6.159   6.931   6.349
 1738TIP3    H2 5172   6.009   6.949   6.354
 1739TIP3   OH2 5173   7.642   6.888   3.383
 1739TIP3    H1 5174   7.576   6.828   3.420
 1739TIP3    H2 5175   7.699   6.833   3.331
 1740TIP3   OH2 5176   3.181   7.160   0.077
 1740TIP3    H1 5177   3.231   7.106   0.137
 1740TIP3    H2 5178   3.243   7.186   0.009
 1741TIP3   OH2 5179   1.008   7.691   3.847
 1741TIP3    H1 5180   1.025   7.628   3.778
 1741TIP3    H2 5181   0.934   7.743   3.816
 1742TIP3   OH2 5182   8.118   0.257   4.565
 1742TIP3    H1 5183   8.153   0.206   4.492
 1742TIP3    H2 5184   8.118   0.197   4.639
 1743TIP3   OH2 5185   1.959   3.314   4.780
 1743TIP3    H1 5186   1.922   3.242   4.727
 1743TIP3    H2 5187   2.053   3.308   4.765
 1744TIP3   OH2 5188   2.631   2.093   5.164
 1744TIP3    H1 5189   2.684   2.013   5.165
 1744TIP3    H2 5190   2.541   2.062   5.173
 1745TIP3   OH2 5191   1.562   0.129   5.705
 1745TIP3    H1 5192   1.604   0.213   5.722
 1745TIP3    H2 5193   1.543   0.094   5.792
 1746TIP3   OH2 5194   3.995   5.314   1.540
 1746TIP3    H1 5195   4.027   5.246   1.481
 1746TIP3    H2 5196   4.073   5.344   1.587
 1747TIP3   OH2 5197   7.879   2.044   5.744
 1747TIP3    H1 5198   7.911   2.116   5.690
 1747TIP3    H2 5199   7.786   2.064   5.757
 1748TIP3   OH2 5200   3.049   6.272   1.893
 1748TIP3    H1 5201   3.048   6.180   1.866
 1748TIP3    H2 5202   2.989   6.315   1.832
 1749TIP3   OH2 5203   7.342   0.722   6.717
 1749TIP3    H1 5204   7.259   0.697   6.756
 1749TIP3    H2 5205   7.404   0.721   6.790
 1750TIP3   OH2 5206   5.816   1.830   5.185
 1750TIP3    H1 5207   5.892   1.889   5.192
 1750TIP3    H2 5208   5.743   1.889   5.166
 1751TIP3   OH2 5209   1.738   5.201   5.332
 1751TIP3    H1 5210   1.741   5.148   5.412
 1751TIP3    H2 5211   1.738   5.138   5.261
 1752TIP3   OH2 5212   5.147   7.427   2.575
 1752TIP3    H1 5213   5.156   7.484   2.652
 1752TIP3    H2 5214   5.232   7.431   2.532
 1753TIP3   OH2 5215   2.355   4.042   0.158
 1753TIP3    H1 5216   2.408   4.115   0.126
 1753TIP3    H2 5217   2.311   4.077   0.235
 1754TIP3   OH2 5218   8.200   6.010   0.470
 1754TIP3    H1 5219   8.179   5.922   0.501
 1754TIP3    H2 5220   8.116   6.055   0.467
 1755TIP3   OH2 5221   7.512   4.107   2.753
 1755TIP3    H1 5222   7.457   4.029   2.761
 1755TIP3    H2 5223   7.486   4.162   2.827
 1756TIP3   OH2 5224   2.979   4.423   2.812
 1756TIP3    H1 5225   3.023   4.353   2.860
 1756TIP3    H2 5226   2.970   4.390   2.723
 1757TIP3   OH2 5227   4.200   7.128   4.289
 1757TIP3    H1 5228   4.175   7.068   4.218
 1757TIP3    H2 5229   4.143   7.103   4.362
 1758TIP3   OH2 5230   2.920   2.473   2.953
 1758TIP3    H1 5231   2.994   2.532   2.937
 1758TIP3    H2 5232   2.856   2.528   2.998
 1759TIP3   OH2 5233   5.985   2.434   3.860
 1759TIP3    H1 5234   5.995   2.358   3.804
 1759TIP3    H2 5235   5.913   2.484   3.822
 1760TIP3   OH2 5236   3.395   6.891   2.584
 1760TIP3    H1 5237   3.359   6.803   2.574
 1760TIP3    H2 5238   3.478   6.889   2.535
 1761TIP3   OH2 5239   4.534   4.046   4.066
 1761TIP3    H1 5240   4.593   4.012   4.134
 1761TIP3    H2 5241   4.589   4.054   3.988
 1762TIP3   OH2 5242   4.321  -0.009   0.699
 1762TIP3    H1 5243   4.317  -0.032   0.606
 1762TIP3    H2 5244   4.397   0.049   0.705
 1763TIP3   OH2 5245   5.483   5.000   1.734
 1763TIP3    H1 5246   5.454   4.909   1.749
 1763TIP3    H2 5247   5.516   5.029   1.820
 1764TIP3   OH2 5248   7.738   3.909   5.648
 1764TIP3    H1 5249   7.727   3.815   5.632
 1764TIP3    H2 5250   7.649   3.943   5.651
 1765TIP3   OH2 5251   7.326   0.991   3.689
 1765TIP3    H1 5252   7.384   0.932   3.641
 1765TIP3    H2 5253   7.382   1.066   3.710
 1766TIP3   OH2 5254   0.539   4.489   6.718
 1766TIP3    H1 5255   0.575   4.449   6.639
 1766TIP3    H2 5256   0.488   4.420   6.759
 1767TIP3   OH2 5257   5.204   2.849   2.617
 1767TIP3    H1 5258   5.257   2.868   2.540
 1767TIP3    H2 5259   5.161   2.766   2.597
 1768TIP3   OH2 5260   3.144   3.185   1.835
 1768TIP3    H1 5261   3.208   3.114   1.845
 1768TIP3    H2 5262   3.170   3.250   1.900
 1769TIP3   OH2 5263   6.390   1.949   0.892
 1769TIP3    H1 5264   6.305   1.909   0.910
 1769TIP3    H2 5265   6.454   1.887   0.926
 1770TIP3   OH2 5266   7.006   1.968   1.681
 1770TIP3    H1 5267   6.936   2.026   1.711
 1770TIP3    H2 5268   7.081   1.992   1.737
 1771TIP3   OH2 5269   1.912   7.667   2.526
 1771TIP3    H1 5270   1.968   7.727   2.476
 1771TIP3    H2 5271   1.971   7.625   2.588
 1772TIP3   OH2 5272   4.562   3.636   1.774
 1772TIP3    H1 5273   4.542   3.655   1.866
 1772TIP3    H2 5274   4.657   3.627   1.771
 1773TIP3   OH2 5275   2.630   6.900   6.312
 1773TIP3    H1 5276   2.711   6.914   6.361
 1773TIP3    H2 5277   2.643   6.947   6.230
 1774TIP3   OH2 5278   2.299   2.302   5.342
 1774TIP3    H1 5279   2.267   2.382   5.301
 1774TIP3    H2 5280   2.394   2.312   5.343
 1775TIP3   OH2 5281   5.256   2.552   1.036
 1775TIP3    H1 5282   5.223   2.553   0.946
 1775TIP3    H2 5283   5.351   2.542   1.027
 1776TIP3   OH2 5284   4.559   1.547   0.716
 1776TIP3    H1 5285   4.650   1.577   0.718
 1776TIP3    H2 5286   4.563   1.457   0.749
 1777TIP3   OH2 5287   1.347   2.747   5.585
 1777TIP3    H1 5288   1.338   2.712   5.674
 1777TIP3    H2 5289   1.438   2.775   5.579
 1778TIP3   OH2 5290   3.676   4.547   2.611
 1778TIP3    H1 5291   3.605   4.484   2.606
 1778TIP3    H2 5292   3.638   4.629   2.580
 1779TIP3   OH2 5293   4.704   7.687   3.889
 1779TIP3    H1 5294   4.739   7.707   3.976
 1779TIP3    H2 5295   4.623   7.639   3.906
 1780TIP3   OH2 5296   7.932   6.035   2.936
 1780TIP3    H1 5297   8.015   6.055   2.977
 1780TIP3    H2 5298   7.868   6.091   2.980
 1781TIP3   OH2 5299   7.694   6.921   2.667
 1781TIP3    H1 5300   7.746   6.869   2.729
 1781TIP3    H2 5301   7.625   6.862   2.638
 1782TIP3   OH2 5302   3.331   4.479   2.812
 1782TIP3    H1 5303   3.300   4.401   2.859
 1782TIP3    H2 5304   3.252   4.532   2.800
 1783TIP3   OH2 5305   2.139   6.609   1.656
 1783TIP3    H1 5306   2.062   6.630   1.709
 1783TIP3    H2 5307   2.156   6.517   1.674
 1784TIP3   OH2 5308   7.820   1.160   3.399
 1784TIP3    H1 5309   7.753   1.098   3.428
 1784TIP3    H2 5310   7.852   1.125   3.316
 1785TIP3   OH2 5311   6.939   6.824   1.519
 1785TIP3    H1 5312   6.941   6.913   1.555
 1785TIP3    H2 5313   6.846   6.802   1.515
 1786TIP3   OH2 5314   5.936   5.613   3.235
 1786TIP3    H1 5315   6.018   5.661   3.245
 1786TIP3    H2 5316   5.920   5.614   3.140
 1787TIP3   OH2 5317   0.435   2.383   4.370
 1787TIP3    H1 5318   0.450   2.468   4.329
 1787TIP3    H2 5319   0.455   2.319   4.302
 1788TIP3   OH2 5320   0.878   0.133   1.015
 1788TIP3    H1 5321   0.961   0.103   0.978
 1788TIP3    H2 5322   0.838   0.185   0.945
 1789TIP3   OH2 5323   0.875   6.809   0.525
 1789TIP3    H1 5324   0.881   6.742   0.593
 1789TIP3    H2 5325   0.781   6.822   0.512
 1790TIP3   OH2 5326   7.626   3.826   0.389
 1790TIP3    H1 5327   7.569   3.749   0.399
 1790TIP3    H2 5328   7.601   3.863   0.304
 1791TIP3   OH2 5329   1.201   0.200   5.767
 1791TIP3    H1 5330   1.241   0.247   5.693
 1791TIP3    H2 5331   1.168   0.270   5.824
 1792TIP3   OH2 5332   4.165   2.079   3.913
 1792TIP3    H1 5333   4.095   2.111   3.969
 1792TIP3    H2 5334   4.237   2.141   3.926
 1793TIP3   OH2 5335   5.634   1.423   0.356
 1793TIP3    H1 5336   5.661   1.465   0.438
 1793TIP3    H2 5337   5.559   1.369   0.380
 1794TIP3   OH2 5338   7.978   4.701   6.086
 1794TIP3    H1 5339   8.053   4.644   6.102
 1794TIP3    H2 5340   8.007   4.759   6.016
 1795TIP3   OH2 5341   5.277   5.294   0.700
 1795TIP3    H1 5342   5.214   5.366   0.708
 1795TIP3    H2 5343   5.361   5.338   0.685
 1796TIP3   OH2 5344   7.416   3.994   0.855
 1796TIP3    H1 5345   7.426   3.915   0.801
 1796TIP3    H2 5346   7.501   4.038   0.849
 1797TIP3   OH2 5347   8.143   0.603   3.338
 1797TIP3    H1 5348   8.227   0.632   3.304
 1797TIP3    H2 5349   8.084   0.677   3.323
 1798TIP3   OH2 5350   5.471   1.380   1.989
 1798TIP3    H1 5351   5.511   1.466   1.993
 1798TIP3    H2 5352   5.377   1.396   1.996
 1799TIP3   OH2 5353   5.987   0.354   1.997
 1799TIP3    H1 5354   6.034   0.275   1.973
 1799TIP3    H2 5355   5.939   0.331   2.076
 1800TIP3   OH2 5356   5.399   1.206   1.395
 1800TIP3    H1 5357   5.338   1.171   1.329
 1800TIP3    H2 5358   5.410   1.298   1.370
 1801TIP3   OH2 5359   2.286   3.909   2.603
 1801TIP3    H1 5360   2.358   3.952   2.649
 1801TIP3    H2 5361   2.242   3.979   2.555
 1802TIP3   OH2 5362   1.793   2.789   4.533
 1802TIP3    H1 5363   1.772   2.820   4.621
 1802TIP3    H2 5364   1.842   2.708   4.548
 1803TIP3   OH2 5365   0.396   1.814   4.040
 1803TIP3    H1 5366   0.350   1.893   4.068
 1803TIP3    H2 5367   0.330   1.763   3.994
 1804TIP3   OH2 5368   7.879   4.416   1.047
 1804TIP3    H1 5369   7.917   4.460   0.972
 1804TIP3    H2 5370   7.785   4.434   1.040
 1805TIP3   OH2 5371   6.536   2.723   5.904
 1805TIP3    H1 5372   6.573   2.663   5.969
 1805TIP3    H2 5373   6.452   2.684   5.882
 1806TIP3   OH2 5374   2.638   3.202   2.396
 1806TIP3    H1 5375   2.601   3.196   2.483
 1806TIP3    H2 5376   2.724   3.160   2.403
 1807TIP3   OH2 5377   0.076   3.009   0.969
 1807TIP3    H1 5378   0.055   3.046   1.054
 1807TIP3    H2 5379   0.028   2.926   0.967
 1808TIP3   OH2 5380   2.216   4.999   2.810
 1808TIP3    H1 5381   2.240   4.906   2.807
 1808TIP3    H2 5382   2.294   5.044   2.778
 1809TIP3   OH2 5383   4.736   0.678   3.256
 1809TIP3    H1 5384   4.707   0.701   3.345
 1809TIP3    H2 5385   4.691   0.740   3.200
 1810TIP3   OH2 5386   7.577   4.012   0.100
 1810TIP3    H1 5387   7.667   3.981   0.090
 1810TIP3    H2 5388   7.524   3.946   0.056
 1811TIP3   OH2 5389   1.281   4.566   3.011
 1811TIP3    H1 5390   1.284   4.472   3.025
 1811TIP3    H2 5391   1.256   4.576   2.919
 1812TIP3   OH2 5392   7.328   3.467   1.534
 1812TIP3    H1 5393   7.418   3.450   1.507
 1812TIP3    H2 5394   7.335   3.510   1.619
 1813TIP3   OH2 5395   6.800   0.609   2.565
 1813TIP3    H1 5396   6.819   0.570   2.479
 1813TIP3    H2 5397   6.831   0.699   2.557
 1814TIP3   OH2 5398   7.953   4.556   4.442
 1814TIP3    H1 5399   8.044   4.586   4.442
 1814TIP3    H2 5400   7.948   4.496   4.517
 1815TIP3   OH2 5401   7.931   0.136   6.595
 1815TIP3    H1 5402   8.010   0.188   6.578
 1815TIP3    H2 5403   7.866   0.201   6.622
 1816TIP3   OH2 5404   3.676   3.367   2.895
 1816TIP3    H1 5405   3.736   3.442   2.894
 1816TIP3    H2 5406   3.656   3.355   2.988
 1817TIP3   OH2 5407   6.375   1.628   2.882
 1817TIP3    H1 5408   6.470   1.616   2.893
 1817TIP3    H2 5409   6.336   1.577   2.953
 1818TIP3   OH2 5410   7.511   1.652   1.667
 1818TIP3    H1 5411   7.540   1.741   1.650
 1818TIP3    H2 5412   7.490   1.616   1.581
 1819TIP3   OH2 5413   5.432   7.641   1.896
 1819TIP3    H1 5414   5.364   7.640   1.828
 1819TIP3    H2 5415   5.382   7.651   1.978
 1820TIP3   OH2 5416   4.926   2.883   4.648
 1820TIP3    H1 5417   4.965   2.863   4.562
 1820TIP3    H2 5418   4.846   2.931   4.627
 1821TIP3   OH2 5419   4.377   3.100   3.549
 1821TIP3    H1 5420   4.328   3.145   3.479
 1821TIP3    H2 5421   4.469   3.115   3.527
 1822TIP3   OH2 5422   0.729   4.024   5.426
 1822TIP3    H1 5423   0.643   4.050   5.394
 1822TIP3    H2 5424   0.790   4.081   5.379
 1823TIP3   OH2 5425   2.393   0.896   4.680
 1823TIP3    H1 5426   2.435   0.837   4.742
 1823TIP3    H2 5427   2.366   0.972   4.732
 1824TIP3   OH2 5428   3.683   2.612   6.482
 1824TIP3    H1 5429   3.679   2.707   6.472
 1824TIP3    H2 5430   3.735   2.599   6.562
 1825TIP3   OH2 5431   4.375   6.691   6.673
 1825TIP3    H1 5432   4.402   6.650   6.591
 1825TIP3    H2 5433   4.414   6.636   6.741
 1826TIP3   OH2 5434   0.680   1.160   0.742
 1826TIP3    H1 5435   0.699   1.067   0.746
 1826TIP3    H2 5436   0.756   1.203   0.781
 1827TIP3   OH2 5437   2.389   6.769   6.261
 1827TIP3    H1 5438   2.364   6.703   6.327
 1827TIP3    H2 5439   2.467   6.810   6.297
 1828TIP3   OH2 5440   0.574   0.267   5.501
 1828TIP3    H1 5441   0.613   0.354   5.489
 1828TIP3    H2 5442   0.481   0.280   5.484
 1829TIP3   OH2 5443   3.973   5.587   2.552
 1829TIP3    H1 5444   3.907   5.640   2.507
 1829TIP3    H2 5445   3.924   5.539   2.619
 1830TIP3   OH2 5446   7.728   4.405   2.762
 1830TIP3    H1 5447   7.718   4.314   2.793
 1830TIP3    H2 5448   7.713   4.400   2.668
 1831TIP3   OH2 5449   0.733   5.511   6.275
 1831TIP3    H1 5450   0.713   5.591   6.225
 1831TIP3    H2 5451   0.655   5.496   6.329
 1832TIP3   OH2 5452   4.206   5.142   0.635
 1832TIP3    H1 5453   4.228   5.235   0.630
 1832TIP3    H2 5454   4.182   5.118   0.546
 1833TIP3   OH2 5455   0.592   6.473   3.978
 1833TIP3    H1 5456   0.679   6.513   3.973
 1833TIP3    H2 5457   0.533   6.538   3.941
 1834TIP3   OH2 5458   4.814   3.011   6.586
 1834TIP3    H1 5459   4.823   2.992   6.679
 1834TIP3    H2 5460   4.904   3.018   6.554
 1835TIP3   OH2 5461   1.355   2.576   4.641
 1835TIP3    H1 5462   1.422   2.619   4.587
 1835TIP3    H2 5463   1.278   2.632   4.632
 1836TIP3   OH2 5464   4.873   6.441   1.353
 1836TIP3    H1 5465   4.931   6.451   1.278
 1836TIP3    H2 5466   4.824   6.361   1.334
 1837TIP3   OH2 5467   4.822   5.183   2.074
 1837TIP3    H1 5468   4.867   5.126   2.136
 1837TIP3    H2 5469   4.733   5.190   2.108
 1838TIP3   OH2 5470   6.742   1.475   2.592
 1838TIP3    H1 5471   6.820   1.515   2.631
 1838TIP3    H2 5472   6.768   1.452   2.503
 1839TIP3   OH2 5473   4.714   6.053   3.068
 1839TIP3    H1 5474   4.759   6.091   2.993
 1839TIP3    H2 5475   4.629   6.025   3.034
 1840TIP3   OH2 5476   0.556   1.268   4.768
 1840TIP3    H1 5477   0.482   1.207   4.767
 1840TIP3    H2 5478   0.533   1.334   4.702
 1841TIP3   OH2 5479   4.437   1.494   1.165
 1841TIP3    H1 5480   4.414   1.499   1.258
 1841TIP3    H2 5481   4.356   1.518   1.120
 1842TIP3   OH2 5482   6.408   6.086   5.745
 1842TIP3    H1 5483   6.467   6.156   5.717
 1842TIP3    H2 5484   6.465   6.025   5.793
 1843TIP3   OH2 5485   3.843   5.932   1.778
 1843TIP3    H1 5486   3.835   5.838   1.795
 1843TIP3    H2 5487   3.762   5.970   1.811
 1844TIP3   OH2 5488   1.145   3.393   6.469
 1844TIP3    H1 5489   1.065   3.374   6.518
 1844TIP3    H2 5490   1.168   3.310   6.428
 1845TIP3   OH2 5491   5.689   3.486   6.145
 1845TIP3    H1 5492   5.739   3.455   6.069
 1845TIP3    H2 5493   5.602   3.448   6.133
 1846TIP3   OH2 5494   7.844   7.442   0.799
 1846TIP3    H1 5495   7.921   7.409   0.753
 1846TIP3    H2 5496   7.772   7.387   0.769
 1847TIP3   OH2 5497   6.826   4.854   5.080
 1847TIP3    H1 5498   6.855   4.772   5.119
 1847TIP3    H2 5499   6.894   4.917   5.104
 1848TIP3   OH2 5500   6.650   1.584   3.425
 1848TIP3    H1 5501   6.626   1.676   3.435
 1848TIP3    H2 5502   6.568   1.536   3.437
 1849TIP3   OH2 5503   2.964   1.781   1.743
 1849TIP3    H1 5504   2.995   1.841   1.811
 1849TIP3    H2 5505   2.900   1.725   1.787
 1850TIP3   OH2 5506   3.907   7.369   1.836
 1850TIP3    H1 5507   3.944   7.388   1.923
 1850TIP3    H2 5508   3.968   7.307   1.797
 1851TIP3   OH2 5509   7.460   5.306   5.313
 1851TIP3    H1 5510   7.540   5.254   5.310
 1851TIP3    H2 5511   7.491   5.397   5.309
 1852TIP3   OH2 5512   4.075   0.122   6.065
 1852TIP3    H1 5513   3.999   0.159   6.022
 1852TIP3    H2 5514   4.077   0.162   6.151
 1853TIP3   OH2 5515   5.294   7.190   3.443
 1853TIP3    H1 5516   5.201   7.190   3.467
 1853TIP3    H2 5517   5.296   7.153   3.355
 1854TIP3   OH2 5518   2.814   1.616   1.287
 1854TIP3    H1 5519   2.822   1.687   1.351
 1854TIP3    H2 5520   2.902   1.608   1.250
 1855TIP3   OH2 5521   2.904   1.174   4.443
 1855TIP3    H1 5522   2.864   1.108   4.386
 1855TIP3    H2 5523   2.929   1.126   4.522
 1856TIP3   OH2 5524   3.961   7.314   5.188
 1856TIP3    H1 5525   3.943   7.336   5.280
 1856TIP3    H2 5526   4.026   7.378   5.161
 1857TIP3   OH2 5527   2.997   5.380   0.839
 1857TIP3    H1 5528   3.063   5.351   0.902
 1857TIP3    H2 5529   2.975   5.469   0.867
 1858TIP3   OH2 5530   3.087   4.790   5.608
 1858TIP3    H1 5531   2.993   4.803   5.600
 1858TIP3    H2 5532   3.119   4.789   5.518
 1859TIP3   OH2 5533   0.610   0.027   1.061
 1859TIP3    H1 5534   0.573   0.111   1.086
 1859TIP3    H2 5535   0.702   0.045   1.043
 1860TIP3   OH2 5536   0.206   4.966   3.254
 1860TIP3    H1 5537   0.282   4.945   3.308
 1860TIP3    H2 5538   0.204   4.897   3.188
 1861TIP3   OH2 5539   5.633   6.755   0.448
 1861TIP3    H1 5540   5.591   6.809   0.515
 1861TIP3    H2 5541   5.561   6.702   0.412
 1862TIP3   OH2 5542   5.536   0.657   1.343
 1862TIP3    H1 5543   5.602   0.725   1.356
 1862TIP3    H2 5544   5.484   0.659   1.424
 1863TIP3   OH2 5545   5.437   4.908   3.836
 1863TIP3    H1 5546   5.429   4.832   3.779
 1863TIP3    H2 5547   5.380   4.889   3.910
 1864TIP3   OH2 5548   3.561   2.268   0.646
 1864TIP3    H1 5549   3.613   2.209   0.701
 1864TIP3    H2 5550   3.470   2.241   0.661
 1865TIP3   OH2 5551   1.530   4.978   2.606
 1865TIP3    H1 5552   1.550   5.069   2.587
 1865TIP3    H2 5553   1.452   4.981   2.661
 1866TIP3   OH2 5554   1.263   0.667   6.590
 1866TIP3    H1 5555   1.272   0.683   6.684
 1866TIP3    H2 5556   1.283   0.752   6.549
 1867TIP3   OH2 5557   6.021   4.198   2.454
 1867TIP3    H1 5558   6.013   4.285   2.415
 1867TIP3    H2 5559   6.103   4.202   2.505
 1868TIP3   OH2 5560   3.888   4.409   3.410
 1868TIP3    H1 5561   3.855   4.415   3.499
 1868TIP3    H2 5562   3.941   4.329   3.409
 1869TIP3   OH2 5563   5.897   0.068   5.594
 1869TIP3    H1 5564   5.895  -0.004   5.657
 1869TIP3    H2 5565   5.826   0.125   5.621
 1870TIP3   OH2 5566   3.878   1.463   3.013
 1870TIP3    H1 5567   3.855   1.385   2.964
 1870TIP3    H2 5568   3.831   1.534   2.969
 1871TIP3   OH2 5569   3.353   6.302   2.614
 1871TIP3    H1 5570   3.298   6.261   2.681
 1871TIP3    H2 5571   3.410   6.362   2.661
 1872TIP3   OH2 5572   6.117   5.320   2.407
 1872TIP3    H1 5573   6.123   5.267   2.486
 1872TIP3    H2 5574   6.036   5.369   2.416
 1873TIP3   OH2 5575   5.950   2.253   2.481
 1873TIP3    H1 5576   5.890   2.287   2.414
 1873TIP3    H2 5577   5.977   2.331   2.530
 1874TIP3   OH2 5578   3.357   5.043   1.294
 1874TIP3    H1 5579   3.263   5.038   1.311
 1874TIP3    H2 5580   3.387   4.952   1.298
 1875TIP3   OH2 5581   7.342   7.439   0.900
 1875TIP3    H1 5582   7.349   7.500   0.973
 1875TIP3    H2 5583   7.364   7.354   0.938
 1876TIP3   OH2 5584   2.834   2.702   5.050
 1876TIP3    H1 5585   2.781   2.699   4.970
 1876TIP3    H2 5586   2.916   2.658   5.026
 1877TIP3   OH2 5587   6.561   5.033   4.599
 1877TIP3    H1 5588   6.639   4.991   4.563
 1877TIP3    H2 5589   6.535   4.978   4.672
 1878TIP3   OH2 5590   7.863   0.082   0.534
 1878TIP3    H1 5591   7.827   0.170   0.549
 1878TIP3    H2 5592   7.878   0.047   0.622
 1879TIP3   OH2 5593   2.189   2.418   0.798
 1879TIP3    H1 5594   2.217   2.505   0.828
 1879TIP3    H2 5595   2.094   2.419   0.805
 1880TIP3   OH2 5596   6.750   1.009   3.368
 1880TIP3    H1 5597   6.780   1.065   3.439
 1880TIP3    H2 5598   6.753   1.065   3.290
 1881TIP3   OH2 5599   4.163   3.547   2.211
 1881TIP3    H1 5600   4.113   3.493   2.151
 1881TIP3    H2 5601   4.110   3.551   2.291
 1882TIP3   OH2 5602   0.196   3.882   3.188
 1882TIP3    H1 5603   0.141   3.925   3.123
 1882TIP3    H2 5604   0.147   3.803   3.213
 1883TIP3   OH2 5605   3.037   1.564   2.802
 1883TIP3    H1 5606   2.954   1.524   2.776
 1883TIP3    H2 5607   3.020   1.658   2.801
 1884TIP3   OH2 5608   5.085   0.741   1.626
 1884TIP3    H1 5609   5.173   0.706   1.616
 1884TIP3    H2 5610   5.031   0.689   1.566
 1885TIP3   OH2 5611   0.776   0.876   0.754
 1885TIP3    H1 5612   0.695   0.828   0.740
 1885TIP3    H2 5613   0.839   0.834   0.695
 1886TIP3   OH2 5614   7.592   3.031   5.686
 1886TIP3    H1 5615   7.666   2.980   5.718
 1886TIP3    H2 5616   7.515   2.988   5.725
 1887TIP3   OH2 5617   1.763   3.472   6.799
 1887TIP3    H1 5618   1.833   3.411   6.774
 1887TIP3    H2 5619   1.751   3.528   6.722
 1888TIP3   OH2 5620   1.566   4.135   2.000
 1888TIP3    H1 5621   1.472   4.151   1.994
 1888TIP3    H2 5622   1.574   4.055   2.051
 1889TIP3   OH2 5623   1.157   4.067   3.133
 1889TIP3    H1 5624   1.068   4.075   3.169
 1889TIP3    H2 5625   1.157   3.983   3.088
 1890TIP3   OH2 5626   1.614   7.431   2.065
 1890TIP3    H1 5627   1.635   7.401   2.154
 1890TIP3    H2 5628   1.624   7.353   2.011
 1891TIP3   OH2 5629   2.879   0.790   5.641
 1891TIP3    H1 5630   2.963   0.821   5.676
 1891TIP3    H2 5631   2.885   0.695   5.644
 1892TIP3   OH2 5632   6.086   2.952   5.412
 1892TIP3    H1 5633   6.048   2.960   5.324
 1892TIP3    H2 5634   6.023   2.899   5.460
 1893TIP3   OH2 5635   1.239   6.663   0.235
 1893TIP3    H1 5636   1.319   6.632   0.192
 1893TIP3    H2 5637   1.254   6.645   0.328
 1894TIP3   OH2 5638   3.485   3.501   1.965
 1894TIP3    H1 5639   3.550   3.461   1.907
 1894TIP3    H2 5640   3.534   3.568   2.012
 1895TIP3   OH2 5641   6.068   5.831   1.645
 1895TIP3    H1 5642   6.057   5.748   1.599
 1895TIP3    H2 5643   6.156   5.860   1.621
 1896TIP3   OH2 5644   0.732   0.965   5.795
 1896TIP3    H1 5645   0.741   1.060   5.788
 1896TIP3    H2 5646   0.649   0.952   5.840
 1897TIP3   OH2 5647   1.170   6.709   2.212
 1897TIP3    H1 5648   1.075   6.719   2.202
 1897TIP3    H2 5649   1.187   6.619   2.185
 1898TIP3   OH2 5650   1.638   1.198   3.647
 1898TIP3    H1 5651   1.645   1.283   3.691
 1898TIP3    H2 5652   1.702   1.201   3.577
 1899TIP3   OH2 5653   3.810   7.027   0.620
 1899TIP3    H1 5654   3.820   6.973   0.542
 1899TIP3    H2 5655   3.882   6.999   0.677
 1900TIP3   OH2 5656   0.136   4.553   1.242
 1900TIP3    H1 5657   0.209   4.492   1.233
 1900TIP3    H2 5658   0.122   4.560   1.336
 1901TIP3   OH2 5659   5.468   3.373   2.350
 1901TIP3    H1 5660   5.407   3.334   2.288
 1901TIP3    H2 5661   5.551   3.379   2.303
 1902TIP3   OH2 5662   1.590   6.668   0.616
 1902TIP3    H1 5663   1.649   6.724   0.667
 1902TIP3    H2 5664   1.635   6.653   0.534
 1903TIP3   OH2 5665   1.367   6.329   3.391
 1903TIP3    H1 5666   1.457   6.339   3.420
 1903TIP3    H2 5667   1.361   6.239   3.360
 1904TIP3   OH2 5668   3.154   2.505   2.492
 1904TIP3    H1 5669   3.245   2.483   2.474
 1904TIP3    H2 5670   3.104   2.443   2.440
 1905TIP3   OH2 5671   1.693   6.728   2.230
 1905TIP3    H1 5672   1.627   6.722   2.299
 1905TIP3    H2 5673   1.773   6.755   2.275
 1906TIP3   OH2 5674   6.222   2.732   4.872
 1906TIP3    H1 5675   6.257   2.682   4.798
 1906TIP3    H2 5676   6.143   2.683   4.898
 1907TIP3   OH2 5677   2.768   0.656   3.988
 1907TIP3    H1 5678   2.735   0.614   3.908
 1907TIP3    H2 5679   2.691   0.664   4.045
 1908TIP3   OH2 5680   7.817   2.663   1.681
 1908TIP3    H1 5681   7.871   2.741   1.688
 1908TIP3    H2 5682   7.727   2.695   1.688
 1909TIP3   OH2 5683   5.090   7.437   2.280
 1909TIP3    H1 5684   5.158   7.458   2.343
 1909TIP3    H2 5685   5.102   7.344   2.262
 1910TIP3   OH2 5686   7.969   4.197   4.885
 1910TIP3    H1 5687   8.039   4.147   4.843
 1910TIP3    H2 5688   8.008   4.228   4.967
 1911TIP3   OH2 5689   2.720   2.264   2.882
 1911TIP3    H1 5690   2.765   2.346   2.902
 1911TIP3    H2 5691   2.635   2.292   2.848
 1912TIP3   OH2 5692   0.570   1.397   4.045
 1912TIP3    H1 5693   0.611   1.338   3.981
 1912TIP3    H2 5694   0.485   1.357   4.063
 1913TIP3   OH2 5695   1.226   1.781   3.197
 1913TIP3    H1 5696   1.246   1.852   3.259
 1913TIP3    H2 5697   1.181   1.825   3.125
 1914TIP3   OH2 5698   0.879   6.923   2.644
 1914TIP3    H1 5699   0.961   6.965   2.618
 1914TIP3    H2 5700   0.891   6.901   2.737
 1915TIP3   OH2 5701   3.623   0.341   4.568
 1915TIP3    H1 5702   3.646   0.288   4.644
 1915TIP3    H2 5703   3.561   0.406   4.601
 1916TIP3   OH2 5704   2.990   5.746   4.782
 1916TIP3    H1 5705   2.938   5.767   4.704
 1916TIP3    H2 5706   3.004   5.830   4.825
 1917TIP3   OH2 5707   2.009   1.525   3.970
 1917TIP3    H1 5708   1.957   1.550   3.894
 1917TIP3    H2 5709   1.955   1.550   4.045
 1918TIP3   OH2 5710   4.050   4.166   3.748
 1918TIP3    H1 5711   4.075   4.093   3.805
 1918TIP3    H2 5712   3.958   4.151   3.730
 1919TIP3   OH2 5713   5.813   6.133   6.525
 1919TIP3    H1 5714   5.888   6.152   6.470
 1919TIP3    H2 5715   5.850   6.111   6.611
 1920TIP3   OH2 5716   1.644   0.681   2.183
 1920TIP3    H1 5717   1.563   0.634   2.202
 1920TIP3    H2 5718   1.646   0.753   2.247
 1921TIP3   OH2 5719   6.276   6.171   5.312
 1921TIP3    H1 5720   6.258   6.186   5.405
 1921TIP3    H2 5721   6.314   6.254   5.282
 1922TIP3   OH2 5722   6.111   4.309   3.643
 1922TIP3    H1 5723   6.133   4.249   3.715
 1922TIP3    H2 5724   6.103   4.394   3.684
 1923TIP3   OH2 5725   2.702   7.495   1.936
 1923TIP3    H1 5726   2.739   7.422   1.885
 1923TIP3    H2 5727   2.624   7.458   1.978
 1924TIP3   OH2 5728   6.797   1.448   6.182
 1924TIP3    H1 5729   6.819   1.359   6.154
 1924TIP3    H2 5730   6.773   1.494   6.102
 1925TIP3   OH2 5731   0.529   3.994   2.399
 1925TIP3    H1 5732   0.455   3.952   2.354
 1925TIP3    H2 5733   0.584   3.921   2.427
 1926TIP3   OH2 5734   2.627   0.405   1.585
 1926TIP3    H1 5735   2.625   0.379   1.677
 1926TIP3    H2 5736   2.537   0.429   1.564
 1927TIP3   OH2 5737   5.507   5.223   5.211
 1927TIP3    H1 5738   5.484   5.174   5.289
 1927TIP3    H2 5739   5.570   5.167   5.165
 1928TIP3   OH2 5740   7.242   0.222   4.819
 1928TIP3    H1 5741   7.172   0.258   4.764
 1928TIP3    H2 5742   7.311   0.289   4.818
 1929TIP3   OH2 5743   4.041   2.486   1.202
 1929TIP3    H1 5744   3.981   2.411   1.207
 1929TIP3    H2 5745   3.984   2.560   1.181
 1930TIP3   OH2 5746   0.045   2.204   2.337
 1930TIP3    H1 5747   0.058   2.120   2.380
 1930TIP3    H2 5748   0.015   2.182   2.248
 1931TIP3   OH2 5749   6.403   1.879   1.566
 1931TIP3    H1 5750   6.430   1.854   1.654
 1931TIP3    H2 5751   6.408   1.974   1.566
 1932TIP3   OH2 5752   7.503   0.370   3.488
 1932TIP3    H1 5753   7.480   0.282   3.457
 1932TIP3    H2 5754   7.420   0.418   3.487
 1933TIP3   OH2 5755   7.355   1.305   6.277
 1933TIP3    H1 5756   7.346   1.229   6.334
 1933TIP3    H2 5757   7.423   1.359   6.319
 1934TIP3   OH2 5758   0.554   5.801   1.031
 1934TIP3    H1 5759   0.497   5.739   0.986
 1934TIP3    H2 5760   0.505   5.882   1.035
 1935TIP3   OH2 5761   2.976   5.525   4.465
 1935TIP3    H1 5762   3.007   5.438   4.437
 1935TIP3    H2 5763   3.045   5.558   4.522
 1936TIP3   OH2 5764   6.216   0.870   0.232
 1936TIP3    H1 5765   6.199   0.778   0.209
 1936TIP3    H2 5766   6.146   0.892   0.294
 1937TIP3   OH2 5767   0.072   2.220   0.970
 1937TIP3    H1 5768   0.029   2.298   0.935
 1937TIP3    H2 5769   0.132   2.253   1.036
 1938TIP3   OH2 5770   7.186   5.207   1.267
 1938TIP3    H1 5771   7.281   5.209   1.274
 1938TIP3    H2 5772   7.169   5.199   1.174
 1939TIP3   OH2 5773   7.160   0.063   6.539
 1939TIP3    H1 5774   7.199   0.125   6.600
 1939TIP3    H2 5775   7.106   0.117   6.481
 1940TIP3   OH2 5776   5.976   5.548   2.474
 1940TIP3    H1 5777   6.046   5.598   2.431
 1940TIP3    H2 5778   5.933   5.613   2.530
 1941TIP3   OH2 5779   6.009   0.154   2.403
 1941TIP3    H1 5780   5.953   0.225   2.371
 1941TIP3    H2 5781   6.027   0.177   2.494
 1942TIP3   OH2 5782   6.827   6.130   4.411
 1942TIP3    H1 5783   6.746   6.121   4.462
 1942TIP3    H2 5784   6.798   6.146   4.322
 1943TIP3   OH2 5785   5.450   7.242   6.615
 1943TIP3    H1 5786   5.370   7.210   6.574
 1943TIP3    H2 5787   5.499   7.163   6.637
 1944TIP3   OH2 5788   7.231   7.447   5.461
 1944TIP3    H1 5789   7.175   7.474   5.534
 1944TIP3    H2 5790   7.171   7.433   5.388
 1945TIP3   OH2 5791   3.245   5.070   0.677
 1945TIP3    H1 5792   3.173   5.032   0.729
 1945TIP3    H2 5793   3.227   5.164   0.678
 1946TIP3   OH2 5794   1.388   0.290   1.241
 1946TIP3    H1 5795   1.361   0.369   1.194
 1946TIP3    H2 5796   1.311   0.233   1.240
 1947TIP3   OH2 5797   0.665   4.600   3.482
 1947TIP3    H1 5798   0.653   4.672   3.420
 1947TIP3    H2 5799   0.742   4.554   3.451
 1948TIP3   OH2 5800   6.696   2.968   2.508
 1948TIP3    H1 5801   6.680   2.916   2.588
 1948TIP3    H2 5802   6.727   2.904   2.444
 1949TIP3   OH2 5803   1.489   0.532   2.803
 1949TIP3    H1 5804   1.529   0.445   2.793
 1949TIP3    H2 5805   1.563   0.593   2.803
 1950TIP3   OH2 5806   1.258   0.808   4.777
 1950TIP3    H1 5807   1.208   0.845   4.704
 1950TIP3    H2 5808   1.244   0.869   4.849
 1951TIP3   OH2 5809   3.247   0.099   4.008
 1951TIP3    H1 5810   3.290   0.183   4.026
 1951TIP3    H2 5811   3.227   0.102   3.915
 1952TIP3   OH2 5812   6.600   0.897   4.710
 1952TIP3    H1 5813   6.582   0.991   4.719
 1952TIP3    H2 5814   6.669   0.880   4.774
 1953TIP3   OH2 5815   7.887   3.724   5.424
 1953TIP3    H1 5816   7.950   3.796   5.432
 1953TIP3    H2 5817   7.923   3.668   5.355
 1954TIP3   OH2 5818   6.922   2.786   2.700
 1954TIP3    H1 5819   6.834   2.753   2.684
 1954TIP3    H2 5820   6.971   2.763   2.621
 1955TIP3   OH2 5821   5.326   7.465   0.008
 1955TIP3    H1 5822   5.382   7.487   0.083
 1955TIP3    H2 5823   5.373   7.393  -0.035
 1956TIP3   OH2 5824   3.419   4.874   6.525
 1956TIP3    H1 5825   3.465   4.877   6.441
 1956TIP3    H2 5826   3.487   4.892   6.590
 1957TIP3   OH2 5827   1.782   6.806   3.562
 1957TIP3    H1 5828   1.767   6.772   3.650
 1957TIP3    H2 5829   1.810   6.897   3.576
 1958TIP3   OH2 5830   0.885   6.207   2.902
 1958TIP3    H1 5831   0.796   6.215   2.935
 1958TIP3    H2 5832   0.891   6.117   2.869
 1959TIP3   OH2 5833   0.518   3.298   5.192
 1959TIP3    H1 5834   0.432   3.337   5.178
 1959TIP3    H2 5835   0.579   3.356   5.147
 1960TIP3   OH2 5836   0.870   2.629   6.370
 1960TIP3    H1 5837   0.944   2.637   6.309
 1960TIP3    H2 5838   0.853   2.535   6.375
 1961TIP3   OH2 5839   2.933   3.161   4.101
 1961TIP3    H1 5840   2.899   3.118   4.180
 1961TIP3    H2 5841   2.855   3.183   4.050
 1962TIP3   OH2 5842   2.033   3.202   0.979
 1962TIP3    H1 5843   2.022   3.205   0.884
 1962TIP3    H2 5844   2.065   3.288   1.003
 1963TIP3   OH2 5845   5.902   1.036   4.818
 1963TIP3    H1 5846   5.920   1.128   4.835
 1963TIP3    H2 5847   5.811   1.034   4.788
 1964TIP3   OH2 5848   3.192   7.292   5.866
 1964TIP3    H1 5849   3.126   7.239   5.911
 1964TIP3    H2 5850   3.228   7.235   5.799
 1965TIP3   OH2 5851   5.798   4.381   2.993
 1965TIP3    H1 5852   5.702   4.388   2.985
 1965TIP3    H2 5853   5.811   4.343   3.079
 1966TIP3   OH2 5854   3.798   1.726   2.544
 1966TIP3    H1 5855   3.867   1.708   2.608
 1966TIP3    H2 5856   3.775   1.818   2.558
 1967TIP3   OH2 5857   2.460   7.182   0.140
 1967TIP3    H1 5858   2.439   7.247   0.074
 1967TIP3    H2 5859   2.514   7.229   0.204
 1968TIP3   OH2 5860   5.037   2.600   2.022
 1968TIP3    H1 5861   5.024   2.506   2.027
 1968TIP3    H2 5862   5.128   2.610   1.991
 1969TIP3   OH2 5863   2.719   1.237   1.839
 1969TIP3    H1 5864   2.721   1.141   1.833
 1969TIP3    H2 5865   2.803   1.265   1.804
 1970TIP3   OH2 5866   8.092   6.263   6.665
 1970TIP3    H1 5867   8.067   6.341   6.616
 1970TIP3    H2 5868   8.048   6.274   6.750
 1971TIP3   OH2 5869   4.239   2.738   2.583
 1971TIP3    H1 5870   4.157   2.787   2.582
 1971TIP3    H2 5871   4.212   2.646   2.582
 1972TIP3   OH2 5872   1.988   0.394   4.431
 1972TIP3    H1 5873   1.965   0.482   4.461
 1972TIP3    H2 5874   1.911   0.341   4.450
 1973TIP3   OH2 5875   3.722   4.496   0.162
 1973TIP3    H1 5876   3.651   4.550   0.199
 1973TIP3    H2 5877   3.755   4.447   0.236
 1974TIP3   OH2 5878   1.895   5.178   6.515
 1974TIP3    H1 5879   1.814   5.228   6.499
 1974TIP3    H2 5880   1.955   5.242   6.554
 1975TIP3   OH2 5881   0.580   0.673   0.705
 1975TIP3    H1 5882   0.541   0.636   0.626
 1975TIP3    H2 5883   0.526   0.749   0.726
 1976TIP3   OH2 5884   2.214   6.912   1.131
 1976TIP3    H1 5885   2.137   6.883   1.180
 1976TIP3    H2 5886   2.214   7.007   1.140
 1977TIP3   OH2 5887   1.553   7.074   0.280
 1977TIP3    H1 5888   1.639   7.035   0.266
 1977TIP3    H2 5889   1.559   7.115   0.366
 1978TIP3   OH2 5890   6.377   1.247   5.541
 1978TIP3    H1 5891   6.404   1.215   5.627
 1978TIP3    H2 5892   6.441   1.210   5.480
 1979TIP3   OH2 5893   0.901   6.036   1.729
 1979TIP3    H1 5894   0.954   5.959   1.711
 1979TIP3    H2 5895   0.872   6.066   1.642
 1980TIP3   OH2 5896   0.719   2.825   2.616
 1980TIP3    H1 5897   0.624   2.824   2.619
 1980TIP3    H2 5898   0.746   2.768   2.688
 1981TIP3   OH2 5899   1.143   2.590   3.437
 1981TIP3    H1 5900   1.114   2.558   3.352
 1981TIP3    H2 5901   1.222   2.539   3.457
 1982TIP3   OH2 5902   6.662   7.574   2.174
 1982TIP3    H1 5903   6.638   7.561   2.082
 1982TIP3    H2 5904   6.597   7.636   2.208
 1983TIP3   OH2 5905   4.986   6.368   2.048
 1983TIP3    H1 5906   4.911   6.365   2.107
 1983TIP3    H2 5907   5.056   6.322   2.095
 1984TIP3   OH2 5908   7.740   0.148   3.549
 1984TIP3    H1 5909   7.671   0.153   3.616
 1984TIP3    H2 5910   7.732   0.230   3.500
 1985TIP3   OH2 5911   0.394   7.406   4.141
 1985TIP3    H1 5912   0.349   7.358   4.072
 1985TIP3    H2 5913   0.413   7.492   4.102
 1986TIP3   OH2 5914   3.769   5.375   1.406
 1986TIP3    H1 5915   3.739   5.462   1.432
 1986TIP3    H2 5916   3.857   5.368   1.444
 1987TIP3   OH2 5917   5.777   2.968   2.579
 1987TIP3    H1 5918   5.721   2.963   2.502
 1987TIP3    H2 5919   5.797   3.061   2.588
 1988TIP3   OH2 5920   1.432   3.255   4.141
 1988TIP3    H1 5921   1.344   3.282   4.115
 1988TIP3    H2 5922   1.486   3.274   4.065
 1989TIP3   OH2 5923   1.752   0.552   1.534
 1989TIP3    H1 5924   1.700   0.506   1.600
 1989TIP3    H2 5925   1.710   0.530   1.451
 1990TIP3   OH2 5926   7.311   1.523   3.645
 1990TIP3    H1 5927   7.297   1.492   3.735
 1990TIP3    H2 5928   7.355   1.449   3.602
 1991TIP3   OH2 5929   3.468   0.002   4.186
 1991TIP3    H1 5930   3.519   0.063   4.239
 1991TIP3    H2 5931   3.380   0.004   4.223
 1992TIP3   OH2 5932   1.014   0.208   4.715
 1992TIP3    H1 5933   1.091   0.157   4.740
 1992TIP3    H2 5934   1.012   0.203   4.619
 1993TIP3   OH2 5935   3.486   6.836   2.851
 1993TIP3    H1 5936   3.449   6.847   2.763
 1993TIP3    H2 5937   3.489   6.741   2.864
 1994TIP3   OH2 5938   5.209   0.372   2.067
 1994TIP3    H1 5939   5.224   0.389   2.159
 1994TIP3    H2 5940   5.212   0.276   2.059
 1995TIP3   OH2 5941   1.809   0.401   6.385
 1995TIP3    H1 5942   1.894   0.360   6.401
 1995TIP3    H2 5943   1.804   0.407   6.289
 1996TIP3   OH2 5944   3.038   0.434   5.501
 1996TIP3    H1 5945   3.068   0.352   5.462
 1996TIP3    H2 5946   3.049   0.499   5.431
 1997TIP3   OH2 5947   1.168   3.204   3.668
 1997TIP3    H1 5948   1.231   3.248   3.725
 1997TIP3    H2 5949   1.128   3.137   3.723
 1998TIP3   OH2 5950   3.950   4.916   4.153
 1998TIP3    H1 5951   3.989   4.960   4.078
 1998TIP3    H2 5952   3.934   4.827   4.124
 1999TIP3   OH2 5953   1.201   7.342   6.076
 1999TIP3    H1 5954   1.154   7.298   6.146
 1999TIP3    H2 5955   1.269   7.394   6.120
 2000TIP3   OH2 5956   1.105   5.100   0.701
 2000TIP3    H1 5957   1.025   5.079   0.653
 2000TIP3    H2 5958   1.125   5.020   0.750
 2001TIP3   OH2 5959   7.109   5.996   4.111
 2001TIP3    H1 5960   7.141   6.022   4.197
 2001TIP3    H2 5961   7.131   5.903   4.104
 2002TIP3   OH2 5962   1.149   6.187   4.324
 2002TIP3    H1 5963   1.106   6.245   4.260
 2002TIP3    H2 5964   1.076   6.146   4.371
 2003TIP3   OH2 5965   2.979   1.294   0.258
 2003TIP3    H1 5966   2.996   1.369   0.314
 2003TIP3    H2 5967   3.033   1.310   0.180
 2004TIP3   OH2 5968   6.007   1.915   2.682
 2004TIP3    H1 5969   6.034   1.853   2.749
 2004TIP3    H2 5970   6.040   1.878   2.600
 2005TIP3   OH2 5971   0.469   0.169   0.816
 2005TIP3    H1 5972   0.417   0.217   0.880
 2005TIP3    H2 5973   0.452   0.077   0.836
 2006TIP3   OH2 5974   6.184   7.234   3.065
 2006TIP3    H1 5975   6.156   7.230   2.974
 2006TIP3    H2 5976   6.249   7.164   3.073
 2007TIP3   OH2 5977   0.877   4.065   0.334
 2007TIP3    H1 5978   0.797   4.015   0.317
 2007TIP3    H2 5979   0.929   4.008   0.391
 2008TIP3   OH2 5980   2.433   7.437   2.157
 2008TIP3    H1 5981   2.474   7.416   2.241
 2008TIP3    H2 5982   2.345   7.399   2.163
 2009TIP3   OH2 5983   1.045   2.674   0.392
 2009TIP3    H1 5984   1.056   2.586   0.426
 2009TIP3    H2 5985   0.955   2.698   0.416
 2010TIP3   OH2 5986   3.682   7.715   4.302
 2010TIP3    H1 5987   3.768   7.719   4.342
 2010TIP3    H2 5988   3.681   7.630   4.258
 2011TIP3   OH2 5989   7.996   6.260   3.382
 2011TIP3    H1 5990   8.068   6.323   3.372
 2011TIP3    H2 5991   8.035   6.187   3.430
 2012TIP3   OH2 5992   4.025   2.256   3.711
 2012TIP3    H1 5993   4.025   2.172   3.755
 2012TIP3    H2 5994   3.960   2.308   3.758
 2013TIP3   OH2 5995   2.625   5.651   5.427
 2013TIP3    H1 5996   2.577   5.701   5.361
 2013TIP3    H2 5997   2.663   5.578   5.379
 2014TIP3   OH2 5998   7.120   2.739   2.897
 2014TIP3    H1 5999   7.133   2.670   2.832
 2014TIP3    H2 6000   7.036   2.779   2.873
 2015TIP3   OH2 6001   6.005   5.235   0.552
 2015TIP3    H1 6002   6.031   5.167   0.491
 2015TIP3    H2 6003   6.083   5.291   0.560
 2016TIP3   OH2 6004   7.495   7.650   0.348
 2016TIP3    H1 6005   7.538   7.644   0.434
 2016TIP3    H2 6006   7.434   7.723   0.358
 2017TIP3   OH2 6007   3.204   2.887   0.737
 2017TIP3    H1 6008   3.127   2.942   0.751
 2017TIP3    H2 6009   3.177   2.800   0.768
 2018TIP3   OH2 6010   5.195   3.866   3.882
 2018TIP3    H1 6011   5.274   3.912   3.910
 2018TIP3    H2 6012   5.148   3.930   3.828
 2019TIP3   OH2 6013   7.905   6.095   5.170
 2019TIP3    H1 6014   7.855   6.021   5.203
 2019TIP3    H2 6015   7.868   6.113   5.083
 2020TIP3   OH2 6016   5.649   2.131   1.509
 2020TIP3    H1 6017   5.622   2.214   1.548
 2020TIP3    H2 6018   5.569   2.081   1.500
 2021TIP3   OH2 6019   1.255   4.899   1.468
 2021TIP3    H1 6020   1.170   4.944   1.474
 2021TIP3    H2 6021   1.303   4.948   1.401
 2022TIP3   OH2 6022   3.421   1.613   4.262
 2022TIP3    H1 6023   3.327   1.616   4.278
 2022TIP3    H2 6024   3.458   1.677   4.322
 2023TIP3   OH2 6025   1.628   7.396   2.372
 2023TIP3    H1 6026   1.536   7.372   2.363
 2023TIP3    H2 6027   1.630   7.460   2.442
 2024TIP3   OH2 6028   5.210   3.781   5.478
 2024TIP3    H1 6029   5.305   3.773   5.481
 2024TIP3    H2 6030   5.178   3.695   5.507
 2025TIP3   OH2 6031   0.764   5.734   2.119
 2025TIP3    H1 6032   0.817   5.814   2.129
 2025TIP3    H2 6033   0.715   5.748   2.039
 2026TIP3   OH2 6034   6.105   6.105   3.988
 2026TIP3    H1 6035   6.171   6.049   4.028
 2026TIP3    H2 6036   6.131   6.194   4.013
 2027TIP3   OH2 6037   6.943   2.467   0.767
 2027TIP3    H1 6038   6.908   2.444   0.681
 2027TIP3    H2 6039   7.017   2.524   0.748
 2028TIP3   OH2 6040   3.317   1.948   6.217
 2028TIP3    H1 6041   3.392   1.982   6.168
 2028TIP3    H2 6042   3.261   2.025   6.231
 2029TIP3   OH2 6043   3.520   1.360   2.944
 2029TIP3    H1 6044   3.515   1.307   3.023
 2029TIP3    H2 6045   3.487   1.446   2.971
 2030TIP3   OH2 6046   6.139   5.206   2.674
 2030TIP3    H1 6047   6.077   5.200   2.747
 2030TIP3    H2 6048   6.225   5.206   2.716
 2031TIP3   OH2 6049   5.737   6.088   4.890
 2031TIP3    H1 6050   5.709   6.005   4.929
 2031TIP3    H2 6051   5.750   6.146   4.966
 2032TIP3   OH2 6052   0.670   1.447   2.327
 2032TIP3    H1 6053   0.606   1.445   2.256
 2032TIP3    H2 6054   0.618   1.440   2.407
 2033TIP3   OH2 6055   1.904   7.718   3.605
 2033TIP3    H1 6056   1.841   7.782   3.571
 2033TIP3    H2 6057   1.966   7.771   3.656
 2034TIP3   OH2 6058   0.041   5.359   1.193
 2034TIP3    H1 6059   0.084   5.444   1.182
 2034TIP3    H2 6060   0.007   5.338   1.106
 2035TIP3   OH2 6061   3.267   7.323   2.710
 2035TIP3    H1 6062   3.175   7.306   2.689
 2035TIP3    H2 6063   3.316   7.279   2.641
 2036TIP3   OH2 6064   3.714   5.521   4.189
 2036TIP3    H1 6065   3.772   5.544   4.116
 2036TIP3    H2 6066   3.639   5.580   4.180
 2037TIP3   OH2 6067   7.060   2.976   5.389
 2037TIP3    H1 6068   7.151   2.975   5.417
 2037TIP3    H2 6069   7.012   3.011   5.464
 2038TIP3   OH2 6070   7.746   3.283   3.578
 2038TIP3    H1 6071   7.669   3.334   3.603
 2038TIP3    H2 6072   7.752   3.294   3.483
 2039TIP3   OH2 6073   0.577   6.635   1.730
 2039TIP3    H1 6074   0.660   6.647   1.683
 2039TIP3    H2 6075   0.511   6.673   1.672
 2040TIP3   OH2 6076   7.999   4.361   3.523
 2040TIP3    H1 6077   7.920   4.381   3.472
 2040TIP3    H2 6078   8.027   4.275   3.491
 2041TIP3   OH2 6079  -0.001   6.329   1.173
 2041TIP3    H1 6080   0.052   6.298   1.099
 2041TIP3    H2 6081  -0.047   6.406   1.139
 2042TIP3   OH2 6082   5.941   0.813   2.505
 2042TIP3    H1 6083   6.018   0.760   2.486
 2042TIP3    H2 6084   5.916   0.851   2.420
 2043TIP3   OH2 6085   5.922   5.777   0.165
 2043TIP3    H1 6086   5.864   5.797   0.092
 2043TIP3    H2 6087   5.995   5.839   0.156
 2044TIP3   OH2 6088   3.741   4.061   3.692
 2044TIP3    H1 6089   3.750   3.967   3.706
 2044TIP3    H2 6090   3.768   4.075   3.601
 2045TIP3   OH2 6091   7.753   0.865   0.682
 2045TIP3    H1 6092   7.811   0.928   0.724
 2045TIP3    H2 6093   7.683   0.851   0.746
 2046TIP3   OH2 6094   6.955   3.107   5.614
 2046TIP3    H1 6095   6.958   3.152   5.698
 2046TIP3    H2 6096   6.889   3.155   5.563
 2047TIP3   OH2 6097   0.975   4.285   1.947
 2047TIP3    H1 6098   0.914   4.359   1.952
 2047TIP3    H2 6099   0.929   4.220   1.895
 2048TIP3   OH2 6100   6.454   6.268   3.533
 2048TIP3    H1 6101   6.537   6.271   3.581
 2048TIP3    H2 6102   6.475   6.223   3.451
 2049TIP3   OH2 6103   6.392   2.028   1.855
 2049TIP3    H1 6104   6.371   2.061   1.943
 2049TIP3    H2 6105   6.455   1.958   1.870
 2050TIP3   OH2 6106   2.282   5.534   0.035
 2050TIP3    H1 6107   2.321   5.447   0.050
 2050TIP3    H2 6108   2.299   5.551  -0.058
 2051TIP3   OH2 6109   1.362   2.067   1.763
 2051TIP3    H1 6110   1.394   2.145   1.719
 2051TIP3    H2 6111   1.341   2.006   1.692
 2052TIP3   OH2 6112   7.571   6.044   5.522
 2052TIP3    H1 6113   7.650   6.026   5.572
 2052TIP3    H2 6114   7.552   5.961   5.478
 2053TIP3   OH2 6115   5.869   3.386   0.183
 2053TIP3    H1 6116   5.926   3.429   0.118
 2053TIP3    H2 6117   5.815   3.457   0.217
 2054TIP3   OH2 6118  -0.011   1.741   4.664
 2054TIP3    H1 6119  -0.010   1.671   4.598
 2054TIP3    H2 6120   0.077   1.740   4.702
 2055TIP3   OH2 6121   4.964   0.250   2.161
 2055TIP3    H1 6122   4.985   0.342   2.173
 2055TIP3    H2 6123   4.997   0.228   2.073
 2056TIP3   OH2 6124   0.559   2.191   3.475
 2056TIP3    H1 6125   0.590   2.182   3.385
 2056TIP3    H2 6126   0.591   2.278   3.502
 2057TIP3   OH2 6127   5.048   7.330   1.760
 2057TIP3    H1 6128   5.058   7.340   1.855
 2057TIP3    H2 6129   5.000   7.408   1.733
 2058TIP3   OH2 6130   2.795   0.257   5.749
 2058TIP3    H1 6131   2.846   0.337   5.762
 2058TIP3    H2 6132   2.844   0.189   5.796
 2059TIP3   OH2 6133   2.796   4.215   1.136
 2059TIP3    H1 6134   2.754   4.142   1.183
 2059TIP3    H2 6135   2.875   4.176   1.098
 2060TIP3   OH2 6136   5.136   6.637   3.139
 2060TIP3    H1 6137   5.080   6.646   3.062
 2060TIP3    H2 6138   5.080   6.663   3.212
 2061TIP3   OH2 6139   6.392   3.525   0.214
 2061TIP3    H1 6140   6.476   3.516   0.169
 2061TIP3    H2 6141   6.370   3.436   0.241
 2062TIP3   OH2 6142   0.068   4.954   0.408
 2062TIP3    H1 6143   0.039   4.868   0.376
 2062TIP3    H2 6144   0.087   5.004   0.328
 2063TIP3   OH2 6145   4.005   4.922   2.278
 2063TIP3    H1 6146   3.967   4.931   2.365
 2063TIP3    H2 6147   4.099   4.922   2.293
 2064TIP3   OH2 6148   0.620   3.108   5.915
 2064TIP3    H1 6149   0.664   3.091   5.832
 2064TIP3    H2 6150   0.555   3.175   5.895
 2065TIP3   OH2 6151   4.803   4.455   0.461
 2065TIP3    H1 6152   4.759   4.490   0.384
 2065TIP3    H2 6153   4.785   4.519   0.530
 2066TIP3   OH2 6154   8.180   4.548   0.107
 2066TIP3    H1 6155   8.160   4.472   0.161
 2066TIP3    H2 6156   8.208   4.510   0.023
 2067TIP3   OH2 6157   2.655   2.753   3.607
 2067TIP3    H1 6158   2.567   2.742   3.572
 2067TIP3    H2 6159   2.713   2.725   3.536
 2068TIP3   OH2 6160   0.314   2.370   2.850
 2068TIP3    H1 6161   0.386   2.407   2.798
 2068TIP3    H2 6162   0.246   2.349   2.786
 2069TIP3   OH2 6163   4.615   2.415   4.435
 2069TIP3    H1 6164   4.616   2.353   4.362
 2069TIP3    H2 6165   4.666   2.490   4.404
 2070TIP3   OH2 6166   2.955   0.553   5.032
 2070TIP3    H1 6167   2.971   0.459   5.043
 2070TIP3    H2 6168   3.033   0.595   5.068
 2071TIP3   OH2 6169   7.706   1.803   3.369
 2071TIP3    H1 6170   7.654   1.883   3.362
 2071TIP3    H2 6171   7.682   1.752   3.291
 2072TIP3   OH2 6172   1.281   6.915   4.693
 2072TIP3    H1 6173   1.232   6.833   4.682
 2072TIP3    H2 6174   1.263   6.942   4.783
 2073TIP3   OH2 6175   0.128   6.598   6.159
 2073TIP3    H1 6176   0.069   6.532   6.196
 2073TIP3    H2 6177   0.118   6.590   6.065
 2074TIP3   OH2 6178   6.330   7.785   0.173
 2074TIP3    H1 6179   6.366   7.733   0.101
 2074TIP3    H2 6180   6.317   7.872   0.137
 2075TIP3   OH2 6181   4.036   2.708   0.468
 2075TIP3    H1 6182   4.066   2.626   0.429
 2075TIP3    H2 6183   4.070   2.776   0.410
 2076TIP3   OH2 6184   2.725   7.047   2.417
 2076TIP3    H1 6185   2.746   6.959   2.448
 2076TIP3    H2 6186   2.809   7.091   2.413
 2077TIP3   OH2 6187   4.570   0.851   1.266
 2077TIP3    H1 6188   4.645   0.793   1.273
 2077TIP3    H2 6189   4.551   0.877   1.356
 2078TIP3   OH2 6190   1.324   1.999   6.426
 2078TIP3    H1 6191   1.328   2.013   6.521
 2078TIP3    H2 6192   1.401   2.045   6.392
 2079TIP3   OH2 6193   6.253   4.538   6.730
 2079TIP3    H1 6194   6.274   4.506   6.818
 2079TIP3    H2 6195   6.329   4.513   6.677
 2080TIP3   OH2 6196   4.786   3.278   4.765
 2080TIP3    H1 6197   4.802   3.281   4.860
 2080TIP3    H2 6198   4.872   3.288   4.726
 2081TIP3   OH2 6199   3.516   6.182   4.814
 2081TIP3    H1 6200   3.570   6.204   4.891
 2081TIP3    H2 6201   3.441   6.135   4.850
 2082TIP3   OH2 6202   3.289   2.664   0.227
 2082TIP3    H1 6203   3.358   2.661   0.162
 2082TIP3    H2 6204   3.324   2.718   0.298
 2083TIP3   OH2 6205   2.064   0.646   5.655
 2083TIP3    H1 6206   2.136   0.626   5.596
 2083TIP3    H2 6207   2.093   0.615   5.741
 2084TIP3   OH2 6208   6.981   2.097   2.124
 2084TIP3    H1 6209   6.946   2.013   2.097
 2084TIP3    H2 6210   6.995   2.089   2.218
 2085TIP3   OH2 6211   5.924   0.967   2.265
 2085TIP3    H1 6212   5.985   1.034   2.234
 2085TIP3    H2 6213   5.867   0.949   2.189
 2086TIP3   OH2 6214   5.176   3.205   1.403
 2086TIP3    H1 6215   5.245   3.226   1.465
 2086TIP3    H2 6216   5.146   3.118   1.428
 2087TIP3   OH2 6217   4.421   6.129   0.856
 2087TIP3    H1 6218   4.332   6.153   0.880
 2087TIP3    H2 6219   4.438   6.175   0.774
 2088TIP3   OH2 6220   5.398   7.825   5.250
 2088TIP3    H1 6221   5.468   7.767   5.221
 2088TIP3    H2 6222   5.417   7.843   5.342
 2089TIP3   OH2 6223   1.449   4.143   6.178
 2089TIP3    H1 6224   1.478   4.145   6.087
 2089TIP3    H2 6225   1.413   4.055   6.190
 2090TIP3   OH2 6226   3.087   1.685   5.176
 2090TIP3    H1 6227   3.058   1.595   5.191
 2090TIP3    H2 6228   3.074   1.699   5.082
 2091TIP3   OH2 6229   7.176   5.252   5.238
 2091TIP3    H1 6230   7.222   5.182   5.191
 2091TIP3    H2 6231   7.246   5.311   5.266
 2092TIP3   OH2 6232   6.120   3.992   2.741
 2092TIP3    H1 6233   6.029   4.007   2.764
 2092TIP3    H2 6234   6.149   4.076   2.704
 2093TIP3   OH2 6235   2.243   0.978   0.143
 2093TIP3    H1 6236   2.183   0.903   0.133
 2093TIP3    H2 6237   2.198   1.036   0.204
 2094TIP3   OH2 6238   3.202   0.749   1.737
 2094TIP3    H1 6239   3.291   0.754   1.772
 2094TIP3    H2 6240   3.156   0.690   1.797
 2095TIP3   OH2 6241   4.036   2.704   4.863
 2095TIP3    H1 6242   4.026   2.691   4.769
 2095TIP3    H2 6243   3.956   2.669   4.901
 2096TIP3   OH2 6244   1.406   6.417   1.555
 2096TIP3    H1 6245   1.443   6.411   1.643
 2096TIP3    H2 6246   1.375   6.329   1.536
 2097TIP3   OH2 6247   2.130   3.473   0.410
 2097TIP3    H1 6248   2.191   3.540   0.381
 2097TIP3    H2 6249   2.185   3.406   0.450
 2098TIP3   OH2 6250   6.149   3.155   0.873
 2098TIP3    H1 6251   6.072   3.127   0.823
 2098TIP3    H2 6252   6.114   3.178   0.959
 2099TIP3   OH2 6253   4.111   6.201   3.739
 2099TIP3    H1 6254   4.200   6.221   3.767
 2099TIP3    H2 6255   4.055   6.253   3.798
 2100TIP3   OH2 6256   0.424   7.264   4.842
 2100TIP3    H1 6257   0.472   7.274   4.759
 2100TIP3    H2 6258   0.486   7.220   4.900
 2101TIP3   OH2 6259   1.429   3.871   6.499
 2101TIP3    H1 6260   1.408   3.777   6.504
 2101TIP3    H2 6261   1.396   3.898   6.413
 2102TIP3   OH2 6262   6.796   2.516   0.527
 2102TIP3    H1 6263   6.836   2.573   0.462
 2102TIP3    H2 6264   6.740   2.573   0.579
 2103TIP3   OH2 6265   7.903   4.684   3.235
 2103TIP3    H1 6266   7.827   4.690   3.293
 2103TIP3    H2 6267   7.902   4.593   3.205
 2104TIP3   OH2 6268   2.499   4.482   4.406
 2104TIP3    H1 6269   2.447   4.497   4.484
 2104TIP3    H2 6270   2.439   4.497   4.333
 2105TIP3   OH2 6271   0.755   2.713   6.089
 2105TIP3    H1 6272   0.788   2.667   6.166
 2105TIP3    H2 6273   0.818   2.785   6.075
 2106TIP3   OH2 6274   1.973   5.659   0.530
 2106TIP3    H1 6275   1.970   5.612   0.614
 2106TIP3    H2 6276   2.022   5.739   0.549
 2107TIP3   OH2 6277   5.034   6.872   0.498
 2107TIP3    H1 6278   5.021   6.958   0.460
 2107TIP3    H2 6279   4.989   6.875   0.582
 2108TIP3   OH2 6280   2.966   6.408   3.160
 2108TIP3    H1 6281   3.049   6.415   3.207
 2108TIP3    H2 6282   2.917   6.486   3.185
 2109TIP3   OH2 6283   1.512   3.691   4.213
 2109TIP3    H1 6284   1.444   3.707   4.147
 2109TIP3    H2 6285   1.463   3.675   4.294
 2110TIP3   OH2 6286   6.744   3.530   3.928
 2110TIP3    H1 6287   6.663   3.578   3.913
 2110TIP3    H2 6288   6.790   3.534   3.845
 2111TIP3   OH2 6289   4.645   2.751   1.529
 2111TIP3    H1 6290   4.558   2.739   1.567
 2111TIP3    H2 6291   4.676   2.663   1.512
 2112TIP3   OH2 6292   0.215   0.609   3.656
 2112TIP3    H1 6293   0.132   0.652   3.635
 2112TIP3    H2 6294   0.282   0.676   3.642
 2113TIP3   OH2 6295   7.428   7.044   1.868
 2113TIP3    H1 6296   7.501   6.990   1.839
 2113TIP3    H2 6297   7.469   7.116   1.916
 2114TIP3   OH2 6298   0.508   6.568   0.691
 2114TIP3    H1 6299   0.513   6.571   0.596
 2114TIP3    H2 6300   0.479   6.655   0.717
 2115TIP3   OH2 6301   6.422   2.670   4.034
 2115TIP3    H1 6302   6.389   2.621   3.959
 2115TIP3    H2 6303   6.401   2.762   4.014
 2116TIP3   OH2 6304   4.376   1.873   3.528
 2116TIP3    H1 6305   4.283   1.896   3.536
 2116TIP3    H2 6306   4.418   1.955   3.500
 2117TIP3   OH2 6307   5.098   1.196   0.667
 2117TIP3    H1 6308   5.145   1.135   0.609
 2117TIP3    H2 6309   5.125   1.283   0.638
 2118TIP3   OH2 6310   3.246   5.741   2.253
 2118TIP3    H1 6311   3.241   5.705   2.341
 2118TIP3    H2 6312   3.292   5.824   2.264
 2119TIP3   OH2 6313   7.636   3.219   5.132
 2119TIP3    H1 6314   7.562   3.205   5.073
 2119TIP3    H2 6315   7.712   3.185   5.083
 2120TIP3   OH2 6316   1.957   7.279   1.310
 2120TIP3    H1 6317   1.938   7.370   1.332
 2120TIP3    H2 6318   1.971   7.236   1.394
 2121TIP3   OH2 6319   2.466   4.824   2.077
 2121TIP3    H1 6320   2.509   4.784   2.002
 2121TIP3    H2 6321   2.518   4.796   2.153
 2122TIP3   OH2 6322   5.229   2.158   6.326
 2122TIP3    H1 6323   5.320   2.185   6.321
 2122TIP3    H2 6324   5.181   2.238   6.347
 2123TIP3   OH2 6325   7.890   1.902   1.052
 2123TIP3    H1 6326   7.943   1.981   1.041
 2123TIP3    H2 6327   7.853   1.910   1.140
 2124TIP3   OH2 6328   2.548   3.779   1.392
 2124TIP3    H1 6329   2.525   3.697   1.436
 2124TIP3    H2 6330   2.643   3.782   1.395
 2125TIP3   OH2 6331   5.083   1.776   2.728
 2125TIP3    H1 6332   5.095   1.754   2.820
 2125TIP3    H2 6333   5.095   1.692   2.682
 2126TIP3   OH2 6334   3.519   0.244   2.831
 2126TIP3    H1 6335   3.539   0.219   2.921
 2126TIP3    H2 6336   3.557   0.331   2.821
 2127TIP3   OH2 6337   1.725   2.432   3.190
 2127TIP3    H1 6338   1.721   2.510   3.135
 2127TIP3    H2 6339   1.737   2.360   3.128
 2128TIP3   OH2 6340   2.861   0.329   3.569
 2128TIP3    H1 6341   2.873   0.255   3.628
 2128TIP3    H2 6342   2.838   0.290   3.485
 2129TIP3   OH2 6343   7.426   4.177   3.043
 2129TIP3    H1 6344   7.351   4.204   2.990
 2129TIP3    H2 6345   7.396   4.186   3.134
 2130TIP3   OH2 6346   3.935   4.300   6.433
 2130TIP3    H1 6347   3.967   4.217   6.398
 2130TIP3    H2 6348   3.931   4.359   6.358
 2131TIP3   OH2 6349   2.216   5.354   5.295
 2131TIP3    H1 6350   2.177   5.433   5.332
 2131TIP3    H2 6351   2.149   5.320   5.235
 2132TIP3   OH2 6352   1.443   5.088   1.874
 2132TIP3    H1 6353   1.429   5.000   1.907
 2132TIP3    H2 6354   1.528   5.115   1.909
 2133TIP3   OH2 6355   6.767   2.410   0.227
 2133TIP3    H1 6356   6.858   2.393   0.204
 2133TIP3    H2 6357   6.766   2.411   0.322
 2134TIP3   OH2 6358   0.828   3.844   5.085
 2134TIP3    H1 6359   0.792   3.907   5.023
 2134TIP3    H2 6360   0.908   3.812   5.043
 2135TIP3   OH2 6361   4.769   1.171   6.713
 2135TIP3    H1 6362   4.739   1.256   6.681
 2135TIP3    H2 6363   4.719   1.107   6.662
 2136TIP3   OH2 6364   2.046   7.691   4.237
 2136TIP3    H1 6365   2.089   7.699   4.152
 2136TIP3    H2 6366   2.081   7.610   4.275
 2137TIP3   OH2 6367   7.232   5.141   1.949
 2137TIP3    H1 6368   7.246   5.233   1.927
 2137TIP3    H2 6369   7.162   5.142   2.014
 2138TIP3   OH2 6370   2.153   0.062   3.469
 2138TIP3    H1 6371   2.243   0.093   3.485
 2138TIP3    H2 6372   2.132   0.095   3.382
 2139TIP3   OH2 6373   5.283   4.446   1.406
 2139TIP3    H1 6374   5.271   4.526   1.355
 2139TIP3    H2 6375   5.360   4.463   1.460
 2140TIP3   OH2 6376   2.489   4.723   4.123
 2140TIP3    H1 6377   2.473   4.663   4.196
 2140TIP3    H2 6378   2.585   4.722   4.112
 2141TIP3   OH2 6379   7.992   0.097   4.780
 2141TIP3    H1 6380   7.998   0.183   4.820
 2141TIP3    H2 6381   8.026   0.037   4.847
 2142TIP3   OH2 6382   1.879   1.688   6.441
 2142TIP3    H1 6383   1.969   1.685   6.473
 2142TIP3    H2 6384   1.826   1.673   6.519
 2143TIP3   OH2 6385   5.424   6.606   5.796
 2143TIP3    H1 6386   5.436   6.680   5.855
 2143TIP3    H2 6387   5.495   6.616   5.731
 2144TIP3   OH2 6388   7.412   2.599   0.982
 2144TIP3    H1 6389   7.444   2.537   0.917
 2144TIP3    H2 6390   7.329   2.631   0.946
 2145TIP3   OH2 6391   6.866   3.043   0.633
 2145TIP3    H1 6392   6.815   3.124   0.639
 2145TIP3    H2 6393   6.955   3.071   0.612
 2146TIP3   OH2 6394   2.279   1.826   6.107
 2146TIP3    H1 6395   2.279   1.915   6.071
 2146TIP3    H2 6396   2.195   1.789   6.079
 2147TIP3   OH2 6397   3.964   1.920   0.471
 2147TIP3    H1 6398   3.902   1.885   0.406
 2147TIP3    H2 6399   4.041   1.943   0.420
 2148TIP3   OH2 6400   1.999   7.249   4.800
 2148TIP3    H1 6401   1.953   7.186   4.744
 2148TIP3    H2 6402   2.091   7.223   4.793
 2149TIP3   OH2 6403   2.742   4.179   3.719
 2149TIP3    H1 6404   2.687   4.116   3.672
 2149TIP3    H2 6405   2.703   4.184   3.806
 2150TIP3   OH2 6406   3.515   3.502   6.270
 2150TIP3    H1 6407   3.509   3.433   6.204
 2150TIP3    H2 6408   3.606   3.531   6.267
 2151TIP3   OH2 6409   7.400   1.198   5.310
 2151TIP3    H1 6410   7.338   1.195   5.237
 2151TIP3    H2 6411   7.467   1.261   5.282
 2152TIP3   OH2 6412   2.906   2.177   6.518
 2152TIP3    H1 6413   2.880   2.229   6.441
 2152TIP3    H2 6414   3.001   2.168   6.509
 2153TIP3   OH2 6415   5.581   6.508   2.953
 2153TIP3    H1 6416   5.564   6.459   3.034
 2153TIP3    H2 6417   5.505   6.490   2.898
 2154TIP3   OH2 6418   5.117   3.746   1.477
 2154TIP3    H1 6419   5.128   3.653   1.498
 2154TIP3    H2 6420   5.023   3.757   1.463
 2155TIP3   OH2 6421   1.381   2.244   0.067
 2155TIP3    H1 6422   1.328   2.323   0.066
 2155TIP3    H2 6423   1.453   2.264   0.128
 2156TIP3   OH2 6424   2.253   7.146   4.792
 2156TIP3    H1 6425   2.324   7.210   4.805
 2156TIP3    H2 6426   2.260   7.086   4.865
 2157TIP3   OH2 6427   6.027   5.239   3.098
 2157TIP3    H1 6428   5.968   5.214   3.027
 2157TIP3    H2 6429   6.101   5.179   3.091
 2158TIP3   OH2 6430   1.559   0.813   5.097
 2158TIP3    H1 6431   1.518   0.746   5.151
 2158TIP3    H2 6432   1.624   0.854   5.154
 2159TIP3   OH2 6433   7.708   7.193   2.613
 2159TIP3    H1 6434   7.632   7.244   2.642
 2159TIP3    H2 6435   7.689   7.104   2.641
 2160TIP3   OH2 6436   2.657   2.814   0.923
 2160TIP3    H1 6437   2.694   2.776   0.844
 2160TIP3    H2 6438   2.726   2.871   0.956
 2161TIP3   OH2 6439   7.058   0.235   4.610
 2161TIP3    H1 6440   7.060   0.174   4.537
 2161TIP3    H2 6441   6.971   0.275   4.607
 2162TIP3   OH2 6442   1.304   0.961   3.998
 2162TIP3    H1 6443   1.380   1.018   4.012
 2162TIP3    H2 6444   1.330   0.906   3.923
 2163TIP3   OH2 6445   2.631   5.417   0.752
 2163TIP3    H1 6446   2.722   5.394   0.770
 2163TIP3    H2 6447   2.635   5.472   0.674
 2164TIP3   OH2 6448   7.765   7.611   4.012
 2164TIP3    H1 6449   7.775   7.632   4.105
 2164TIP3    H2 6450   7.717   7.685   3.976
 2165TIP3   OH2 6451   0.930   5.146   2.419
 2165TIP3    H1 6452   1.025   5.134   2.424
 2165TIP3    H2 6453   0.919   5.239   2.398
 2166TIP3   OH2 6454   7.039   1.448   6.332
 2166TIP3    H1 6455   6.964   1.489   6.289
 2166TIP3    H2 6456   7.115   1.496   6.298
 2167TIP3   OH2 6457   0.270   2.692   2.062
 2167TIP3    H1 6458   0.351   2.673   2.015
 2167TIP3    H2 6459   0.221   2.610   2.059
 2168TIP3   OH2 6460   6.556   7.663   4.346
 2168TIP3    H1 6461   6.641   7.657   4.303
 2168TIP3    H2 6462   6.511   7.734   4.301
 2169TIP3   OH2 6463   3.316   0.842   5.402
 2169TIP3    H1 6464   3.257   0.874   5.335
 2169TIP3    H2 6465   3.390   0.903   5.401
 2170TIP3   OH2 6466   3.099   0.749   1.223
 2170TIP3    H1 6467   3.134   0.838   1.223
 2170TIP3    H2 6468   3.004   0.761   1.223
 2171TIP3   OH2 6469   6.929   3.706   5.782
 2171TIP3    H1 6470   6.867   3.673   5.717
 2171TIP3    H2 6471   6.898   3.670   5.865
 2172TIP3   OH2 6472   6.168   3.312   0.185
 2172TIP3    H1 6473   6.110   3.237   0.174
 2172TIP3    H2 6474   6.136   3.376   0.122
 2173TIP3   OH2 6475   6.929   4.403   3.244
 2173TIP3    H1 6476   6.907   4.415   3.151
 2173TIP3    H2 6477   6.852   4.361   3.282
 2174TIP3   OH2 6478   6.932   0.705   1.295
 2174TIP3    H1 6479   6.997   0.689   1.363
 2174TIP3    H2 6480   6.983   0.726   1.217
 2175TIP3   OH2 6481   7.536   5.144   1.850
 2175TIP3    H1 6482   7.461   5.108   1.803
 2175TIP3    H2 6483   7.502   5.166   1.937
 2176TIP3   OH2 6484   4.521   2.900   0.191
 2176TIP3    H1 6485   4.500   2.993   0.198
 2176TIP3    H2 6486   4.463   2.867   0.122
 2177TIP3   OH2 6487   2.849   6.704   0.850
 2177TIP3    H1 6488   2.914   6.719   0.918
 2177TIP3    H2 6489   2.768   6.740   0.886
 2178TIP3   OH2 6490   2.213   3.200   4.042
 2178TIP3    H1 6491   2.134   3.247   4.018
 2178TIP3    H2 6492   2.201   3.113   4.004
 2179TIP3   OH2 6493   7.977   5.231   3.835
 2179TIP3    H1 6494   7.913   5.269   3.776
 2179TIP3    H2 6495   7.996   5.144   3.799
 2180TIP3   OH2 6496   1.146   2.846   3.909
 2180TIP3    H1 6497   1.191   2.783   3.964
 2180TIP3    H2 6498   1.161   2.815   3.819
 2181TIP3   OH2 6499   0.260   3.771   5.816
 2181TIP3    H1 6500   0.242   3.729   5.732
 2181TIP3    H2 6501   0.344   3.734   5.844
 2182TIP3   OH2 6502   2.007   4.425   0.643
 2182TIP3    H1 6503   1.939   4.396   0.582
 2182TIP3    H2 6504   1.959   4.442   0.724
 2183TIP3   OH2 6505   0.997   6.256   5.159
 2183TIP3    H1 6506   0.946   6.185   5.198
 2183TIP3    H2 6507   1.083   6.250   5.201
 2184TIP3   OH2 6508   2.815   7.593   6.457
 2184TIP3    H1 6509   2.751   7.626   6.393
 2184TIP3    H2 6510   2.799   7.645   6.536
 2185TIP3   OH2 6511   6.185   0.999   5.027
 2185TIP3    H1 6512   6.108   0.941   5.029
 2185TIP3    H2 6513   6.178   1.051   5.106
 2186TIP3   OH2 6514   0.550   1.900   3.804
 2186TIP3    H1 6515   0.505   1.916   3.887
 2186TIP3    H2 6516   0.525   1.811   3.779
 2187TIP3   OH2 6517   3.293   0.969   6.777
 2187TIP3    H1 6518   3.238   1.010   6.710
 2187TIP3    H2 6519   3.288   0.875   6.759
 2188TIP3   OH2 6520   1.986   7.404   5.358
 2188TIP3    H1 6521   1.985   7.385   5.452
 2188TIP3    H2 6522   2.072   7.443   5.342
 2189TIP3   OH2 6523   4.164   5.885   1.064
 2189TIP3    H1 6524   4.125   5.959   1.018
 2189TIP3    H2 6525   4.255   5.911   1.078
 2190TIP3   OH2 6526   8.147   5.011   2.221
 2190TIP3    H1 6527   8.164   4.920   2.195
 2190TIP3    H2 6528   8.232   5.054   2.213
 2191TIP3   OH2 6529   1.954   3.248   0.167
 2191TIP3    H1 6530   1.974   3.341   0.162
 2191TIP3    H2 6531   1.924   3.225   0.079
 2192TIP3   OH2 6532   0.761   2.483   3.253
 2192TIP3    H1 6533   0.732   2.392   3.252
 2192TIP3    H2 6534   0.730   2.518   3.336
 2193TIP3   OH2 6535   6.069   1.765   4.179
 2193TIP3    H1 6536   6.030   1.849   4.153
 2193TIP3    H2 6537   6.010   1.731   4.246
 2194TIP3   OH2 6538   6.001   0.298   4.937
 2194TIP3    H1 6539   5.914   0.274   4.971
 2194TIP3    H2 6540   5.983   0.365   4.871
 2195TIP3   OH2 6541   5.767   1.196   4.497
 2195TIP3    H1 6542   5.751   1.283   4.460
 2195TIP3    H2 6543   5.819   1.151   4.430
 2196TIP3   OH2 6544   2.860   1.413   4.130
 2196TIP3    H1 6545   2.862   1.467   4.051
 2196TIP3    H2 6546   2.771   1.378   4.133
 2197TIP3   OH2 6547   7.951   5.494   5.171
 2197TIP3    H1 6548   7.921   5.546   5.097
 2197TIP3    H2 6549   7.908   5.409   5.161
 2198TIP3   OH2 6550   3.031   3.934   2.874
 2198TIP3    H1 6551   3.048   3.973   2.960
 2198TIP3    H2 6552   2.974   3.997   2.829
 2199TIP3   OH2 6553   7.013   5.697   5.793
 2199TIP3    H1 6554   6.972   5.757   5.856
 2199TIP3    H2 6555   6.956   5.620   5.794
 2200TIP3   OH2 6556   6.317   1.399   6.332
 2200TIP3    H1 6557   6.313   1.369   6.422
 2200TIP3    H2 6558   6.406   1.380   6.304
 2201TIP3   OH2 6559   5.979   2.941   6.250
 2201TIP3    H1 6560   6.058   2.909   6.207
 2201TIP3    H2 6561   5.936   2.862   6.283
 2202TIP3   OH2 6562   2.843   2.628   3.405
 2202TIP3    H1 6563   2.903   2.553   3.412
 2202TIP3    H2 6564   2.874   2.675   3.328
 2203TIP3   OH2 6565   0.481   3.078   2.257
 2203TIP3    H1 6566   0.434   3.105   2.336
 2203TIP3    H2 6567   0.415   3.080   2.188
 2204TIP3   OH2 6568   1.132   4.378   1.595
 2204TIP3    H1 6569   1.181   4.438   1.539
 2204TIP3    H2 6570   1.057   4.430   1.626
 2205TIP3   OH2 6571   1.811   3.469   4.977
 2205TIP3    H1 6572   1.860   3.402   4.930
 2205TIP3    H2 6573   1.755   3.509   4.911
 2206TIP3   OH2 6574   6.381   5.347   6.529
 2206TIP3    H1 6575   6.459   5.401   6.541
 2206TIP3    H2 6576   6.394   5.305   6.444
 2207TIP3   OH2 6577   7.311   2.695   1.727
 2207TIP3    H1 6578   7.294   2.645   1.807
 2207TIP3    H2 6579   7.262   2.776   1.739
 2208TIP3   OH2 6580   8.277   1.540   0.697
 2208TIP3    H1 6581   8.349   1.494   0.740
 2208TIP3    H2 6582   8.200   1.485   0.715
 2209TIP3   OH2 6583   7.752   7.188   6.310
 2209TIP3    H1 6584   7.696   7.220   6.239
 2209TIP3    H2 6585   7.798   7.266   6.341
 2210TIP3   OH2 6586   1.297   1.550   4.187
 2210TIP3    H1 6587   1.287   1.621   4.251
 2210TIP3    H2 6588   1.234   1.484   4.215
 2211TIP3   OH2 6589   3.321   7.178   5.645
 2211TIP3    H1 6590   3.374   7.251   5.612
 2211TIP3    H2 6591   3.375   7.101   5.631
 2212TIP3   OH2 6592   0.848   4.963   0.709
 2212TIP3    H1 6593   0.766   4.978   0.662
 2212TIP3    H2 6594   0.821   4.929   0.794
 2213TIP3   OH2 6595   5.816   0.786   4.048
 2213TIP3    H1 6596   5.795   0.771   3.955
 2213TIP3    H2 6597   5.911   0.773   4.053
 2214TIP3   OH2 6598   2.186   1.731   4.036
 2214TIP3    H1 6599   2.120   1.662   4.026
 2214TIP3    H2 6600   2.246   1.697   4.102
 2215TIP3   OH2 6601   0.364   5.317   0.070
 2215TIP3    H1 6602   0.336   5.252   0.134
 2215TIP3    H2 6603   0.304   5.390   0.081
 2216TIP3   OH2 6604   5.085   7.517   4.228
 2216TIP3    H1 6605   5.162   7.489   4.178
 2216TIP3    H2 6606   5.011   7.472   4.186
 2217TIP3   OH2 6607   5.566   1.905   3.882
 2217TIP3    H1 6608   5.630   1.852   3.929
 2217TIP3    H2 6609   5.616   1.979   3.848
 2218TIP3   OH2 6610   0.293   2.905   5.992
 2218TIP3    H1 6611   0.317   2.998   5.995
 2218TIP3    H2 6612   0.375   2.859   6.006
 2219TIP3   OH2 6613   7.992   0.670   1.606
 2219TIP3    H1 6614   7.933   0.622   1.549
 2219TIP3    H2 6615   7.984   0.761   1.577
 2220TIP3   OH2 6616   6.084   1.731   5.743
 2220TIP3    H1 6617   5.991   1.742   5.763
 2220TIP3    H2 6618   6.087   1.725   5.647
 2221TIP3   OH2 6619   0.320   5.977   1.051
 2221TIP3    H1 6620   0.321   6.031   1.130
 2221TIP3    H2 6621   0.258   5.907   1.070
 2222TIP3   OH2 6622   5.407   3.119   5.083
 2222TIP3    H1 6623   5.410   3.210   5.114
 2222TIP3    H2 6624   5.368   3.126   4.996
 2223TIP3   OH2 6625   7.109   1.684   2.508
 2223TIP3    H1 6626   7.046   1.734   2.559
 2223TIP3    H2 6627   7.096   1.593   2.536
 2224TIP3   OH2 6628   0.427   5.176   2.390
 2224TIP3    H1 6629   0.497   5.120   2.358
 2224TIP3    H2 6630   0.453   5.264   2.363
 2225TIP3   OH2 6631   0.961   1.830   2.798
 2225TIP3    H1 6632   0.929   1.913   2.763
 2225TIP3    H2 6633   0.887   1.795   2.848
 2226TIP3   OH2 6634   6.400   1.275   1.259
 2226TIP3    H1 6635   6.366   1.188   1.278
 2226TIP3    H2 6636   6.402   1.280   1.163
 2227TIP3   OH2 6637   6.103   2.733   1.424
 2227TIP3    H1 6638   6.156   2.684   1.362
 2227TIP3    H2 6639   6.165   2.760   1.492
 2228TIP3   OH2 6640   4.086   0.973   3.433
 2228TIP3    H1 6641   4.095   0.886   3.472
 2228TIP3    H2 6642   4.151   0.975   3.363
 2229TIP3   OH2 6643   6.386   2.218   5.061
 2229TIP3    H1 6644   6.387   2.133   5.017
 2229TIP3    H2 6645   6.461   2.215   5.120
 2230TIP3   OH2 6646   0.864   1.256   1.816
 2230TIP3    H1 6647   0.798   1.296   1.873
 2230TIP3    H2 6648   0.813   1.200   1.757
 2231TIP3   OH2 6649   3.823   4.394   6.700
 2231TIP3    H1 6650   3.844   4.392   6.607
 2231TIP3    H2 6651   3.860   4.313   6.735
 2232TIP3   OH2 6652   1.304   0.953   5.076
 2232TIP3    H1 6653   1.296   1.017   5.005
 2232TIP3    H2 6654   1.394   0.922   5.070
 2233TIP3   OH2 6655   0.971   1.362   3.359
 2233TIP3    H1 6656   1.025   1.288   3.332
 2233TIP3    H2 6657   0.969   1.420   3.283
 2234TIP3   OH2 6658   1.251   0.437   2.755
 2234TIP3    H1 6659   1.339   0.475   2.765
 2234TIP3    H2 6660   1.255   0.390   2.671
 2235TIP3   OH2 6661   5.921   6.929   5.458
 2235TIP3    H1 6662   5.855   6.951   5.525
 2235TIP3    H2 6663   5.913   6.998   5.393
 2236TIP3   OH2 6664   2.942   5.834   0.051
 2236TIP3    H1 6665   2.853   5.868   0.049
 2236TIP3    H2 6666   2.989   5.892   0.110
 2237TIP3   OH2 6667   0.194   0.536   2.183
 2237TIP3    H1 6668   0.243   0.453   2.183
 2237TIP3    H2 6669   0.145   0.534   2.265
 2238TIP3   OH2 6670   6.657   7.313   2.293
 2238TIP3    H1 6671   6.696   7.374   2.230
 2238TIP3    H2 6672   6.593   7.365   2.340
 2239TIP3   OH2 6673   3.257   6.159   1.334
 2239TIP3    H1 6674   3.275   6.113   1.252
 2239TIP3    H2 6675   3.343   6.184   1.368
 2240TIP3   OH2 6676   3.126   5.911   4.227
 2240TIP3    H1 6677   3.177   5.944   4.154
 2240TIP3    H2 6678   3.164   5.826   4.247
 2241TIP3   OH2 6679   0.724   0.255   0.836
 2241TIP3    H1 6680   0.637   0.215   0.824
 2241TIP3    H2 6681   0.705   0.343   0.870
 2242TIP3   OH2 6682   5.485   2.052   4.917
 2242TIP3    H1 6683   5.503   2.074   4.826
 2242TIP3    H2 6684   5.403   2.097   4.937
 2243TIP3   OH2 6685   7.928   5.492   2.615
 2243TIP3    H1 6686   7.992   5.439   2.567
 2243TIP3    H2 6687   7.903   5.560   2.553
 2244TIP3   OH2 6688   1.764   2.537   2.920
 2244TIP3    H1 6689   1.808   2.458   2.890
 2244TIP3    H2 6690   1.770   2.598   2.847
 2245TIP3   OH2 6691   4.995   2.923   4.386
 2245TIP3    H1 6692   4.901   2.938   4.374
 2245TIP3    H2 6693   5.037   2.996   4.340
 2246TIP3   OH2 6694   4.545   4.752   0.622
 2246TIP3    H1 6695   4.494   4.707   0.554
 2246TIP3    H2 6696   4.480   4.800   0.673
 2247TIP3   OH2 6697   4.323   0.721   0.458
 2247TIP3    H1 6698   4.383   0.790   0.429
 2247TIP3    H2 6699   4.321   0.729   0.553
 2248TIP3   OH2 6700   1.555   3.780   3.104
 2248TIP3    H1 6701   1.572   3.720   3.032
 2248TIP3    H2 6702   1.558   3.867   3.065
 2249TIP3   OH2 6703   5.278   6.322   6.120
 2249TIP3    H1 6704   5.254   6.395   6.177
 2249TIP3    H2 6705   5.372   6.310   6.134
 2250TIP3   OH2 6706   5.006   7.711   0.061
 2250TIP3    H1 6707   5.023   7.623   0.026
 2250TIP3    H2 6708   5.057   7.714   0.142
 2251TIP3   OH2 6709   8.091   4.663   4.885
 2251TIP3    H1 6710   8.021   4.601   4.863
 2251TIP3    H2 6711   8.047   4.747   4.898
 2252TIP3   OH2 6712   6.349   3.788   3.324
 2252TIP3    H1 6713   6.302   3.749   3.397
 2252TIP3    H2 6714   6.297   3.765   3.247
 2253TIP3   OH2 6715   6.250   0.211   5.001
 2253TIP3    H1 6716   6.169   0.259   4.986
 2253TIP3    H2 6717   6.272   0.173   4.916
 2254TIP3   OH2 6718   4.459   2.893   6.247
 2254TIP3    H1 6719   4.544   2.849   6.249
 2254TIP3    H2 6720   4.397   2.827   6.279
 2255TIP3   OH2 6721   6.774   2.721   2.357
 2255TIP3    H1 6722   6.740   2.763   2.278
 2255TIP3    H2 6723   6.816   2.641   2.326
 2256TIP3   OH2 6724   7.794   1.111   5.519
 2256TIP3    H1 6725   7.793   1.187   5.578
 2256TIP3    H2 6726   7.745   1.043   5.565
 2257TIP3   OH2 6727   0.847   1.961   1.093
 2257TIP3    H1 6728   0.830   1.913   1.174
 2257TIP3    H2 6729   0.761   1.984   1.060
 2258TIP3   OH2 6730   8.182   4.958   0.628
 2258TIP3    H1 6731   8.227   4.905   0.694
 2258TIP3    H2 6732   8.228   4.938   0.547
 2259TIP3   OH2 6733   3.360   0.367   0.083
 2259TIP3    H1 6734   3.372   0.437   0.019
 2259TIP3    H2 6735   3.267   0.346   0.080
 2260TIP3   OH2 6736   6.466   2.224   0.125
 2260TIP3    H1 6737   6.479   2.176   0.206
 2260TIP3    H2 6738   6.409   2.168   0.072
 2261TIP3   OH2 6739   0.668   2.210   3.226
 2261TIP3    H1 6740   0.594   2.184   3.171
 2261TIP3    H2 6741   0.717   2.129   3.240
 2262TIP3   OH2 6742   4.735   7.795   2.018
 2262TIP3    H1 6743   4.678   7.825   1.948
 2262TIP3    H2 6744   4.689   7.720   2.056
 2263TIP3   OH2 6745   5.857   5.058   5.866
 2263TIP3    H1 6746   5.950   5.034   5.860
 2263TIP3    H2 6747   5.846   5.089   5.956
 2264TIP3   OH2 6748   4.420   7.072   2.422
 2264TIP3    H1 6749   4.357   7.047   2.354
 2264TIP3    H2 6750   4.382   7.039   2.503
 2265TIP3   OH2 6751   6.115   6.096   3.024
 2265TIP3    H1 6752   6.159   6.180   3.012
 2265TIP3    H2 6753   6.156   6.058   3.102
 2266TIP3   OH2 6754   0.922   5.140   4.269
 2266TIP3    H1 6755   0.834   5.115   4.295
 2266TIP3    H2 6756   0.910   5.196   4.192
 2267TIP3   OH2 6757   5.569   4.219   6.245
 2267TIP3    H1 6758   5.604   4.209   6.333
 2267TIP3    H2 6759   5.474   4.228   6.257
 2268TIP3   OH2 6760   1.311   0.104   3.213
 2268TIP3    H1 6761   1.255   0.168   3.168
 2268TIP3    H2 6762   1.259   0.023   3.213
 2269TIP3   OH2 6763   4.210   0.215   2.912
 2269TIP3    H1 6764   4.250   0.189   2.829
 2269TIP3    H2 6765   4.137   0.154   2.924
 2270TIP3   OH2 6766   7.958   4.387   4.643
 2270TIP3    H1 6767   7.922   4.333   4.712
 2270TIP3    H2 6768   8.052   4.383   4.655
 2271TIP3   OH2 6769   1.088   1.932   3.020
 2271TIP3    H1 6770   1.077   2.025   3.001
 2271TIP3    H2 6771   1.044   1.887   2.947
 2272TIP3   OH2 6772   7.490   1.085   1.551
 2272TIP3    H1 6773   7.397   1.085   1.573
 2272TIP3    H2 6774   7.493   1.064   1.457
 2273TIP3   OH2 6775   2.877   6.764   2.438
 2273TIP3    H1 6776   2.886   6.764   2.533
 2273TIP3    H2 6777   2.967   6.775   2.406
 2274TIP3   OH2 6778   3.595   5.319   5.303
 2274TIP3    H1 6779   3.653   5.356   5.236
 2274TIP3    H2 6780   3.624   5.359   5.385
 2275TIP3   OH2 6781   4.157   1.472   2.793
 2275TIP3    H1 6782   4.220   1.411   2.754
 2275TIP3    H2 6783   4.085   1.475   2.730
 2276TIP3   OH2 6784   2.598   0.603   0.604
 2276TIP3    H1 6785   2.686   0.627   0.575
 2276TIP3    H2 6786   2.564   0.548   0.533
 2277TIP3   OH2 6787   0.073   5.866   1.429
 2277TIP3    H1 6788   0.075   5.929   1.357
 2277TIP3    H2 6789   0.165   5.849   1.448
 2278TIP3   OH2 6790   3.790   2.220   1.713
 2278TIP3    H1 6791   3.867   2.212   1.770
 2278TIP3    H2 6792   3.731   2.278   1.761
 2279TIP3   OH2 6793   0.317   5.414   6.105
 2279TIP3    H1 6794   0.239   5.393   6.157
 2279TIP3    H2 6795   0.286   5.474   6.038
 2280TIP3   OH2 6796   1.586   4.241   5.598
 2280TIP3    H1 6797   1.505   4.235   5.548
 2280TIP3    H2 6798   1.641   4.170   5.565
 2281TIP3   OH2 6799   6.034   6.264   4.975
 2281TIP3    H1 6800   5.964   6.215   5.018
 2281TIP3    H2 6801   6.092   6.197   4.940
 2282TIP3   OH2 6802   3.078   5.524   3.850
 2282TIP3    H1 6803   3.098   5.457   3.786
 2282TIP3    H2 6804   2.983   5.520   3.860
 2283TIP3   OH2 6805   7.130   3.030   0.134
 2283TIP3    H1 6806   7.116   3.014   0.228
 2283TIP3    H2 6807   7.214   3.075   0.130
 2284TIP3   OH2 6808   8.218   6.659   4.456
 2284TIP3    H1 6809   8.297   6.624   4.496
 2284TIP3    H2 6810   8.165   6.582   4.436
 2285TIP3   OH2 6811   5.646   3.893   4.422
 2285TIP3    H1 6812   5.656   3.833   4.495
 2285TIP3    H2 6813   5.554   3.921   4.427
 2286TIP3   OH2 6814   3.802   2.519   4.946
 2286TIP3    H1 6815   3.854   2.447   4.983
 2286TIP3    H2 6816   3.803   2.503   4.852
 2287TIP3   OH2 6817   1.384   1.742   6.006
 2287TIP3    H1 6818   1.425   1.663   5.971
 2287TIP3    H2 6819   1.385   1.729   6.101
 2288TIP3   OH2 6820   5.762   2.144   1.827
 2288TIP3    H1 6821   5.839   2.136   1.883
 2288TIP3    H2 6822   5.784   2.215   1.766
 2289TIP3   OH2 6823   0.747   3.007   5.453
 2289TIP3    H1 6824   0.676   2.980   5.396
 2289TIP3    H2 6825   0.825   2.966   5.415
 2290TIP3   OH2 6826   6.906   2.251   6.321
 2290TIP3    H1 6827   6.825   2.226   6.365
 2290TIP3    H2 6828   6.952   2.307   6.384
 2291TIP3   OH2 6829   7.162   2.513   2.712
 2291TIP3    H1 6830   7.083   2.533   2.662
 2291TIP3    H2 6831   7.141   2.432   2.758
 2292TIP3   OH2 6832   0.303   0.106   1.034
 2292TIP3    H1 6833   0.296   0.012   1.024
 2292TIP3    H2 6834   0.213   0.138   1.034
 2293TIP3   OH2 6835   1.932   6.268   3.746
 2293TIP3    H1 6836   1.939   6.268   3.842
 2293TIP3    H2 6837   1.839   6.260   3.728
 2294TIP3   OH2 6838   3.202   0.087   3.262
 2294TIP3    H1 6839   3.131   0.077   3.198
 2294TIP3    H2 6840   3.281   0.067   3.212
 2295TIP3   OH2 6841   2.536   0.653   4.334
 2295TIP3    H1 6842   2.551   0.559   4.340
 2295TIP3    H2 6843   2.535   0.682   4.426
 2296TIP3   OH2 6844   6.243   1.683   6.414
 2296TIP3    H1 6845   6.174   1.644   6.360
 2296TIP3    H2 6846   6.294   1.608   6.445
 2297TIP3   OH2 6847   2.805   6.243   5.385
 2297TIP3    H1 6848   2.812   6.331   5.420
 2297TIP3    H2 6849   2.712   6.220   5.395
 2298TIP3   OH2 6850   4.570   3.272   5.199
 2298TIP3    H1 6851   4.562   3.366   5.215
 2298TIP3    H2 6852   4.663   3.259   5.182
 2299TIP3   OH2 6853   5.081   3.036   6.483
 2299TIP3    H1 6854   5.085   3.006   6.574
 2299TIP3    H2 6855   5.092   3.131   6.488
 2300TIP3   OH2 6856   7.912   6.847   1.481
 2300TIP3    H1 6857   7.933   6.771   1.535
 2300TIP3    H2 6858   7.818   6.861   1.496
 2301TIP3   OH2 6859   6.685   7.716   0.590
 2301TIP3    H1 6860   6.609   7.658   0.586
 2301TIP3    H2 6861   6.650   7.797   0.629
 2302TIP3   OH2 6862   3.348   1.200   4.226
 2302TIP3    H1 6863   3.256   1.222   4.239
 2302TIP3    H2 6864   3.346   1.119   4.174
 2303TIP3   OH2 6865   4.304   4.982   4.560
 2303TIP3    H1 6866   4.232   4.987   4.497
 2303TIP3    H2 6867   4.360   5.056   4.538
 2304TIP3   OH2 6868   3.562   1.893   3.639
 2304TIP3    H1 6869   3.484   1.842   3.662
 2304TIP3    H2 6870   3.629   1.828   3.620
 2305TIP3   OH2 6871   0.337   3.849   6.500
 2305TIP3    H1 6872   0.249   3.866   6.469
 2305TIP3    H2 6873   0.373   3.785   6.439
 2306TIP3   OH2 6874   3.607   4.960   5.527
 2306TIP3    H1 6875   3.549   5.034   5.543
 2306TIP3    H2 6876   3.612   4.953   5.432
 2307TIP3   OH2 6877   5.891   2.105   2.192
 2307TIP3    H1 6878   5.926   2.078   2.107
 2307TIP3    H2 6879   5.868   2.023   2.235
 2308TIP3   OH2 6880   7.068   3.745   3.945
 2308TIP3    H1 6881   7.042   3.695   4.022
 2308TIP3    H2 6882   7.163   3.752   3.951
 2309TIP3   OH2 6883   1.561   2.657   4.472
 2309TIP3    H1 6884   1.639   2.711   4.462
 2309TIP3    H2 6885   1.523   2.651   4.385
 2310TIP3   OH2 6886   2.608   3.697   0.367
 2310TIP3    H1 6887   2.515   3.707   0.389
 2310TIP3    H2 6888   2.652   3.767   0.416
 2311TIP3   OH2 6889   6.932   1.831   6.425
 2311TIP3    H1 6890   6.953   1.791   6.340
 2311TIP3    H2 6891   6.861   1.777   6.459
 2312TIP3   OH2 6892   2.627   5.265   1.183
 2312TIP3    H1 6893   2.534   5.282   1.167
 2312TIP3    H2 6894   2.653   5.334   1.245
 2313TIP3   OH2 6895   5.834   3.272   6.511
 2313TIP3    H1 6896   5.922   3.310   6.502
 2313TIP3    H2 6897   5.786   3.337   6.561
 2314TIP3   OH2 6898   7.431   0.089   0.334
 2314TIP3    H1 6899   7.466   0.176   0.355
 2314TIP3    H2 6900   7.497   0.028   0.366
 2315TIP3   OH2 6901   5.894   7.284   2.170
 2315TIP3    H1 6902   5.864   7.211   2.224
 2315TIP3    H2 6903   5.814   7.332   2.149
 2316TIP3   OH2 6904   7.372   6.416   5.755
 2316TIP3    H1 6905   7.326   6.333   5.743
 2316TIP3    H2 6906   7.452   6.392   5.802
 2317TIP3   OH2 6907   3.131   4.954   5.990
 2317TIP3    H1 6908   3.153   5.034   6.038
 2317TIP3    H2 6909   3.163   4.969   5.901
 2318TIP3   OH2 6910   3.786   3.938   0.072
 2318TIP3    H1 6911   3.692   3.920   0.064
 2318TIP3    H2 6912   3.801   4.012   0.013
 2319TIP3   OH2 6913   7.496   0.250   1.601
 2319TIP3    H1 6914   7.426   0.306   1.567
 2319TIP3    H2 6915   7.551   0.310   1.653
 2320TIP3   OH2 6916   1.993   3.639   6.230
 2320TIP3    H1 6917   2.061   3.583   6.191
 2320TIP3    H2 6918   1.990   3.613   6.322
 2321TIP3   OH2 6919   6.703   6.772   1.635
 2321TIP3    H1 6920   6.752   6.783   1.717
 2321TIP3    H2 6921   6.612   6.769   1.662
 2322TIP3   OH2 6922   5.513   2.005   0.938
 2322TIP3    H1 6923   5.547   1.931   0.987
 2322TIP3    H2 6924   5.574   2.076   0.955
 2323TIP3   OH2 6925   3.628   6.450   3.776
 2323TIP3    H1 6926   3.624   6.520   3.842
 2323TIP3    H2 6927   3.678   6.488   3.704
 2324TIP3   OH2 6928   5.896   1.834   0.858
 2324TIP3    H1 6929   5.840   1.762   0.886
 2324TIP3    H2 6930   5.911   1.885   0.938
 2325TIP3   OH2 6931   2.692   3.391   4.885
 2325TIP3    H1 6932   2.637   3.407   4.961
 2325TIP3    H2 6933   2.682   3.297   4.867
 2326TIP3   OH2 6934   7.671   7.777   0.836
 2326TIP3    H1 6935   7.713   7.862   0.844
 2326TIP3    H2 6936   7.657   7.749   0.927
 2327TIP3   OH2 6937   2.083   0.312   2.729
 2327TIP3    H1 6938   2.159   0.366   2.749
 2327TIP3    H2 6939   2.116   0.223   2.725
 2328TIP3   OH2 6940   1.332   3.607   6.377
 2328TIP3    H1 6941   1.354   3.559   6.297
 2328TIP3    H2 6942   1.255   3.561   6.412
 2329TIP3   OH2 6943   2.839   0.015   1.109
 2329TIP3    H1 6944   2.894   0.089   1.133
 2329TIP3    H2 6945   2.809  -0.022   1.192
 2330TIP3   OH2 6946   0.929   1.427   2.602
 2330TIP3    H1 6947   0.890   1.505   2.642
 2330TIP3    H2 6948   1.021   1.448   2.592
 2331TIP3   OH2 6949   7.426   4.166   2.225
 2331TIP3    H1 6950   7.457   4.151   2.314
 2331TIP3    H2 6951   7.455   4.255   2.205
 2332TIP3   OH2 6952   2.900   6.119   0.271
 2332TIP3    H1 6953   2.985   6.149   0.239
 2332TIP3    H2 6954   2.844   6.197   0.268
 2333TIP3   OH2 6955   6.345   5.146   4.790
 2333TIP3    H1 6956   6.403   5.202   4.738
 2333TIP3    H2 6957   6.386   5.060   4.787
 2334TIP3   OH2 6958   4.780   1.249   1.658
 2334TIP3    H1 6959   4.701   1.197   1.644
 2334TIP3    H2 6960   4.748   1.334   1.687
 2335TIP3   OH2 6961   8.194   2.889   2.120
 2335TIP3    H1 6962   8.252   2.897   2.044
 2335TIP3    H2 6963   8.240   2.828   2.178
 2336TIP3   OH2 6964   3.565   0.713   5.332
 2336TIP3    H1 6965   3.471   0.732   5.338
 2336TIP3    H2 6966   3.596   0.714   5.422
 2337TIP3   OH2 6967   1.861   5.702   2.390
 2337TIP3    H1 6968   1.826   5.752   2.464
 2337TIP3    H2 6969   1.857   5.611   2.418
 2338TIP3   OH2 6970   5.465   0.709   6.172
 2338TIP3    H1 6971   5.415   0.686   6.094
 2338TIP3    H2 6972   5.482   0.626   6.216
 2339TIP3   OH2 6973   4.396   6.760   2.322
 2339TIP3    H1 6974   4.397   6.848   2.283
 2339TIP3    H2 6975   4.321   6.717   2.281
 2340TIP3   OH2 6976   6.140   5.251   5.615
 2340TIP3    H1 6977   6.212   5.194   5.586
 2340TIP3    H2 6978   6.130   5.315   5.544
 2341TIP3   OH2 6979   1.113   0.611   1.790
 2341TIP3    H1 6980   1.150   0.699   1.777
 2341TIP3    H2 6981   1.037   0.626   1.847
 2342TIP3   OH2 6982   3.159   2.770   5.938
 2342TIP3    H1 6983   3.229   2.717   5.977
 2342TIP3    H2 6984   3.167   2.855   5.982
 2343TIP3   OH2 6985   6.690   6.304   3.292
 2343TIP3    H1 6986   6.752   6.361   3.338
 2343TIP3    H2 6987   6.719   6.306   3.201
 2344TIP3   OH2 6988   8.158   5.655   3.882
 2344TIP3    H1 6989   8.094   5.645   3.951
 2344TIP3    H2 6990   8.163   5.749   3.866
 2345TIP3   OH2 6991   4.382   3.185   4.924
 2345TIP3    H1 6992   4.317   3.240   4.968
 2345TIP3    H2 6993   4.450   3.245   4.896
 2346TIP3   OH2 6994   7.134   6.268   4.900
 2346TIP3    H1 6995   7.189   6.258   4.978
 2346TIP3    H2 6996   7.147   6.359   4.873
 2347TIP3   OH2 6997   1.219   0.551   0.570
 2347TIP3    H1 6998   1.199   0.458   0.564
 2347TIP3    H2 6999   1.199   0.574   0.661
 2348TIP3   OH2 7000   2.391   0.748   2.084
 2348TIP3    H1 7001   2.409   0.664   2.040
 2348TIP3    H2 7002   2.382   0.724   2.177
 2349TIP3   OH2 7003   2.724   3.925   0.965
 2349TIP3    H1 7004   2.653   3.863   0.948
 2349TIP3    H2 7005   2.718   3.942   1.059
 2350TIP3   OH2 7006   6.232   1.065   3.015
 2350TIP3    H1 7007   6.179   1.018   2.950
 2350TIP3    H2 7008   6.235   1.155   2.983
 2351TIP3   OH2 7009   2.210   5.835   3.315
 2351TIP3    H1 7010   2.298   5.862   3.288
 2351TIP3    H2 7011   2.160   5.831   3.234
 2352TIP3   OH2 7012   3.590   0.411   4.178
 2352TIP3    H1 7013   3.588   0.348   4.250
 2352TIP3    H2 7014   3.613   0.494   4.220
 2353TIP3   OH2 7015   5.259   4.403   3.366
 2353TIP3    H1 7016   5.317   4.338   3.325
 2353TIP3    H2 7017   5.296   4.487   3.342
 2354TIP3   OH2 7018   5.903   3.602   4.448
 2354TIP3    H1 7019   5.865   3.550   4.377
 2354TIP3    H2 7020   5.962   3.541   4.492
 2355TIP3   OH2 7021   3.389   6.944   1.744
 2355TIP3    H1 7022   3.442   7.016   1.777
 2355TIP3    H2 7023   3.410   6.940   1.651
 2356TIP3   OH2 7024   6.554   4.928   3.404
 2356TIP3    H1 7025   6.492   4.983   3.451
 2356TIP3    H2 7026   6.565   4.851   3.459
 2357TIP3   OH2 7027   4.522   7.162   4.959
 2357TIP3    H1 7028   4.528   7.167   5.055
 2357TIP3    H2 7029   4.428   7.161   4.940
 2358TIP3   OH2 7030   2.482   1.785   3.466
 2358TIP3    H1 7031   2.494   1.733   3.546
 2358TIP3    H2 7032   2.518   1.871   3.488
 2359TIP3   OH2 7033   3.859   3.679   1.116
 2359TIP3    H1 7034   3.776   3.676   1.069
 2359TIP3    H2 7035   3.838   3.652   1.205
 2360TIP3   OH2 7036   1.171   6.067   4.954
 2360TIP3    H1 7037   1.199   6.154   4.927
 2360TIP3    H2 7038   1.076   6.074   4.965
 2361TIP3   OH2 7039   4.021   4.900   0.718
 2361TIP3    H1 7040   4.086   4.961   0.682
 2361TIP3    H2 7041   3.939   4.925   0.675
 2362TIP3   OH2 7042   1.999   3.990   4.370
 2362TIP3    H1 7043   2.049   3.960   4.294
 2362TIP3    H2 7044   1.925   3.929   4.376
 2363TIP3   OH2 7045   4.254   1.614   5.117
 2363TIP3    H1 7046   4.347   1.600   5.102
 2363TIP3    H2 7047   4.213   1.603   5.031
 2364TIP3   OH2 7048   2.534   5.052   6.225
 2364TIP3    H1 7049   2.489   5.128   6.262
 2364TIP3    H2 7050   2.473   4.979   6.239
 2365TIP3   OH2 7051   7.911   6.794   1.878
 2365TIP3    H1 7052   8.001   6.771   1.903
 2365TIP3    H2 7053   7.859   6.719   1.905
 2366TIP3   OH2 7054   6.424   0.496   2.248
 2366TIP3    H1 7055   6.396   0.572   2.198
 2366TIP3    H2 7056   6.344   0.447   2.264
 2367TIP3   OH2 7057   3.183   5.095   2.946
 2367TIP3    H1 7058   3.186   4.999   2.951
 2367TIP3    H2 7059   3.090   5.117   2.957
 2368TIP3   OH2 7060   1.736   2.840   0.963
 2368TIP3    H1 7061   1.674   2.912   0.952
 2368TIP3    H2 7062   1.688   2.774   1.013
 2369TIP3   OH2 7063   1.098   3.708   6.167
 2369TIP3    H1 7064   1.099   3.726   6.261
 2369TIP3    H2 7065   1.083   3.614   6.161
 2370TIP3   OH2 7066   5.873   0.321   4.422
 2370TIP3    H1 7067   5.825   0.391   4.466
 2370TIP3    H2 7068   5.919   0.365   4.351
 2371TIP3   OH2 7069   6.293   2.116   6.701
 2371TIP3    H1 7070   6.258   2.112   6.791
 2371TIP3    H2 7071   6.274   2.030   6.664
 2372TIP3   OH2 7072   5.785   2.801   4.565
 2372TIP3    H1 7073   5.747   2.714   4.551
 2372TIP3    H2 7074   5.838   2.816   4.486
 2373TIP3   OH2 7075   5.490   1.311   4.724
 2373TIP3    H1 7076   5.476   1.404   4.707
 2373TIP3    H2 7077   5.523   1.308   4.814
 2374TIP3   OH2 7078   2.201   0.699   6.020
 2374TIP3    H1 7079   2.290   0.734   6.021
 2374TIP3    H2 7080   2.206   0.623   5.962
 2375TIP3   OH2 7081   3.762   5.417   4.787
 2375TIP3    H1 7082   3.705   5.342   4.804
 2375TIP3    H2 7083   3.712   5.493   4.817
 2376TIP3   OH2 7084   0.656   1.597   1.067
 2376TIP3    H1 7085   0.743   1.565   1.090
 2376TIP3    H2 7086   0.649   1.580   0.973
 2377TIP3   OH2 7087   3.255   3.903   0.469
 2377TIP3    H1 7088   3.206   3.843   0.525
 2377TIP3    H2 7089   3.305   3.957   0.530
 2378TIP3   OH2 7090   7.488   2.772   4.978
 2378TIP3    H1 7091   7.398   2.797   4.959
 2378TIP3    H2 7092   7.541   2.844   4.944
 2379TIP3   OH2 7093   0.493   7.420   0.516
 2379TIP3    H1 7094   0.572   7.459   0.478
 2379TIP3    H2 7095   0.526   7.368   0.590
 2380TIP3   OH2 7096   2.247   7.106   4.018
 2380TIP3    H1 7097   2.176   7.074   3.962
 2380TIP3    H2 7098   2.326   7.098   3.964
 2381TIP3   OH2 7099   6.188   2.716   0.553
 2381TIP3    H1 7100   6.264   2.699   0.498
 2381TIP3    H2 7101   6.178   2.811   0.553
 2382TIP3   OH2 7102   7.143   3.357   0.984
 2382TIP3    H1 7103   7.074   3.291   0.992
 2382TIP3    H2 7104   7.134   3.411   1.062
 2383TIP3   OH2 7105   5.568   0.928   5.025
 2383TIP3    H1 7106   5.609   1.014   5.015
 2383TIP3    H2 7107   5.593   0.900   5.113
 2384TIP3   OH2 7108   6.243   0.795   6.652
 2384TIP3    H1 7109   6.271   0.711   6.688
 2384TIP3    H2 7110   6.155   0.778   6.619
 2385TIP3   OH2 7111   7.702   3.934   1.663
 2385TIP3    H1 7112   7.722   4.001   1.728
 2385TIP3    H2 7113   7.765   3.864   1.680
 2386TIP3   OH2 7114   5.383   6.033   2.152
 2386TIP3    H1 7115   5.466   6.060   2.191
 2386TIP3    H2 7116   5.384   5.937   2.159
 2387TIP3   OH2 7117   5.386   1.207   3.295
 2387TIP3    H1 7118   5.455   1.270   3.318
 2387TIP3    H2 7119   5.308   1.261   3.283
 2388TIP3   OH2 7120   7.706   4.910   4.552
 2388TIP3    H1 7121   7.666   4.824   4.538
 2388TIP3    H2 7122   7.677   4.963   4.477
 2389TIP3   OH2 7123   6.058   7.543   4.045
 2389TIP3    H1 7124   6.024   7.571   4.130
 2389TIP3    H2 7125   6.006   7.465   4.023
 2390TIP3   OH2 7126   7.094   0.892   1.439
 2390TIP3    H1 7127   7.131   0.878   1.352
 2390TIP3    H2 7128   7.166   0.874   1.500
 2391TIP3   OH2 7129   5.453   5.120   4.819
 2391TIP3    H1 7130   5.501   5.041   4.844
 2391TIP3    H2 7131   5.383   5.126   4.883
 2392TIP3   OH2 7132   6.065   0.998   4.406
 2392TIP3    H1 7133   6.066   1.064   4.476
 2392TIP3    H2 7134   6.156   0.995   4.375
 2393TIP3   OH2 7135   5.298   5.173   0.301
 2393TIP3    H1 7136   5.208   5.204   0.304
 2393TIP3    H2 7137   5.314   5.137   0.389
 2394TIP3   OH2 7138   2.198   4.843   1.213
 2394TIP3    H1 7139   2.167   4.928   1.245
 2394TIP3    H2 7140   2.195   4.786   1.289
 2395TIP3   OH2 7141   5.362   7.450   6.756
 2395TIP3    H1 7142   5.437   7.508   6.773
 2395TIP3    H2 7143   5.400   7.377   6.707
 2396TIP3   OH2 7144   3.414   0.546   6.582
 2396TIP3    H1 7145   3.442   0.473   6.528
 2396TIP3    H2 7146   3.476   0.616   6.563
 2397TIP3   OH2 7147   1.259   0.456   5.879
 2397TIP3    H1 7148   1.239   0.538   5.833
 2397TIP3    H2 7149   1.227   0.470   5.968
 2398TIP3   OH2 7150   5.005   5.070   6.005
 2398TIP3    H1 7151   5.062   5.058   6.081
 2398TIP3    H2 7152   5.017   4.990   5.954
 2399TIP3   OH2 7153   4.874   1.827   2.189
 2399TIP3    H1 7154   4.857   1.779   2.108
 2399TIP3    H2 7155   4.911   1.761   2.248
 2400TIP3   OH2 7156   2.369   5.854   2.416
 2400TIP3    H1 7157   2.448   5.905   2.436
 2400TIP3    H2 7158   2.334   5.895   2.337
 2401TIP3   OH2 7159   4.929   7.208   6.647
 2401TIP3    H1 7160   4.834   7.200   6.645
 2401TIP3    H2 7161   4.953   7.192   6.738
 2402TIP3   OH2 7162   5.889   5.824   3.806
 2402TIP3    H1 7163   5.876   5.772   3.726
 2402TIP3    H2 7164   5.825   5.895   3.799
 2403TIP3   OH2 7165   0.160   5.904   1.988
 2403TIP3    H1 7166   0.237   5.929   1.936
 2403TIP3    H2 7167   0.110   5.985   1.999
 2404TIP3   OH2 7168   3.302   3.920   6.734
 2404TIP3    H1 7169   3.225   3.911   6.678
 2404TIP3    H2 7170   3.376   3.908   6.675
 2405TIP3   OH2 7171   1.037   2.652   1.874
 2405TIP3    H1 7172   1.002   2.738   1.852
 2405TIP3    H2 7173   0.980   2.591   1.826
 2406TIP3   OH2 7174   4.683   1.813   5.651
 2406TIP3    H1 7175   4.620   1.845   5.716
 2406TIP3    H2 7176   4.651   1.845   5.567
 2407TIP3   OH2 7177   7.699   3.815   4.940
 2407TIP3    H1 7178   7.756   3.875   4.892
 2407TIP3    H2 7179   7.637   3.872   4.985
 2408TIP3   OH2 7180   5.845   6.325   0.332
 2408TIP3    H1 7181   5.831   6.246   0.281
 2408TIP3    H2 7182   5.760   6.344   0.371
 2409TIP3   OH2 7183   6.656   0.685   5.072
 2409TIP3    H1 7184   6.577   0.634   5.056
 2409TIP3    H2 7185   6.727   0.629   5.038
 2410TIP3   OH2 7186   0.793   3.935   4.191
 2410TIP3    H1 7187   0.882   3.969   4.180
 2410TIP3    H2 7188   0.740   3.990   4.133
 2411TIP3   OH2 7189   1.557   3.839   0.195
 2411TIP3    H1 7190   1.464   3.816   0.190
 2411TIP3    H2 7191   1.585   3.806   0.281
 2412TIP3   OH2 7192   8.208   1.401   5.239
 2412TIP3    H1 7193   8.290   1.448   5.259
 2412TIP3    H2 7194   8.234   1.334   5.176
 2413TIP3   OH2 7195   6.013   4.673   6.397
 2413TIP3    H1 7196   5.952   4.600   6.386
 2413TIP3    H2 7197   5.958   4.751   6.401
 2414TIP3   OH2 7198   7.722   6.507   1.100
 2414TIP3    H1 7199   7.642   6.478   1.056
 2414TIP3    H2 7200   7.692   6.535   1.186
 2415TIP3   OH2 7201   2.229   2.517   0.127
 2415TIP3    H1 7202   2.234   2.514   0.223
 2415TIP3    H2 7203   2.158   2.578   0.109
 2416TIP3   OH2 7204   3.744   0.516   5.624
 2416TIP3    H1 7205   3.682   0.562   5.681
 2416TIP3    H2 7206   3.830   0.543   5.655
 2417TIP3   OH2 7207   3.779   0.267   4.064
 2417TIP3    H1 7208   3.718   0.315   4.120
 2417TIP3    H2 7209   3.722   0.216   4.006
 2418TIP3   OH2 7210   8.115   6.249   0.299
 2418TIP3    H1 7211   8.057   6.321   0.324
 2418TIP3    H2 7212   8.186   6.251   0.363
 2419TIP3   OH2 7213   2.002   5.932   3.725
 2419TIP3    H1 7214   1.960   5.908   3.807
 2419TIP3    H2 7215   1.949   6.004   3.691
 2420TIP3   OH2 7216   6.891   1.716   4.446
 2420TIP3    H1 7217   6.978   1.686   4.471
 2420TIP3    H2 7218   6.868   1.782   4.512
 2421TIP3   OH2 7219   2.012   7.206   6.039
 2421TIP3    H1 7220   1.964   7.205   5.956
 2421TIP3    H2 7221   2.103   7.221   6.014
 2422TIP3   OH2 7222   1.886   6.960   6.591
 2422TIP3    H1 7223   1.946   6.898   6.632
 2422TIP3    H2 7224   1.894   6.942   6.497
 2423TIP3   OH2 7225   3.119   6.757   0.111
 2423TIP3    H1 7226   3.182   6.783   0.179
 2423TIP3    H2 7227   3.168   6.765   0.029
 2424TIP3   OH2 7228   4.736   0.178   2.630
 2424TIP3    H1 7229   4.818   0.186   2.679
 2424TIP3    H2 7230   4.757   0.118   2.559
 2425TIP3   OH2 7231   2.118   2.304   1.572
 2425TIP3    H1 7232   2.071   2.342   1.647
 2425TIP3    H2 7233   2.210   2.322   1.590
 2426TIP3   OH2 7234   4.569   1.571   0.334
 2426TIP3    H1 7235   4.596   1.541   0.247
 2426TIP3    H2 7236   4.547   1.491   0.381
 2427TIP3   OH2 7237   5.749   3.640   2.908
 2427TIP3    H1 7238   5.755   3.556   2.861
 2427TIP3    H2 7239   5.749   3.615   3.001
 2428TIP3   OH2 7240   0.762   4.960   5.830
 2428TIP3    H1 7241   0.697   5.029   5.821
 2428TIP3    H2 7242   0.780   4.955   5.924
 2429TIP3   OH2 7243   6.049   2.407   5.012
 2429TIP3    H1 7244   6.126   2.417   4.957
 2429TIP3    H2 7245   5.975   2.417   4.952
 2430TIP3   OH2 7246   3.038   3.187   1.131
 2430TIP3    H1 7247   3.044   3.236   1.213
 2430TIP3    H2 7248   3.115   3.129   1.133
 2431TIP3   OH2 7249   5.034   1.002   4.902
 2431TIP3    H1 7250   5.126   1.015   4.923
 2431TIP3    H2 7251   5.032   0.996   4.807
 2432TIP3   OH2 7252   7.525   2.398   5.992
 2432TIP3    H1 7253   7.546   2.450   6.069
 2432TIP3    H2 7254   7.599   2.412   5.933
 2433TIP3   OH2 7255   8.283   7.294   5.986
 2433TIP3    H1 7256   8.293   7.353   5.911
 2433TIP3    H2 7257   8.189   7.289   6.001
 2434TIP3   OH2 7258   5.131   5.754   2.267
 2434TIP3    H1 7259   5.122   5.798   2.183
 2434TIP3    H2 7260   5.202   5.691   2.255
 2435TIP3   OH2 7261   8.037   1.434   3.018
 2435TIP3    H1 7262   8.053   1.527   3.034
 2435TIP3    H2 7263   8.034   1.394   3.105
 2436TIP3   OH2 7264   2.111   3.269   2.002
 2436TIP3    H1 7265   2.021   3.283   1.971
 2436TIP3    H2 7266   2.124   3.335   2.070
 2437TIP3   OH2 7267   3.515   4.597   0.607
 2437TIP3    H1 7268   3.519   4.666   0.674
 2437TIP3    H2 7269   3.432   4.612   0.563
 2438TIP3   OH2 7270   1.163   5.048   5.225
 2438TIP3    H1 7271   1.255   5.029   5.207
 2438TIP3    H2 7272   1.158   5.144   5.224
 2439TIP3   OH2 7273   4.407   2.973   2.392
 2439TIP3    H1 7274   4.454   2.972   2.476
 2439TIP3    H2 7275   4.316   2.990   2.415
 2440TIP3   OH2 7276   1.386   2.394   6.430
 2440TIP3    H1 7277   1.463   2.438   6.395
 2440TIP3    H2 7278   1.417   2.348   6.508
 2441TIP3   OH2 7279   4.076   6.850   6.255
 2441TIP3    H1 7280   4.100   6.791   6.326
 2441TIP3    H2 7281   4.110   6.808   6.176
 2442TIP3   OH2 7282   0.680   7.401   6.286
 2442TIP3    H1 7283   0.682   7.435   6.376
 2442TIP3    H2 7284   0.771   7.397   6.259
 2443TIP3   OH2 7285   0.133   6.143   0.368
 2443TIP3    H1 7286   0.079   6.072   0.401
 2443TIP3    H2 7287   0.117   6.216   0.428
 2444TIP3   OH2 7288  -0.005   0.425   0.506
 2444TIP3    H1 7289  -0.051   0.509   0.498
 2444TIP3    H2 7290   0.087   0.449   0.517
 2445TIP3   OH2 7291   4.858   6.114   0.652
 2445TIP3    H1 7292   4.829   6.173   0.582
 2445TIP3    H2 7293   4.824   6.028   0.625
 2446TIP3   OH2 7294   1.458   3.686   1.696
 2446TIP3    H1 7295   1.526   3.631   1.658
 2446TIP3    H2 7296   1.501   3.770   1.712
 2447TIP3   OH2 7297   0.802   0.486   0.080
 2447TIP3    H1 7298   0.854   0.470   0.001
 2447TIP3    H2 7299   0.760   0.570   0.064
 2448TIP3   OH2 7300   1.746   1.948   6.656
 2448TIP3    H1 7301   1.724   1.894   6.580
 2448TIP3    H2 7302   1.777   2.031   6.618
 2449TIP3   OH2 7303   1.217   7.016   6.254
 2449TIP3    H1 7304   1.137   7.058   6.286
 2449TIP3    H2 7305   1.259   6.981   6.332
 2450TIP3   OH2 7306   6.321   1.765   2.024
 2450TIP3    H1 7307   6.310   1.737   2.115
 2450TIP3    H2 7308   6.300   1.859   2.025
 2451TIP3   OH2 7309   5.348   7.568   5.407
 2451TIP3    H1 7310   5.419   7.511   5.436
 2451TIP3    H2 7311   5.374   7.655   5.434
 2452TIP3   OH2 7312   0.851   4.471   5.884
 2452TIP3    H1 7313   0.935   4.428   5.898
 2452TIP3    H2 7314   0.835   4.520   5.965
 2453TIP3   OH2 7315   5.265   4.082   4.639
 2453TIP3    H1 7316   5.218   4.164   4.625
 2453TIP3    H2 7317   5.297   4.088   4.730
 2454TIP3   OH2 7318   2.900   6.246   6.360
 2454TIP3    H1 7319   2.988   6.224   6.393
 2454TIP3    H2 7320   2.874   6.170   6.309
 2455TIP3   OH2 7321   6.291   7.715   1.944
 2455TIP3    H1 7322   6.226   7.770   1.900
 2455TIP3    H2 7323   6.375   7.751   1.918
 2456TIP3   OH2 7324   3.706   1.663   6.274
 2456TIP3    H1 7325   3.774   1.598   6.254
 2456TIP3    H2 7326   3.683   1.700   6.190
 2457TIP3   OH2 7327   4.257   1.209   2.333
 2457TIP3    H1 7328   4.170   1.231   2.298
 2457TIP3    H2 7329   4.319   1.248   2.271
 2458TIP3   OH2 7330   7.336   1.220   2.398
 2458TIP3    H1 7331   7.282   1.181   2.329
 2458TIP3    H2 7332   7.426   1.209   2.366
 2459TIP3   OH2 7333   4.000   5.577   0.641
 2459TIP3    H1 7334   3.939   5.607   0.573
 2459TIP3    H2 7335   4.019   5.656   0.691
 2460TIP3   OH2 7336   7.703   2.747   3.151
 2460TIP3    H1 7337   7.714   2.679   3.085
 2460TIP3    H2 7338   7.682   2.698   3.231
 2461TIP3   OH2 7339   7.552   0.609   4.095
 2461TIP3    H1 7340   7.567   0.520   4.064
 2461TIP3    H2 7341   7.569   0.665   4.020
 2462TIP3   OH2 7342   3.646   1.457   2.240
 2462TIP3    H1 7343   3.639   1.484   2.332
 2462TIP3    H2 7344   3.721   1.506   2.207
 2463TIP3   OH2 7345   7.011   2.703   3.591
 2463TIP3    H1 7346   6.919   2.726   3.581
 2463TIP3    H2 7347   7.058   2.765   3.535
 2464TIP3   OH2 7348   3.992   7.627   3.212
 2464TIP3    H1 7349   3.987   7.721   3.191
 2464TIP3    H2 7350   4.052   7.592   3.146
 2465TIP3   OH2 7351   5.257   1.685   1.646
 2465TIP3    H1 7352   5.174   1.647   1.676
 2465TIP3    H2 7353   5.258   1.773   1.684
 2466TIP3   OH2 7354   3.591   0.194   4.358
 2466TIP3    H1 7355   3.592   0.257   4.430
 2466TIP3    H2 7356   3.653   0.126   4.385
 2467TIP3   OH2 7357   3.417   0.506   4.934
 2467TIP3    H1 7358   3.508   0.523   4.912
 2467TIP3    H2 7359   3.415   0.415   4.963
 2468TIP3   OH2 7360   1.308   0.925   6.571
 2468TIP3    H1 7361   1.364   0.950   6.644
 2468TIP3    H2 7362   1.309   1.001   6.512
 2469TIP3   OH2 7363   8.019   5.233   5.373
 2469TIP3    H1 7364   8.027   5.205   5.464
 2469TIP3    H2 7365   8.076   5.309   5.365
 2470TIP3   OH2 7366   2.074   1.011   1.989
 2470TIP3    H1 7367   1.990   0.970   1.969
 2470TIP3    H2 7368   2.078   1.012   2.085
 2471TIP3   OH2 7369   6.351   7.696   0.456
 2471TIP3    H1 7370   6.331   7.733   0.370
 2471TIP3    H2 7371   6.419   7.631   0.439
 2472TIP3   OH2 7372   4.876   2.099   2.111
 2472TIP3    H1 7373   4.815   2.118   2.183
 2472TIP3    H2 7374   4.907   2.011   2.129
 2473TIP3   OH2 7375   6.922   4.444   1.356
 2473TIP3    H1 7376   6.878   4.364   1.329
 2473TIP3    H2 7377   6.962   4.422   1.440
 2474TIP3   OH2 7378   8.250   1.982   1.096
 2474TIP3    H1 7379   8.224   2.017   1.182
 2474TIP3    H2 7380   8.252   2.058   1.039
 2475TIP3   OH2 7381   4.315   1.075   6.436
 2475TIP3    H1 7382   4.228   1.043   6.458
 2475TIP3    H2 7383   4.301   1.136   6.364
 2476TIP3   OH2 7384   3.443   6.396   3.223
 2476TIP3    H1 7385   3.479   6.484   3.220
 2476TIP3    H2 7386   3.452   6.369   3.314
 2477TIP3   OH2 7387   3.273   4.775   0.079
 2477TIP3    H1 7388   3.348   4.730   0.119
 2477TIP3    H2 7389   3.202   4.765   0.142
 2478TIP3   OH2 7390   0.554   0.675   1.101
 2478TIP3    H1 7391   0.486   0.743   1.099
 2478TIP3    H2 7392   0.518   0.607   1.158
 2479TIP3   OH2 7393   6.128   1.078   6.430
 2479TIP3    H1 7394   6.046   1.118   6.460
 2479TIP3    H2 7395   6.169   1.046   6.510
 2480TIP3   OH2 7396   6.626   0.295   2.321
 2480TIP3    H1 7397   6.583   0.318   2.238
 2480TIP3    H2 7398   6.589   0.210   2.344
 2481TIP3   OH2 7399   1.762   4.935   6.439
 2481TIP3    H1 7400   1.774   4.955   6.532
 2481TIP3    H2 7401   1.765   5.020   6.395
 2482TIP3   OH2 7402   2.910   6.873   5.840
 2482TIP3    H1 7403   2.981   6.808   5.845
 2482TIP3    H2 7404   2.877   6.865   5.750
 2483TIP3   OH2 7405   6.121   5.326   2.138
 2483TIP3    H1 7406   6.123   5.230   2.132
 2483TIP3    H2 7407   6.129   5.344   2.232
 2484TIP3   OH2 7408   3.415   3.796   3.877
 2484TIP3    H1 7409   3.343   3.843   3.919
 2484TIP3    H2 7410   3.403   3.705   3.904
 2485TIP3   OH2 7411   4.865   2.240   6.755
 2485TIP3    H1 7412   4.868   2.145   6.764
 2485TIP3    H2 7413   4.957   2.266   6.748
 2486TIP3   OH2 7414   7.281   3.579   1.289
 2486TIP3    H1 7415   7.328   3.549   1.366
 2486TIP3    H2 7416   7.348   3.588   1.222
 2487TIP3   OH2 7417   6.109   1.880   4.641
 2487TIP3    H1 7418   6.167   1.819   4.594
 2487TIP3    H2 7419   6.067   1.826   4.707
 2488TIP3   OH2 7420   0.482   6.547   0.422
 2488TIP3    H1 7421   0.532   6.556   0.341
 2488TIP3    H2 7422   0.429   6.627   0.427
 2489TIP3   OH2 7423   5.019   1.042   2.327
 2489TIP3    H1 7424   5.049   1.014   2.413
 2489TIP3    H2 7425   5.090   1.097   2.293
 2490TIP3   OH2 7426   5.675   2.979   1.174
 2490TIP3    H1 7427   5.714   2.945   1.094
 2490TIP3    H2 7428   5.587   3.006   1.149
 2491TIP3   OH2 7429   3.237   7.411   3.467
 2491TIP3    H1 7430   3.185   7.480   3.426
 2491TIP3    H2 7431   3.298   7.383   3.399
 2492TIP3   OH2 7432   7.250   7.423   1.477
 2492TIP3    H1 7433   7.170   7.390   1.518
 2492TIP3    H2 7434   7.300   7.344   1.454
 2493TIP3   OH2 7435   3.429   6.957   4.852
 2493TIP3    H1 7436   3.416   6.996   4.766
 2493TIP3    H2 7437   3.497   6.891   4.839
 2494TIP3   OH2 7438   3.950   5.812   0.777
 2494TIP3    H1 7439   3.904   5.887   0.815
 2494TIP3    H2 7440   3.965   5.753   0.851
 2495TIP3   OH2 7441   7.231   0.254   3.508
 2495TIP3    H1 7442   7.248   0.221   3.596
 2495TIP3    H2 7443   7.211   0.175   3.457
 2496TIP3   OH2 7444   0.935   5.030   0.429
 2496TIP3    H1 7445   0.961   5.039   0.338
 2496TIP3    H2 7446   0.839   5.029   0.427
 2497TIP3   OH2 7447   2.995   5.515   5.255
 2497TIP3    H1 7448   2.999   5.611   5.257
 2497TIP3    H2 7449   3.074   5.489   5.208
 2498TIP3   OH2 7450   3.282   4.371   2.168
 2498TIP3    H1 7451   3.231   4.315   2.110
 2498TIP3    H2 7452   3.244   4.458   2.157
 2499TIP3   OH2 7453   0.731   6.227   2.461
 2499TIP3    H1 7454   0.766   6.313   2.440
 2499TIP3    H2 7455   0.676   6.241   2.538
 2500TIP3   OH2 7456   3.265   3.184   4.101
 2500TIP3    H1 7457   3.295   3.122   4.168
 2500TIP3    H2 7458   3.178   3.153   4.078
 2501TIP3   OH2 7459   5.420   4.960   0.214
 2501TIP3    H1 7460   5.360   5.027   0.245
 2501TIP3    H2 7461   5.460   4.998   0.136
 2502TIP3   OH2 7462   6.335   3.625   1.716
 2502TIP3    H1 7463   6.334   3.596   1.624
 2502TIP3    H2 7464   6.428   3.634   1.737
 2503TIP3   OH2 7465   3.519   5.796   6.484
 2503TIP3    H1 7466   3.550   5.793   6.394
 2503TIP3    H2 7467   3.424   5.788   6.477
 2504TIP3   OH2 7468   5.718   5.472   5.619
 2504TIP3    H1 7469   5.785   5.416   5.659
 2504TIP3    H2 7470   5.757   5.560   5.622
 2505TIP3   OH2 7471   7.437   3.951   2.062
 2505TIP3    H1 7472   7.354   3.973   2.019
 2505TIP3    H2 7473   7.436   4.000   2.143
 2506TIP3   OH2 7474   7.660   6.899   1.063
 2506TIP3    H1 7475   7.631   6.844   0.991
 2506TIP3    H2 7476   7.656   6.841   1.140
 2507TIP3   OH2 7477   7.466   6.969   0.315
 2507TIP3    H1 7478   7.496   7.025   0.387
 2507TIP3    H2 7479   7.464   6.881   0.353
 2508TIP3   OH2 7480   6.654   3.246   4.113
 2508TIP3    H1 7481   6.669   3.154   4.136
 2508TIP3    H2 7482   6.631   3.244   4.020
 2509TIP3   OH2 7483   5.586   1.704   2.336
 2509TIP3    H1 7484   5.660   1.651   2.365
 2509TIP3    H2 7485   5.593   1.785   2.388
 2510TIP3   OH2 7486   0.792   1.329   0.083
 2510TIP3    H1 7487   0.800   1.255   0.144
 2510TIP3    H2 7488   0.789   1.406   0.139
 2511TIP3   OH2 7489   1.623   7.131   1.251
 2511TIP3    H1 7490   1.676   7.140   1.172
 2511TIP3    H2 7491   1.596   7.039   1.252
 2512TIP3   OH2 7492   8.086   1.643   3.409
 2512TIP3    H1 7493   8.123   1.610   3.327
 2512TIP3    H2 7494   8.012   1.585   3.426
 2513TIP3   OH2 7495   2.373   0.065   5.126
 2513TIP3    H1 7496   2.433   0.134   5.099
 2513TIP3    H2 7497   2.295   0.079   5.073
 2514TIP3   OH2 7498   1.585   0.995   4.600
 2514TIP3    H1 7499   1.662   1.051   4.587
 2514TIP3    H2 7500   1.602   0.949   4.683
 2515TIP3   OH2 7501   7.904   7.046   3.353
 2515TIP3    H1 7502   7.821   7.013   3.320
 2515TIP3    H2 7503   7.902   7.028   3.447
 2516TIP3   OH2 7504   1.909   7.526   1.648
 2516TIP3    H1 7505   1.844   7.533   1.718
 2516TIP3    H2 7506   1.982   7.579   1.677
 2517TIP3   OH2 7507   3.341   5.373   3.300
 2517TIP3    H1 7508   3.271   5.423   3.258
 2517TIP3    H2 7509   3.301   5.338   3.380
 2518TIP3   OH2 7510   7.333   4.083   0.215
 2518TIP3    H1 7511   7.347   4.005   0.268
 2518TIP3    H2 7512   7.394   4.074   0.142
 2519TIP3   OH2 7513   0.747   5.505   0.557
 2519TIP3    H1 7514   0.836   5.539   0.551
 2519TIP3    H2 7515   0.722   5.487   0.467
 2520TIP3   OH2 7516   0.542   2.817   1.316
 2520TIP3    H1 7517   0.481   2.878   1.274
 2520TIP3    H2 7518   0.614   2.807   1.253
 2521TIP3   OH2 7519   0.347   0.976   5.749
 2521TIP3    H1 7520   0.393   0.973   5.833
 2521TIP3    H2 7521   0.343   1.069   5.727
 2522TIP3   OH2 7522   1.770   2.057   4.429
 2522TIP3    H1 7523   1.809   2.141   4.404
 2522TIP3    H2 7524   1.713   2.078   4.503
 2523TIP3   OH2 7525   4.800   2.806   3.025
 2523TIP3    H1 7526   4.886   2.780   2.993
 2523TIP3    H2 7527   4.807   2.900   3.040
 2524TIP3   OH2 7528   4.729   0.289   0.611
 2524TIP3    H1 7529   4.722   0.194   0.615
 2524TIP3    H2 7530   4.817   0.308   0.643
 2525TIP3   OH2 7531   4.017   4.185   5.632
 2525TIP3    H1 7532   3.990   4.261   5.581
 2525TIP3    H2 7533   3.999   4.110   5.575
 2526TIP3   OH2 7534   0.631   1.667   4.703
 2526TIP3    H1 7535   0.572   1.666   4.628
 2526TIP3    H2 7536   0.718   1.657   4.665
 2527TIP3   OH2 7537   7.763   6.186   6.582
 2527TIP3    H1 7538   7.764   6.091   6.567
 2527TIP3    H2 7539   7.670   6.209   6.582
 2528TIP3   OH2 7540   7.101   1.155   5.318
 2528TIP3    H1 7541   7.018   1.108   5.311
 2528TIP3    H2 7542   7.141   1.120   5.397
 2529TIP3   OH2 7543   6.229   0.901   5.440
 2529TIP3    H1 7544   6.224   0.830   5.376
 2529TIP3    H2 7545   6.158   0.884   5.501
 2530TIP3   OH2 7546   7.755   4.401   3.406
 2530TIP3    H1 7547   7.702   4.471   3.367
 2530TIP3    H2 7548   7.692   4.333   3.428
 2531TIP3   OH2 7549   7.584   3.030   2.808
 2531TIP3    H1 7550   7.627   3.083   2.741
 2531TIP3    H2 7551   7.653   3.013   2.872
 2532TIP3   OH2 7552   1.731   0.552   2.575
 2532TIP3    H1 7553   1.657   0.608   2.552
 2532TIP3    H2 7554   1.750   0.575   2.666
 2533TIP3   OH2 7555   1.243   2.335   3.946
 2533TIP3    H1 7556   1.319   2.385   3.915
 2533TIP3    H2 7557   1.275   2.287   4.022
 2534TIP3   OH2 7558   7.468   4.646   1.182
 2534TIP3    H1 7559   7.553   4.679   1.154
 2534TIP3    H2 7560   7.462   4.559   1.144
 2535TIP3   OH2 7561   6.840   7.186   2.485
 2535TIP3    H1 7562   6.766   7.229   2.443
 2535TIP3    H2 7563   6.851   7.104   2.436
 2536TIP3   OH2 7564   4.566   7.363   0.523
 2536TIP3    H1 7565   4.513   7.289   0.495
 2536TIP3    H2 7566   4.564   7.424   0.449
 2537TIP3   OH2 7567   3.037   7.733   2.292
 2537TIP3    H1 7568   3.098   7.671   2.252
 2537TIP3    H2 7569   3.051   7.815   2.244
 2538TIP3   OH2 7570   1.251   3.339   2.403
 2538TIP3    H1 7571   1.275   3.247   2.409
 2538TIP3    H2 7572   1.205   3.347   2.319
 2539TIP3   OH2 7573   3.845   2.615   6.746
 2539TIP3    H1 7574   3.879   2.528   6.770
 2539TIP3    H2 7575   3.923   2.672   6.748
 2540TIP3   OH2 7576   1.961   4.134   0.205
 2540TIP3    H1 7577   1.866   4.147   0.202
 2540TIP3    H2 7578   1.995   4.220   0.230
 2541TIP3   OH2 7579   0.314   0.483   4.414
 2541TIP3    H1 7580   0.357   0.451   4.493
 2541TIP3    H2 7581   0.228   0.514   4.445
 2542TIP3   OH2 7582   2.721   1.637   1.669
 2542TIP3    H1 7583   2.710   1.663   1.760
 2542TIP3    H2 7584   2.751   1.546   1.673
 2543TIP3   OH2 7585   3.241   3.914   5.939
 2543TIP3    H1 7586   3.147   3.930   5.936
 2543TIP3    H2 7587   3.250   3.830   5.984
 2544TIP3   OH2 7588   3.564   2.537   0.742
 2544TIP3    H1 7589   3.534   2.447   0.735
 2544TIP3    H2 7590   3.653   2.536   0.707
 2545TIP3   OH2 7591   6.711   2.197   1.799
 2545TIP3    H1 7592   6.789   2.202   1.854
 2545TIP3    H2 7593   6.660   2.125   1.836
 2546TIP3   OH2 7594   3.204   5.821   3.470
 2546TIP3    H1 7595   3.232   5.832   3.379
 2546TIP3    H2 7596   3.116   5.858   3.473
 2547TIP3   OH2 7597   6.990   4.975   2.340
 2547TIP3    H1 7598   6.901   4.995   2.369
 2547TIP3    H2 7599   7.012   4.893   2.384
 2548TIP3   OH2 7600   0.957   3.264   1.586
 2548TIP3    H1 7601   1.039   3.219   1.566
 2548TIP3    H2 7602   0.977   3.357   1.575
 2549TIP3   OH2 7603   7.355   4.626   4.624
 2549TIP3    H1 7604   7.288   4.625   4.555
 2549TIP3    H2 7605   7.368   4.719   4.643
 2550TIP3   OH2 7606   6.344   3.498   2.647
 2550TIP3    H1 7607   6.344   3.406   2.672
 2550TIP3    H2 7608   6.436   3.524   2.653
 2551TIP3   OH2 7609   6.234   6.336   1.380
 2551TIP3    H1 7610   6.162   6.282   1.348
 2551TIP3    H2 7611   6.193   6.403   1.434
 2552TIP3   OH2 7612   1.269   2.887   2.812
 2552TIP3    H1 7613   1.305   2.976   2.806
 2552TIP3    H2 7614   1.239   2.879   2.903
 2553TIP3   OH2 7615   5.479   1.023   0.272
 2553TIP3    H1 7616   5.477   1.072   0.355
 2553TIP3    H2 7617   5.529   1.079   0.213
 2554TIP3   OH2 7618   0.477   5.432   2.034
 2554TIP3    H1 7619   0.433   5.359   1.992
 2554TIP3    H2 7620   0.430   5.510   2.004
 2555TIP3   OH2 7621   6.562   1.137   2.977
 2555TIP3    H1 7622   6.503   1.088   3.034
 2555TIP3    H2 7623   6.650   1.112   3.006
 2556TIP3   OH2 7624   0.490   5.544   4.751
 2556TIP3    H1 7625   0.550   5.470   4.759
 2556TIP3    H2 7626   0.423   5.514   4.690
 2557TIP3   OH2 7627   6.221   4.731   4.121
 2557TIP3    H1 7628   6.153   4.671   4.152
 2557TIP3    H2 7629   6.194   4.817   4.154
 2558TIP3   OH2 7630   2.631   2.542   0.167
 2558TIP3    H1 7631   2.667   2.459   0.198
 2558TIP3    H2 7632   2.626   2.533   0.072
 2559TIP3   OH2 7633   1.689   4.120   4.323
 2559TIP3    H1 7634   1.677   4.042   4.270
 2559TIP3    H2 7635   1.628   4.184   4.286
 2560TIP3   OH2 7636   6.441   3.230   4.963
 2560TIP3    H1 7637   6.460   3.273   5.046
 2560TIP3    H2 7638   6.488   3.147   4.967
 2561TIP3   OH2 7639   5.486   0.122   0.084
 2561TIP3    H1 7640   5.412   0.120   0.023
 2561TIP3    H2 7641   5.561   0.096   0.031
 2562TIP3   OH2 7642   5.310   1.037   6.673
 2562TIP3    H1 7643   5.306   1.133   6.679
 2562TIP3    H2 7644   5.250   1.007   6.742
 2563TIP3   OH2 7645   4.514   7.190   5.276
 2563TIP3    H1 7646   4.571   7.114   5.268
 2563TIP3    H2 7647   4.479   7.184   5.365
 2564TIP3   OH2 7648   7.613   3.053   3.591
 2564TIP3    H1 7649   7.642   2.992   3.659
 2564TIP3    H2 7650   7.667   3.131   3.605
 2565TIP3   OH2 7651   5.300   5.234   5.838
 2565TIP3    H1 7652   5.368   5.237   5.772
 2565TIP3    H2 7653   5.324   5.303   5.901
 2566TIP3   OH2 7654   7.450   7.290   5.801
 2566TIP3    H1 7655   7.479   7.313   5.889
 2566TIP3    H2 7656   7.531   7.270   5.753
 2567TIP3   OH2 7657   4.057   0.836   6.464
 2567TIP3    H1 7658   4.131   0.848   6.524
 2567TIP3    H2 7659   4.095   0.796   6.386
 2568TIP3   OH2 7660   6.164   5.635   4.683
 2568TIP3    H1 7661   6.077   5.670   4.705
 2568TIP3    H2 7662   6.160   5.618   4.589
 2569TIP3   OH2 7663   2.754   4.511   6.532
 2569TIP3    H1 7664   2.845   4.527   6.558
 2569TIP3    H2 7665   2.734   4.424   6.567
 2570TIP3   OH2 7666   7.615   2.117   0.796
 2570TIP3    H1 7667   7.633   2.023   0.800
 2570TIP3    H2 7668   7.535   2.129   0.848
 2571TIP3   OH2 7669   4.510   0.586   4.419
 2571TIP3    H1 7670   4.494   0.504   4.373
 2571TIP3    H2 7671   4.563   0.638   4.358
 2572TIP3   OH2 7672   7.418   2.041   1.778
 2572TIP3    H1 7673   7.482   2.111   1.766
 2572TIP3    H2 7674   7.342   2.084   1.817
 2573TIP3   OH2 7675   7.303   3.193   1.624
 2573TIP3    H1 7676   7.294   3.135   1.549
 2573TIP3    H2 7677   7.244   3.266   1.604
 2574TIP3   OH2 7678   1.132   3.535   1.965
 2574TIP3    H1 7679   1.089   3.612   1.928
 2574TIP3    H2 7680   1.089   3.461   1.923
 2575TIP3   OH2 7681   2.613   2.607   4.049
 2575TIP3    H1 7682   2.646   2.623   4.138
 2575TIP3    H2 7683   2.621   2.692   4.005
 2576TIP3   OH2 7684   6.742   1.667   5.181
 2576TIP3    H1 7685   6.802   1.593   5.185
 2576TIP3    H2 7686   6.783   1.735   5.232
 2577TIP3   OH2 7687   3.564   7.283   0.755
 2577TIP3    H1 7688   3.482   7.328   0.775
 2577TIP3    H2 7689   3.609   7.277   0.840
 2578TIP3   OH2 7690   2.068   2.051   0.018
 2578TIP3    H1 7691   2.120   2.038  -0.061
 2578TIP3    H2 7692   2.113   1.999   0.085
 2579TIP3   OH2 7693   1.483   1.469   5.968
 2579TIP3    H1 7694   1.484   1.391   5.912
 2579TIP3    H2 7695   1.442   1.439   6.049
 2580TIP3   OH2 7696   6.875   4.186   3.930
 2580TIP3    H1 7697   6.942   4.249   3.957
 2580TIP3    H2 7698   6.920   4.125   3.872
 2581TIP3   OH2 7699   0.789   4.752   3.291
 2581TIP3    H1 7700   0.746   4.717   3.213
 2581TIP3    H2 7701   0.801   4.845   3.273
 2582TIP3   OH2 7702   6.516   6.779   4.803
 2582TIP3    H1 7703   6.511   6.690   4.838
 2582TIP3    H2 7704   6.429   6.815   4.820
 2583TIP3   OH2 7705   0.228   2.371   5.758
 2583TIP3    H1 7706   0.309   2.415   5.733
 2583TIP3    H2 7707   0.226   2.292   5.705
 2584TIP3   OH2 7708   5.501   1.193   0.469
 2584TIP3    H1 7709   5.455   1.198   0.553
 2584TIP3    H2 7710   5.592   1.178   0.492
 2585TIP3   OH2 7711   7.995   7.379   6.702
 2585TIP3    H1 7712   8.013   7.466   6.667
 2585TIP3    H2 7713   8.009   7.320   6.627
 2586TIP3   OH2 7714   6.693   4.973   5.412
 2586TIP3    H1 7715   6.681   5.068   5.403
 2586TIP3    H2 7716   6.616   4.935   5.369
 2587TIP3   OH2 7717   0.030   3.138   0.299
 2587TIP3    H1 7718  -0.043   3.148   0.238
 2587TIP3    H2 7719   0.105   3.175   0.253
 2588TIP3   OH2 7720   5.150   0.780   5.258
 2588TIP3    H1 7721   5.184   0.806   5.344
 2588TIP3    H2 7722   5.226   0.789   5.199
 2589TIP3   OH2 7723   6.125   6.037   3.475
 2589TIP3    H1 7724   6.065   6.082   3.416
 2589TIP3    H2 7725   6.082   6.040   3.560
 2590TIP3   OH2 7726   4.798   3.550   2.605
 2590TIP3    H1 7727   4.855   3.514   2.673
 2590TIP3    H2 7728   4.849   3.542   2.525
 2591TIP3   OH2 7729   1.676   1.317   1.505
 2591TIP3    H1 7730   1.642   1.367   1.579
 2591TIP3    H2 7731   1.770   1.334   1.507
 2592TIP3   OH2 7732   5.139   0.404   5.992
 2592TIP3    H1 7733   5.183   0.320   5.978
 2592TIP3    H2 7734   5.100   0.397   6.079
 2593TIP3   OH2 7735   0.802   2.469   4.571
 2593TIP3    H1 7736   0.730   2.419   4.610
 2593TIP3    H2 7737   0.807   2.437   4.481
 2594TIP3   OH2 7738   7.659   2.140   5.085
 2594TIP3    H1 7739   7.691   2.056   5.118
 2594TIP3    H2 7740   7.736   2.180   5.044
 2595TIP3   OH2 7741   3.305   6.305   4.015
 2595TIP3    H1 7742   3.348   6.313   3.930
 2595TIP3    H2 7743   3.213   6.323   3.998
 2596TIP3   OH2 7744   5.983   6.550   4.128
 2596TIP3    H1 7745   5.903   6.595   4.100
 2596TIP3    H2 7746   6.037   6.619   4.167
 2597TIP3   OH2 7747   7.241   2.752   1.442
 2597TIP3    H1 7748   7.238   2.722   1.533
 2597TIP3    H2 7749   7.298   2.690   1.398
 2598TIP3   OH2 7750   2.929   2.004   3.313
 2598TIP3    H1 7751   2.918   1.946   3.237
 2598TIP3    H2 7752   3.019   2.034   3.308
 2599TIP3   OH2 7753   2.632   7.552   0.664
 2599TIP3    H1 7754   2.545   7.513   0.662
 2599TIP3    H2 7755   2.664   7.544   0.574
 2600TIP3   OH2 7756   0.670   1.886   0.852
 2600TIP3    H1 7757   0.601   1.860   0.792
 2600TIP3    H2 7758   0.742   1.914   0.795
 2601TIP3   OH2 7759   7.003   0.415   5.967
 2601TIP3    H1 7760   6.925   0.466   5.990
 2601TIP3    H2 7761   7.065   0.434   6.037
 2602TIP3   OH2 7762   6.091   5.950   4.317
 2602TIP3    H1 7763   6.099   6.045   4.324
 2602TIP3    H2 7764   6.181   5.917   4.327
 2603TIP3   OH2 7765   5.687   4.313   1.288
 2603TIP3    H1 7766   5.685   4.284   1.197
 2603TIP3    H2 7767   5.750   4.385   1.289
 2604TIP3   OH2 7768   2.381   5.887   5.732
 2604TIP3    H1 7769   2.473   5.910   5.742
 2604TIP3    H2 7770   2.339   5.966   5.698
 2605TIP3   OH2 7771   2.478   1.354   1.156
 2605TIP3    H1 7772   2.484   1.347   1.061
 2605TIP3    H2 7773   2.535   1.427   1.178
 2606TIP3   OH2 7774   4.171   1.769   1.528
 2606TIP3    H1 7775   4.262   1.742   1.514
 2606TIP3    H2 7776   4.123   1.731   1.453
 2607TIP3   OH2 7777   2.795   3.029   3.289
 2607TIP3    H1 7778   2.718   3.008   3.342
 2607TIP3    H2 7779   2.847   3.087   3.345
 2608TIP3   OH2 7780   1.364   2.949   6.439
 2608TIP3    H1 7781   1.320   2.864   6.439
 2608TIP3    H2 7782   1.415   2.950   6.358
 2609TIP3   OH2 7783   7.359   2.330   3.211
 2609TIP3    H1 7784   7.266   2.338   3.192
 2609TIP3    H2 7785   7.366   2.251   3.264
 2610TIP3   OH2 7786   5.673   4.602   5.372
 2610TIP3    H1 7787   5.685   4.685   5.325
 2610TIP3    H2 7788   5.579   4.589   5.374
 2611TIP3   OH2 7789   2.532   5.177   1.485
 2611TIP3    H1 7790   2.497   5.260   1.518
 2611TIP3    H2 7791   2.455   5.122   1.472
 2612TIP3   OH2 7792   0.397   5.714   0.570
 2612TIP3    H1 7793   0.467   5.698   0.634
 2612TIP3    H2 7794   0.327   5.754   0.621
 2613TIP3   OH2 7795   7.360   2.582   1.250
 2613TIP3    H1 7796   7.301   2.508   1.256
 2613TIP3    H2 7797   7.375   2.594   1.157
 2614TIP3   OH2 7798   1.520   2.749   2.271
 2614TIP3    H1 7799   1.570   2.724   2.349
 2614TIP3    H2 7800   1.552   2.690   2.203
 2615TIP3   OH2 7801   6.343   2.896   5.113
 2615TIP3    H1 7802   6.314   2.844   5.037
 2615TIP3    H2 7803   6.282   2.970   5.115
 2616TIP3   OH2 7804   0.711   2.773   1.089
 2616TIP3    H1 7805   0.801   2.768   1.056
 2616TIP3    H2 7806   0.657   2.739   1.018
 2617TIP3   OH2 7807   4.254   1.829   3.909
 2617TIP3    H1 7808   4.232   1.922   3.906
 2617TIP3    H2 7809   4.349   1.827   3.922
 2618TIP3   OH2 7810   7.588   4.881   1.979
 2618TIP3    H1 7811   7.576   4.972   1.953
 2618TIP3    H2 7812   7.576   4.831   1.898
 2619TIP3   OH2 7813   3.514   3.175   1.765
 2619TIP3    H1 7814   3.520   3.096   1.711
 2619TIP3    H2 7815   3.502   3.246   1.702
 2620TIP3   OH2 7816   3.404   7.572   0.675
 2620TIP3    H1 7817   3.368   7.607   0.594
 2620TIP3    H2 7818   3.499   7.568   0.659
 2621TIP3   OH2 7819   1.452   7.175   5.246
 2621TIP3    H1 7820   1.418   7.091   5.278
 2621TIP3    H2 7821   1.463   7.163   5.152
 2622TIP3   OH2 7822   0.557   0.674   3.703
 2622TIP3    H1 7823   0.515   0.752   3.667
 2622TIP3    H2 7824   0.634   0.707   3.749
 2623TIP3   OH2 7825   1.608   6.733   6.119
 2623TIP3    H1 7826   1.641   6.705   6.034
 2623TIP3    H2 7827   1.515   6.711   6.118
 2624TIP3   OH2 7828   7.300   2.040   5.474
 2624TIP3    H1 7829   7.393   2.043   5.497
 2624TIP3    H2 7830   7.279   1.947   5.472
 2625TIP3   OH2 7831   5.816   2.876   4.853
 2625TIP3    H1 7832   5.745   2.928   4.890
 2625TIP3    H2 7833   5.790   2.862   4.762
 2626TIP3   OH2 7834   8.301   0.009   3.991
 2626TIP3    H1 7835   8.207  -0.002   3.981
 2626TIP3    H2 7836   8.331   0.043   3.907
 2627TIP3   OH2 7837   3.892   2.200   0.448
 2627TIP3    H1 7838   3.851   2.215   0.363
 2627TIP3    H2 7839   3.895   2.104   0.456
 2628TIP3   OH2 7840   1.702   5.162   4.922
 2628TIP3    H1 7841   1.655   5.137   4.842
 2628TIP3    H2 7842   1.788   5.120   4.913
 2629TIP3   OH2 7843   7.202   4.217   2.016
 2629TIP3    H1 7844   7.264   4.203   2.087
 2629TIP3    H2 7845   7.224   4.303   1.980
 2630TIP3   OH2 7846   6.207   7.694   6.052
 2630TIP3    H1 7847   6.197   7.614   6.000
 2630TIP3    H2 7848   6.302   7.700   6.068
 2631TIP3   OH2 7849   3.222   3.648   4.230
 2631TIP3    H1 7850   3.258   3.562   4.208
 2631TIP3    H2 7851   3.133   3.629   4.259
 2632TIP3   OH2 7852   1.335   4.851   4.991
 2632TIP3    H1 7853   1.281   4.789   5.041
 2632TIP3    H2 7854   1.412   4.866   5.046
 2633TIP3   OH2 7855   1.848   1.858   3.975
 2633TIP3    H1 7856   1.760   1.831   3.948
 2633TIP3    H2 7857   1.834   1.909   4.055
 2634TIP3   OH2 7858   1.518   5.491   6.300
 2634TIP3    H1 7859   1.474   5.408   6.318
 2634TIP3    H2 7860   1.474   5.555   6.356
 2635TIP3   OH2 7861   0.979   5.432   1.619
 2635TIP3    H1 7862   0.904   5.375   1.601
 2635TIP3    H2 7863   0.951   5.486   1.693
 2636TIP3   OH2 7864   5.180   0.214   5.634
 2636TIP3    H1 7865   5.198   0.160   5.712
 2636TIP3    H2 7866   5.091   0.190   5.609
 2637TIP3   OH2 7867   3.620   0.682   3.542
 2637TIP3    H1 7868   3.550   0.621   3.565
 2637TIP3    H2 7869   3.690   0.626   3.508
 2638TIP3   OH2 7870   0.094   5.493   4.382
 2638TIP3    H1 7871   0.067   5.577   4.343
 2638TIP3    H2 7872   0.045   5.488   4.464
 2639TIP3   OH2 7873   0.498   4.168   4.773
 2639TIP3    H1 7874   0.490   4.204   4.684
 2639TIP3    H2 7875   0.531   4.241   4.825
 2640TIP3   OH2 7876   1.796   6.561   1.474
 2640TIP3    H1 7877   1.816   6.471   1.449
 2640TIP3    H2 7878   1.881   6.599   1.496
 2641TIP3   OH2 7879   3.364   0.159   3.744
 2641TIP3    H1 7880   3.366   0.080   3.689
 2641TIP3    H2 7881   3.377   0.231   3.682
 2642TIP3   OH2 7882   3.415   6.690   1.003
 2642TIP3    H1 7883   3.394   6.742   1.080
 2642TIP3    H2 7884   3.417   6.599   1.034
 2643TIP3   OH2 7885   7.162   0.995   4.465
 2643TIP3    H1 7886   7.246   1.025   4.500
 2643TIP3    H2 7887   7.113   1.076   4.448
 2644TIP3   OH2 7888   2.265   5.978   2.196
 2644TIP3    H1 7889   2.227   5.976   2.108
 2644TIP3    H2 7890   2.289   6.069   2.211
 2645TIP3   OH2 7891   7.380   5.542   4.688
 2645TIP3    H1 7892   7.404   5.502   4.604
 2645TIP3    H2 7893   7.296   5.584   4.672
 2646TIP3   OH2 7894   2.983   3.250   1.620
 2646TIP3    H1 7895   3.032   3.224   1.698
 2646TIP3    H2 7896   2.892   3.232   1.642
 2647TIP3   OH2 7897   1.472   0.093   5.327
 2647TIP3    H1 7898   1.555   0.140   5.320
 2647TIP3    H2 7899   1.497   0.000   5.333
 2648TIP3   OH2 7900   6.948   0.583   0.252
 2648TIP3    H1 7901   6.908   0.664   0.220
 2648TIP3    H2 7902   7.024   0.569   0.196
 2649TIP3   OH2 7903   3.425   6.550   6.039
 2649TIP3    H1 7904   3.359   6.601   6.085
 2649TIP3    H2 7905   3.478   6.615   5.993
 2650TIP3   OH2 7906   3.490   1.586   5.691
 2650TIP3    H1 7907   3.474   1.665   5.743
 2650TIP3    H2 7908   3.449   1.604   5.607
 2651TIP3   OH2 7909   6.269   3.386   5.683
 2651TIP3    H1 7910   6.177   3.405   5.668
 2651TIP3    H2 7911   6.290   3.317   5.620
 2652TIP3   OH2 7912   3.412   5.219   3.074
 2652TIP3    H1 7913   3.394   5.302   3.119
 2652TIP3    H2 7914   3.329   5.172   3.076
 2653TIP3   OH2 7915   3.537   3.822   0.154
 2653TIP3    H1 7916   3.484   3.802   0.076
 2653TIP3    H2 7917   3.478   3.872   0.211
 2654TIP3   OH2 7918   4.795   3.462   1.736
 2654TIP3    H1 7919   4.749   3.392   1.782
 2654TIP3    H2 7920   4.796   3.434   1.645
 2655TIP3   OH2 7921   6.857   6.390   1.414
 2655TIP3    H1 7922   6.843   6.362   1.323
 2655TIP3    H2 7923   6.908   6.471   1.406
 2656TIP3   OH2 7924   4.019   2.302   2.222
 2656TIP3    H1 7925   3.979   2.221   2.253
 2656TIP3    H2 7926   4.113   2.290   2.238
 2657TIP3   OH2 7927   3.650   6.342   4.194
 2657TIP3    H1 7928   3.643   6.437   4.201
 2657TIP3    H2 7929   3.741   6.323   4.220
 2658TIP3   OH2 7930   6.051   6.851   4.070
 2658TIP3    H1 7931   6.135   6.830   4.029
 2658TIP3    H2 7932   6.020   6.928   4.023
 2659TIP3   OH2 7933   3.804   7.053   4.120
 2659TIP3    H1 7934   3.751   6.993   4.067
 2659TIP3    H2 7935   3.777   7.140   4.092
 2660TIP3   OH2 7936   4.323   5.188   5.662
 2660TIP3    H1 7937   4.249   5.176   5.603
 2660TIP3    H2 7938   4.329   5.283   5.674
 2661TIP3   OH2 7939   0.203   4.267   4.678
 2661TIP3    H1 7940   0.204   4.175   4.654
 2661TIP3    H2 7941   0.227   4.268   4.771
 2662TIP3   OH2 7942   8.139   5.754   0.564
 2662TIP3    H1 7943   8.143   5.757   0.659
 2662TIP3    H2 7944   8.144   5.661   0.542
 2663TIP3   OH2 7945   0.157   5.262   6.577
 2663TIP3    H1 7946   0.209   5.212   6.640
 2663TIP3    H2 7947   0.067   5.246   6.603
 2664TIP3   OH2 7948   8.193   0.147   3.380
 2664TIP3    H1 7949   8.157   0.220   3.430
 2664TIP3    H2 7950   8.183   0.071   3.437
 2665TIP3   OH2 7951   7.179   5.864   5.374
 2665TIP3    H1 7952   7.155   5.773   5.352
 2665TIP3    H2 7953   7.272   5.869   5.355
 2666TIP3   OH2 7954   1.311   4.095   0.399
 2666TIP3    H1 7955   1.389   4.100   0.455
 2666TIP3    H2 7956   1.315   4.174   0.345
 2667TIP3   OH2 7957   5.721   6.951   3.386
 2667TIP3    H1 7958   5.677   6.882   3.436
 2667TIP3    H2 7959   5.651   6.993   3.336
 2668TIP3   OH2 7960   5.842   6.282   0.727
 2668TIP3    H1 7961   5.889   6.287   0.643
 2668TIP3    H2 7962   5.806   6.370   0.739
 2669TIP3   OH2 7963   1.671   6.548   4.009
 2669TIP3    H1 7964   1.764   6.536   3.993
 2669TIP3    H2 7965   1.635   6.574   3.924
 2670TIP3   OH2 7966   8.246   6.199   5.596
 2670TIP3    H1 7967   8.283   6.111   5.601
 2670TIP3    H2 7968   8.174   6.191   5.533
 2671TIP3   OH2 7969   0.555   5.774   1.896
 2671TIP3    H1 7970   0.581   5.864   1.881
 2671TIP3    H2 7971   0.506   5.776   1.979
 2672TIP3   OH2 7972   0.961   5.910   6.600
 2672TIP3    H1 7973   0.967   5.922   6.505
 2672TIP3    H2 7974   1.028   5.968   6.636
 2673TIP3   OH2 7975   2.528   5.859   1.835
 2673TIP3    H1 7976   2.540   5.845   1.929
 2673TIP3    H2 7977   2.471   5.936   1.829
 2674TIP3   OH2 7978   0.728   4.390   2.288
 2674TIP3    H1 7979   0.641   4.427   2.277
 2674TIP3    H2 7980   0.742   4.336   2.210
 2675TIP3   OH2 7981   6.721   4.343   5.304
 2675TIP3    H1 7982   6.667   4.414   5.337
 2675TIP3    H2 7983   6.679   4.263   5.336
 2676TIP3   OH2 7984   4.952   4.847   5.831
 2676TIP3    H1 7985   4.858   4.831   5.840
 2676TIP3    H2 7986   4.986   4.770   5.786
 2677TIP3   OH2 7987   7.306   0.935   4.002
 2677TIP3    H1 7988   7.211   0.928   3.990
 2677TIP3    H2 7989   7.330   1.014   3.954
 2678TIP3   OH2 7990   6.492   6.728   1.803
 2678TIP3    H1 7991   6.426   6.796   1.802
 2678TIP3    H2 7992   6.527   6.728   1.892
 2679TIP3   OH2 7993   6.581   4.300   1.765
 2679TIP3    H1 7994   6.501   4.270   1.808
 2679TIP3    H2 7995   6.627   4.220   1.741
 2680TIP3   OH2 7996   7.732   4.304   1.659
 2680TIP3    H1 7997   7.827   4.302   1.646
 2680TIP3    H2 7998   7.721   4.320   1.753
 2681TIP3   OH2 7999   3.657   5.111   2.188
 2681TIP3    H1 8000   3.675   5.130   2.280
 2681TIP3    H2 8001   3.659   5.016   2.183
 2682TIP3   OH2 8002   1.690   6.109   3.995
 2682TIP3    H1 8003   1.660   6.135   3.908
 2682TIP3    H2 8004   1.735   6.026   3.981
 2683TIP3   OH2 8005   4.492   7.692   4.151
 2683TIP3    H1 8006   4.397   7.689   4.136
 2683TIP3    H2 8007   4.511   7.614   4.203
 2684TIP3   OH2 8008   6.179   1.122   5.274
 2684TIP3    H1 8009   6.087   1.117   5.302
 2684TIP3    H2 8010   6.225   1.061   5.332
 2685TIP3   OH2 8011   3.154   2.623   3.651
 2685TIP3    H1 8012   3.075   2.569   3.640
 2685TIP3    H2 8013   3.183   2.604   3.740
 2686TIP3   OH2 8014   3.251   5.612   3.622
 2686TIP3    H1 8015   3.176   5.637   3.677
 2686TIP3    H2 8016   3.260   5.684   3.560
 2687TIP3   OH2 8017   2.263   3.345   2.923
 2687TIP3    H1 8018   2.191   3.322   2.864
 2687TIP3    H2 8019   2.303   3.261   2.946
 2688TIP3   OH2 8020   8.157   2.529   3.436
 2688TIP3    H1 8021   8.191   2.440   3.439
 2688TIP3    H2 8022   8.176   2.564   3.523
 2689TIP3   OH2 8023   5.170   6.816   0.794
 2689TIP3    H1 8024   5.223   6.745   0.832
 2689TIP3    H2 8025   5.227   6.893   0.800
 2690TIP3   OH2 8026   5.355   4.264   0.719
 2690TIP3    H1 8027   5.297   4.331   0.683
 2690TIP3    H2 8028   5.443   4.295   0.697
 2691TIP3   OH2 8029   1.183   5.824   4.329
 2691TIP3    H1 8030   1.128   5.775   4.389
 2691TIP3    H2 8031   1.267   5.832   4.375
 2692TIP3   OH2 8032   6.252   5.996   2.124
 2692TIP3    H1 8033   6.279   5.904   2.127
 2692TIP3    H2 8034   6.209   6.007   2.040
 2693TIP3   OH2 8035   5.440   5.194   6.518
 2693TIP3    H1 8036   5.480   5.191   6.431
 2693TIP3    H2 8037   5.357   5.241   6.505
 2694TIP3   OH2 8038   6.764   1.401   4.709
 2694TIP3    H1 8039   6.759   1.446   4.625
 2694TIP3    H2 8040   6.762   1.471   4.774
 2695TIP3   OH2 8041   3.180   7.661   3.644
 2695TIP3    H1 8042   3.207   7.576   3.679
 2695TIP3    H2 8043   3.162   7.644   3.551
 2696TIP3   OH2 8044   2.729   5.540   3.433
 2696TIP3    H1 8045   2.819   5.562   3.408
 2696TIP3    H2 8046   2.677   5.615   3.404
 2697TIP3   OH2 8047   6.444   5.163   6.710
 2697TIP3    H1 8048   6.404   5.198   6.790
 2697TIP3    H2 8049   6.408   5.217   6.640
 2698TIP3   OH2 8050   2.854   3.705   2.498
 2698TIP3    H1 8051   2.808   3.621   2.495
 2698TIP3    H2 8052   2.837   3.738   2.586
 2699TIP3   OH2 8053   2.948   1.457   5.031
 2699TIP3    H1 8054   2.938   1.538   4.981
 2699TIP3    H2 8055   2.897   1.392   4.983
 2700TIP3   OH2 8056   6.792   5.580   6.381
 2700TIP3    H1 8057   6.841   5.629   6.314
 2700TIP3    H2 8058   6.843   5.500   6.395
 2701TIP3   OH2 8059   3.592   6.197   0.662
 2701TIP3    H1 8060   3.519   6.182   0.723
 2701TIP3    H2 8061   3.553   6.246   0.590
 2702TIP3   OH2 8062   7.268   7.259   2.774
 2702TIP3    H1 8063   7.319   7.204   2.834
 2702TIP3    H2 8064   7.178   7.232   2.788
 2703TIP3   OH2 8065   4.593   1.467   1.455
 2703TIP3    H1 8066   4.655   1.444   1.386
 2703TIP3    H2 8067   4.547   1.385   1.474
 2704TIP3   OH2 8068   8.199   0.034   0.712
 2704TIP3    H1 8069   8.293   0.038   0.730
 2704TIP3    H2 8070   8.179   0.120   0.675
 2705TIP3   OH2 8071   6.834   2.986   1.903
 2705TIP3    H1 8072   6.812   3.005   1.812
 2705TIP3    H2 8073   6.918   3.029   1.917
 2706TIP3   OH2 8074   1.847   1.052   0.976
 2706TIP3    H1 8075   1.776   1.039   0.913
 2706TIP3    H2 8076   1.908   0.981   0.958
 2707TIP3   OH2 8077   0.437   3.810   0.650
 2707TIP3    H1 8078   0.445   3.847   0.738
 2707TIP3    H2 8079   0.515   3.841   0.604
 2708TIP3   OH2 8080   5.013   1.687   5.594
 2708TIP3    H1 8081   5.100   1.649   5.589
 2708TIP3    H2 8082   5.017   1.747   5.669
 2709TIP3   OH2 8083   4.414   3.457   1.627
 2709TIP3    H1 8084   4.452   3.526   1.681
 2709TIP3    H2 8085   4.484   3.431   1.568
 2710TIP3   OH2 8086   3.725   0.095   0.740
 2710TIP3    H1 8087   3.743   0.189   0.737
 2710TIP3    H2 8088   3.808   0.056   0.767
 2711TIP3   OH2 8089   2.050   5.921   4.405
 2711TIP3    H1 8090   2.052   5.904   4.499
 2711TIP3    H2 8091   1.959   5.945   4.386
 2712TIP3   OH2 8092   7.502   2.159   4.388
 2712TIP3    H1 8093   7.597   2.166   4.382
 2712TIP3    H2 8094   7.475   2.239   4.434
 2713TIP3   OH2 8095   3.674   6.211   1.093
 2713TIP3    H1 8096   3.704   6.227   1.182
 2713TIP3    H2 8097   3.642   6.120   1.095
 2714TIP3   OH2 8098   6.499   0.540   2.809
 2714TIP3    H1 8099   6.594   0.547   2.799
 2714TIP3    H2 8100   6.464   0.583   2.731
 2715TIP3   OH2 8101   5.644   5.258   3.403
 2715TIP3    H1 8102   5.652   5.275   3.497
 2715TIP3    H2 8103   5.726   5.291   3.366
 2716TIP3   OH2 8104   8.184   0.807   6.252
 2716TIP3    H1 8105   8.120   0.813   6.323
 2716TIP3    H2 8106   8.155   0.732   6.200
 2717TIP3   OH2 8107   1.230   0.960   0.637
 2717TIP3    H1 8108   1.313   0.995   0.667
 2717TIP3    H2 8109   1.245   0.936   0.546
 2718TIP3   OH2 8110   3.227   0.178   6.050
 2718TIP3    H1 8111   3.238   0.215   5.963
 2718TIP3    H2 8112   3.313   0.186   6.091
 2719TIP3   OH2 8113   0.742   1.218   2.706
 2719TIP3    H1 8114   0.784   1.150   2.757
 2719TIP3    H2 8115   0.791   1.298   2.726
 2720TIP3   OH2 8116   0.722   3.011   4.952
 2720TIP3    H1 8117   0.627   3.013   4.960
 2720TIP3    H2 8118   0.752   3.086   5.002
 2721TIP3   OH2 8119   6.523   1.190   0.195
 2721TIP3    H1 8120   6.457   1.213   0.130
 2721TIP3    H2 8121   6.514   1.095   0.206
 2722TIP3   OH2 8122   4.499   3.017   2.656
 2722TIP3    H1 8123   4.447   3.084   2.612
 2722TIP3    H2 8124   4.573   3.065   2.694
 2723TIP3   OH2 8125   7.109   6.656   0.561
 2723TIP3    H1 8126   7.018   6.625   0.564
 2723TIP3    H2 8127   7.159   6.585   0.602
 2724TIP3   OH2 8128   2.032   5.073   5.184
 2724TIP3    H1 8129   1.975   5.003   5.217
 2724TIP3    H2 8130   2.107   5.073   5.243
 2725TIP3   OH2 8131   5.482   0.844   5.811
 2725TIP3    H1 8132   5.474   0.896   5.731
 2725TIP3    H2 8133   5.393   0.841   5.847
 2726TIP3   OH2 8134   1.462   4.206   3.217
 2726TIP3    H1 8135   1.416   4.231   3.137
 2726TIP3    H2 8136   1.442   4.275   3.279
 2727TIP3   OH2 8137   7.214   6.167   4.339
 2727TIP3    H1 8138   7.161   6.166   4.419
 2727TIP3    H2 8139   7.177   6.238   4.287
 2728TIP3   OH2 8140   4.726   6.612   1.506
 2728TIP3    H1 8141   4.707   6.672   1.433
 2728TIP3    H2 8142   4.766   6.535   1.464
 2729TIP3   OH2 8143   7.806   4.154   2.886
 2729TIP3    H1 8144   7.871   4.110   2.831
 2729TIP3    H2 8145   7.729   4.097   2.881
 2730TIP3   OH2 8146   2.403   1.657   6.263
 2730TIP3    H1 8147   2.467   1.609   6.211
 2730TIP3    H2 8148   2.350   1.704   6.199
 2731TIP3   OH2 8149   1.868   7.162   4.010
 2731TIP3    H1 8150   1.956   7.126   4.001
 2731TIP3    H2 8151   1.880   7.245   4.056
 2732TIP3   OH2 8152   7.272   3.722   5.432
 2732TIP3    H1 8153   7.193   3.702   5.383
 2732TIP3    H2 8154   7.246   3.716   5.524
 2733TIP3   OH2 8155   8.267   1.557   2.660
 2733TIP3    H1 8156   8.261   1.649   2.688
 2733TIP3    H2 8157   8.358   1.546   2.635
 2734TIP3   OH2 8158   1.783   5.508   5.722
 2734TIP3    H1 8159   1.783   5.563   5.800
 2734TIP3    H2 8160   1.874   5.507   5.693
 2735TIP3   OH2 8161   7.995   7.464   4.283
 2735TIP3    H1 8162   8.082   7.498   4.262
 2735TIP3    H2 8163   7.937   7.540   4.280
 2736TIP3   OH2 8164   3.044   3.632   4.616
 2736TIP3    H1 8165   2.960   3.638   4.571
 2736TIP3    H2 8166   3.072   3.723   4.627
 2737TIP3   OH2 8167   4.402   4.383   6.732
 2737TIP3    H1 8168   4.417   4.317   6.801
 2737TIP3    H2 8169   4.411   4.334   6.650
 2738TIP3   OH2 8170   7.672   6.811   0.637
 2738TIP3    H1 8171   7.730   6.879   0.672
 2738TIP3    H2 8172   7.727   6.733   0.634
 2739TIP3   OH2 8173   7.913   7.345   3.523
 2739TIP3    H1 8174   7.838   7.286   3.530
 2739TIP3    H2 8175   7.877   7.432   3.541
 2740TIP3   OH2 8176   1.167   5.672   5.230
 2740TIP3    H1 8177   1.263   5.668   5.220
 2740TIP3    H2 8178   1.154   5.694   5.322
 2741TIP3   OH2 8179   2.656   1.213   5.150
 2741TIP3    H1 8180   2.571   1.257   5.156
 2741TIP3    H2 8181   2.658   1.154   5.225
 2742TIP3   OH2 8182   5.004   4.706   3.743
 2742TIP3    H1 8183   5.044   4.773   3.798
 2742TIP3    H2 8184   5.054   4.708   3.661
 2743TIP3   OH2 8185   2.105   1.486   4.804
 2743TIP3    H1 8186   2.169   1.425   4.767
 2743TIP3    H2 8187   2.020   1.448   4.780
 2744TIP3   OH2 8188   5.359   2.439   4.771
 2744TIP3    H1 8189   5.397   2.411   4.854
 2744TIP3    H2 8190   5.290   2.500   4.795
 2745TIP3   OH2 8191   4.768   2.294   2.507
 2745TIP3    H1 8192   4.858   2.266   2.492
 2745TIP3    H2 8193   4.738   2.241   2.581
 2746TIP3   OH2 8194   6.078   5.331   6.214
 2746TIP3    H1 8195   6.136   5.256   6.206
 2746TIP3    H2 8196   6.136   5.407   6.217
 2747TIP3   OH2 8197   0.682   5.963   0.810
 2747TIP3    H1 8198   0.731   5.915   0.743
 2747TIP3    H2 8199   0.597   5.919   0.813
 2748TIP3   OH2 8200   0.098   1.023   5.932
 2748TIP3    H1 8201   0.150   1.013   6.012
 2748TIP3    H2 8202   0.139   0.964   5.869
 2749TIP3   OH2 8203   2.212   0.602   4.922
 2749TIP3    H1 8204   2.211   0.543   4.847
 2749TIP3    H2 8205   2.291   0.656   4.909
 2750TIP3   OH2 8206   6.095   0.152   4.500
 2750TIP3    H1 8207   6.020   0.212   4.507
 2750TIP3    H2 8208   6.158   0.185   4.564
 2751TIP3   OH2 8209   3.764   3.362   2.213
 2751TIP3    H1 8210   3.795   3.389   2.127
 2751TIP3    H2 8211   3.669   3.375   2.210
 2752TIP3   OH2 8212   0.539   7.125   1.970
 2752TIP3    H1 8213   0.497   7.208   1.946
 2752TIP3    H2 8214   0.607   7.151   2.032
 2753TIP3   OH2 8215   0.410   5.152   5.197
 2753TIP3    H1 8216   0.393   5.066   5.237
 2753TIP3    H2 8217   0.461   5.132   5.118
 2754TIP3   OH2 8218   0.691   4.859   0.230
 2754TIP3    H1 8219   0.686   4.926   0.299
 2754TIP3    H2 8220   0.758   4.891   0.170
 2755TIP3   OH2 8221   6.557   5.850   3.414
 2755TIP3    H1 8222   6.603   5.812   3.339
 2755TIP3    H2 8223   6.528   5.936   3.383
 2756TIP3   OH2 8224   6.933   4.608   2.253
 2756TIP3    H1 8225   6.994   4.669   2.294
 2756TIP3    H2 8226   6.847   4.646   2.268
 2757TIP3   OH2 8227   3.929   3.930   2.293
 2757TIP3    H1 8228   3.883   4.014   2.281
 2757TIP3    H2 8229   3.900   3.876   2.220
 2758TIP3   OH2 8230   6.745   5.505   1.000
 2758TIP3    H1 8231   6.815   5.443   1.017
 2758TIP3    H2 8232   6.730   5.500   0.906
 2759TIP3   OH2 8233   2.292   0.597   0.633
 2759TIP3    H1 8234   2.311   0.670   0.692
 2759TIP3    H2 8235   2.371   0.590   0.579
 2760TIP3   OH2 8236   2.895   1.123   5.896
 2760TIP3    H1 8237   2.933   1.187   5.836
 2760TIP3    H2 8238   2.886   1.169   5.979
 2761TIP3   OH2 8239   4.433   1.434   5.391
 2761TIP3    H1 8240   4.497   1.374   5.429
 2761TIP3    H2 8241   4.477   1.472   5.315
 2762TIP3   OH2 8242   8.077   4.021   2.072
 2762TIP3    H1 8243   8.050   4.019   1.981
 2762TIP3    H2 8244   8.071   4.113   2.097
 2763TIP3   OH2 8245   2.549   6.277   2.046
 2763TIP3    H1 8246   2.636   6.282   2.008
 2763TIP3    H2 8247   2.490   6.298   1.974
 2764TIP3   OH2 8248   0.546   5.557   5.990
 2764TIP3    H1 8249   0.496   5.520   6.062
 2764TIP3    H2 8250   0.537   5.493   5.919
 2765TIP3   OH2 8251   6.250   0.679   0.494
 2765TIP3    H1 8252   6.343   0.664   0.480
 2765TIP3    H2 8253   6.211   0.669   0.407
 2766TIP3   OH2 8254   0.900   1.571   3.925
 2766TIP3    H1 8255   0.901   1.501   3.991
 2766TIP3    H2 8256   0.967   1.633   3.954
 2767TIP3   OH2 8257   4.980   0.331   0.761
 2767TIP3    H1 8258   4.965   0.251   0.810
 2767TIP3    H2 8259   5.074   0.332   0.745
 2768TIP3   OH2 8260   3.316   5.582   3.967
 2768TIP3    H1 8261   3.233   5.543   3.942
 2768TIP3    H2 8262   3.353   5.616   3.885
 2769TIP3   OH2 8263   5.089   6.619   5.215
 2769TIP3    H1 8264   5.001   6.653   5.199
 2769TIP3    H2 8265   5.076   6.541   5.268
 2770TIP3   OH2 8266   6.467   7.347   5.376
 2770TIP3    H1 8267   6.421   7.409   5.319
 2770TIP3    H2 8268   6.519   7.403   5.434
 2771TIP3   OH2 8269   2.145   4.208   1.923
 2771TIP3    H1 8270   2.235   4.214   1.893
 2771TIP3    H2 8271   2.092   4.222   1.844
 2772TIP3   OH2 8272   3.297   7.387   0.833
 2772TIP3    H1 8273   3.216   7.365   0.787
 2772TIP3    H2 8274   3.325   7.470   0.796
 2773TIP3   OH2 8275   6.998   0.710   4.164
 2773TIP3    H1 8276   6.920   0.674   4.204
 2773TIP3    H2 8277   7.066   0.702   4.230
 2774TIP3   OH2 8278   7.297   6.052   0.544
 2774TIP3    H1 8279   7.275   6.139   0.512
 2774TIP3    H2 8280   7.230   5.994   0.506
 2775TIP3   OH2 8281   4.570   3.252   3.117
 2775TIP3    H1 8282   4.559   3.319   3.184
 2775TIP3    H2 8283   4.485   3.247   3.074
 2776TIP3   OH2 8284   3.259   2.188   1.129
 2776TIP3    H1 8285   3.285   2.106   1.087
 2776TIP3    H2 8286   3.341   2.227   1.159
 2777TIP3   OH2 8287   5.473   7.287   3.026
 2777TIP3    H1 8288   5.419   7.209   3.014
 2777TIP3    H2 8289   5.561   7.252   3.040
 2778TIP3   OH2 8290   3.906   0.074   5.034
 2778TIP3    H1 8291   3.826   0.085   5.085
 2778TIP3    H2 8292   3.875   0.056   4.945
 2779TIP3   OH2 8293   2.623   5.333   5.045
 2779TIP3    H1 8294   2.627   5.367   5.134
 2779TIP3    H2 8295   2.575   5.400   4.996
 2780TIP3   OH2 8296   1.809   1.004   0.002
 2780TIP3    H1 8297   1.859   0.923  -0.005
 2780TIP3    H2 8298   1.868   1.066   0.045
 2781TIP3   OH2 8299   8.196   6.711   5.111
 2781TIP3    H1 8300   8.266   6.775   5.112
 2781TIP3    H2 8301   8.222   6.646   5.176
 2782TIP3   OH2 8302   5.895   3.342   2.884
 2782TIP3    H1 8303   5.857   3.384   2.807
 2782TIP3    H2 8304   5.935   3.262   2.851
 2783TIP3   OH2 8305   5.816   6.271   4.424
 2783TIP3    H1 8306   5.813   6.177   4.440
 2783TIP3    H2 8307   5.740   6.289   4.368
 2784TIP3   OH2 8308   7.755   0.218   3.944
 2784TIP3    H1 8309   7.691   0.168   3.893
 2784TIP3    H2 8310   7.702   0.273   4.002
 2785TIP3   OH2 8311   0.577   1.406   2.578
 2785TIP3    H1 8312   0.526   1.436   2.653
 2785TIP3    H2 8313   0.637   1.340   2.614
 2786TIP3   OH2 8314   1.973   7.597   3.365
 2786TIP3    H1 8315   1.966   7.628   3.456
 2786TIP3    H2 8316   1.978   7.501   3.374
 2787TIP3   OH2 8317   0.189   7.787   2.027
 2787TIP3    H1 8318   0.102   7.765   2.060
 2787TIP3    H2 8319   0.246   7.784   2.103
 2788TIP3   OH2 8320   5.946   7.197   6.707
 2788TIP3    H1 8321   5.871   7.157   6.665
 2788TIP3    H2 8322   5.913   7.227   6.792
 2789TIP3   OH2 8323   6.943   7.309   5.805
 2789TIP3    H1 8324   6.994   7.229   5.800
 2789TIP3    H2 8325   6.868   7.287   5.861
 2790TIP3   OH2 8326   6.126   5.523   2.772
 2790TIP3    H1 8327   6.152   5.461   2.704
 2790TIP3    H2 8328   6.193   5.592   2.768
 2791TIP3   OH2 8329   1.749   5.833   2.615
 2791TIP3    H1 8330   1.799   5.851   2.695
 2791TIP3    H2 8331   1.659   5.854   2.638
 2792TIP3   OH2 8332   1.665   0.446   2.012
 2792TIP3    H1 8333   1.649   0.515   2.076
 2792TIP3    H2 8334   1.628   0.367   2.051
 2793TIP3   OH2 8335   5.100   2.754   2.237
 2793TIP3    H1 8336   5.086   2.842   2.201
 2793TIP3    H2 8337   5.076   2.695   2.166
 2794TIP3   OH2 8338   6.976   6.262   2.540
 2794TIP3    H1 8339   7.030   6.225   2.470
 2794TIP3    H2 8340   6.893   6.283   2.498
 2795TIP3   OH2 8341   4.421   7.594   3.539
 2795TIP3    H1 8342   4.393   7.556   3.456
 2795TIP3    H2 8343   4.446   7.518   3.592
 2796TIP3   OH2 8344   7.710   4.794   6.516
 2796TIP3    H1 8345   7.734   4.724   6.454
 2796TIP3    H2 8346   7.621   4.771   6.544
 2797TIP3   OH2 8347   0.420   3.308   4.573
 2797TIP3    H1 8348   0.389   3.393   4.603
 2797TIP3    H2 8349   0.502   3.328   4.526
 2798TIP3   OH2 8350   6.074   4.454   6.133
 2798TIP3    H1 8351   6.145   4.439   6.195
 2798TIP3    H2 8352   6.000   4.483   6.188
 2799TIP3   OH2 8353   5.992   7.224   0.552
 2799TIP3    H1 8354   6.022   7.138   0.522
 2799TIP3    H2 8355   5.984   7.276   0.473
 2800TIP3   OH2 8356   0.962   3.197   6.134
 2800TIP3    H1 8357   0.919   3.131   6.189
 2800TIP3    H2 8358   0.957   3.161   6.046
 2801TIP3   OH2 8359   2.953   0.905   0.668
 2801TIP3    H1 8360   2.978   0.993   0.639
 2801TIP3    H2 8361   2.888   0.877   0.604
 2802TIP3   OH2 8362   4.470   6.069   4.506
 2802TIP3    H1 8363   4.531   6.139   4.483
 2802TIP3    H2 8364   4.401   6.074   4.439
 2803TIP3   OH2 8365   0.689   4.335   5.508
 2803TIP3    H1 8366   0.765   4.293   5.549
 2803TIP3    H2 8367   0.724   4.417   5.472
 2804TIP3   OH2 8368   0.542   5.337   1.451
 2804TIP3    H1 8369   0.533   5.369   1.361
 2804TIP3    H2 8370   0.464   5.369   1.495
 2805TIP3   OH2 8371   0.553   3.344   2.149
 2805TIP3    H1 8372   0.495   3.268   2.157
 2805TIP3    H2 8373   0.636   3.313   2.187
 2806TIP3   OH2 8374   6.725   0.079   5.570
 2806TIP3    H1 8375   6.660   0.024   5.613
 2806TIP3    H2 8376   6.698   0.168   5.590
 2807TIP3   OH2 8377   1.943   5.255   0.522
 2807TIP3    H1 8378   2.025   5.304   0.526
 2807TIP3    H2 8379   1.964   5.178   0.468
 2808TIP3   OH2 8380   7.210   2.292   0.012
 2808TIP3    H1 8381   7.268   2.283   0.087
 2808TIP3    H2 8382   7.194   2.202  -0.017
 2809TIP3   OH2 8383   4.395   0.223   3.106
 2809TIP3    H1 8384   4.320   0.210   3.048
 2809TIP3    H2 8385   4.456   0.277   3.056
 2810TIP3   OH2 8386   5.323   4.767   5.418
 2810TIP3    H1 8387   5.232   4.777   5.447
 2810TIP3    H2 8388   5.332   4.674   5.397
 2811TIP3   OH2 8389   1.577   2.523   5.219
 2811TIP3    H1 8390   1.523   2.597   5.191
 2811TIP3    H2 8391   1.655   2.563   5.256
 2812TIP3   OH2 8392   1.339   5.632   3.238
 2812TIP3    H1 8393   1.250   5.617   3.208
 2812TIP3    H2 8394   1.360   5.554   3.290
 2813TIP3   OH2 8395   8.163   5.268   5.003
 2813TIP3    H1 8396   8.257   5.290   5.002
 2813TIP3    H2 8397   8.160   5.176   5.030
 2814TIP3   OH2 8398   7.470   4.195   4.342
 2814TIP3    H1 8399   7.463   4.283   4.380
 2814TIP3    H2 8400   7.562   4.172   4.354
 2815TIP3   OH2 8401   3.603   1.037   2.878
 2815TIP3    H1 8402   3.689   1.065   2.909
 2815TIP3    H2 8403   3.582   1.098   2.807
 2816TIP3   OH2 8404   4.590   4.711   5.272
 2816TIP3    H1 8405   4.520   4.769   5.302
 2816TIP3    H2 8406   4.670   4.749   5.309
 2817TIP3   OH2 8407   5.166   7.105   3.940
 2817TIP3    H1 8408   5.129   7.062   4.017
 2817TIP3    H2 8409   5.191   7.033   3.882
 2818TIP3   OH2 8410   4.388   4.867   5.331
 2818TIP3    H1 8411   4.407   4.954   5.296
 2818TIP3    H2 8412   4.311   4.880   5.386
 2819TIP3   OH2 8413   6.908   1.883   1.276
 2819TIP3    H1 8414   6.856   1.827   1.334
 2819TIP3    H2 8415   6.980   1.914   1.332
 2820TIP3   OH2 8416   4.164   4.899   5.479
 2820TIP3    H1 8417   4.194   4.949   5.555
 2820TIP3    H2 8418   4.070   4.917   5.473
 2821TIP3   OH2 8419   0.061   2.515   2.028
 2821TIP3    H1 8420   0.089   2.424   2.016
 2821TIP3    H2 8421   0.018   2.516   2.113
 2822TIP3   OH2 8422   6.524   4.185   5.739
 2822TIP3    H1 8423   6.551   4.231   5.818
 2822TIP3    H2 8424   6.554   4.095   5.753
 2823TIP3   OH2 8425   7.348   4.882   4.709
 2823TIP3    H1 8426   7.382   4.971   4.707
 2823TIP3    H2 8427   7.371   4.849   4.796
 2824TIP3   OH2 8428   7.567   4.130   0.414
 2824TIP3    H1 8429   7.483   4.123   0.461
 2824TIP3    H2 8430   7.553   4.082   0.332
 2825TIP3   OH2 8431   2.895   1.355   1.668
 2825TIP3    H1 8432   2.979   1.324   1.633
 2825TIP3    H2 8433   2.836   1.353   1.593
 2826TIP3   OH2 8434   8.116   7.389   1.176
 2826TIP3    H1 8435   8.032   7.364   1.137
 2826TIP3    H2 8436   8.158   7.444   1.110
 2827TIP3   OH2 8437   6.169   2.183   2.869
 2827TIP3    H1 8438   6.081   2.183   2.907
 2827TIP3    H2 8439   6.163   2.125   2.793
 2828TIP3   OH2 8440   4.330   0.304   1.315
 2828TIP3    H1 8441   4.305   0.312   1.407
 2828TIP3    H2 8442   4.253   0.333   1.267
 2829TIP3   OH2 8443   7.898   6.048   1.262
 2829TIP3    H1 8444   7.951   5.974   1.294
 2829TIP3    H2 8445   7.888   6.105   1.338
 2830TIP3   OH2 8446   2.609   2.704   1.182
 2830TIP3    H1 8447   2.626   2.747   1.098
 2830TIP3    H2 8448   2.601   2.776   1.245
 2831TIP3   OH2 8449   1.181   1.997   1.951
 2831TIP3    H1 8450   1.094   1.968   1.924
 2831TIP3    H2 8451   1.218   2.038   1.872
 2832TIP3   OH2 8452   1.641   2.122   4.661
 2832TIP3    H1 8453   1.583   2.194   4.684
 2832TIP3    H2 8454   1.707   2.121   4.731
 2833TIP3   OH2 8455   3.439   3.028   0.627
 2833TIP3    H1 8456   3.354   3.014   0.669
 2833TIP3    H2 8457   3.488   3.083   0.687
 2834TIP3   OH2 8458   2.735   0.165   3.188
 2834TIP3    H1 8459   2.701   0.254   3.202
 2834TIP3    H2 8460   2.721   0.121   3.272
 2835TIP3   OH2 8461   5.905   1.837   2.318
 2835TIP3    H1 8462   5.998   1.858   2.329
 2835TIP3    H2 8463   5.902   1.770   2.251
 2836TIP3   OH2 8464   7.359   4.741   2.102
 2836TIP3    H1 8465   7.313   4.808   2.152
 2836TIP3    H2 8466   7.429   4.789   2.057
 2837TIP3   OH2 8467   4.793   1.640   4.901
 2837TIP3    H1 8468   4.764   1.716   4.850
 2837TIP3    H2 8469   4.866   1.604   4.851
 2838TIP3   OH2 8470   7.617   2.551   5.515
 2838TIP3    H1 8471   7.560   2.475   5.509
 2838TIP3    H2 8472   7.679   2.541   5.443
 2839TIP3   OH2 8473   0.050   7.345   0.447
 2839TIP3    H1 8474   0.133   7.300   0.432
 2839TIP3    H2 8475   0.046   7.412   0.378
 2840TIP3   OH2 8476   5.380   1.919   1.864
 2840TIP3    H1 8477   5.417   1.962   1.941
 2840TIP3    H2 8478   5.325   1.986   1.824
 2841TIP3   OH2 8479   2.426   7.108   3.011
 2841TIP3    H1 8480   2.359   7.114   3.079
 2841TIP3    H2 8481   2.409   7.182   2.953
 2842TIP3   OH2 8482   3.701   6.312   3.080
 2842TIP3    H1 8483   3.710   6.377   3.010
 2842TIP3    H2 8484   3.625   6.341   3.131
 2843TIP3   OH2 8485   0.799   7.228   4.478
 2843TIP3    H1 8486   0.882   7.272   4.462
 2843TIP3    H2 8487   0.736   7.270   4.419
 2844TIP3   OH2 8488   3.137   4.681   2.490
 2844TIP3    H1 8489   3.223   4.641   2.484
 2844TIP3    H2 8490   3.105   4.684   2.400
 2845TIP3   OH2 8491   7.631   2.273   1.698
 2845TIP3    H1 8492   7.549   2.313   1.671
 2845TIP3    H2 8493   7.695   2.301   1.632
 2846TIP3   OH2 8494   4.799   3.358   1.473
 2846TIP3    H1 8495   4.798   3.292   1.404
 2846TIP3    H2 8496   4.716   3.405   1.462
 2847TIP3   OH2 8497   0.120   7.716   0.196
 2847TIP3    H1 8498   0.067   7.641   0.169
 2847TIP3    H2 8499   0.192   7.717   0.133
 2848TIP3   OH2 8500   7.107   7.291   6.237
 2848TIP3    H1 8501   7.075   7.355   6.174
 2848TIP3    H2 8502   7.030   7.241   6.263
 2849TIP3   OH2 8503   2.448   5.347   3.607
 2849TIP3    H1 8504   2.523   5.367   3.664
 2849TIP3    H2 8505   2.380   5.409   3.635
 2850TIP3   OH2 8506   6.105   7.348   1.534
 2850TIP3    H1 8507   6.156   7.429   1.535
 2850TIP3    H2 8508   6.033   7.367   1.473
 2851TIP3   OH2 8509   5.897   4.047   3.689
 2851TIP3    H1 8510   5.962   4.100   3.733
 2851TIP3    H2 8511   5.946   3.999   3.622
 2852TIP3   OH2 8512   6.212   6.958   2.938
 2852TIP3    H1 8513   6.229   6.864   2.928
 2852TIP3    H2 8514   6.121   6.963   2.965
 2853TIP3   OH2 8515   1.662   3.263   3.704
 2853TIP3    H1 8516   1.607   3.255   3.626
 2853TIP3    H2 8517   1.750   3.239   3.675
 2854TIP3   OH2 8518   5.704   3.431   2.238
 2854TIP3    H1 8519   5.763   3.505   2.256
 2854TIP3    H2 8520   5.761   3.362   2.205
 2855TIP3   OH2 8521   4.917   0.715   1.135
 2855TIP3    H1 8522   4.983   0.746   1.073
 2855TIP3    H2 8523   4.882   0.636   1.094
 2856TIP3   OH2 8524   7.865   4.541   4.844
 2856TIP3    H1 8525   7.777   4.578   4.850
 2856TIP3    H2 8526   7.876   4.518   4.752
 2857TIP3   OH2 8527   3.475   3.442   0.119
 2857TIP3    H1 8528   3.425   3.360   0.116
 2857TIP3    H2 8529   3.566   3.415   0.105
 2858TIP3   OH2 8530   0.325   4.874   5.273
 2858TIP3    H1 8531   0.259   4.806   5.266
 2858TIP3    H2 8532   0.383   4.845   5.344
 2859TIP3   OH2 8533   4.481   6.442   2.524
 2859TIP3    H1 8534   4.401   6.411   2.483
 2859TIP3    H2 8535   4.496   6.381   2.597
 2860TIP3   OH2 8536   4.202   3.628   6.272
 2860TIP3    H1 8537   4.170   3.621   6.362
 2860TIP3    H2 8538   4.185   3.542   6.233
 2861TIP3   OH2 8539   2.271   6.527   1.975
 2861TIP3    H1 8540   2.279   6.618   1.946
 2861TIP3    H2 8541   2.304   6.528   2.065
 2862TIP3   OH2 8542   3.183   1.174   3.932
 2862TIP3    H1 8543   3.166   1.239   3.863
 2862TIP3    H2 8544   3.098   1.132   3.947
 2863TIP3   OH2 8545   1.125   1.172   1.780
 2863TIP3    H1 8546   1.036   1.208   1.781
 2863TIP3    H2 8547   1.163   1.204   1.698
 2864TIP3   OH2 8548   7.998   0.039   5.924
 2864TIP3    H1 8549   8.073   0.096   5.943
 2864TIP3    H2 8550   8.000  -0.027   5.993
 2865TIP3   OH2 8551   1.977   4.451   1.483
 2865TIP3    H1 8552   1.939   4.417   1.564
 2865TIP3    H2 8553   1.910   4.433   1.416
 2866TIP3   OH2 8554   0.697   3.269   6.339
 2866TIP3    H1 8555   0.632   3.327   6.379
 2866TIP3    H2 8556   0.644   3.202   6.295
 2867TIP3   OH2 8557   0.017   1.446   1.574
 2867TIP3    H1 8558   0.096   1.426   1.524
 2867TIP3    H2 8559   0.028   1.397   1.656
 2868TIP3   OH2 8560   7.318   6.413   6.170
 2868TIP3    H1 8561   7.286   6.469   6.099
 2868TIP3    H2 8562   7.307   6.324   6.137
 2869TIP3   OH2 8563   6.697   6.619   6.698
 2869TIP3    H1 8564   6.640   6.693   6.716
 2869TIP3    H2 8565   6.715   6.581   6.783
 2870TIP3   OH2 8566   4.102   6.616   0.383
 2870TIP3    H1 8567   4.170   6.683   0.388
 2870TIP3    H2 8568   4.135   6.553   0.319
 2871TIP3   OH2 8569   2.610   2.531   5.955
 2871TIP3    H1 8570   2.651   2.559   5.873
 2871TIP3    H2 8571   2.641   2.441   5.968
 2872TIP3   OH2 8572   3.909   2.896   3.925
 2872TIP3    H1 8573   3.985   2.932   3.969
 2872TIP3    H2 8574   3.921   2.801   3.930
 2873TIP3   OH2 8575   5.295   7.053   3.215
 2873TIP3    H1 8576   5.320   7.079   3.127
 2873TIP3    H2 8577   5.230   6.983   3.202
 2874TIP3   OH2 8578   4.047   4.665   1.575
 2874TIP3    H1 8579   4.122   4.649   1.633
 2874TIP3    H2 8580   4.085   4.669   1.488
 2875TIP3   OH2 8581   2.072   6.115   0.710
 2875TIP3    H1 8582   2.145   6.065   0.675
 2875TIP3    H2 8583   2.023   6.053   0.765
 2876TIP3   OH2 8584   7.767   6.264   6.029
 2876TIP3    H1 8585   7.695   6.321   6.004
 2876TIP3    H2 8586   7.726   6.195   6.081
 2877TIP3   OH2 8587   7.277   7.764   5.712
 2877TIP3    H1 8588   7.271   7.703   5.785
 2877TIP3    H2 8589   7.186   7.782   5.688
 2878TIP3   OH2 8590   2.800   6.186   5.102
 2878TIP3    H1 8591   2.808   6.213   5.193
 2878TIP3    H2 8592   2.827   6.263   5.051
 2879TIP3   OH2 8593   5.392   7.054   0.824
 2879TIP3    H1 8594   5.362   7.088   0.740
 2879TIP3    H2 8595   5.474   7.009   0.803
 2880TIP3   OH2 8596   3.484   4.148  -0.011
 2880TIP3    H1 8597   3.492   4.120   0.080
 2880TIP3    H2 8598   3.574   4.159  -0.041
 2881TIP3   OH2 8599   4.482   3.820   1.418
 2881TIP3    H1 8600   4.553   3.835   1.356
 2881TIP3    H2 8601   4.404   3.812   1.363
 2882TIP3   OH2 8602   3.701   1.954   2.164
 2882TIP3    H1 8603   3.641   1.881   2.177
 2882TIP3    H2 8604   3.657   2.011   2.100
 2883TIP3   OH2 8605   4.689   5.901   5.109
 2883TIP3    H1 8606   4.651   5.988   5.097
 2883TIP3    H2 8607   4.737   5.908   5.192
 2884TIP3   OH2 8608   4.586   0.087   5.192
 2884TIP3    H1 8609   4.499   0.047   5.194
 2884TIP3    H2 8610   4.641   0.026   5.241
 2885TIP3   OH2 8611   7.611   4.820   3.615
 2885TIP3    H1 8612   7.641   4.906   3.643
 2885TIP3    H2 8613   7.606   4.769   3.696
 2886TIP3   OH2 8614   3.324   4.318   0.997
 2886TIP3    H1 8615   3.267   4.242   0.982
 2886TIP3    H2 8616   3.360   4.303   1.085
 2887TIP3   OH2 8617   2.176   7.276   5.816
 2887TIP3    H1 8618   2.125   7.337   5.763
 2887TIP3    H2 8619   2.245   7.246   5.758
 2888TIP3   OH2 8620   1.478   2.389   6.113
 2888TIP3    H1 8621   1.499   2.433   6.196
 2888TIP3    H2 8622   1.557   2.397   6.061
 2889TIP3   OH2 8623   3.138   2.197   5.513
 2889TIP3    H1 8624   3.212   2.238   5.467
 2889TIP3    H2 8625   3.118   2.120   5.462
 2890TIP3   OH2 8626   7.031   5.555   0.740
 2890TIP3    H1 8627   6.962   5.576   0.677
 2890TIP3    H2 8628   7.032   5.629   0.800
 2891TIP3   OH2 8629   7.258   7.444   3.681
 2891TIP3    H1 8630   7.230   7.535   3.693
 2891TIP3    H2 8631   7.327   7.432   3.746
 2892TIP3   OH2 8632   6.381   2.390   6.572
 2892TIP3    H1 8633   6.452   2.403   6.510
 2892TIP3    H2 8634   6.354   2.299   6.559
 2893TIP3   OH2 8635   5.143   4.237   4.305
 2893TIP3    H1 8636   5.093   4.233   4.386
 2893TIP3    H2 8637   5.213   4.172   4.317
 2894TIP3   OH2 8638   8.271   1.247   6.622
 2894TIP3    H1 8639   8.181   1.215   6.615
 2894TIP3    H2 8640   8.324   1.168   6.630
 2895TIP3   OH2 8641   1.306   5.767   3.747
 2895TIP3    H1 8642   1.270   5.729   3.828
 2895TIP3    H2 8643   1.263   5.719   3.677
 2896TIP3   OH2 8644   2.193   7.320   2.231
 2896TIP3    H1 8645   2.217   7.267   2.307
 2896TIP3    H2 8646   2.188   7.258   2.159
 2897TIP3   OH2 8647   0.217   5.178   2.674
 2897TIP3    H1 8648   0.285   5.111   2.669
 2897TIP3    H2 8649   0.143   5.133   2.716
 2898TIP3   OH2 8650   6.840   7.119   3.582
 2898TIP3    H1 8651   6.920   7.082   3.544
 2898TIP3    H2 8652   6.866   7.204   3.616
 2899TIP3   OH2 8653   1.057   5.414   3.451
 2899TIP3    H1 8654   0.987   5.448   3.395
 2899TIP3    H2 8655   1.036   5.322   3.463
 2900TIP3   OH2 8656   0.240   1.542   5.594
 2900TIP3    H1 8657   0.154   1.545   5.635
 2900TIP3    H2 8658   0.295   1.493   5.656
 2901TIP3   OH2 8659   2.951   3.982   5.987
 2901TIP3    H1 8660   2.887   4.053   5.989
 2901TIP3    H2 8661   2.944   3.940   6.072
 2902TIP3   OH2 8662   3.937   2.716   2.207
 2902TIP3    H1 8663   3.948   2.688   2.298
 2902TIP3    H2 8664   3.981   2.649   2.155
 2903TIP3   OH2 8665   5.688   0.615   0.491
 2903TIP3    H1 8666   5.759   0.679   0.484
 2903TIP3    H2 8667   5.609   0.664   0.469
 2904TIP3   OH2 8668   4.438   7.103   6.519
 2904TIP3    H1 8669   4.418   7.186   6.476
 2904TIP3    H2 8670   4.356   7.053   6.512
 2905TIP3   OH2 8671   1.262   0.247   0.758
 2905TIP3    H1 8672   1.248   0.253   0.664
 2905TIP3    H2 8673   1.354   0.224   0.767
 2906TIP3   OH2 8674   5.423   0.837   2.730
 2906TIP3    H1 8675   5.467   0.902   2.785
 2906TIP3    H2 8676   5.376   0.780   2.791
 2907TIP3   OH2 8677   2.377   2.831   6.543
 2907TIP3    H1 8678   2.340   2.858   6.458
 2907TIP3    H2 8679   2.447   2.770   6.520
 2908TIP3   OH2 8680   4.660   1.049   5.307
 2908TIP3    H1 8681   4.700   1.136   5.304
 2908TIP3    H2 8682   4.716   0.995   5.252
 2909TIP3   OH2 8683   7.482   2.487   2.427
 2909TIP3    H1 8684   7.538   2.487   2.350
 2909TIP3    H2 8685   7.494   2.575   2.465
 2910TIP3   OH2 8686   0.573   5.852   3.652
 2910TIP3    H1 8687   0.605   5.941   3.638
 2910TIP3    H2 8688   0.564   5.845   3.747
 2911TIP3   OH2 8689   0.223   6.902   1.776
 2911TIP3    H1 8690   0.148   6.855   1.738
 2911TIP3    H2 8691   0.288   6.834   1.791
 2912TIP3   OH2 8692   8.142   3.713   6.609
 2912TIP3    H1 8693   8.164   3.741   6.698
 2912TIP3    H2 8694   8.167   3.621   6.606
 2913TIP3   OH2 8695   6.964   4.560   0.703
 2913TIP3    H1 8696   6.882   4.606   0.723
 2913TIP3    H2 8697   6.967   4.558   0.607
 2914TIP3   OH2 8698   3.601   5.761   3.585
 2914TIP3    H1 8699   3.572   5.760   3.676
 2914TIP3    H2 8700   3.534   5.711   3.538
 2915TIP3   OH2 8701   6.101   5.412   5.376
 2915TIP3    H1 8702   6.008   5.393   5.360
 2915TIP3    H2 8703   6.120   5.487   5.320
 2916TIP3   OH2 8704   7.560   5.093   2.834
 2916TIP3    H1 8705   7.641   5.142   2.844
 2916TIP3    H2 8706   7.588   5.007   2.803
 2917TIP3   OH2 8707   7.216   6.843   4.751
 2917TIP3    H1 8708   7.173   6.803   4.827
 2917TIP3    H2 8709   7.208   6.777   4.682
 2918TIP3   OH2 8710   6.940   5.883   3.000
 2918TIP3    H1 8711   6.965   5.835   3.079
 2918TIP3    H2 8712   7.020   5.884   2.947
 2919TIP3   OH2 8713   6.241   3.707   3.892
 2919TIP3    H1 8714   6.252   3.712   3.987
 2919TIP3    H2 8715   6.162   3.655   3.880
 2920TIP3   OH2 8716   7.362   1.427   3.900
 2920TIP3    H1 8717   7.277   1.450   3.938
 2920TIP3    H2 8718   7.418   1.409   3.976
 2921TIP3   OH2 8719   7.519   2.547   3.265
 2921TIP3    H1 8720   7.514   2.586   3.178
 2921TIP3    H2 8721   7.496   2.455   3.252
 2922TIP3   OH2 8722   5.266   4.096   3.008
 2922TIP3    H1 8723   5.285   4.007   2.980
 2922TIP3    H2 8724   5.193   4.087   3.069
 2923TIP3   OH2 8725   4.900   2.848   1.597
 2923TIP3    H1 8726   4.881   2.937   1.567
 2923TIP3    H2 8727   4.815   2.804   1.598
 2924TIP3   OH2 8728   0.169   2.475   4.264
 2924TIP3    H1 8729   0.239   2.529   4.300
 2924TIP3    H2 8730   0.215   2.407   4.215
 2925TIP3   OH2 8731   3.326   0.101   2.670
 2925TIP3    H1 8732   3.239   0.123   2.635
 2925TIP3    H2 8733   3.359   0.183   2.706
 2926TIP3   OH2 8734   3.789   1.704   2.891
 2926TIP3    H1 8735   3.704   1.684   2.851
 2926TIP3    H2 8736   3.771   1.776   2.951
 2927TIP3   OH2 8737   2.836   0.167   2.245
 2927TIP3    H1 8738   2.834   0.161   2.340
 2927TIP3    H2 8739   2.767   0.229   2.222
 2928TIP3   OH2 8740   3.836   2.411   3.874
 2928TIP3    H1 8741   3.808   2.379   3.960
 2928TIP3    H2 8742   3.755   2.415   3.823
 2929TIP3   OH2 8743   2.299   6.301   4.272
 2929TIP3    H1 8744   2.258   6.315   4.187
 2929TIP3    H2 8745   2.270   6.376   4.325
 2930TIP3   OH2 8746   7.786   6.619   6.613
 2930TIP3    H1 8747   7.723   6.623   6.541
 2930TIP3    H2 8748   7.872   6.616   6.571
 2931TIP3   OH2 8749   2.625   2.371   0.718
 2931TIP3    H1 8750   2.596   2.352   0.807
 2931TIP3    H2 8751   2.599   2.462   0.703
 2932TIP3   OH2 8752   7.801   3.338   6.575
 2932TIP3    H1 8753   7.797   3.242   6.570
 2932TIP3    H2 8754   7.766   3.358   6.662
 2933TIP3   OH2 8755   1.960   3.255   3.941
 2933TIP3    H1 8756   1.895   3.185   3.929
 2933TIP3    H2 8757   1.980   3.284   3.852
 2934TIP3   OH2 8758   2.568   2.359   5.314
 2934TIP3    H1 8759   2.656   2.393   5.331
 2934TIP3    H2 8760   2.582   2.273   5.275
 2935TIP3   OH2 8761   8.096   5.313   6.166
 2935TIP3    H1 8762   8.112   5.302   6.073
 2935TIP3    H2 8763   8.032   5.245   6.188
 2936TIP3   OH2 8764   6.741   1.563   4.127
 2936TIP3    H1 8765   6.692   1.511   4.063
 2936TIP3    H2 8766   6.818   1.594   4.079
 2937TIP3   OH2 8767   3.963   7.398   0.658
 2937TIP3    H1 8768   4.010   7.441   0.586
 2937TIP3    H2 8769   3.954   7.465   0.725
 2938TIP3   OH2 8770   2.893   4.927   2.304
 2938TIP3    H1 8771   2.895   5.020   2.280
 2938TIP3    H2 8772   2.948   4.884   2.240
 2939TIP3   OH2 8773   5.662   7.096   2.160
 2939TIP3    H1 8774   5.722   7.079   2.233
 2939TIP3    H2 8775   5.705   7.058   2.084
 2940TIP3   OH2 8776   3.872   4.614   5.661
 2940TIP3    H1 8777   3.802   4.660   5.613
 2940TIP3    H2 8778   3.875   4.527   5.621
 2941TIP3   OH2 8779   4.484   2.400   5.534
 2941TIP3    H1 8780   4.426   2.439   5.470
 2941TIP3    H2 8781   4.436   2.324   5.568
 2942TIP3   OH2 8782   6.592   1.163   4.749
 2942TIP3    H1 8783   6.533   1.164   4.825
 2942TIP3    H2 8784   6.662   1.224   4.773
 2943TIP3   OH2 8785   3.049   2.105   6.232
 2943TIP3    H1 8786   3.064   2.190   6.189
 2943TIP3    H2 8787   3.106   2.106   6.308
 2944TIP3   OH2 8788   1.861   1.333   6.011
 2944TIP3    H1 8789   1.949   1.302   6.031
 2944TIP3    H2 8790   1.818   1.340   6.097
 2945TIP3   OH2 8791   2.453   2.302   1.391
 2945TIP3    H1 8792   2.546   2.312   1.412
 2945TIP3    H2 8793   2.436   2.368   1.324
 2946TIP3   OH2 8794   0.722   1.855   6.259
 2946TIP3    H1 8795   0.697   1.946   6.267
 2946TIP3    H2 8796   0.644   1.806   6.285
 2947TIP3   OH2 8797   0.118   1.291   1.807
 2947TIP3    H1 8798   0.093   1.209   1.849
 2947TIP3    H2 8799   0.082   1.360   1.863
 2948TIP3   OH2 8800   6.907   3.214   6.154
 2948TIP3    H1 8801   6.867   3.301   6.145
 2948TIP3    H2 8802   6.858   3.159   6.093
 2949TIP3   OH2 8803   2.368   2.853   0.824
 2949TIP3    H1 8804   2.367   2.921   0.757
 2949TIP3    H2 8805   2.460   2.845   0.849
 2950TIP3   OH2 8806   4.204   6.184   0.630
 2950TIP3    H1 8807   4.218   6.106   0.684
 2950TIP3    H2 8808   4.286   6.196   0.583
 2951TIP3   OH2 8809   1.365   6.563   4.350
 2951TIP3    H1 8810   1.333   6.496   4.411
 2951TIP3    H2 8811   1.359   6.521   4.264
 2952TIP3   OH2 8812   0.944   2.913   3.457
 2952TIP3    H1 8813   0.995   2.856   3.514
 2952TIP3    H2 8814   0.914   2.857   3.386
 2953TIP3   OH2 8815   4.066   3.840   1.076
 2953TIP3    H1 8816   3.992   3.781   1.092
 2953TIP3    H2 8817   4.042   3.888   0.996
 2954TIP3   OH2 8818   8.009   2.834   0.472
 2954TIP3    H1 8819   7.963   2.911   0.440
 2954TIP3    H2 8820   7.943   2.784   0.520
 2955TIP3   OH2 8821   7.026   3.321   0.631
 2955TIP3    H1 8822   7.007   3.374   0.554
 2955TIP3    H2 8823   6.942   3.313   0.677
 2956TIP3   OH2 8824  -0.015   4.727   2.234
 2956TIP3    H1 8825  -0.039   4.675   2.158
 2956TIP3    H2 8826   0.079   4.740   2.227
 2957TIP3   OH2 8827   7.808   0.359   6.079
 2957TIP3    H1 8828   7.787   0.311   6.159
 2957TIP3    H2 8829   7.820   0.291   6.013
 2958TIP3   OH2 8830   2.157   1.901   5.362
 2958TIP3    H1 8831   2.153   1.980   5.307
 2958TIP3    H2 8832   2.145   1.934   5.451
 2959TIP3   OH2 8833   5.991   2.734   4.129
 2959TIP3    H1 8834   5.903   2.716   4.097
 2959TIP3    H2 8835   6.024   2.648   4.158
 2960TIP3   OH2 8836   0.849   0.249   3.040
 2960TIP3    H1 8837   0.845   0.258   3.135
 2960TIP3    H2 8838   0.758   0.242   3.012
 2961TIP3   OH2 8839   0.494   4.113   3.349
 2961TIP3    H1 8840   0.432   4.051   3.388
 2961TIP3    H2 8841   0.457   4.199   3.366
 2962TIP3   OH2 8842   6.736   0.890   6.462
 2962TIP3    H1 8843   6.658   0.870   6.514
 2962TIP3    H2 8844   6.742   0.986   6.465
 2963TIP3   OH2 8845   3.876   2.288   5.085
 2963TIP3    H1 8846   3.816   2.276   5.158
 2963TIP3    H2 8847   3.923   2.205   5.079
 2964TIP3   OH2 8848   1.816   7.662   0.854
 2964TIP3    H1 8849   1.830   7.665   0.948
 2964TIP3    H2 8850   1.729   7.625   0.843
 2965TIP3   OH2 8851   1.652   0.817   4.794
 2965TIP3    H1 8852   1.631   0.735   4.750
 2965TIP3    H2 8853   1.614   0.809   4.881
 2966TIP3   OH2 8854   6.523   4.420   0.249
 2966TIP3    H1 8855   6.453   4.373   0.293
 2966TIP3    H2 8856   6.496   4.425   0.157
 2967TIP3   OH2 8857   6.906   0.666   4.656
 2967TIP3    H1 8858   6.968   0.708   4.716
 2967TIP3    H2 8859   6.897   0.726   4.583
 2968TIP3   OH2 8860   7.305   3.423   0.073
 2968TIP3    H1 8861   7.219   3.462   0.058
 2968TIP3    H2 8862   7.331   3.390  -0.013
 2969TIP3   OH2 8863   6.508   4.417   3.050
 2969TIP3    H1 8864   6.551   4.488   3.098
 2969TIP3    H2 8865   6.579   4.373   3.004
 2970TIP3   OH2 8866   8.030   5.697   1.891
 2970TIP3    H1 8867   8.054   5.646   1.814
 2970TIP3    H2 8868   7.968   5.641   1.938
 2971TIP3   OH2 8869   2.070   3.925   6.151
 2971TIP3    H1 8870   2.165   3.930   6.151
 2971TIP3    H2 8871   2.049   3.861   6.220
 2972TIP3   OH2 8872   0.276   1.252   2.776
 2972TIP3    H1 8873   0.274   1.180   2.713
 2972TIP3    H2 8874   0.308   1.213   2.857
 2973TIP3   OH2 8875   1.383   0.932   3.720
 2973TIP3    H1 8876   1.424   1.018   3.729
 2973TIP3    H2 8877   1.337   0.936   3.637
 2974TIP3   OH2 8878   1.575   2.501   5.816
 2974TIP3    H1 8879   1.556   2.444   5.741
 2974TIP3    H2 8880   1.623   2.445   5.877
 2975TIP3   OH2 8881   0.315   7.011   3.352
 2975TIP3    H1 8882   0.285   6.973   3.435
 2975TIP3    H2 8883   0.376   6.946   3.316
 2976TIP3   OH2 8884   7.511   6.585   2.985
 2976TIP3    H1 8885   7.530   6.667   2.940
 2976TIP3    H2 8886   7.473   6.612   3.069
 2977TIP3   OH2 8887   7.454   0.779   0.131
 2977TIP3    H1 8888   7.440   0.821   0.046
 2977TIP3    H2 8889   7.430   0.846   0.195
 2978TIP3   OH2 8890   1.277   0.598   4.987
 2978TIP3    H1 8891   1.264   0.653   4.909
 2978TIP3    H2 8892   1.250   0.654   5.060
 2979TIP3   OH2 8893   3.979   6.562   3.185
 2979TIP3    H1 8894   3.968   6.467   3.173
 2979TIP3    H2 8895   4.048   6.585   3.123
 2980TIP3   OH2 8896   6.115   4.878   0.436
 2980TIP3    H1 8897   6.185   4.905   0.496
 2980TIP3    H2 8898   6.075   4.803   0.479
 2981TIP3   OH2 8899   7.445   3.738   6.295
 2981TIP3    H1 8900   7.417   3.773   6.380
 2981TIP3    H2 8901   7.457   3.644   6.312
 2982TIP3   OH2 8902   1.927   6.416   2.503
 2982TIP3    H1 8903   1.905   6.501   2.540
 2982TIP3    H2 8904   1.955   6.435   2.414
 2983TIP3   OH2 8905   5.176   5.655   3.089
 2983TIP3    H1 8906   5.255   5.653   3.034
 2983TIP3    H2 8907   5.109   5.613   3.035
 2984TIP3   OH2 8908   8.202   3.422   4.300
 2984TIP3    H1 8909   8.155   3.371   4.365
 2984TIP3    H2 8910   8.225   3.359   4.232
 2985TIP3   OH2 8911   1.757   4.435   1.251
 2985TIP3    H1 8912   1.675   4.438   1.202
 2985TIP3    H2 8913   1.804   4.514   1.223
 2986TIP3   OH2 8914   7.451   3.035   1.085
 2986TIP3    H1 8915   7.432   3.128   1.069
 2986TIP3    H2 8916   7.491   3.034   1.172
 2987TIP3   OH2 8917   8.156   1.655   1.640
 2987TIP3    H1 8918   8.191   1.724   1.695
 2987TIP3    H2 8919   8.228   1.593   1.631
 2988TIP3   OH2 8920   7.935   5.322   3.579
 2988TIP3    H1 8921   7.966   5.244   3.532
 2988TIP3    H2 8922   7.934   5.391   3.514
 2989TIP3   OH2 8923   2.235   3.234   2.341
 2989TIP3    H1 8924   2.239   3.300   2.409
 2989TIP3    H2 8925   2.157   3.255   2.290
 2990TIP3   OH2 8926   4.676   5.365   0.031
 2990TIP3    H1 8927   4.741   5.319  -0.023
 2990TIP3    H2 8928   4.669   5.312   0.110
 2991TIP3   OH2 8929   2.383   5.293   0.801
 2991TIP3    H1 8930   2.404   5.283   0.894
 2991TIP3    H2 8931   2.457   5.342   0.764
 2992TIP3   OH2 8932   2.420   3.798   4.338
 2992TIP3    H1 8933   2.378   3.845   4.410
 2992TIP3    H2 8934   2.490   3.857   4.309
 2993TIP3   OH2 8935   6.636   6.462   1.611
 2993TIP3    H1 8936   6.690   6.392   1.572
 2993TIP3    H2 8937   6.696   6.534   1.626
 2994TIP3   OH2 8938   5.306   0.318   4.113
 2994TIP3    H1 8939   5.346   0.405   4.114
 2994TIP3    H2 8940   5.343   0.273   4.189
 2995TIP3   OH2 8941   7.756   1.911   0.476
 2995TIP3    H1 8942   7.677   1.863   0.452
 2995TIP3    H2 8943   7.744   1.997   0.437
 2996TIP3   OH2 8944   1.642   3.460   4.761
 2996TIP3    H1 8945   1.560   3.509   4.769
 2996TIP3    H2 8946   1.631   3.409   4.681
 2997TIP3   OH2 8947   1.793   3.523   2.845
 2997TIP3    H1 8948   1.781   3.583   2.918
 2997TIP3    H2 8949   1.730   3.552   2.779
 2998TIP3   OH2 8950   1.617   1.506   2.711
 2998TIP3    H1 8951   1.523   1.504   2.696
 2998TIP3    H2 8952   1.627   1.547   2.798
 2999TIP3   OH2 8953   1.911   5.931   0.821
 2999TIP3    H1 8954   1.861   5.971   0.892
 2999TIP3    H2 8955   1.868   5.963   0.741
 3000TIP3   OH2 8956   6.938   3.999   4.890
 3000TIP3    H1 8957   6.989   4.038   4.961
 3000TIP3    H2 8958   6.950   3.905   4.901
 3001TIP3   OH2 8959   0.981   0.783   0.600
 3001TIP3    H1 8960   1.057   0.830   0.635
 3001TIP3    H2 8961   1.018   0.721   0.537
 3002TIP3   OH2 8962   1.856   2.037   2.302
 3002TIP3    H1 8963   1.896   1.961   2.343
 3002TIP3    H2 8964   1.762   2.017   2.300
 3003TIP3   OH2 8965   1.400   6.865   5.840
 3003TIP3    H1 8966   1.414   6.925   5.767
 3003TIP3    H2 8967   1.305   6.857   5.847
 3004TIP3   OH2 8968   8.298   6.068   1.677
 3004TIP3    H1 8969   8.355   6.144   1.676
 3004TIP3    H2 8970   8.210   6.104   1.666
 3005TIP3   OH2 8971   2.742   7.211   1.826
 3005TIP3    H1 8972   2.769   7.212   1.734
 3005TIP3    H2 8973   2.766   7.124   1.858
 3006TIP3   OH2 8974   2.837   0.154   0.239
 3006TIP3    H1 8975   2.891   0.178   0.314
 3006TIP3    H2 8976   2.827   0.059   0.246
 3007TIP3   OH2 8977   6.840   5.800   2.492
 3007TIP3    H1 8978   6.902   5.757   2.550
 3007TIP3    H2 8979   6.771   5.734   2.479
 3008TIP3   OH2 8980   4.873   7.700   3.506
 3008TIP3    H1 8981   4.808   7.727   3.441
 3008TIP3    H2 8982   4.925   7.779   3.521
 3009TIP3   OH2 8983   0.332   5.790   1.331
 3009TIP3    H1 8984   0.360   5.783   1.423
 3009TIP3    H2 8985   0.356   5.879   1.306
 3010TIP3   OH2 8986   4.278   1.070   2.940
 3010TIP3    H1 8987   4.254   1.162   2.952
 3010TIP3    H2 8988   4.373   1.071   2.932
 3011TIP3   OH2 8989   1.515   7.426   3.473
 3011TIP3    H1 8990   1.573   7.470   3.411
 3011TIP3    H2 8991   1.438   7.483   3.478
 3012TIP3   OH2 8992   5.203   2.613   4.901
 3012TIP3    H1 8993   5.180   2.702   4.874
 3012TIP3    H2 8994   5.120   2.568   4.910
 3013TIP3   OH2 8995   5.560   7.797   2.281
 3013TIP3    H1 8996   5.618   7.722   2.268
 3013TIP3    H2 8997   5.472   7.759   2.281
 3014TIP3   OH2 8998   5.090   7.465   5.382
 3014TIP3    H1 8999   5.091   7.395   5.318
 3014TIP3    H2 9000   5.179   7.500   5.381
 3015TIP3   OH2 9001   0.214   1.750   4.405
 3015TIP3    H1 9002   0.140   1.807   4.426
 3015TIP3    H2 9003   0.180   1.688   4.340
 3016TIP3   OH2 9004   4.923   4.129   2.953
 3016TIP3    H1 9005   4.828   4.130   2.959
 3016TIP3    H2 9006   4.942   4.172   2.870
 3017TIP3   OH2 9007   0.900   1.948   5.548
 3017TIP3    H1 9008   0.837   1.882   5.520
 3017TIP3    H2 9009   0.981   1.925   5.502
 3018TIP3   OH2 9010   2.119   2.501   1.144
 3018TIP3    H1 9011   2.031   2.471   1.123
 3018TIP3    H2 9012   2.145   2.555   1.069
 3019TIP3   OH2 9013   6.158   1.033   1.060
 3019TIP3    H1 9014   6.190   1.019   1.149
 3019TIP3    H2 9015   6.124   1.122   1.059
 3020TIP3   OH2 9016   3.557   4.564   3.934
 3020TIP3    H1 9017   3.502   4.517   3.871
 3020TIP3    H2 9018   3.617   4.615   3.880
 3021TIP3   OH2 9019   4.614   7.796   4.521
 3021TIP3    H1 9020   4.571   7.774   4.604
 3021TIP3    H2 9021   4.545   7.836   4.468
 3022TIP3   OH2 9022   7.599   7.180   6.574
 3022TIP3    H1 9023   7.598   7.264   6.619
 3022TIP3    H2 9024   7.643   7.197   6.491
 3023TIP3   OH2 9025   2.029   5.953   3.105
 3023TIP3    H1 9026   2.002   6.044   3.116
 3023TIP3    H2 9027   1.955   5.902   3.139
 3024TIP3   OH2 9028   0.507   1.561   5.852
 3024TIP3    H1 9029   0.547   1.556   5.765
 3024TIP3    H2 9030   0.574   1.599   5.907
 3025TIP3   OH2 9031   7.797   5.610   1.119
 3025TIP3    H1 9032   7.890   5.585   1.119
 3025TIP3    H2 9033   7.784   5.650   1.033
 3026TIP3   OH2 9034   0.918   1.891   6.482
 3026TIP3    H1 9035   0.830   1.897   6.445
 3026TIP3    H2 9036   0.914   1.817   6.542
 3027TIP3   OH2 9037   6.036   1.957   3.627
 3027TIP3    H1 9038   6.073   2.037   3.589
 3027TIP3    H2 9039   5.998   1.911   3.552
 3028TIP3   OH2 9040   4.837   7.444   1.496
 3028TIP3    H1 9041   4.914   7.499   1.504
 3028TIP3    H2 9042   4.814   7.447   1.403
 3029TIP3   OH2 9043   6.303   3.382   1.557
 3029TIP3    H1 9044   6.318   3.300   1.509
 3029TIP3    H2 9045   6.358   3.373   1.636
 3030TIP3   OH2 9046   2.318   2.663   3.722
 3030TIP3    H1 9047   2.232   2.697   3.698
 3030TIP3    H2 9048   2.347   2.718   3.794
 3031TIP3   OH2 9049   2.750   4.549   0.631
 3031TIP3    H1 9050   2.830   4.497   0.628
 3031TIP3    H2 9051   2.680   4.485   0.623
 3032TIP3   OH2 9052   0.759   4.846   4.143
 3032TIP3    H1 9053   0.730   4.767   4.188
 3032TIP3    H2 9054   0.733   4.917   4.202
 3033TIP3   OH2 9055   2.812   0.771   1.219
 3033TIP3    H1 9056   2.826   0.856   1.259
 3033TIP3    H2 9057   2.770   0.791   1.135
 3034TIP3   OH2 9058   1.312   3.466   1.334
 3034TIP3    H1 9059   1.309   3.552   1.377
 3034TIP3    H2 9060   1.275   3.482   1.247
 3035TIP3   OH2 9061   7.556   0.102   3.778
 3035TIP3    H1 9062   7.521   0.021   3.816
 3035TIP3    H2 9063   7.479   0.147   3.742
 3036TIP3   OH2 9064   2.553   7.487   0.399
 3036TIP3    H1 9065   2.460   7.502   0.382
 3036TIP3    H2 9066   2.592   7.477   0.312
 3037TIP3   OH2 9067   5.312   1.473   4.390
 3037TIP3    H1 9068   5.314   1.384   4.425
 3037TIP3    H2 9069   5.345   1.527   4.461
 3038TIP3   OH2 9070   0.606   4.918   1.894
 3038TIP3    H1 9071   0.700   4.913   1.879
 3038TIP3    H2 9072   0.596   4.904   1.988
 3039TIP3   OH2 9073   6.849   6.937   4.480
 3039TIP3    H1 9074   6.879   6.984   4.557
 3039TIP3    H2 9075   6.779   6.880   4.512
 3040TIP3   OH2 9076   0.527   4.551   2.118
 3040TIP3    H1 9077   0.580   4.495   2.061
 3040TIP3    H2 9078   0.542   4.640   2.086
 3041TIP3   OH2 9079   2.573   1.616   1.176
 3041TIP3    H1 9080   2.662   1.613   1.210
 3041TIP3    H2 9081   2.550   1.709   1.176
 3042TIP3   OH2 9082   0.480   4.972   5.584
 3042TIP3    H1 9083   0.533   4.965   5.663
 3042TIP3    H2 9084   0.449   4.883   5.569
 3043TIP3   OH2 9085   5.813   4.116   4.371
 3043TIP3    H1 9086   5.765   4.034   4.383
 3043TIP3    H2 9087   5.771   4.177   4.433
 3044TIP3   OH2 9088   3.618   1.409   4.760
 3044TIP3    H1 9089   3.619   1.495   4.803
 3044TIP3    H2 9090   3.697   1.366   4.791
 3045TIP3   OH2 9091   7.784   4.039   6.026
 3045TIP3    H1 9092   7.824   4.125   6.041
 3045TIP3    H2 9093   7.711   4.056   5.967
 3046TIP3   OH2 9094   3.755   4.600   2.086
 3046TIP3    H1 9095   3.828   4.648   2.047
 3046TIP3    H2 9096   3.771   4.508   2.063
 3047TIP3   OH2 9097   3.433   3.871   0.842
 3047TIP3    H1 9098   3.396   3.795   0.797
 3047TIP3    H2 9099   3.525   3.872   0.816
 3048TIP3   OH2 9100   1.980   2.133   6.167
 3048TIP3    H1 9101   1.934   2.172   6.092
 3048TIP3    H2 9102   2.068   2.115   6.134
 3049TIP3   OH2 9103   1.827   5.710   5.462
 3049TIP3    H1 9104   1.840   5.633   5.406
 3049TIP3    H2 9105   1.847   5.678   5.550
 3050TIP3   OH2 9106   6.588   7.615   5.975
 3050TIP3    H1 9107   6.672   7.633   5.933
 3050TIP3    H2 9108   6.546   7.701   5.982
 3051TIP3   OH2 9109   1.157   3.997   6.513
 3051TIP3    H1 9110   1.096   4.064   6.481
 3051TIP3    H2 9111   1.236   4.045   6.536
 3052TIP3   OH2 9112   5.584   0.155   0.388
 3052TIP3    H1 9113   5.570   0.170   0.294
 3052TIP3    H2 9114   5.537   0.227   0.431
 3053TIP3   OH2 9115   6.246   3.143   1.443
 3053TIP3    H1 9116   6.338   3.140   1.416
 3053TIP3    H2 9117   6.201   3.087   1.380
 3054TIP3   OH2 9118   4.304   3.712   1.931
 3054TIP3    H1 9119   4.216   3.723   1.893
 3054TIP3    H2 9120   4.290   3.654   2.006
 3055TIP3   OH2 9121   7.973   2.480   4.245
 3055TIP3    H1 9122   8.008   2.444   4.327
 3055TIP3    H2 9123   7.890   2.519   4.270
 3056TIP3   OH2 9124   7.632   3.391   3.335
 3056TIP3    H1 9125   7.589   3.324   3.283
 3056TIP3    H2 9126   7.704   3.422   3.280
 3057TIP3   OH2 9127   5.508   1.957   5.832
 3057TIP3    H1 9128   5.437   1.909   5.790
 3057TIP3    H2 9129   5.501   2.046   5.796
 3058TIP3   OH2 9130   8.193   7.074   3.352
 3058TIP3    H1 9131   8.195   7.155   3.402
 3058TIP3    H2 9132   8.101   7.046   3.355
 3059TIP3   OH2 9133   5.320   2.277   2.463
 3059TIP3    H1 9134   5.315   2.361   2.509
 3059TIP3    H2 9135   5.340   2.301   2.372
 3060TIP3   OH2 9136   0.940   5.129   1.626
 3060TIP3    H1 9137   0.941   5.076   1.547
 3060TIP3    H2 9138   1.019   5.102   1.674
 3061TIP3   OH2 9139  -0.001   1.372   4.050
 3061TIP3    H1 9140   0.006   1.283   4.082
 3061TIP3    H2 9141   0.016   1.366   3.956
 3062TIP3   OH2 9142   7.434   3.397   2.920
 3062TIP3    H1 9143   7.529   3.403   2.929
 3062TIP3    H2 9144   7.417   3.303   2.908
 3063TIP3   OH2 9145   6.559   5.272   4.374
 3063TIP3    H1 9146   6.597   5.193   4.336
 3063TIP3    H2 9147   6.602   5.344   4.328
 3064TIP3   OH2 9148   2.531   2.478   2.552
 3064TIP3    H1 9149   2.611   2.441   2.589
 3064TIP3    H2 9150   2.465   2.463   2.620
 3065TIP3   OH2 9151   6.518   0.558   2.525
 3065TIP3    H1 9152   6.512   0.524   2.436
 3065TIP3    H2 9153   6.611   0.570   2.541
 3066TIP3   OH2 9154   6.469   7.274   4.168
 3066TIP3    H1 9155   6.564   7.278   4.176
 3066TIP3    H2 9156   6.436   7.270   4.258
 3067TIP3   OH2 9157   2.310   2.684   4.690
 3067TIP3    H1 9158   2.353   2.599   4.694
 3067TIP3    H2 9159   2.284   2.703   4.780
 3068TIP3   OH2 9160   6.709   5.567   2.457
 3068TIP3    H1 9161   6.652   5.546   2.383
 3068TIP3    H2 9162   6.674   5.516   2.530
 3069TIP3   OH2 9163   0.610   7.404   5.121
 3069TIP3    H1 9164   0.660   7.366   5.049
 3069TIP3    H2 9165   0.573   7.485   5.085
 3070TIP3   OH2 9166   4.413   5.298   1.490
 3070TIP3    H1 9167   4.426   5.205   1.504
 3070TIP3    H2 9168   4.360   5.303   1.410
 3071TIP3   OH2 9169   7.786   0.701   3.486
 3071TIP3    H1 9170   7.811   0.626   3.539
 3071TIP3    H2 9171   7.692   0.691   3.472
 3072TIP3   OH2 9172   6.207  -0.009   0.064
 3072TIP3    H1 9173   6.157   0.037  -0.003
 3072TIP3    H2 9174   6.294  -0.022   0.024
 3073TIP3   OH2 9175   1.576   6.591   4.778
 3073TIP3    H1 9176   1.548   6.505   4.748
 3073TIP3    H2 9177   1.662   6.604   4.738
 3074TIP3   OH2 9178   7.141   3.679   4.424
 3074TIP3    H1 9179   7.101   3.613   4.368
 3074TIP3    H2 9180   7.218   3.709   4.377
 3075TIP3   OH2 9181   1.540   4.820   4.131
 3075TIP3    H1 9182   1.538   4.862   4.045
 3075TIP3    H2 9183   1.624   4.847   4.170
 3076TIP3   OH2 9184   1.970   0.767   1.694
 3076TIP3    H1 9185   2.036   0.758   1.763
 3076TIP3    H2 9186   1.915   0.840   1.723
 3077TIP3   OH2 9187   7.457   5.018   2.469
 3077TIP3    H1 9188   7.461   5.025   2.564
 3077TIP3    H2 9189   7.528   5.073   2.437
 3078TIP3   OH2 9190   3.140   5.917   0.268
 3078TIP3    H1 9191   3.186   5.834   0.260
 3078TIP3    H2 9192   3.184   5.976   0.206
 3079TIP3   OH2 9193   7.700   2.908   1.895
 3079TIP3    H1 9194   7.777   2.956   1.925
 3079TIP3    H2 9195   7.627   2.968   1.912
 3080TIP3   OH2 9196   3.245   4.709   3.877
 3080TIP3    H1 9197   3.291   4.742   3.800
 3080TIP3    H2 9198   3.231   4.616   3.858
 3081TIP3   OH2 9199   8.208   5.177   6.634
 3081TIP3    H1 9200   8.220   5.108   6.700
 3081TIP3    H2 9201   8.117   5.204   6.645
 3082TIP3   OH2 9202   1.942   1.709   6.130
 3082TIP3    H1 9203   1.960   1.781   6.070
 3082TIP3    H2 9204   1.994   1.636   6.095
 3083TIP3   OH2 9205   6.976   6.183   0.731
 3083TIP3    H1 9206   7.013   6.182   0.643
 3083TIP3    H2 9207   7.051   6.201   0.788
 3084TIP3   OH2 9208   7.875   1.627   2.185
 3084TIP3    H1 9209   7.909   1.577   2.260
 3084TIP3    H2 9210   7.789   1.589   2.168
 3085TIP3   OH2 9211   6.422   2.972   2.180
 3085TIP3    H1 9212   6.508   2.943   2.210
 3085TIP3    H2 9213   6.407   2.924   2.099
 3086TIP3   OH2 9214   7.002   3.826   4.615
 3086TIP3    H1 9215   6.949   3.891   4.568
 3086TIP3    H2 9216   7.053   3.783   4.546
 3087TIP3   OH2 9217   6.550   6.547   6.092
 3087TIP3    H1 9218   6.491   6.488   6.139
 3087TIP3    H2 9219   6.637   6.516   6.115
 3088TIP3   OH2 9220   1.093   6.346   4.871
 3088TIP3    H1 9221   1.089   6.277   4.805
 3088TIP3    H2 9222   1.029   6.319   4.937
 3089TIP3   OH2 9223   4.477   6.614   3.174
 3089TIP3    H1 9224   4.550   6.582   3.122
 3089TIP3    H2 9225   4.474   6.708   3.155
 3090TIP3   OH2 9226   1.574   2.848   6.620
 3090TIP3    H1 9227   1.505   2.880   6.562
 3090TIP3    H2 9228   1.638   2.919   6.622
 3091TIP3   OH2 9229   4.393   1.974   1.901
 3091TIP3    H1 9230   4.412   2.038   1.832
 3091TIP3    H2 9231   4.299   1.958   1.893
 3092TIP3   OH2 9232   5.839   0.022   6.548
 3092TIP3    H1 9233   5.869   0.051   6.462
 3092TIP3    H2 9234   5.820   0.104   6.595
 3093TIP3   OH2 9235   8.013   3.965   1.813
 3093TIP3    H1 9236   8.003   3.896   1.748
 3093TIP3    H2 9237   7.930   4.012   1.810
 3094TIP3   OH2 9238   6.195   2.364   3.579
 3094TIP3    H1 9239   6.281   2.399   3.557
 3094TIP3    H2 9240   6.146   2.439   3.612
 3095TIP3   OH2 9241   4.023   7.161   1.527
 3095TIP3    H1 9242   4.015   7.246   1.571
 3095TIP3    H2 9243   3.948   7.111   1.559
 3096TIP3   OH2 9244   7.289   4.618   4.211
 3096TIP3    H1 9245   7.383   4.633   4.205
 3096TIP3    H2 9246   7.260   4.612   4.120
 3097TIP3   OH2 9247   1.001   3.596   6.675
 3097TIP3    H1 9248   0.977   3.518   6.626
 3097TIP3    H2 9249   1.081   3.571   6.722
 3098TIP3   OH2 9250   0.815   7.472   2.605
 3098TIP3    H1 9251   0.861   7.554   2.589
 3098TIP3    H2 9252   0.809   7.466   2.700
 3099TIP3   OH2 9253   2.694   5.651   5.728
 3099TIP3    H1 9254   2.642   5.667   5.649
 3099TIP3    H2 9255   2.716   5.738   5.761
 3100TIP3   OH2 9256   6.338   0.862   5.773
 3100TIP3    H1 9257   6.310   0.832   5.686
 3100TIP3    H2 9258   6.396   0.936   5.755
 3101TIP3   OH2 9259   0.695   6.313   3.716
 3101TIP3    H1 9260   0.770   6.254   3.716
 3101TIP3    H2 9261   0.704   6.364   3.796
 3102TIP3   OH2 9262   6.102   3.580   1.359
 3102TIP3    H1 9263   6.122   3.536   1.442
 3102TIP3    H2 9264   6.044   3.520   1.313
 3103TIP3   OH2 9265   6.256   4.323   1.812
 3103TIP3    H1 9266   6.249   4.231   1.837
 3103TIP3    H2 9267   6.306   4.363   1.883
 3104TIP3   OH2 9268   5.057   0.291   1.242
 3104TIP3    H1 9269   5.127   0.253   1.296
 3104TIP3    H2 9270   5.014   0.215   1.202
 3105TIP3   OH2 9271   2.872   3.178   0.229
 3105TIP3    H1 9272   2.884   3.172   0.134
 3105TIP3    H2 9273   2.933   3.114   0.265
 3106TIP3   OH2 9274   3.001   1.838   6.258
 3106TIP3    H1 9275   3.014   1.933   6.256
 3106TIP3    H2 9276   2.972   1.816   6.169
 3107TIP3   OH2 9277   2.490   4.823   4.519
 3107TIP3    H1 9278   2.487   4.818   4.614
 3107TIP3    H2 9279   2.398   4.828   4.492
 3108TIP3   OH2 9280   3.847   6.157   0.533
 3108TIP3    H1 9281   3.753   6.164   0.554
 3108TIP3    H2 9282   3.874   6.248   0.517
 3109TIP3   OH2 9283   6.243   6.427   2.462
 3109TIP3    H1 9284   6.326   6.472   2.480
 3109TIP3    H2 9285   6.210   6.403   2.549
 3110TIP3   OH2 9286   3.863   2.180   5.950
 3110TIP3    H1 9287   3.855   2.201   5.857
 3110TIP3    H2 9288   3.821   2.094   5.959
 3111TIP3   OH2 9289   0.120   7.047   5.987
 3111TIP3    H1 9290   0.157   7.050   5.898
 3111TIP3    H2 9291   0.074   7.129   5.997
 3112TIP3   OH2 9292   2.633   7.232   3.771
 3112TIP3    H1 9293   2.701   7.174   3.806
 3112TIP3    H2 9294   2.551   7.190   3.796
 3113TIP3   OH2 9295   4.675   0.830   3.047
 3113TIP3    H1 9296   4.670   0.785   2.963
 3113TIP3    H2 9297   4.733   0.904   3.032
 3114TIP3   OH2 9298   0.744   1.766   0.521
 3114TIP3    H1 9299   0.746   1.729   0.433
 3114TIP3    H2 9300   0.651   1.773   0.542
 3115TIP3   OH2 9301   6.809   6.338   5.853
 3115TIP3    H1 9302   6.768   6.252   5.865
 3115TIP3    H2 9303   6.896   6.318   5.819
 3116TIP3   OH2 9304   6.170   6.183   0.978
 3116TIP3    H1 9305   6.195   6.143   0.895
 3116TIP3    H2 9306   6.114   6.118   1.020
 3117TIP3   OH2 9307   6.399   1.483   5.876
 3117TIP3    H1 9308   6.370   1.557   5.929
 3117TIP3    H2 9309   6.318   1.447   5.839
 3118TIP3   OH2 9310   6.651   1.268   2.014
 3118TIP3    H1 9311   6.629   1.209   1.942
 3118TIP3    H2 9312   6.657   1.354   1.973
 3119TIP3   OH2 9313   2.836   3.271   2.656
 3119TIP3    H1 9314   2.802   3.358   2.636
 3119TIP3    H2 9315   2.881   3.244   2.576
 3120TIP3   OH2 9316   5.493   6.143   2.456
 3120TIP3    H1 9317   5.428   6.073   2.444
 3120TIP3    H2 9318   5.506   6.179   2.368
 3121TIP3   OH2 9319   2.899   3.065   4.365
 3121TIP3    H1 9320   2.983   3.106   4.387
 3121TIP3    H2 9321   2.889   2.995   4.429
 3122TIP3   OH2 9322   0.672   5.100   0.360
 3122TIP3    H1 9323   0.676   5.171   0.424
 3122TIP3    H2 9324   0.664   5.144   0.276
 3123TIP3   OH2 9325   0.134   0.514   0.800
 3123TIP3    H1 9326   0.172   0.514   0.712
 3123TIP3    H2 9327   0.079   0.592   0.802
 3124TIP3   OH2 9328   8.113   0.807   0.110
 3124TIP3    H1 9329   8.051   0.736   0.125
 3124TIP3    H2 9330   8.143   0.795   0.020
 3125TIP3   OH2 9331   5.895   7.563   3.446
 3125TIP3    H1 9332   5.859   7.502   3.382
 3125TIP3    H2 9333   5.886   7.649   3.403
 3126TIP3   OH2 9334   5.766   2.779   6.735
 3126TIP3    H1 9335   5.779   2.853   6.675
 3126TIP3    H2 9336   5.775   2.818   6.822
 3127TIP3   OH2 9337   7.128   6.139   2.320
 3127TIP3    H1 9338   7.165   6.111   2.236
 3127TIP3    H2 9339   7.177   6.218   2.342
 3128TIP3   OH2 9340   6.230   0.412   4.520
 3128TIP3    H1 9341   6.285   0.490   4.518
 3128TIP3    H2 9342   6.225   0.384   4.429
 3129TIP3   OH2 9343   3.836   5.388   0.757
 3129TIP3    H1 9344   3.796   5.442   0.825
 3129TIP3    H2 9345   3.905   5.442   0.720
 3130TIP3   OH2 9346   6.515   0.074   0.271
 3130TIP3    H1 9347   6.585   0.120   0.225
 3130TIP3    H2 9348   6.514  -0.013   0.232
 3131TIP3   OH2 9349   3.779   4.658   0.529
 3131TIP3    H1 9350   3.687   4.633   0.542
 3131TIP3    H2 9351   3.816   4.586   0.478
 3132TIP3   OH2 9352   6.453   2.660   0.440
 3132TIP3    H1 9353   6.431   2.577   0.399
 3132TIP3    H2 9354   6.496   2.710   0.371
 3133TIP3   OH2 9355   3.321   5.529   6.238
 3133TIP3    H1 9356   3.354   5.558   6.153
 3133TIP3    H2 9357   3.355   5.440   6.247
 3134TIP3   OH2 9358   0.707   0.256   3.571
 3134TIP3    H1 9359   0.634   0.318   3.573
 3134TIP3    H2 9360   0.670   0.175   3.607
 3135TIP3   OH2 9361   1.517   3.525   5.972
 3135TIP3    H1 9362   1.528   3.610   6.015
 3135TIP3    H2 9363   1.551   3.461   6.035
 3136TIP3   OH2 9364   2.574   3.575   2.279
 3136TIP3    H1 9365   2.533   3.493   2.252
 3136TIP3    H2 9366   2.509   3.617   2.336
 3137TIP3   OH2 9367   3.411   2.579   6.489
 3137TIP3    H1 9368   3.395   2.518   6.417
 3137TIP3    H2 9369   3.506   2.588   6.492
 3138TIP3   OH2 9370   2.227   3.132   1.411
 3138TIP3    H1 9371   2.152   3.136   1.352
 3138TIP3    H2 9372   2.196   3.173   1.492
 3139TIP3   OH2 9373   2.826   5.283   3.427
 3139TIP3    H1 9374   2.771   5.359   3.446
 3139TIP3    H2 9375   2.774   5.231   3.366
 3140TIP3   OH2 9376   6.497   2.331   4.684
 3140TIP3    H1 9377   6.470   2.240   4.684
 3140TIP3    H2 9378   6.424   2.378   4.643
 3141TIP3   OH2 9379   5.855   6.066   1.525
 3141TIP3    H1 9380   5.859   6.155   1.561
 3141TIP3    H2 9381   5.804   6.016   1.590
 3142TIP3   OH2 9382   5.793   2.215   5.689
 3142TIP3    H1 9383   5.870   2.182   5.641
 3142TIP3    H2 9384   5.756   2.282   5.631
 3143TIP3   OH2 9385   7.463   4.807   0.564
 3143TIP3    H1 9386   7.378   4.832   0.527
 3143TIP3    H2 9387   7.442   4.764   0.647
 3144TIP3   OH2 9388   6.164   3.569   2.831
 3144TIP3    H1 9389   6.243   3.581   2.779
 3144TIP3    H2 9390   6.094   3.607   2.777
 3145TIP3   OH2 9391   1.453   3.528   6.639
 3145TIP3    H1 9392   1.417   3.546   6.552
 3145TIP3    H2 9393   1.542   3.562   6.635
 3146TIP3   OH2 9394   6.861   1.583   0.963
 3146TIP3    H1 9395   6.786   1.612   0.912
 3146TIP3    H2 9396   6.908   1.663   0.986
 3147TIP3   OH2 9397   3.871   7.693   0.722
 3147TIP3    H1 9398   3.966   7.699   0.736
 3147TIP3    H2 9399   3.848   7.777   0.683
 3148TIP3   OH2 9400   7.088   5.119   1.002
 3148TIP3    H1 9401   7.117   5.198   0.957
 3148TIP3    H2 9402   6.996   5.134   1.021
 3149TIP3   OH2 9403   2.370   5.053   5.022
 3149TIP3    H1 9404   2.457   5.079   4.990
 3149TIP3    H2 9405   2.374   5.069   5.116
 3150TIP3   OH2 9406   4.627   7.177   2.233
 3150TIP3    H1 9407   4.674   7.098   2.206
 3150TIP3    H2 9408   4.587   7.155   2.317
 3151TIP3   OH2 9409   5.530   7.398   5.209
 3151TIP3    H1 9410   5.522   7.371   5.301
 3151TIP3    H2 9411   5.582   7.478   5.212
 3152TIP3   OH2 9412   3.415   7.695   1.883
 3152TIP3    H1 9413   3.401   7.699   1.978
 3152TIP3    H2 9414   3.352   7.630   1.852
 3153TIP3   OH2 9415   6.720   2.146   0.028
 3153TIP3    H1 9416   6.802   2.164   0.075
 3153TIP3    H2 9417   6.661   2.215   0.056
 3154TIP3   OH2 9418   8.214   6.848   6.096
 3154TIP3    H1 9419   8.244   6.823   6.184
 3154TIP3    H2 9420   8.291   6.883   6.053
 3155TIP3   OH2 9421   8.198   3.715   4.526
 3155TIP3    H1 9422   8.157   3.704   4.440
 3155TIP3    H2 9423   8.141   3.776   4.572
 3156TIP3   OH2 9424   7.918   3.769   2.689
 3156TIP3    H1 9425   7.965   3.852   2.705
 3156TIP3    H2 9426   7.924   3.723   2.773
 3157TIP3   OH2 9427   2.475   1.365   2.217
 3157TIP3    H1 9428   2.471   1.273   2.190
 3157TIP3    H2 9429   2.542   1.404   2.161
 3158TIP3   OH2 9430   0.760   0.505   2.367
 3158TIP3    H1 9431   0.780   0.513   2.460
 3158TIP3    H2 9432   0.674   0.544   2.357
 3159TIP3   OH2 9433   7.086   0.422   2.177
 3159TIP3    H1 9434   7.127   0.348   2.131
 3159TIP3    H2 9435   7.139   0.432   2.257
 3160TIP3   OH2 9436   2.497   1.376   0.881
 3160TIP3    H1 9437   2.520   1.432   0.807
 3160TIP3    H2 9438   2.435   1.313   0.845
 3161TIP3   OH2 9439   7.906   6.240   0.742
 3161TIP3    H1 9440   7.860   6.310   0.696
 3161TIP3    H2 9441   7.997   6.250   0.714
 3162TIP3   OH2 9442   1.981   5.355   2.164
 3162TIP3    H1 9443   1.958   5.427   2.106
 3162TIP3    H2 9444   2.003   5.396   2.247
 3163TIP3   OH2 9445   0.493   1.677   4.459
 3163TIP3    H1 9446   0.516   1.651   4.370
 3163TIP3    H2 9447   0.404   1.711   4.452
 3164TIP3   OH2 9448   7.460   7.079   3.862
 3164TIP3    H1 9449   7.536   7.063   3.918
 3164TIP3    H2 9450   7.479   7.164   3.821
 3165TIP3   OH2 9451   8.303   7.299   6.659
 3165TIP3    H1 9452   8.344   7.377   6.622
 3165TIP3    H2 9453   8.231   7.333   6.712
 3166TIP3   OH2 9454   0.030   1.291   5.723
 3166TIP3    H1 9455   0.097   1.328   5.780
 3166TIP3    H2 9456  -0.038   1.359   5.718
 3167TIP3   OH2 9457   8.171   0.554   6.044
 3167TIP3    H1 9458   8.091   0.602   6.023
 3167TIP3    H2 9459   8.223   0.557   5.964
 3168TIP3   OH2 9460   8.255   7.247   0.953
 3168TIP3    H1 9461   8.277   7.334   0.986
 3168TIP3    H2 9462   8.264   7.254   0.858
 3169TIP3   OH2 9463   6.600   6.226   4.192
 3169TIP3    H1 9464   6.616   6.229   4.098
 3169TIP3    H2 9465   6.580   6.134   4.210
 3170TIP3   OH2 9466   1.059   1.586   6.039
 3170TIP3    H1 9467   0.999   1.551   6.105
 3170TIP3    H2 9468   1.066   1.679   6.058
 3171TIP3   OH2 9469   4.948   7.042   5.142
 3171TIP3    H1 9470   4.854   7.029   5.156
 3171TIP3    H2 9471   4.967   6.992   5.063
 3172TIP3   OH2 9472   8.155   1.795   5.306
 3172TIP3    H1 9473   8.139   1.718   5.361
 3172TIP3    H2 9474   8.249   1.809   5.312
 3173TIP3   OH2 9475   2.947   4.249   3.179
 3173TIP3    H1 9476   2.926   4.284   3.266
 3173TIP3    H2 9477   2.882   4.288   3.121
 3174TIP3   OH2 9478   3.340   3.670   6.376
 3174TIP3    H1 9479   3.393   3.748   6.392
 3174TIP3    H2 9480   3.403   3.605   6.343
 3175TIP3   OH2 9481   6.692   1.867   0.106
 3175TIP3    H1 9482   6.701   1.956   0.074
 3175TIP3    H2 9483   6.699   1.875   0.201
 3176TIP3   OH2 9484   0.926   2.871   4.866
 3176TIP3    H1 9485   0.899   2.817   4.792
 3176TIP3    H2 9486   0.851   2.927   4.884
 3177TIP3   OH2 9487   4.084   5.501   5.668
 3177TIP3    H1 9488   4.047   5.451   5.741
 3177TIP3    H2 9489   4.014   5.501   5.602
 3178TIP3   OH2 9490   7.260   1.681   6.379
 3178TIP3    H1 9491   7.307   1.760   6.352
 3178TIP3    H2 9492   7.190   1.672   6.314
 3179TIP3   OH2 9493   7.757   6.231   3.730
 3179TIP3    H1 9494   7.808   6.150   3.729
 3179TIP3    H2 9495   7.708   6.227   3.812
 3180TIP3   OH2 9496   2.373   5.398   5.519
 3180TIP3    H1 9497   2.343   5.420   5.431
 3180TIP3    H2 9498   2.357   5.477   5.571
 3181TIP3   OH2 9499   0.569   2.369   0.916
 3181TIP3    H1 9500   0.640   2.434   0.914
 3181TIP3    H2 9501   0.498   2.410   0.867
 3182TIP3   OH2 9502   1.174   4.960   4.643
 3182TIP3    H1 9503   1.226   5.025   4.596
 3182TIP3    H2 9504   1.161   4.997   4.730
 3183TIP3   OH2 9505   2.892   5.235   5.691
 3183TIP3    H1 9506   2.901   5.144   5.716
 3183TIP3    H2 9507   2.898   5.235   5.595
 3184TIP3   OH2 9508   1.494   1.380   1.251
 3184TIP3    H1 9509   1.503   1.305   1.309
 3184TIP3    H2 9510   1.571   1.434   1.270
 3185TIP3   OH2 9511   2.706   1.642   4.055
 3185TIP3    H1 9512   2.726   1.704   4.125
 3185TIP3    H2 9513   2.612   1.653   4.039
 3186TIP3   OH2 9514   0.119   2.924   4.911
 3186TIP3    H1 9515   0.138   2.912   4.818
 3186TIP3    H2 9516   0.102   3.018   4.919
 3187TIP3   OH2 9517   4.763   7.414   5.903
 3187TIP3    H1 9518   4.816   7.487   5.873
 3187TIP3    H2 9519   4.726   7.444   5.986
 3188TIP3   OH2 9520   0.896   5.213   4.653
 3188TIP3    H1 9521   0.869   5.134   4.606
 3188TIP3    H2 9522   0.925   5.181   4.739
 3189TIP3   OH2 9523   8.173   7.541   0.947
 3189TIP3    H1 9524   8.090   7.586   0.958
 3189TIP3    H2 9525   8.186   7.536   0.853
 3190TIP3   OH2 9526   0.678   7.185   5.290
 3190TIP3    H1 9527   0.675   7.236   5.209
 3190TIP3    H2 9528   0.587   7.164   5.309
 3191TIP3   OH2 9529   6.791   4.688   4.352
 3191TIP3    H1 9530   6.729   4.616   4.356
 3191TIP3    H2 9531   6.766   4.738   4.275
 3192TIP3   OH2 9532   2.217   6.834   4.420
 3192TIP3    H1 9533   2.207   6.739   4.428
 3192TIP3    H2 9534   2.192   6.867   4.506
 3193TIP3   OH2 9535   6.888   2.899   0.040
 3193TIP3    H1 9536   6.976   2.918   0.071
 3193TIP3    H2 9537   6.835   2.891   0.120
 3194TIP3   OH2 9538   3.711   6.210   2.802
 3194TIP3    H1 9539   3.691   6.129   2.755
 3194TIP3    H2 9540   3.806   6.210   2.810
 3195TIP3   OH2 9541   7.038   6.904   3.654
 3195TIP3    H1 9542   7.011   6.958   3.729
 3195TIP3    H2 9543   7.133   6.914   3.651
 3196TIP3   OH2 9544   1.055   3.967   1.772
 3196TIP3    H1 9545   1.032   3.987   1.681
 3196TIP3    H2 9546   1.146   3.996   1.781
 3197TIP3   OH2 9547   6.946   1.938   2.368
 3197TIP3    H1 9548   6.915   2.001   2.433
 3197TIP3    H2 9549   7.039   1.927   2.387
 3198TIP3   OH2 9550   3.944   5.629   1.419
 3198TIP3    H1 9551   3.994   5.652   1.497
 3198TIP3    H2 9552   3.862   5.679   1.427
 3199TIP3   OH2 9553   0.458   5.194   4.254
 3199TIP3    H1 9554   0.448   5.159   4.166
 3199TIP3    H2 9555   0.391   5.261   4.262
 3200TIP3   OH2 9556   6.653   3.420   1.053
 3200TIP3    H1 9557   6.587   3.373   1.003
 3200TIP3    H2 9558   6.645   3.511   1.024
 3201TIP3   OH2 9559   2.576   5.081   3.895
 3201TIP3    H1 9560   2.575   5.174   3.873
 3201TIP3    H2 9561   2.573   5.078   3.990
 3202TIP3   OH2 9562   2.918   6.282   4.176
 3202TIP3    H1 9563   2.936   6.189   4.188
 3202TIP3    H2 9564   2.847   6.301   4.237
 3203TIP3   OH2 9565   6.229   7.208   5.289
 3203TIP3    H1 9566   6.304   7.259   5.319
 3203TIP3    H2 9567   6.160   7.228   5.352
 3204TIP3   OH2 9568   7.456   0.170   0.659
 3204TIP3    H1 9569   7.370   0.210   0.671
 3204TIP3    H2 9570   7.482   0.195   0.570
 3205TIP3   OH2 9571   5.013   1.079   3.655
 3205TIP3    H1 9572   5.052   1.111   3.737
 3205TIP3    H2 9573   5.009   0.984   3.667
 3206TIP3   OH2 9574   0.413   2.492   2.442
 3206TIP3    H1 9575   0.431   2.487   2.348
 3206TIP3    H2 9576   0.335   2.438   2.455
 3207TIP3   OH2 9577   5.285   2.630   1.922
 3207TIP3    H1 9578   5.260   2.656   1.834
 3207TIP3    H2 9579   5.318   2.710   1.963
 3208TIP3   OH2 9580   3.703   4.823   1.345
 3208TIP3    H1 9581   3.730   4.915   1.339
 3208TIP3    H2 9582   3.608   4.826   1.338
 3209TIP3   OH2 9583   7.384   2.838   0.687
 3209TIP3    H1 9584   7.331   2.853   0.609
 3209TIP3    H2 9585   7.392   2.925   0.727
 3210TIP3   OH2 9586   7.888   4.872   3.062
 3210TIP3    H1 9587   7.910   4.812   3.132
 3210TIP3    H2 9588   7.817   4.829   3.015
 3211TIP3   OH2 9589   3.982   2.276   2.767
 3211TIP3    H1 9590   3.951   2.206   2.825
 3211TIP3    H2 9591   4.007   2.232   2.687
 3212TIP3   OH2 9592   5.970   7.209   6.033
 3212TIP3    H1 9593   5.924   7.129   6.010
 3212TIP3    H2 9594   5.946   7.226   6.124
 3213TIP3   OH2 9595   3.669   6.465   2.752
 3213TIP3    H1 9596   3.585   6.490   2.790
 3213TIP3    H2 9597   3.678   6.372   2.773
 3214TIP3   OH2 9598   3.235   5.862   1.948
 3214TIP3    H1 9599   3.250   5.953   1.974
 3214TIP3    H2 9600   3.273   5.810   2.018
 3215TIP3   OH2 9601   6.382   7.220   0.466
 3215TIP3    H1 9602   6.371   7.161   0.391
 3215TIP3    H2 9603   6.388   7.163   0.542
 3216TIP3   OH2 9604   2.841   6.550   0.597
 3216TIP3    H1 9605   2.828   6.589   0.683
 3216TIP3    H2 9606   2.891   6.614   0.548
 3217TIP3   OH2 9607   1.791   5.574   4.389
 3217TIP3    H1 9608   1.802   5.535   4.476
 3217TIP3    H2 9609   1.710   5.536   4.356
 3218TIP3   OH2 9610   6.675   6.165   3.926
 3218TIP3    H1 9611   6.760   6.121   3.934
 3218TIP3    H2 9612   6.696   6.257   3.910
 3219TIP3   OH2 9613   4.348   5.457   0.944
 3219TIP3    H1 9614   4.280   5.391   0.940
 3219TIP3    H2 9615   4.304   5.539   0.922
 3220TIP3   OH2 9616   7.426   3.590   6.604
 3220TIP3    H1 9617   7.516   3.586   6.574
 3220TIP3    H2 9618   7.384   3.513   6.566
 3221TIP3   OH2 9619   2.363   2.692   2.742
 3221TIP3    H1 9620   2.373   2.706   2.836
 3221TIP3    H2 9621   2.393   2.774   2.702
 3222TIP3   OH2 9622   3.795   5.819   3.987
 3222TIP3    H1 9623   3.837   5.783   4.066
 3222TIP3    H2 9624   3.720   5.868   4.020
 3223TIP3   OH2 9625   4.532   5.348   0.433
 3223TIP3    H1 9626   4.475   5.408   0.481
 3223TIP3    H2 9627   4.570   5.291   0.499
 3224TIP3   OH2 9628   5.523   7.514   0.200
 3224TIP3    H1 9629   5.540   7.593   0.251
 3224TIP3    H2 9630   5.588   7.451   0.231
 3225TIP3   OH2 9631   1.130   0.422   1.562
 3225TIP3    H1 9632   1.131   0.502   1.615
 3225TIP3    H2 9633   1.222   0.395   1.557
 3226TIP3   OH2 9634   0.873   7.704   1.613
 3226TIP3    H1 9635   0.855   7.698   1.519
 3226TIP3    H2 9636   0.963   7.739   1.617
 3227TIP3   OH2 9637   8.075   5.433   6.718
 3227TIP3    H1 9638   8.036   5.462   6.636
 3227TIP3    H2 9639   8.035   5.489   6.785
 3228TIP3   OH2 9640   5.766   3.131   6.279
 3228TIP3    H1 9641   5.786   3.184   6.356
 3228TIP3    H2 9642   5.838   3.069   6.273
 3229TIP3   OH2 9643   1.747   7.774   2.292
 3229TIP3    H1 9644   1.825   7.775   2.236
 3229TIP3    H2 9645   1.776   7.729   2.371
 3230TIP3   OH2 9646   2.903   3.018   6.358
 3230TIP3    H1 9647   2.891   3.093   6.299
 3230TIP3    H2 9648   2.996   2.997   6.352
 3231TIP3   OH2 9649   2.869   7.677   1.326
 3231TIP3    H1 9650   2.931   7.704   1.258
 3231TIP3    H2 9651   2.924   7.653   1.401
 3232TIP3   OH2 9652   4.772   0.300   1.296
 3232TIP3    H1 9653   4.836   0.352   1.247
 3232TIP3    H2 9654   4.687   0.333   1.266
 3233TIP3   OH2 9655   7.932   2.416   2.347
 3233TIP3    H1 9656   7.851   2.421   2.296
 3233TIP3    H2 9657   7.991   2.477   2.303
 3234TIP3   OH2 9658   1.080   0.407   4.360
 3234TIP3    H1 9659   1.043   0.474   4.418
 3234TIP3    H2 9660   1.175   0.420   4.365
 3235TIP3   OH2 9661   3.988   1.520   4.170
 3235TIP3    H1 9662   4.007   1.434   4.132
 3235TIP3    H2 9663   4.011   1.582   4.101
 3236TIP3   OH2 9664   3.490   1.644   6.418
 3236TIP3    H1 9665   3.562   1.642   6.355
 3236TIP3    H2 9666   3.506   1.569   6.475
 3237TIP3   OH2 9667   6.794   3.676   6.699
 3237TIP3    H1 9668   6.886   3.657   6.720
 3237TIP3    H2 9669   6.751   3.590   6.700
 3238TIP3   OH2 9670   5.616   4.902   4.864
 3238TIP3    H1 9671   5.677   4.881   4.793
 3238TIP3    H2 9672   5.549   4.833   4.858
 3239TIP3   OH2 9673   6.090   3.414   4.565
 3239TIP3    H1 9674   6.094   3.351   4.493
 3239TIP3    H2 9675   6.169   3.399   4.615
 3240TIP3   OH2 9676   8.063   5.539   3.111
 3240TIP3    H1 9677   8.063   5.489   3.029
 3240TIP3    H2 9678   8.011   5.616   3.092
 3241TIP3   OH2 9679   6.892   3.469   2.007
 3241TIP3    H1 9680   6.913   3.410   2.079
 3241TIP3    H2 9681   6.977   3.485   1.964
 3242TIP3   OH2 9682   1.572   2.304   4.449
 3242TIP3    H1 9683   1.666   2.290   4.453
 3242TIP3    H2 9684   1.557   2.342   4.362
 3243TIP3   OH2 9685   3.431   0.220   0.671
 3243TIP3    H1 9686   3.509   0.192   0.718
 3243TIP3    H2 9687   3.424   0.314   0.690
 3244TIP3   OH2 9688   1.799   5.244   3.642
 3244TIP3    H1 9689   1.719   5.259   3.693
 3244TIP3    H2 9690   1.775   5.263   3.552
 3245TIP3   OH2 9691   4.416   1.970   4.216
 3245TIP3    H1 9692   4.394   1.972   4.123
 3245TIP3    H2 9693   4.491   1.911   4.222
 3246TIP3   OH2 9694   5.552   2.963   6.408
 3246TIP3    H1 9695   5.601   2.985   6.488
 3246TIP3    H2 9696   5.611   2.988   6.337
 3247TIP3   OH2 9697   4.114   7.808   0.471
 3247TIP3    H1 9698   4.132   7.888   0.423
 3247TIP3    H2 9699   4.044   7.765   0.422
 3248TIP3   OH2 9700   5.928   4.110   5.399
 3248TIP3    H1 9701   6.023   4.098   5.400
 3248TIP3    H2 9702   5.893   4.026   5.429
 3249TIP3   OH2 9703   1.609   7.665   5.619
 3249TIP3    H1 9704   1.649   7.658   5.706
 3249TIP3    H2 9705   1.661   7.606   5.564
 3250TIP3   OH2 9706   3.367   7.346   0.424
 3250TIP3    H1 9707   3.314   7.277   0.385
 3250TIP3    H2 9708   3.456   7.313   0.423
 3251TIP3   OH2 9709   7.251   3.871   2.317
 3251TIP3    H1 9710   7.285   3.790   2.278
 3251TIP3    H2 9711   7.309   3.887   2.391
 3252TIP3   OH2 9712   3.518   7.601   2.631
 3252TIP3    H1 9713   3.543   7.513   2.601
 3252TIP3    H2 9714   3.503   7.650   2.550
 3253TIP3   OH2 9715   3.046   3.706   3.195
 3253TIP3    H1 9716   3.122   3.648   3.194
 3253TIP3    H2 9717   3.080   3.791   3.169
 3254TIP3   OH2 9718   7.588   1.624   4.728
 3254TIP3    H1 9719   7.665   1.663   4.769
 3254TIP3    H2 9720   7.536   1.700   4.700
 3255TIP3   OH2 9721   6.380   0.752   4.160
 3255TIP3    H1 9722   6.435   0.757   4.081
 3255TIP3    H2 9723   6.388   0.838   4.200
 3256TIP3   OH2 9724   7.799   0.861   1.383
 3256TIP3    H1 9725   7.740   0.836   1.454
 3256TIP3    H2 9726   7.742   0.899   1.317
 3257TIP3   OH2 9727   8.188   4.975   3.882
 3257TIP3    H1 9728   8.169   4.919   3.957
 3257TIP3    H2 9729   8.123   4.950   3.816
 3258TIP3   OH2 9730   4.049   7.452   2.071
 3258TIP3    H1 9731   4.125   7.468   2.016
 3258TIP3    H2 9732   4.087   7.428   2.156
 3259TIP3   OH2 9733   4.932   3.617   2.221
 3259TIP3    H1 9734   4.959   3.645   2.133
 3259TIP3    H2 9735   4.843   3.652   2.231
 3260TIP3   OH2 9736   3.317   3.225   0.229
 3260TIP3    H1 9737   3.292   3.146   0.182
 3260TIP3    H2 9738   3.367   3.194   0.304
 3261TIP3   OH2 9739   1.129   0.576   2.307
 3261TIP3    H1 9740   1.060   0.633   2.340
 3261TIP3    H2 9741   1.092   0.537   2.228
 3262TIP3   OH2 9742   2.490   0.995   1.937
 3262TIP3    H1 9743   2.546   0.956   1.870
 3262TIP3    H2 9744   2.442   0.921   1.975
 3263TIP3   OH2 9745   5.026   5.076   1.888
 3263TIP3    H1 9746   5.036   5.143   1.821
 3263TIP3    H2 9747   4.974   5.118   1.957
 3264TIP3   OH2 9748   2.955   6.786   6.684
 3264TIP3    H1 9749   3.050   6.789   6.698
 3264TIP3    H2 9750   2.943   6.826   6.598
 3265TIP3   OH2 9751   0.111   3.532   3.999
 3265TIP3    H1 9752   0.023   3.557   3.973
 3265TIP3    H2 9753   0.165   3.609   3.981
 3266TIP3   OH2 9754   1.403   0.804   3.421
 3266TIP3    H1 9755   1.420   0.875   3.360
 3266TIP3    H2 9756   1.487   0.790   3.465
 3267TIP3   OH2 9757   0.292   2.715   1.427
 3267TIP3    H1 9758   0.332   2.698   1.512
 3267TIP3    H2 9759   0.357   2.770   1.381
 3268TIP3   OH2 9760   4.050   4.449   0.249
 3268TIP3    H1 9761   4.000   4.407   0.318
 3268TIP3    H2 9762   4.039   4.392   0.173
 3269TIP3   OH2 9763   4.371   6.620   1.363
 3269TIP3    H1 9764   4.418   6.558   1.307
 3269TIP3    H2 9765   4.364   6.699   1.309
 3270TIP3   OH2 9766   3.328   0.365   1.024
 3270TIP3    H1 9767   3.234   0.381   1.012
 3270TIP3    H2 9768   3.349   0.410   1.106
 3271TIP3   OH2 9769   7.606   1.594   2.233
 3271TIP3    H1 9770   7.598   1.507   2.195
 3271TIP3    H2 9771   7.566   1.587   2.320
 3272TIP3   OH2 9772   6.511   3.143   0.051
 3272TIP3    H1 9773   6.600   3.116   0.027
 3272TIP3    H2 9774   6.467   3.158  -0.033
 3273TIP3   OH2 9775   6.947   0.819   6.221
 3273TIP3    H1 9776   7.029   0.852   6.185
 3273TIP3    H2 9777   6.965   0.810   6.315
 3274TIP3   OH2 9778   1.305   5.448   0.801
 3274TIP3    H1 9779   1.292   5.536   0.765
 3274TIP3    H2 9780   1.307   5.391   0.724
 3275TIP3   OH2 9781   4.129   2.390   1.496
 3275TIP3    H1 9782   4.064   2.433   1.442
 3275TIP3    H2 9783   4.212   2.401   1.449
 3276TIP3   OH2 9784   0.807   7.413   5.821
 3276TIP3    H1 9785   0.891   7.420   5.776
 3276TIP3    H2 9786   0.777   7.504   5.830
 3277TIP3   OH2 9787   1.556   0.342   2.367
 3277TIP3    H1 9788   1.637   0.371   2.408
 3277TIP3    H2 9789   1.499   0.419   2.369
 3278TIP3   OH2 9790   4.235   5.135   6.663
 3278TIP3    H1 9791   4.249   5.046   6.631
 3278TIP3    H2 9792   4.279   5.137   6.748
 3279TIP3   OH2 9793   6.025   1.635   6.279
 3279TIP3    H1 9794   6.048   1.606   6.191
 3279TIP3    H2 9795   5.964   1.707   6.265
 3280TIP3   OH2 9796   2.908   3.219   6.175
 3280TIP3    H1 9797   2.996   3.254   6.162
 3280TIP3    H2 9798   2.849   3.289   6.146
 3281TIP3   OH2 9799   5.149   7.670   0.300
 3281TIP3    H1 9800   5.221   7.610   0.278
 3281TIP3    H2 9801   5.125   7.647   0.389
 3282TIP3   OH2 9802   2.011   2.211   3.576
 3282TIP3    H1 9803   1.947   2.150   3.538
 3282TIP3    H2 9804   2.078   2.155   3.615
 3283TIP3   OH2 9805   7.067   1.411   4.969
 3283TIP3    H1 9806   6.999   1.410   5.037
 3283TIP3    H2 9807   7.076   1.503   4.945
 3284TIP3   OH2 9808   5.749   6.750   4.516
 3284TIP3    H1 9809   5.694   6.825   4.492
 3284TIP3    H2 9810   5.712   6.676   4.468
 3285TIP3   OH2 9811   1.961   5.616   1.696
 3285TIP3    H1 9812   2.055   5.617   1.717
 3285TIP3    H2 9813   1.953   5.553   1.624
 3286TIP3   OH2 9814   7.063   4.295   2.360
 3286TIP3    H1 9815   6.992   4.269   2.419
 3286TIP3    H2 9816   7.033   4.265   2.274
 3287TIP3   OH2 9817   5.100   1.213   3.128
 3287TIP3    H1 9818   5.102   1.191   3.221
 3287TIP3    H2 9819   5.126   1.305   3.124
 3288TIP3   OH2 9820   4.452   5.317   2.314
 3288TIP3    H1 9821   4.492   5.394   2.354
 3288TIP3    H2 9822   4.409   5.271   2.387
 3289TIP3   OH2 9823   5.040   3.305   6.278
 3289TIP3    H1 9824   5.004   3.232   6.228
 3289TIP3    H2 9825   5.036   3.379   6.217
 3290TIP3   OH2 9826   7.474   1.195   0.979
 3290TIP3    H1 9827   7.549   1.232   0.934
 3290TIP3    H2 9828   7.423   1.151   0.911
 3291TIP3   OH2 9829   0.006   2.059   1.438
 3291TIP3    H1 9830   0.077   2.010   1.395
 3291TIP3    H2 9831   0.000   2.019   1.525
 3292TIP3   OH2 9832   1.694   6.795   3.807
 3292TIP3    H1 9833   1.627   6.848   3.851
 3292TIP3    H2 9834   1.765   6.789   3.870
 3293TIP3   OH2 9835   2.928   2.435   1.771
 3293TIP3    H1 9836   3.017   2.440   1.735
 3293TIP3    H2 9837   2.915   2.341   1.787
 3294TIP3   OH2 9838   3.497   7.243   5.866
 3294TIP3    H1 9839   3.473   7.251   5.774
 3294TIP3    H2 9840   3.436   7.179   5.902
 3295TIP3   OH2 9841   5.955   3.741   4.984
 3295TIP3    H1 9842   5.996   3.826   4.997
 3295TIP3    H2 9843   5.973   3.693   5.065
 3296TIP3   OH2 9844   7.483   0.811   6.298
 3296TIP3    H1 9845   7.467   0.718   6.318
 3296TIP3    H2 9846   7.461   0.819   6.205
 3297TIP3   OH2 9847   5.430   5.194   2.047
 3297TIP3    H1 9848   5.504   5.254   2.036
 3297TIP3    H2 9849   5.357   5.236   2.002
 3298TIP3   OH2 9850   3.729   6.765   1.389
 3298TIP3    H1 9851   3.667   6.838   1.394
 3298TIP3    H2 9852   3.678   6.695   1.348
 3299TIP3   OH2 9853   1.700   6.182   4.557
 3299TIP3    H1 9854   1.758   6.132   4.616
 3299TIP3    H2 9855   1.665   6.116   4.497
 3300TIP3   OH2 9856   1.880   5.923   2.251
 3300TIP3    H1 9857   1.871   6.002   2.303
 3300TIP3    H2 9858   1.873   5.851   2.314
 3301TIP3   OH2 9859   6.242   2.421   3.084
 3301TIP3    H1 9860   6.252   2.512   3.109
 3301TIP3    H2 9861   6.254   2.421   2.989
 3302TIP3   OH2 9862   2.127   4.695   5.555
 3302TIP3    H1 9863   2.059   4.757   5.580
 3302TIP3    H2 9864   2.190   4.697   5.627
 3303TIP3   OH2 9865   6.766   6.354   2.024
 3303TIP3    H1 9866   6.728   6.316   2.103
 3303TIP3    H2 9867   6.701   6.335   1.956
 3304TIP3   OH2 9868   4.509   6.564   2.859
 3304TIP3    H1 9869   4.439   6.625   2.835
 3304TIP3    H2 9870   4.578   6.619   2.896
 3305TIP3   OH2 9871   7.296   6.578   4.223
 3305TIP3    H1 9872   7.288   6.672   4.238
 3305TIP3    H2 9873   7.357   6.548   4.290
 3306TIP3   OH2 9874   3.534   4.338   0.789
 3306TIP3    H1 9875   3.517   4.427   0.759
 3306TIP3    H2 9876   3.474   4.325   0.862
 3307TIP3   OH2 9877   1.293   3.050   0.496
 3307TIP3    H1 9878   1.286   3.096   0.413
 3307TIP3    H2 9879   1.338   2.968   0.474
 3308TIP3   OH2 9880   6.901   6.332   5.244
 3308TIP3    H1 9881   6.964   6.261   5.233
 3308TIP3    H2 9882   6.903   6.351   5.338
 3309TIP3   OH2 9883   2.337   2.192   4.926
 3309TIP3    H1 9884   2.393   2.116   4.942
 3309TIP3    H2 9885   2.248   2.161   4.944
 3310TIP3   OH2 9886   5.060   6.877   4.878
 3310TIP3    H1 9887   5.085   6.786   4.868
 3310TIP3    H2 9888   5.010   6.898   4.799
 3311TIP3   OH2 9889   7.867   3.648   4.698
 3311TIP3    H1 9890   7.901   3.726   4.656
 3311TIP3    H2 9891   7.878   3.579   4.632
 3312TIP3   OH2 9892   8.012   1.817   5.672
 3312TIP3    H1 9893   8.096   1.793   5.711
 3312TIP3    H2 9894   7.996   1.906   5.702
 3313TIP3   OH2 9895   4.176   0.486   2.824
 3313TIP3    H1 9896   4.089   0.485   2.785
 3313TIP3    H2 9897   4.190   0.396   2.856
 3314TIP3   OH2 9898   5.474   7.634   4.677
 3314TIP3    H1 9899   5.415   7.674   4.741
 3314TIP3    H2 9900   5.418   7.616   4.602
 3315TIP3   OH2 9901   7.251   6.870   3.244
 3315TIP3    H1 9902   7.166   6.859   3.201
 3315TIP3    H2 9903   7.302   6.793   3.217
 3316TIP3   OH2 9904   4.847   6.329   2.287
 3316TIP3    H1 9905   4.832   6.272   2.362
 3316TIP3    H2 9906   4.778   6.395   2.294
 3317TIP3   OH2 9907   6.109   1.445   1.611
 3317TIP3    H1 9908   6.128   1.538   1.616
 3317TIP3    H2 9909   6.184   1.403   1.654
 3318TIP3   OH2 9910   3.704   3.176   6.398
 3318TIP3    H1 9911   3.783   3.138   6.361
 3318TIP3    H2 9912   3.717   3.171   6.493
 3319TIP3   OH2 9913   5.258   7.793   6.360
 3319TIP3    H1 9914   5.231   7.715   6.409
 3319TIP3    H2 9915   5.279   7.858   6.427
 3320TIP3   OH2 9916   7.327   7.533   0.640
 3320TIP3    H1 9917   7.398   7.478   0.605
 3320TIP3    H2 9918   7.342   7.532   0.735
 3321TIP3   OH2 9919   4.446   6.720   0.275
 3321TIP3    H1 9920   4.367   6.751   0.321
 3321TIP3    H2 9921   4.478   6.797   0.228
 3322TIP3   OH2 9922   2.984   5.439   1.268
 3322TIP3    H1 9923   2.961   5.362   1.216
 3322TIP3    H2 9924   3.074   5.422   1.297
 3323TIP3   OH2 9925   8.027   5.590   6.016
 3323TIP3    H1 9926   7.959   5.525   5.996
 3323TIP3    H2 9927   8.109   5.548   5.990
 3324TIP3   OH2 9928   0.625   5.058   2.855
 3324TIP3    H1 9929   0.700   5.056   2.914
 3324TIP3    H2 9930   0.658   5.100   2.776
 3325TIP3   OH2 9931   1.015   4.178   4.813
 3325TIP3    H1 9932   1.069   4.099   4.814
 3325TIP3    H2 9933   1.078   4.250   4.809
 3326TIP3   OH2 9934   4.878   2.112   6.101
 3326TIP3    H1 9935   4.969   2.138   6.089
 3326TIP3    H2 9936   4.869   2.100   6.196
 3327TIP3   OH2 9937   6.186   4.927   1.262
 3327TIP3    H1 9938   6.273   4.961   1.240
 3327TIP3    H2 9939   6.188   4.836   1.233
 3328TIP3   OH2 9940   3.180   0.121   4.613
 3328TIP3    H1 9941   3.098   0.087   4.578
 3328TIP3    H2 9942   3.192   0.205   4.570
 3329TIP3   OH2 9943   4.450   0.581   0.987
 3329TIP3    H1 9944   4.478   0.560   0.898
 3329TIP3    H2 9945   4.355   0.593   0.980
 3330TIP3   OH2 9946   3.996   2.545   5.994
 3330TIP3    H1 9947   3.997   2.463   6.042
 3330TIP3    H2 9948   4.079   2.588   6.016
 3331TIP3   OH2 9949   4.857   7.203   0.715
 3331TIP3    H1 9950   4.813   7.285   0.735
 3331TIP3    H2 9951   4.930   7.228   0.658
 3332TIP3   OH2 9952   0.208   0.038   4.181
 3332TIP3    H1 9953   0.153   0.015   4.106
 3332TIP3    H2 9954   0.210   0.134   4.182
 3333TIP3   OH2 9955   4.959   3.144   1.759
 3333TIP3    H1 9956   4.897   3.129   1.830
 3333TIP3    H2 9957   4.969   3.059   1.717
 3334TIP3   OH2 9958   2.294   2.140   3.389
 3334TIP3    H1 9959   2.303   2.235   3.395
 3334TIP3    H2 9960   2.328   2.107   3.472
 3335TIP3   OH2 9961   0.860   5.457   2.664
 3335TIP3    H1 9962   0.772   5.447   2.627
 3335TIP3    H2 9963   0.919   5.453   2.589
 3336TIP3   OH2 9964   2.398   3.857   5.139
 3336TIP3    H1 9965   2.326   3.808   5.180
 3336TIP3    H2 9966   2.406   3.936   5.192
 3337TIP3   OH2 9967   1.741   1.683   0.343
 3337TIP3    H1 9968   1.760   1.681   0.437
 3337TIP3    H2 9969   1.656   1.639   0.335
 3338TIP3   OH2 9970   6.219   6.999   2.142
 3338TIP3    H1 9971   6.158   7.001   2.215
 3338TIP3    H2 9972   6.184   7.065   2.081
 3339TIP3   OH2 9973   4.165   0.331   1.061
 3339TIP3    H1 9974   4.180   0.425   1.069
 3339TIP3    H2 9975   4.074   0.319   1.088
 3340TIP3   OH2 9976   1.068   6.038   3.476
 3340TIP3    H1 9977   1.033   5.953   3.503
 3340TIP3    H2 9978   1.161   6.033   3.496
 3341TIP3   OH2 9979   6.568   0.435   6.000
 3341TIP3    H1 9980   6.643   0.494   6.000
 3341TIP3    H2 9981   6.606   0.348   5.988
 3342TIP3   OH2 9982   0.623   1.377   1.964
 3342TIP3    H1 9983   0.537   1.350   1.931
 3342TIP3    H2 9984   0.630   1.333   2.049
 3343TIP3   OH2 9985   7.513   3.818   2.462
 3343TIP3    H1 9986   7.577   3.883   2.435
 3343TIP3    H2 9987   7.476   3.851   2.543
 3344TIP3   OH2 9988   2.863   4.070   3.463
 3344TIP3    H1 9989   2.826   4.093   3.548
 3344TIP3    H2 9990   2.790   4.077   3.402
 3345TIP3   OH2 9991   6.774   2.122   0.349
 3345TIP3    H1 9992   6.824   2.046   0.318
 3345TIP3    H2 9993   6.699   2.127   0.290
 3346TIP3   OH2 9994   5.155   4.861   3.512
 3346TIP3    H1 9995   5.106   4.914   3.448
 3346TIP3    H2 9996   5.204   4.925   3.562
 3347TIP3   OH2 9997   2.831   5.216   2.737
 3347TIP3    H1 9998   2.840   5.159   2.661
 3347TIP3    H2 9999   2.810   5.157   2.809
 3348TIP3   OH210000   2.022   4.456   4.772
 3348TIP3    H110001   2.079   4.465   4.848
 3348TIP3    H210002   2.036   4.366   4.743
 3349TIP3   OH210003   5.728   4.873   2.390
 3349TIP3    H110004   5.706   4.885   2.298
 3349TIP3    H210005   5.814   4.915   2.400
 3350TIP3   OH210006   7.503   4.443   4.420
 3350TIP3    H110007   7.525   4.499   4.345
 3350TIP3    H210008   7.445   4.497   4.474
 3351TIP3   OH210009   5.655   2.401   3.286
 3351TIP3    H110010   5.715   2.388   3.359
 3351TIP3    H210011   5.645   2.496   3.278
 3352TIP3   OH210012   6.987   2.416   5.561
 3352TIP3    H110013   6.962   2.482   5.497
 3352TIP3    H210014   6.940   2.337   5.534
 3353TIP3   OH210015   2.229   0.971   2.908
 3353TIP3    H110016   2.154   0.926   2.868
 3353TIP3    H210017   2.304   0.942   2.856
 3354TIP3   OH210018   4.419   7.261   4.162
 3354TIP3    H110019   4.443   7.333   4.220
 3354TIP3    H210020   4.358   7.208   4.215
 3355TIP3   OH210021   0.569   6.734   2.443
 3355TIP3    H110022   0.480   6.703   2.430
 3355TIP3    H210023   0.623   6.656   2.430
 3356TIP3   OH210024   7.410   0.657   1.864
 3356TIP3    H110025   7.480   0.715   1.895
 3356TIP3    H210026   7.399   0.594   1.936
 3357TIP3   OH210027   6.678   1.669   3.823
 3357TIP3    H110028   6.748   1.735   3.826
 3357TIP3    H210029   6.601   1.718   3.793
 3358TIP3   OH210030   6.942   0.630   0.540
 3358TIP3    H110031   6.882   0.647   0.468
 3358TIP3    H210032   6.887   0.633   0.618
 3359TIP3   OH210033   1.546   5.438   4.326
 3359TIP3    H110034   1.499   5.356   4.343
 3359TIP3    H210035   1.530   5.492   4.403
 3360TIP3   OH210036   6.231   1.144   6.000
 3360TIP3    H110037   6.229   1.232   6.038
 3360TIP3    H210038   6.322   1.118   6.004
 3361TIP3   OH210039   1.933   0.610   2.083
 3361TIP3    H110040   1.921   0.526   2.038
 3361TIP3    H210041   1.848   0.629   2.122
 3362TIP3   OH210042   1.570   2.682   1.122
 3362TIP3    H110043   1.572   2.596   1.163
 3362TIP3    H210044   1.477   2.703   1.114
 3363TIP3   OH210045   0.614   1.022   2.531
 3363TIP3    H110046   0.636   0.929   2.540
 3363TIP3    H210047   0.637   1.060   2.616
 3364TIP3   OH210048   6.143   2.440   0.916
 3364TIP3    H110049   6.175   2.443   1.006
 3364TIP3    H210050   6.179   2.359   0.880
 3365TIP3   OH210051   1.266   3.292   5.236
 3365TIP3    H110052   1.191   3.246   5.275
 3365TIP3    H210053   1.264   3.379   5.276
 3366TIP3   OH210054   5.311   7.814   2.765
 3366TIP3    H110055   5.373   7.778   2.702
 3366TIP3    H210056   5.230   7.766   2.747
 3367TIP3   OH210057   6.982   6.525   6.072
 3367TIP3    H110058   6.897   6.517   6.115
 3367TIP3    H210059   6.961   6.553   5.983
 3368TIP3   OH210060   5.599   7.698   5.827
 3368TIP3    H110061   5.598   7.787   5.864
 3368TIP3    H210062   5.509   7.684   5.795
 3369TIP3   OH210063   2.059   0.916   6.682
 3369TIP3    H110064   1.977   0.965   6.673
 3369TIP3    H210065   2.105   0.931   6.599
 3370TIP3   OH210066   5.799   1.913   0.604
 3370TIP3    H110067   5.846   1.918   0.687
 3370TIP3    H210068   5.810   1.999   0.564
 3371TIP3   OH210069   1.478   6.537   0.135
 3371TIP3    H110070   1.497   6.593   0.060
 3371TIP3    H210071   1.453   6.453   0.097
 3372TIP3   OH210072   2.198   1.171   0.664
 3372TIP3    H110073   2.258   1.209   0.600
 3372TIP3    H210074   2.253   1.151   0.740
 3373TIP3   OH210075   4.791   6.317   5.249
 3373TIP3    H110076   4.703   6.281   5.244
 3373TIP3    H210077   4.819   6.300   5.339
 3374TIP3   OH210078   1.423   7.395   3.771
 3374TIP3    H110079   1.492   7.332   3.754
 3374TIP3    H210080   1.364   7.350   3.832
 3375TIP3   OH210081   4.789   5.883   4.052
 3375TIP3    H110082   4.793   5.818   3.982
 3375TIP3    H210083   4.872   5.930   4.046
 3376TIP3   OH210084   4.541   1.325   2.796
 3376TIP3    H110085   4.560   1.401   2.850
 3376TIP3    H210086   4.487   1.359   2.724
 3377TIP3   OH210087   5.121   4.945   0.282
 3377TIP3    H110088   5.165   4.867   0.247
 3377TIP3    H210089   5.110   4.925   0.375
 3378TIP3   OH210090   5.786   3.078   3.046
 3378TIP3    H110091   5.733   3.038   2.977
 3378TIP3    H210092   5.723   3.130   3.096
 3379TIP3   OH210093   0.842   6.948   6.230
 3379TIP3    H110094   0.866   7.031   6.270
 3379TIP3    H210095   0.912   6.931   6.166
 3380TIP3   OH210096   1.800   3.336   5.869
 3380TIP3    H110097   1.748   3.337   5.949
 3380TIP3    H210098   1.738   3.312   5.800
 3381TIP3   OH210099   3.221   2.880   3.543
 3381TIP3    H110100   3.129   2.903   3.533
 3381TIP3    H210101   3.220   2.799   3.594
 3382TIP3   OH210102   2.880   4.723   0.436
 3382TIP3    H110103   2.820   4.665   0.483
 3382TIP3    H210104   2.876   4.806   0.483
 3383TIP3   OH210105   4.944   6.928   2.905
 3383TIP3    H110106   4.886   6.945   2.831
 3383TIP3    H210107   4.957   7.014   2.946
 3384TIP3   OH210108   3.799   4.451   3.682
 3384TIP3    H110109   3.723   4.506   3.660
 3384TIP3    H210110   3.778   4.415   3.768
 3385TIP3   OH210111   5.353   6.017   3.588
 3385TIP3    H110112   5.314   6.020   3.501
 3385TIP3    H210113   5.284   5.978   3.643
 3386TIP3   OH210114   6.216   0.313   5.576
 3386TIP3    H110115   6.267   0.313   5.657
 3386TIP3    H210116   6.178   0.225   5.572
 3387TIP3   OH210117   6.045   4.471   4.194
 3387TIP3    H110118   6.063   4.378   4.180
 3387TIP3    H210119   5.967   4.489   4.141
 3388TIP3   OH210120   2.441   1.681   0.681
 3388TIP3    H110121   2.430   1.765   0.724
 3388TIP3    H210122   2.365   1.630   0.707
 3389TIP3   OH210123   4.189   6.389   1.601
 3389TIP3    H110124   4.158   6.344   1.522
 3389TIP3    H210125   4.262   6.336   1.632
 3390TIP3   OH210126   6.851   6.837   2.580
 3390TIP3    H110127   6.923   6.812   2.523
 3390TIP3    H210128   6.778   6.855   2.520
 3391TIP3   OH210129   4.271   6.842   3.680
 3391TIP3    H110130   4.293   6.811   3.593
 3391TIP3    H210131   4.289   6.936   3.677
 3392TIP3   OH210132   3.185   1.239   0.947
 3392TIP3    H110133   3.125   1.314   0.942
 3392TIP3    H210134   3.195   1.211   0.856
 3393TIP3   OH210135   6.675   2.898   0.210
 3393TIP3    H110136   6.586   2.869   0.190
 3393TIP3    H210137   6.663   2.972   0.270
 3394TIP3   OH210138   7.210   1.117   1.667
 3394TIP3    H110139   7.226   1.210   1.651
 3394TIP3    H210140   7.127   1.100   1.623
 3395TIP3   OH210141   2.498   5.091   3.597
 3395TIP3    H110142   2.578   5.091   3.649
 3395TIP3    H210143   2.464   5.180   3.604
 3396TIP3   OH210144   6.192   3.153   1.837
 3396TIP3    H110145   6.141   3.127   1.760
 3396TIP3    H210146   6.256   3.216   1.803
 3397TIP3   OH210147   8.319   1.613   5.738
 3397TIP3    H110148   8.284   1.699   5.714
 3397TIP3    H210149   8.255   1.578   5.801
 3398TIP3   OH210150   4.948   3.623   5.254
 3398TIP3    H110151   4.982   3.712   5.263
 3398TIP3    H210152   4.908   3.604   5.339
 3399TIP3   OH210153   4.820   4.457   0.920
 3399TIP3    H110154   4.837   4.451   1.014
 3399TIP3    H210155   4.868   4.384   0.882
 3400TIP3   OH210156   3.659   3.220   1.332
 3400TIP3    H110157   3.624   3.284   1.269
 3400TIP3    H210158   3.600   3.145   1.324
 3401TIP3   OH210159   2.967   5.802   2.865
 3401TIP3    H110160   3.019   5.872   2.905
 3401TIP3    H210161   2.911   5.847   2.802
 3402TIP3   OH210162   7.238   5.263   3.224
 3402TIP3    H110163   7.326   5.240   3.193
 3402TIP3    H210164   7.180   5.236   3.153
 3403TIP3   OH210165   6.648   5.936   3.674
 3403TIP3    H110166   6.581   5.930   3.742
 3403TIP3    H210167   6.603   5.911   3.593
 3404TIP3   OH210168   1.464   0.687   4.624
 3404TIP3    H110169   1.471   0.765   4.569
 3404TIP3    H210170   1.401   0.711   4.693
 3405TIP3   OH210171   4.562   5.365   4.818
 3405TIP3    H110172   4.528   5.385   4.905
 3405TIP3    H210173   4.486   5.370   4.760
 3406TIP3   OH210174   5.158   5.844   1.075
 3406TIP3    H110175   5.158   5.799   1.159
 3406TIP3    H210176   5.240   5.893   1.073
 3407TIP3   OH210177   3.694   7.606   1.881
 3407TIP3    H110178   3.695   7.516   1.848
 3407TIP3    H210179   3.606   7.638   1.863
 3408TIP3   OH210180   7.324   7.170   1.140
 3408TIP3    H110181   7.389   7.193   1.207
 3408TIP3    H210182   7.328   7.075   1.134
 3409TIP3   OH210183   4.848   0.912   6.201
 3409TIP3    H110184   4.907   0.902   6.275
 3409TIP3    H210185   4.840   0.825   6.163
 3410TIP3   OH210186   6.553   4.076   2.727
 3410TIP3    H110187   6.528   4.129   2.651
 3410TIP3    H210188   6.568   4.140   2.797
 3411TIP3   OH210189   3.312   7.008   5.920
 3411TIP3    H110190   3.338   6.940   5.982
 3411TIP3    H210191   3.231   7.044   5.957
 3412TIP3   OH210192   6.381   7.162   1.010
 3412TIP3    H110193   6.467   7.177   1.049
 3412TIP3    H210194   6.326   7.135   1.083
 3413TIP3   OH210195   3.527   6.840   3.809
 3413TIP3    H110196   3.517   6.930   3.779
 3413TIP3    H210197   3.506   6.844   3.902
 3414TIP3   OH210198   0.517   0.493   5.231
 3414TIP3    H110199   0.450   0.528   5.290
 3414TIP3    H210200   0.588   0.558   5.233
 3415TIP3   OH210201   2.856   2.275   3.461
 3415TIP3    H110202   2.910   2.199   3.481
 3415TIP3    H210203   2.867   2.289   3.367
 3416TIP3   OH210204   1.115   7.026   2.557
 3416TIP3    H110205   1.163   6.985   2.485
 3416TIP3    H210206   1.115   7.119   2.536
 3417TIP3   OH210207   0.551   6.704   3.726
 3417TIP3    H110208   0.469   6.655   3.721
 3417TIP3    H210209   0.544   6.756   3.806
 3418TIP3   OH210210   5.207   7.537   0.991
 3418TIP3    H110211   5.280   7.520   1.051
 3418TIP3    H210212   5.143   7.469   1.011
 3419TIP3   OH210213   7.872   4.556   0.249
 3419TIP3    H110214   7.845   4.466   0.229
 3419TIP3    H210215   7.810   4.586   0.316
 3420TIP3   OH210216   2.181   2.799   3.291
 3420TIP3    H110217   2.125   2.866   3.331
 3420TIP3    H210218   2.119   2.738   3.251
 3421TIP3   OH210219   3.493   4.641   0.231
 3421TIP3    H110220   3.461   4.575   0.170
 3421TIP3    H210221   3.440   4.628   0.310
 3422TIP3   OH210222   8.036   7.357   2.529
 3422TIP3    H110223   8.021   7.282   2.586
 3422TIP3    H210224   8.090   7.323   2.458
 3423TIP3   OH210225   8.121   2.971   4.035
 3423TIP3    H110226   8.102   2.986   3.942
 3423TIP3    H210227   8.151   2.880   4.039
 3424TIP3   OH210228   4.790   3.504   6.309
 3424TIP3    H110229   4.732   3.564   6.356
 3424TIP3    H210230   4.797   3.428   6.367
 3425TIP3   OH210231   1.165   5.392   4.833
 3425TIP3    H110232   1.111   5.463   4.867
 3425TIP3    H210233   1.145   5.318   4.890
 3426TIP3   OH210234   2.852   1.134   2.351
 3426TIP3    H110235   2.849   1.229   2.357
 3426TIP3    H210236   2.798   1.112   2.276
 3427TIP3   OH210237   1.632   1.463   4.674
 3427TIP3    H110238   1.589   1.422   4.599
 3427TIP3    H210239   1.713   1.413   4.686
 3428TIP3   OH210240   6.956   4.615   6.079
 3428TIP3    H110241   6.956   4.519   6.082
 3428TIP3    H210242   6.899   4.636   6.005
 3429TIP3   OH210243   0.678   7.163   3.949
 3429TIP3    H110244   0.637   7.244   3.918
 3429TIP3    H210245   0.617   7.130   4.015
 3430TIP3   OH210246   3.488   0.739   1.257
 3430TIP3    H110247   3.418   0.703   1.312
 3430TIP3    H210248   3.506   0.825   1.294
 3431TIP3   OH210249   5.232   6.390   3.258
 3431TIP3    H110250   5.189   6.473   3.237
 3431TIP3    H210251   5.261   6.356   3.173
 3432TIP3   OH210252   7.756   4.252   0.578
 3432TIP3    H110253   7.839   4.207   0.564
 3432TIP3    H210254   7.710   4.243   0.495
 3433TIP3   OH210255   3.434   4.175   3.769
 3433TIP3    H110256   3.417   4.159   3.862
 3433TIP3    H210257   3.371   4.120   3.724
 3434TIP3   OH210258   3.393   5.616   0.674
 3434TIP3    H110259   3.363   5.590   0.587
 3434TIP3    H210260   3.396   5.535   0.724
 3435TIP3   OH210261   3.731   5.099   1.319
 3435TIP3    H110262   3.672   5.114   1.245
 3435TIP3    H210263   3.716   5.174   1.377
 3436TIP3   OH210264   5.390   2.347   6.653
 3436TIP3    H110265   5.451   2.316   6.586
 3436TIP3    H210266   5.408   2.441   6.660
 3437TIP3   OH210267   5.738   7.754   3.219
 3437TIP3    H110268   5.646   7.726   3.221
 3437TIP3    H210269   5.735   7.847   3.242
 3438TIP3   OH210270   1.101   1.827   0.023
 3438TIP3    H110271   1.023   1.843  -0.030
 3438TIP3    H210272   1.120   1.912   0.063
 3439TIP3   OH210273   6.615   2.121   6.404
 3439TIP3    H110274   6.556   2.045   6.402
 3439TIP3    H210275   6.666   2.110   6.484
 3440TIP3   OH210276   4.570   6.638   0.901
 3440TIP3    H110277   4.618   6.711   0.862
 3440TIP3    H210278   4.637   6.574   0.923
 3441TIP3   OH210279   0.752   2.621   2.809
 3441TIP3    H110280   0.683   2.559   2.785
 3441TIP3    H210281   0.784   2.590   2.893
 3442TIP3   OH210282   7.227   0.975   2.197
 3442TIP3    H110283   7.299   0.986   2.135
 3442TIP3    H210284   7.185   1.061   2.201
 3443TIP3   OH210285   2.374   6.678   0.875
 3443TIP3    H110286   2.313   6.743   0.840
 3443TIP3    H210287   2.436   6.663   0.803
 3444TIP3   OH210288   8.283   1.449   6.223
 3444TIP3    H110289   8.282   1.502   6.143
 3444TIP3    H210290   8.241   1.367   6.198
 3445TIP3   OH210291   3.446   4.371   2.600
 3445TIP3    H110292   3.370   4.321   2.570
 3445TIP3    H210293   3.420   4.404   2.686
 3446TIP3   OH210294   6.597   1.620   0.750
 3446TIP3    H110295   6.650   1.694   0.778
 3446TIP3    H210296   6.567   1.644   0.662
 3447TIP3   OH210297   4.300   2.545   0.475
 3447TIP3    H110298   4.326   2.634   0.453
 3447TIP3    H210299   4.377   2.508   0.519
 3448TIP3   OH210300   5.091   6.720   1.509
 3448TIP3    H110301   4.996   6.728   1.497
 3448TIP3    H210302   5.124   6.810   1.503
 3449TIP3   OH210303   0.567   6.911   5.107
 3449TIP3    H110304   0.626   6.837   5.123
 3449TIP3    H210305   0.591   6.941   5.019
 3450TIP3   OH210306   7.766   6.575   1.941
 3450TIP3    H110307   7.759   6.607   2.031
 3450TIP3    H210308   7.766   6.480   1.950
 3451TIP3   OH210309   4.671   1.620   2.581
 3451TIP3    H110310   4.751   1.594   2.626
 3451TIP3    H210311   4.612   1.649   2.651
 3452TIP3   OH210312   6.716   3.892   1.921
 3452TIP3    H110313   6.734   3.973   1.969
 3452TIP3    H210314   6.751   3.823   1.978
 3453TIP3   OH210315   7.214   1.407   2.544
 3453TIP3    H110316   7.263   1.344   2.490
 3453TIP3    H210317   7.165   1.352   2.605
 3454TIP3   OH210318   2.245   3.090   3.596
 3454TIP3    H110319   2.229   3.086   3.502
 3454TIP3    H210320   2.334   3.125   3.604
 3455TIP3   OH210321   2.154   4.076   4.051
 3455TIP3    H110322   2.186   4.132   4.121
 3455TIP3    H210323   2.059   4.083   4.057
 3456TIP3   OH210324   3.211   5.139   1.783
 3456TIP3    H110325   3.186   5.082   1.711
 3456TIP3    H210326   3.273   5.087   1.834
 3457TIP3   OH210327   5.590   2.261   5.293
 3457TIP3    H110328   5.541   2.213   5.360
 3457TIP3    H210329   5.582   2.353   5.319
 3458TIP3   OH210330   1.065   3.221   0.641
 3458TIP3    H110331   0.982   3.243   0.598
 3458TIP3    H210332   1.115   3.174   0.575
 3459TIP3   OH210333   6.568   6.815   2.045
 3459TIP3    H110334   6.641   6.775   2.091
 3459TIP3    H210335   6.589   6.909   2.044
 3460TIP3   OH210336   1.343   7.555   5.661
 3460TIP3    H110337   1.296   7.618   5.716
 3460TIP3    H210338   1.414   7.606   5.622
 3461TIP3   OH210339   0.136   6.050   2.783
 3461TIP3    H110340   0.114   6.111   2.713
 3461TIP3    H210341   0.125   5.963   2.744
 3462TIP3   OH210342   3.103   5.114   3.812
 3462TIP3    H110343   3.185   5.158   3.791
 3462TIP3    H210344   3.115   5.024   3.780
 3463TIP3   OH210345   2.958   4.448   0.858
 3463TIP3    H110346   3.028   4.475   0.918
 3463TIP3    H210347   2.904   4.388   0.909
 3464TIP3   OH210348   1.670   2.597   2.103
 3464TIP3    H110349   1.743   2.612   2.163
 3464TIP3    H210350   1.660   2.502   2.100
 3465TIP3   OH210351   0.640   7.037   0.660
 3465TIP3    H110352   0.569   6.985   0.697
 3465TIP3    H210353   0.658   6.997   0.575
 3466TIP3   OH210354   3.527   6.345   5.236
 3466TIP3    H110355   3.444   6.323   5.279
 3466TIP3    H210356   3.524   6.440   5.227
 3467TIP3   OH210357   7.167   3.724   3.569
 3467TIP3    H110358   7.245   3.710   3.623
 3467TIP3    H210359   7.142   3.637   3.539
 3468TIP3   OH210360   5.426   5.257   4.572
 3468TIP3    H110361   5.464   5.345   4.569
 3468TIP3    H210362   5.463   5.217   4.651
 3469TIP3   OH210363   0.326   7.195   1.418
 3469TIP3    H110364   0.250   7.171   1.366
 3469TIP3    H210365   0.378   7.251   1.360
 3470TIP3   OH210366   5.397   5.400   0.030
 3470TIP3    H110367   5.396   5.469   0.095
 3470TIP3    H210368   5.458   5.430  -0.038
 3471TIP3   OH210369   1.415   7.661   0.423
 3471TIP3    H110370   1.376   7.747   0.406
 3471TIP3    H210371   1.382   7.606   0.353
 3472TIP3   OH210372   4.947   3.628   6.595
 3472TIP3    H110373   5.026   3.660   6.552
 3472TIP3    H210374   4.920   3.700   6.651
 3473TIP3   OH210375   4.471   2.427   1.742
 3473TIP3    H110376   4.491   2.441   1.649
 3473TIP3    H210377   4.384   2.464   1.754
 3474TIP3   OH210378   4.214   3.972   5.319
 3474TIP3    H110379   4.210   3.916   5.397
 3474TIP3    H210380   4.308   3.979   5.300
 3475TIP3   OH210381   4.024   4.179   0.183
 3475TIP3    H110382   4.050   4.131   0.105
 3475TIP3    H210383   4.053   4.124   0.256
 3476TIP3   OH210384   2.853   0.683   6.185
 3476TIP3    H110385   2.895   0.715   6.105
 3476TIP3    H210386   2.910   0.714   6.256
 3477TIP3   OH210387   0.938   0.341   3.679
 3477TIP3    H110388   0.979   0.255   3.688
 3477TIP3    H210389   0.844   0.324   3.679
 3478TIP3   OH210390   7.357   0.272   5.148
 3478TIP3    H110391   7.380   0.203   5.085
 3478TIP3    H210392   7.333   0.347   5.094
 3479TIP3   OH210393   6.345   1.861   2.756
 3479TIP3    H110394   6.416   1.898   2.808
 3479TIP3    H210395   6.358   1.766   2.762
 3480TIP3   OH210396   2.698   3.096   4.827
 3480TIP3    H110397   2.772   3.050   4.867
 3480TIP3    H210398   2.628   3.030   4.823
 3481TIP3   OH210399   5.570   5.854   2.926
 3481TIP3    H110400   5.549   5.888   2.839
 3481TIP3    H210401   5.665   5.857   2.931
 3482TIP3   OH210402   5.804   1.833   4.283
 3482TIP3    H110403   5.848   1.761   4.326
 3482TIP3    H210404   5.715   1.801   4.267
 3483TIP3   OH210405   2.596   2.057   1.631
 3483TIP3    H110406   2.580   1.994   1.561
 3483TIP3    H210407   2.559   2.016   1.709
 3484TIP3   OH210408   1.244   4.845   6.030
 3484TIP3    H110409   1.162   4.813   5.990
 3484TIP3    H210410   1.247   4.937   6.007
 3485TIP3   OH210411   4.316   4.861   2.592
 3485TIP3    H110412   4.370   4.902   2.660
 3485TIP3    H210413   4.256   4.805   2.639
 3486TIP3   OH210414   3.345   2.780   5.008
 3486TIP3    H110415   3.371   2.863   5.047
 3486TIP3    H210416   3.346   2.796   4.913
 3487TIP3   OH210417   0.666   0.492   4.607
 3487TIP3    H110418   0.689   0.485   4.514
 3487TIP3    H210419   0.727   0.434   4.651
 3488TIP3   OH210420   2.853   7.117   3.898
 3488TIP3    H110421   2.945   7.091   3.894
 3488TIP3    H210422   2.854   7.205   3.935
 3489TIP3   OH210423   2.442   7.068   0.860
 3489TIP3    H110424   2.397   7.000   0.909
 3489TIP3    H210425   2.465   7.027   0.776
 3490TIP3   OH210426   2.828   0.950   0.964
 3490TIP3    H110427   2.878   0.932   0.885
 3490TIP3    H210428   2.840   1.043   0.980
 3491TIP3   OH210429   1.638   1.565   0.888
 3491TIP3    H110430   1.627   1.496   0.953
 3491TIP3    H210431   1.633   1.647   0.939
 3492TIP3   OH210432   4.879   3.070   0.746
 3492TIP3    H110433   4.828   3.129   0.802
 3492TIP3    H210434   4.852   3.092   0.657
 3493TIP3   OH210435   5.797   5.623   1.241
 3493TIP3    H110436   5.847   5.681   1.299
 3493TIP3    H210437   5.840   5.538   1.251
 3494TIP3   OH210438   1.561   6.835   2.514
 3494TIP3    H110439   1.548   6.924   2.482
 3494TIP3    H210440   1.482   6.817   2.566
 3495TIP3   OH210441   1.688   5.038   6.728
 3495TIP3    H110442   1.735   5.097   6.787
 3495TIP3    H210443   1.597   5.043   6.756
 3496TIP3   OH210444   5.668   7.491   6.298
 3496TIP3    H110445   5.727   7.551   6.252
 3496TIP3    H210446   5.708   7.405   6.286
 3497TIP3   OH210447   6.660   7.521   6.297
 3497TIP3    H110448   6.708   7.491   6.374
 3497TIP3    H210449   6.633   7.441   6.253
 3498TIP3   OH210450   3.827   1.077   4.955
 3498TIP3    H110451   3.806   0.992   4.917
 3498TIP3    H210452   3.779   1.079   5.038
 3499TIP3   OH210453   1.054   3.392   0.339
 3499TIP3    H110454   1.088   3.428   0.421
 3499TIP3    H210455   1.045   3.468   0.281
 3500TIP3   OH210456   2.472   5.063   2.724
 3500TIP3    H110457   2.516   5.147   2.720
 3500TIP3    H210458   2.527   5.010   2.781
 3501TIP3   OH210459   4.408   4.059   3.716
 3501TIP3    H110460   4.482   4.103   3.758
 3501TIP3    H210461   4.392   4.109   3.636
 3502TIP3   OH210462   7.744   5.520   0.374
 3502TIP3    H110463   7.770   5.611   0.362
 3502TIP3    H210464   7.648   5.524   0.381
 3503TIP3   OH210465   7.044   3.146   1.267
 3503TIP3    H110466   7.097   3.148   1.187
 3503TIP3    H210467   6.962   3.103   1.241
 3504TIP3   OH210468   2.522   6.595   4.840
 3504TIP3    H110469   2.591   6.550   4.888
 3504TIP3    H210470   2.559   6.680   4.817
 3505TIP3   OH210471   7.139   6.449   3.200
 3505TIP3    H110472   7.182   6.374   3.159
 3505TIP3    H210473   7.210   6.511   3.216
 3506TIP3   OH210474   3.338   5.924   0.621
 3506TIP3    H110475   3.379   5.958   0.542
 3506TIP3    H210476   3.362   5.832   0.623
 3507TIP3   OH210477   1.676   7.468   2.864
 3507TIP3    H110478   1.607   7.471   2.930
 3507TIP3    H210479   1.740   7.405   2.899
 3508TIP3   OH210480   4.465   0.334   5.787
 3508TIP3    H110481   4.390   0.351   5.844
 3508TIP3    H210482   4.507   0.419   5.776
 3509TIP3   OH210483   2.827   1.377   5.682
 3509TIP3    H110484   2.774   1.406   5.756
 3509TIP3    H210485   2.767   1.326   5.627
 3510TIP3   OH210486   6.438   5.762   4.649
 3510TIP3    H110487   6.450   5.856   4.662
 3510TIP3    H210488   6.349   5.745   4.678
 3511TIP3   OH210489   2.093   1.995   1.184
 3511TIP3    H110490   2.131   2.082   1.181
 3511TIP3    H210491   2.167   1.935   1.188
 3512TIP3   OH210492   7.886   7.407   5.650
 3512TIP3    H110493   7.951   7.424   5.581
 3512TIP3    H210494   7.902   7.475   5.715
 3513TIP3   OH210495   1.785   0.788   1.225
 3513TIP3    H110496   1.844   0.815   1.154
 3513TIP3    H210497   1.714   0.743   1.180
 3514TIP3   OH210498   5.396   2.041   2.908
 3514TIP3    H110499   5.405   1.956   2.865
 3514TIP3    H210500   5.477   2.087   2.887
 3515TIP3   OH210501   0.990   4.173   2.224
 3515TIP3    H110502   0.910   4.188   2.174
 3515TIP3    H210503   1.057   4.224   2.178
 3516TIP3   OH210504   1.882   5.644   5.031
 3516TIP3    H110505   1.873   5.568   5.088
 3516TIP3    H210506   1.973   5.641   5.001
 3517TIP3   OH210507   7.233   3.617   2.875
 3517TIP3    H110508   7.291   3.543   2.894
 3517TIP3    H210509   7.171   3.583   2.811
 3518TIP3   OH210510   5.558   2.926   6.000
 3518TIP3    H110511   5.645   2.889   5.988
 3518TIP3    H210512   5.572   3.008   6.047
 3519TIP3   OH210513   5.287   4.847   4.390
 3519TIP3    H110514   5.322   4.813   4.472
 3519TIP3    H210515   5.363   4.855   4.332
 3520TIP3   OH210516   7.911   5.687   4.995
 3520TIP3    H110517   7.958   5.744   4.935
 3520TIP3    H210518   7.836   5.738   5.024
 3521TIP3   OH210519   2.466   6.331   4.700
 3521TIP3    H110520   2.447   6.241   4.726
 3521TIP3    H210521   2.487   6.376   4.781
 3522TIP3   OH210522   0.920   3.803   0.611
 3522TIP3    H110523   0.970   3.874   0.570
 3522TIP3    H210524   0.955   3.796   0.699
 3523TIP3   OH210525   1.223   4.859   5.668
 3523TIP3    H110526   1.270   4.777   5.659
 3523TIP3    H210527   1.161   4.844   5.739
 3524TIP3   OH210528   5.333   3.648   0.320
 3524TIP3    H110529   5.409   3.625   0.374
 3524TIP3    H210530   5.366   3.713   0.258
 3525TIP3   OH210531   1.956   7.680   5.270
 3525TIP3    H110532   1.930   7.594   5.237
 3525TIP3    H210533   1.937   7.677   5.364
 3526TIP3   OH210534   7.608   3.588   2.328
 3526TIP3    H110535   7.528   3.623   2.369
 3526TIP3    H210536   7.589   3.589   2.234
 3527TIP3   OH210537   8.264   7.139   1.535
 3527TIP3    H110538   8.183   7.114   1.489
 3527TIP3    H210539   8.286   7.225   1.500
 3528TIP3   OH210540   1.049   3.235   1.185
 3528TIP3    H110541   1.041   3.330   1.190
 3528TIP3    H210542   1.102   3.211   1.261
 3529TIP3   OH210543   4.841   5.803   1.873
 3529TIP3    H110544   4.873   5.734   1.814
 3529TIP3    H210545   4.787   5.859   1.818
 3530TIP3   OH210546   1.212   2.723   2.069
 3530TIP3    H110547   1.288   2.670   2.046
 3530TIP3    H210548   1.143   2.694   2.009
 3531TIP3   OH210549   0.695   4.721   0.770
 3531TIP3    H110550   0.753   4.662   0.818
 3531TIP3    H210551   0.728   4.718   0.680
 3532TIP3   OH210552   7.005   6.808   3.131
 3532TIP3    H110553   6.946   6.732   3.127
 3532TIP3    H210554   6.955   6.879   3.090
 3533TIP3   OH210555   4.201   5.004   1.723
 3533TIP3    H110556   4.107   4.998   1.735
 3533TIP3    H210557   4.232   5.049   1.802
 3534TIP3   OH210558   3.880   6.421   0.460
 3534TIP3    H110559   3.821   6.496   0.456
 3534TIP3    H210560   3.928   6.423   0.377
 3535TIP3   OH210561   3.179   7.772   1.348
 3535TIP3    H110562   3.215   7.736   1.429
 3535TIP3    H210563   3.231   7.731   1.279
 3536TIP3   OH210564   5.136   5.070   4.510
 3536TIP3    H110565   5.205   5.012   4.478
 3536TIP3    H210566   5.067   5.063   4.444
 3537TIP3   OH210567   7.788   7.743   6.376
 3537TIP3    H110568   7.848   7.796   6.323
 3537TIP3    H210569   7.827   7.656   6.378
 3538TIP3   OH210570   2.837   4.902   2.564
 3538TIP3    H110571   2.854   4.891   2.471
 3538TIP3    H210572   2.829   4.813   2.597
 3539TIP3   OH210573   7.687   0.941   6.449
 3539TIP3    H110574   7.657   0.878   6.514
 3539TIP3    H210575   7.626   0.932   6.376
 3540TIP3   OH210576   5.461   3.436   2.624
 3540TIP3    H110577   5.450   3.353   2.670
 3540TIP3    H210578   5.464   3.412   2.531
 3541TIP3   OH210579   1.756   3.558   0.863
 3541TIP3    H110580   1.752   3.571   0.958
 3541TIP3    H210581   1.787   3.468   0.852
 3542TIP3   OH210582   0.416   3.164   0.801
 3542TIP3    H110583   0.477   3.098   0.768
 3542TIP3    H210584   0.464   3.246   0.796
 3543TIP3   OH210585   3.306   6.270   0.647
 3543TIP3    H110586   3.267   6.224   0.572
 3543TIP3    H210587   3.233   6.314   0.689
 3544TIP3   OH210588   0.406   6.933   1.433
 3544TIP3    H110589   0.501   6.937   1.424
 3544TIP3    H210590   0.377   7.024   1.425
 3545TIP3   OH210591   7.862   2.642   1.315
 3545TIP3    H110592   7.859   2.613   1.224
 3545TIP3    H210593   7.770   2.645   1.342
 3546TIP3   OH210594   4.729   3.943   2.363
 3546TIP3    H110595   4.811   3.897   2.383
 3546TIP3    H210596   4.711   3.920   2.272
 3547TIP3   OH210597   7.258   5.277   1.512
 3547TIP3    H110598   7.298   5.216   1.574
 3547TIP3    H210599   7.216   5.220   1.447
 3548TIP3   OH210600   4.900   5.247   4.563
 3548TIP3    H110601   4.858   5.332   4.579
 3548TIP3    H210602   4.829   5.189   4.537
 3549TIP3   OH210603   0.509   5.718   6.239
 3549TIP3    H110604   0.475   5.732   6.327
 3549TIP3    H210605   0.515   5.806   6.200
 3550TIP3   OH210606   3.287   7.835   2.937
 3550TIP3    H110607   3.216   7.799   2.989
 3550TIP3    H210608   3.357   7.770   2.942
 3551TIP3   OH210609   7.914   0.573   4.317
 3551TIP3    H110610   7.993   0.522   4.299
 3551TIP3    H210611   7.927   0.655   4.270
 3552TIP3   OH210612   5.946   7.810   1.639
 3552TIP3    H110613   5.894   7.738   1.604
 3552TIP3    H210614   5.927   7.884   1.582
 3553TIP3   OH210615   0.944   3.154   2.844
 3553TIP3    H110616   0.886   3.227   2.866
 3553TIP3    H210617   0.893   3.075   2.865
 3554TIP3   OH210618   4.956   4.506   5.389
 3554TIP3    H110619   4.878   4.453   5.400
 3554TIP3    H210620   5.029   4.445   5.398
 3555TIP3   OH210621   0.323   3.714   2.214
 3555TIP3    H110622   0.416   3.695   2.217
 3555TIP3    H210623   0.299   3.733   2.305
 3556TIP3   OH210624   5.208   5.385   1.983
 3556TIP3    H110625   5.235   5.462   2.033
 3556TIP3    H210626   5.112   5.391   1.980
 3557TIP3   OH210627   0.192   2.317   0.220
 3557TIP3    H110628   0.253   2.290   0.152
 3557TIP3    H210629   0.232   2.288   0.302
 3558TIP3   OH210630   2.527   4.147   1.678
 3558TIP3    H110631   2.622   4.135   1.681
 3558TIP3    H210632   2.503   4.172   1.767
 3559TIP3   OH210633   7.953   5.606   4.364
 3559TIP3    H110634   8.018   5.607   4.434
 3559TIP3    H210635   7.874   5.640   4.405
 3560TIP3   OH210636   2.925   2.250   1.383
 3560TIP3    H110637   2.846   2.270   1.434
 3560TIP3    H210638   2.965   2.177   1.430
 3561TIP3   OH210639   6.116   0.702   0.963
 3561TIP3    H110640   6.084   0.641   0.897
 3561TIP3    H210641   6.153   0.775   0.912
 3562TIP3   OH210642   5.558   4.787   1.279
 3562TIP3    H110643   5.634   4.825   1.234
 3562TIP3    H210644   5.531   4.715   1.223
 3563TIP3   OH210645   7.430   7.734   3.160
 3563TIP3    H110646   7.504   7.697   3.112
 3563TIP3    H210647   7.442   7.829   3.154
 3564TIP3   OH210648   0.038   6.840   1.170
 3564TIP3    H110649   0.027   6.852   1.264
 3564TIP3    H210650  -0.018   6.906   1.130
 3565TIP3   OH210651   3.016   1.623   3.522
 3565TIP3    H110652   2.979   1.560   3.583
 3565TIP3    H210653   2.964   1.702   3.533
 3566TIP3   OH210654   1.141   2.246   1.098
 3566TIP3    H110655   1.205   2.175   1.104
 3566TIP3    H210656   1.074   2.213   1.038
 3567TIP3   OH210657   2.106   7.557   5.774
 3567TIP3    H110658   2.056   7.638   5.776
 3567TIP3    H210659   2.174   7.569   5.840
 3568TIP3   OH210660   3.612   0.686   6.117
 3568TIP3    H110661   3.624   0.669   6.211
 3568TIP3    H210662   3.536   0.634   6.093
 3569TIP3   OH210663   1.276   5.586   2.665
 3569TIP3    H110664   1.292   5.675   2.697
 3569TIP3    H210665   1.357   5.539   2.682
 3570TIP3   OH210666   3.552   1.016   1.238
 3570TIP3    H110667   3.527   1.067   1.161
 3570TIP3    H210668   3.518   1.066   1.312
 3571TIP3   OH210669   1.477   1.250   0.163
 3571TIP3    H110670   1.493   1.169   0.213
 3571TIP3    H210671   1.470   1.318   0.230
 3572TIP3   OH210672   2.922   3.872   6.232
 3572TIP3    H110673   2.976   3.857   6.309
 3572TIP3    H210674   2.833   3.880   6.267
 3573TIP3   OH210675   2.382   5.020   2.258
 3573TIP3    H110676   2.321   5.068   2.203
 3573TIP3    H210677   2.418   4.952   2.201
 3574TIP3   OH210678   4.635   6.115   0.305
 3574TIP3    H110679   4.598   6.068   0.230
 3574TIP3    H210680   4.611   6.063   0.381
 3575TIP3   OH210681   4.774   4.242   3.308
 3575TIP3    H110682   4.688   4.281   3.327
 3575TIP3    H210683   4.832   4.317   3.295
 3576TIP3   OH210684   4.750   2.684   4.376
 3576TIP3    H110685   4.675   2.730   4.414
 3576TIP3    H210686   4.821   2.697   4.439
 3577TIP3   OH210687   3.661   4.024   1.101
 3577TIP3    H110688   3.639   4.112   1.132
 3577TIP3    H210689   3.689   4.037   1.010
 3578TIP3   OH210690   1.707   4.766   1.622
 3578TIP3    H110691   1.626   4.812   1.644
 3578TIP3    H210692   1.726   4.793   1.532
 3579TIP3   OH210693   3.567   1.242   2.088
 3579TIP3    H110694   3.597   1.305   2.154
 3579TIP3    H210695   3.542   1.165   2.139
 3580TIP3   OH210696   2.606   2.382   3.536
 3580TIP3    H110697   2.691   2.343   3.518
 3580TIP3    H210698   2.608   2.401   3.630
 3581TIP3   OH210699   0.272   7.747   1.384
 3581TIP3    H110700   0.301   7.686   1.452
 3581TIP3    H210701   0.306   7.832   1.412
 3582TIP3   OH210702   5.577   1.713   5.569
 3582TIP3    H110703   5.646   1.672   5.518
 3582TIP3    H210704   5.516   1.747   5.503
 3583TIP3   OH210705   6.909   4.811   1.761
 3583TIP3    H110706   6.957   4.814   1.844
 3583TIP3    H210707   6.909   4.901   1.730
 3584TIP3   OH210708   6.027   7.783   4.896
 3584TIP3    H110709   6.029   7.705   4.841
 3584TIP3    H210710   6.090   7.765   4.966
 3585TIP3   OH210711   0.528   6.291   2.635
 3585TIP3    H110712   0.544   6.374   2.680
 3585TIP3    H210713   0.534   6.225   2.704
 3586TIP3   OH210714   3.545   1.945   4.770
 3586TIP3    H110715   3.575   1.973   4.856
 3586TIP3    H210716   3.625   1.928   4.721
 3587TIP3   OH210717   5.290   5.393   2.659
 3587TIP3    H110718   5.307   5.485   2.678
 3587TIP3    H210719   5.314   5.382   2.567
 3588TIP3   OH210720   7.053   0.201   3.035
 3588TIP3    H110721   7.148   0.214   3.046
 3588TIP3    H210722   7.025   0.163   3.119
 3589TIP3   OH210723   2.092   2.479   2.387
 3589TIP3    H110724   2.008   2.483   2.431
 3589TIP3    H210725   2.156   2.466   2.458
 3590TIP3   OH210726   7.361   3.166   0.172
 3590TIP3    H110727   7.396   3.251   0.145
 3590TIP3    H210728   7.421   3.136   0.240
 3591TIP3   OH210729   6.724   6.766   5.328
 3591TIP3    H110730   6.654   6.768   5.262
 3591TIP3    H210731   6.717   6.851   5.372
 3592TIP3   OH210732   0.538   1.202   5.588
 3592TIP3    H110733   0.544   1.147   5.509
 3592TIP3    H210734   0.444   1.206   5.607
 3593TIP3   OH210735   0.733   6.029   5.123
 3593TIP3    H110736   0.683   6.096   5.169
 3593TIP3    H210737   0.740   5.957   5.186
 3594TIP3   OH210738   1.138   0.879   1.794
 3594TIP3    H110739   1.193   0.930   1.734
 3594TIP3    H210740   1.133   0.933   1.873
 3595TIP3   OH210741   6.985   1.245   4.745
 3595TIP3    H110742   7.002   1.289   4.829
 3595TIP3    H210743   6.903   1.282   4.714
 3596TIP3   OH210744   5.976   5.111   4.719
 3596TIP3    H110745   5.955   5.050   4.790
 3596TIP3    H210746   6.020   5.184   4.763
 3597TIP3   OH210747   7.829   5.146   3.202
 3597TIP3    H110748   7.857   5.074   3.144
 3597TIP3    H210749   7.812   5.219   3.142
 3598TIP3   OH210750   2.539   6.191   1.304
 3598TIP3    H110751   2.473   6.242   1.353
 3598TIP3    H210752   2.620   6.240   1.316
 3599TIP3   OH210753   5.271   0.901   5.485
 3599TIP3    H110754   5.303   0.930   5.399
 3599TIP3    H210755   5.206   0.967   5.510
 3600TIP3   OH210756   6.736   3.643   2.373
 3600TIP3    H110757   6.714   3.608   2.460
 3600TIP3    H210758   6.818   3.599   2.350
 3601TIP3   OH210759   6.579   1.952   2.882
 3601TIP3    H110760   6.615   2.036   2.909
 3601TIP3    H210761   6.560   1.906   2.964
 3602TIP3   OH210762   2.823   2.249   5.016
 3602TIP3    H110763   2.753   2.312   4.999
 3602TIP3    H210764   2.791   2.196   5.089
 3603TIP3   OH210765   0.209   3.538   3.667
 3603TIP3    H110766   0.281   3.598   3.689
 3603TIP3    H210767   0.211   3.472   3.737
 3604TIP3   OH210768   2.953   4.706   6.245
 3604TIP3    H110769   2.962   4.732   6.337
 3604TIP3    H210770   2.865   4.669   6.240
 3605TIP3   OH210771   0.989   0.704   6.691
 3605TIP3    H110772   1.073   0.750   6.690
 3605TIP3    H210773   0.976   0.680   6.783
 3606TIP3   OH210774   1.777   0.590   0.875
 3606TIP3    H110775   1.806   0.641   0.800
 3606TIP3    H210776   1.714   0.647   0.920
 3607TIP3   OH210777   5.024   5.892   5.687
 3607TIP3    H110778   4.990   5.836   5.756
 3607TIP3    H210779   4.996   5.981   5.712
 3608TIP3   OH210780   1.538   7.130   2.830
 3608TIP3    H110781   1.518   7.114   2.922
 3608TIP3    H210782   1.606   7.196   2.831
 3609TIP3   OH210783   7.711   1.823   2.970
 3609TIP3    H110784   7.694   1.850   2.880
 3609TIP3    H210785   7.806   1.828   2.980
 3610TIP3   OH210786   3.016   5.372   2.386
 3610TIP3    H110787   2.954   5.375   2.459
 3610TIP3    H210788   3.094   5.329   2.421
 3611TIP3   OH210789   1.532   0.154   4.296
 3611TIP3    H110790   1.585   0.140   4.375
 3611TIP3    H210791   1.524   0.068   4.257
 3612TIP3   OH210792   3.763   6.895   1.627
 3612TIP3    H110793   3.754   6.814   1.576
 3612TIP3    H210794   3.673   6.925   1.640
 3613TIP3   OH210795   4.633   1.986   6.117
 3613TIP3    H110796   4.696   1.923   6.152
 3613TIP3    H210797   4.685   2.062   6.093
 3614TIP3   OH210798   4.184   7.822   2.688
 3614TIP3    H110799   4.252   7.796   2.626
 3614TIP3    H210800   4.211   7.784   2.772
 3615TIP3   OH210801   0.493   0.962   5.980
 3615TIP3    H110802   0.450   0.900   6.039
 3615TIP3    H210803   0.510   1.039   6.034
 3616TIP3   OH210804   0.739   2.641   0.485
 3616TIP3    H110805   0.685   2.721   0.484
 3616TIP3    H210806   0.707   2.589   0.412
 3617TIP3   OH210807   2.805   0.343   0.917
 3617TIP3    H110808   2.792   0.273   0.854
 3617TIP3    H210809   2.819   0.421   0.863
 3618TIP3   OH210810   1.481   3.897   2.706
 3618TIP3    H110811   1.519   3.968   2.653
 3618TIP3    H210812   1.409   3.863   2.652
 3619TIP3   OH210813   4.371   0.486   3.587
 3619TIP3    H110814   4.426   0.408   3.579
 3619TIP3    H210815   4.326   0.476   3.671
 3620TIP3   OH210816   7.531   3.147   3.088
 3620TIP3    H110817   7.604   3.130   3.029
 3620TIP3    H210818   7.528   3.070   3.145
 3621TIP3   OH210819   4.876   2.054   0.618
 3621TIP3    H110820   4.956   2.019   0.579
 3621TIP3    H210821   4.825   1.977   0.643
 3622TIP3   OH210822   6.357   6.261   6.445
 3622TIP3    H110823   6.402   6.309   6.514
 3622TIP3    H210824   6.390   6.171   6.452
 3623TIP3   OH210825   7.383   1.612   2.431
 3623TIP3    H110826   7.309   1.664   2.462
 3623TIP3    H210827   7.399   1.549   2.502
 3624TIP3   OH210828   4.247   4.287   4.319
 3624TIP3    H110829   4.167   4.240   4.338
 3624TIP3    H210830   4.298   4.283   4.400
 3625TIP3   OH210831   3.001   6.899   5.119
 3625TIP3    H110832   2.997   6.806   5.098
 3625TIP3    H210833   3.093   6.923   5.105
 3626TIP3   OH210834   7.653   1.325   3.669
 3626TIP3    H110835   7.643   1.371   3.752
 3626TIP3    H210836   7.727   1.368   3.626
 3627TIP3   OH210837   6.186   1.021   4.733
 3627TIP3    H110838   6.181   1.047   4.826
 3627TIP3    H210839   6.231   0.937   4.734
 3628TIP3   OH210840   8.166   2.081   3.951
 3628TIP3    H110841   8.079   2.048   3.930
 3628TIP3    H210842   8.164   2.173   3.926
 3629TIP3   OH210843   5.437   4.212   1.367
 3629TIP3    H110844   5.364   4.274   1.377
 3629TIP3    H210845   5.513   4.268   1.350
 3630TIP3   OH210846   1.703   4.426   3.198
 3630TIP3    H110847   1.703   4.463   3.286
 3630TIP3    H210848   1.694   4.332   3.212
 3631TIP3   OH210849   1.433   2.762   3.411
 3631TIP3    H110850   1.488   2.822   3.360
 3631TIP3    H210851   1.454   2.675   3.377
 3632TIP3   OH210852   8.199   2.722   3.670
 3632TIP3    H110853   8.174   2.808   3.705
 3632TIP3    H210854   8.263   2.689   3.733
 3633TIP3   OH210855   3.077   3.693   2.743
 3633TIP3    H110856   3.076   3.758   2.814
 3633TIP3    H210857   3.103   3.743   2.666
 3634TIP3   OH210858   2.280   5.358   2.608
 3634TIP3    H110859   2.189   5.345   2.635
 3634TIP3    H210860   2.327   5.374   2.690
 3635TIP3   OH210861   1.033   2.086   4.127
 3635TIP3    H110862   0.988   2.028   4.188
 3635TIP3    H210863   0.963   2.140   4.090
 3636TIP3   OH210864   6.526   6.953   4.581
 3636TIP3    H110865   6.508   6.882   4.642
 3636TIP3    H210866   6.551   6.909   4.500
 3637TIP3   OH210867   8.106   0.257   2.602
 3637TIP3    H110868   8.074   0.176   2.642
 3637TIP3    H210869   8.185   0.231   2.554
 3638TIP3   OH210870   1.987   5.335   5.136
 3638TIP3    H110871   1.930   5.348   5.060
 3638TIP3    H210872   1.987   5.240   5.150
 3639TIP3   OH210873   2.403   1.416   3.518
 3639TIP3    H110874   2.496   1.393   3.517
 3639TIP3    H210875   2.399   1.498   3.567
 3640TIP3   OH210876   4.839   6.586   4.212
 3640TIP3    H110877   4.781   6.642   4.162
 3640TIP3    H210878   4.927   6.622   4.197
 3641TIP3   OH210879   4.853   1.704   5.940
 3641TIP3    H110880   4.843   1.725   6.033
 3641TIP3    H210881   4.822   1.614   5.932
 3642TIP3   OH210882   3.167   7.282   3.957
 3642TIP3    H110883   3.248   7.280   3.905
 3642TIP3    H210884   3.101   7.318   3.898
 3643TIP3   OH210885   6.365   4.591   3.385
 3643TIP3    H110886   6.380   4.643   3.307
 3643TIP3    H210887   6.444   4.603   3.438
 3644TIP3   OH210888   2.207   2.236   1.274
 3644TIP3    H110889   2.208   2.295   1.198
 3644TIP3    H210890   2.273   2.271   1.333
 3645TIP3   OH210891   6.113   5.055   6.466
 3645TIP3    H110892   6.185   5.022   6.412
 3645TIP3    H210893   6.040   4.997   6.445
 3646TIP3   OH210894   3.350   5.145   6.459
 3646TIP3    H110895   3.334   5.181   6.546
 3646TIP3    H210896   3.331   5.051   6.468
 3647TIP3   OH210897   0.519   6.855   1.963
 3647TIP3    H110898   0.613   6.839   1.970
 3647TIP3    H210899   0.511   6.951   1.958
 3648TIP3   OH210900   5.416   5.312   2.430
 3648TIP3    H110901   5.495   5.331   2.379
 3648TIP3    H210902   5.374   5.240   2.383
 3649TIP3   OH210903   4.790   3.657   4.944
 3649TIP3    H110904   4.877   3.656   4.904
 3649TIP3    H210905   4.730   3.657   4.870
 3650TIP3   OH210906   0.191   5.905   6.724
 3650TIP3    H110907   0.159   5.837   6.783
 3650TIP3    H210908   0.162   5.876   6.637
 3651TIP3   OH210909   7.802   7.195   5.368
 3651TIP3    H110910   7.812   7.149   5.451
 3651TIP3    H210911   7.888   7.190   5.327
 3652TIP3   OH210912   0.711   1.898   4.960
 3652TIP3    H110913   0.738   1.973   4.907
 3652TIP3    H210914   0.738   1.822   4.909
 3653TIP3   OH210915   2.673   7.764   6.287
 3653TIP3    H110916   2.649   7.854   6.309
 3653TIP3    H210917   2.765   7.768   6.263
 3654TIP3   OH210918   1.500   1.980   0.005
 3654TIP3    H110919   1.465   2.067   0.025
 3654TIP3    H210920   1.585   1.978   0.049
 3655TIP3   OH210921   7.006   5.931   1.186
 3655TIP3    H110922   7.076   5.874   1.214
 3655TIP3    H210923   7.007   6.004   1.248
 3656TIP3   OH210924   4.073   6.316   5.832
 3656TIP3    H110925   3.999   6.335   5.889
 3656TIP3    H210926   4.135   6.268   5.887
 3657TIP3   OH210927   4.527   6.842   5.058
 3657TIP3    H110928   4.536   6.747   5.055
 3657TIP3    H210929   4.571   6.872   4.978
 3658TIP3   OH210930   7.539   3.420   1.331
 3658TIP3    H110931   7.555   3.331   1.362
 3658TIP3    H210932   7.525   3.410   1.237
 3659TIP3   OH210933   5.660   5.983   1.749
 3659TIP3    H110934   5.728   6.026   1.802
 3659TIP3    H210935   5.578   6.003   1.795
 3660TIP3   OH210936   7.713   4.727   1.104
 3660TIP3    H110937   7.756   4.726   1.190
 3660TIP3    H210938   7.783   4.746   1.042
 3661TIP3   OH210939   2.642   0.676   4.636
 3661TIP3    H110940   2.549   0.654   4.627
 3661TIP3    H210941   2.674   0.621   4.707
 3662TIP3   OH210942   7.681   2.458   6.628
 3662TIP3    H110943   7.695   2.363   6.627
 3662TIP3    H210944   7.762   2.495   6.594
 3663TIP3   OH210945   7.663   7.698   0.571
 3663TIP3    H110946   7.746   7.650   0.565
 3663TIP3    H210947   7.651   7.712   0.665
 3664TIP3   OH210948   4.393   3.567   0.603
 3664TIP3    H110949   4.339   3.642   0.579
 3664TIP3    H210950   4.335   3.509   0.651
 3665TIP3   OH210951   4.821   0.644   3.920
 3665TIP3    H110952   4.916   0.653   3.934
 3665TIP3    H210953   4.792   0.732   3.896
 3666TIP3   OH210954   1.212   5.054   1.690
 3666TIP3    H110955   1.293   5.085   1.731
 3666TIP3    H210956   1.234   4.968   1.654
 3667TIP3   OH210957   5.514   5.374   4.048
 3667TIP3    H110958   5.609   5.386   4.041
 3667TIP3    H210959   5.502   5.325   4.130
 3668TIP3   OH210960   7.962   0.808   3.328
 3668TIP3    H110961   7.899   0.796   3.400
 3668TIP3    H210962   7.909   0.809   3.249
 3669TIP3   OH210963   5.893   6.063   5.362
 3669TIP3    H110964   5.878   5.979   5.319
 3669TIP3    H210965   5.957   6.044   5.430
 3670TIP3   OH210966   5.066   3.466   1.436
 3670TIP3    H110967   4.999   3.413   1.479
 3670TIP3    H210968   5.134   3.403   1.410
 3671TIP3   OH210969   6.075   3.349   0.522
 3671TIP3    H110970   6.015   3.394   0.581
 3671TIP3    H210971   6.049   3.378   0.434
 3672TIP3   OH210972   6.310   5.367   4.239
 3672TIP3    H110973   6.334   5.393   4.150
 3672TIP3    H210974   6.380   5.308   4.267
 3673TIP3   OH210975   5.010   4.497   1.183
 3673TIP3    H110976   5.016   4.534   1.271
 3673TIP3    H210977   4.948   4.424   1.193
 3674TIP3   OH210978   3.320   6.394   0.250
 3674TIP3    H110979   3.303   6.454   0.323
 3674TIP3    H210980   3.339   6.451   0.176
 3675TIP3   OH210981   4.181   1.582   1.070
 3675TIP3    H110982   4.159   1.674   1.054
 3675TIP3    H210983   4.160   1.568   1.163
 3676TIP3   OH210984   2.906   6.982   4.877
 3676TIP3    H110985   2.929   6.974   4.969
 3676TIP3    H210986   2.982   6.947   4.830
 3677TIP3   OH210987   0.132   7.502   5.835
 3677TIP3    H110988   0.194   7.567   5.866
 3677TIP3    H210989   0.059   7.553   5.800
 3678TIP3   OH210990   2.412   3.929   1.972
 3678TIP3    H110991   2.338   3.934   1.911
 3678TIP3    H210992   2.452   3.843   1.954
 3679TIP3   OH210993   6.012   2.341   2.138
 3679TIP3    H110994   5.931   2.385   2.114
 3679TIP3    H210995   5.984   2.261   2.182
 3680TIP3   OH210996   6.571   3.309   2.277
 3680TIP3    H110997   6.628   3.284   2.349
 3680TIP3    H210998   6.555   3.402   2.290
 3681TIP3   OH210999   7.927   3.232   3.802
 3681TIP3    H111000   7.932   3.305   3.864
 3681TIP3    H211001   7.853   3.253   3.746
 3682TIP3   OH211002   3.369   5.420   2.396
 3682TIP3    H111003   3.425   5.410   2.473
 3682TIP3    H211004   3.308   5.347   2.400
 3683TIP3   OH211005   6.993   0.325   5.586
 3683TIP3    H111006   7.073   0.354   5.544
 3683TIP3    H211007   6.930   0.314   5.515
 3684TIP3   OH211008   2.967   5.862   2.442
 3684TIP3    H111009   2.980   5.931   2.377
 3684TIP3    H211010   3.020   5.789   2.412
 3685TIP3   OH211011   0.896   0.575   5.659
 3685TIP3    H111012   0.890   0.533   5.573
 3685TIP3    H211013   0.917   0.503   5.719
 3686TIP3   OH211014   1.385   5.118   3.359
 3686TIP3    H111015   1.418   5.064   3.287
 3686TIP3    H211016   1.291   5.104   3.357
 3687TIP3   OH211017   5.553   5.567   0.473
 3687TIP3    H111018   5.473   5.515   0.482
 3687TIP3    H211019   5.596   5.560   0.558
 3688TIP3   OH211020   6.995   2.606   4.686
 3688TIP3    H111021   6.958   2.694   4.695
 3688TIP3    H211022   6.919   2.550   4.669
 3689TIP3   OH211023   1.620   1.379   3.353
 3689TIP3    H111024   1.670   1.336   3.283
 3689TIP3    H211025   1.676   1.452   3.381
 3690TIP3   OH211026   5.855   4.398   0.948
 3690TIP3    H111027   5.791   4.327   0.942
 3690TIP3    H211028   5.937   4.358   0.917
 3691TIP3   OH211029   4.522   1.301   6.004
 3691TIP3    H111030   4.460   1.285   6.076
 3691TIP3    H211031   4.468   1.342   5.936
 3692TIP3   OH211032   6.382   7.074   6.532
 3692TIP3    H111033   6.303   7.051   6.581
 3692TIP3    H211034   6.392   7.003   6.469
 3693TIP3   OH211035   2.086   4.958   3.804
 3693TIP3    H111036   2.144   4.911   3.744
 3693TIP3    H211037   2.013   4.898   3.819
 3694TIP3   OH211038   2.120   2.179   1.983
 3694TIP3    H111039   2.105   2.203   2.075
 3694TIP3    H211040   2.040   2.133   1.958
 3695TIP3   OH211041   2.376   3.321   0.347
 3695TIP3    H111042   2.407   3.232   0.362
 3695TIP3    H211043   2.447   3.364   0.299
 3696TIP3   OH211044   6.266   6.640   3.152
 3696TIP3    H111045   6.325   6.714   3.165
 3696TIP3    H211046   6.302   6.571   3.208
 3697TIP3   OH211047   5.770   1.320   3.097
 3697TIP3    H111048   5.845   1.348   3.149
 3697TIP3    H211049   5.801   1.322   3.007
 3698TIP3   OH211050   2.398   0.391   5.677
 3698TIP3    H111051   2.394   0.440   5.595
 3698TIP3    H211052   2.453   0.445   5.734
 3699TIP3   OH211053   6.587   5.483   4.192
 3699TIP3    H111054   6.669   5.520   4.157
 3699TIP3    H211055   6.552   5.550   4.250
 3700TIP3   OH211056   0.802   6.935   1.965
 3700TIP3    H111057   0.861   6.883   1.910
 3700TIP3    H211058   0.779   7.011   1.910
 3701TIP3   OH211059   7.371   4.201   5.284
 3701TIP3    H111060   7.438   4.258   5.320
 3701TIP3    H211061   7.293   4.256   5.280
 3702TIP3   OH211062   5.467   3.706   3.409
 3702TIP3    H111063   5.396   3.695   3.472
 3702TIP3    H211064   5.513   3.622   3.408
 3703TIP3   OH211065   6.206   0.463   2.550
 3703TIP3    H111066   6.285   0.441   2.599
 3703TIP3    H211067   6.227   0.442   2.459
 3704TIP3   OH211068   7.406   5.400   6.572
 3704TIP3    H111069   7.394   5.424   6.664
 3704TIP3    H211070   7.451   5.316   6.575
 3705TIP3   OH211071   2.193   3.712   5.264
 3705TIP3    H111072   2.150   3.679   5.185
 3705TIP3    H211073   2.146   3.670   5.336
 3706TIP3   OH211074   1.352   5.805   2.798
 3706TIP3    H111075   1.275   5.861   2.809
 3706TIP3    H211076   1.424   5.866   2.783
 3707TIP3   OH211077   2.145   5.619   4.961
 3707TIP3    H111078   2.148   5.589   4.870
 3707TIP3    H211079   2.200   5.558   5.009
 3708TIP3   OH211080   8.166   0.052   4.360
 3708TIP3    H111081   8.190   0.115   4.291
 3708TIP3    H211082   8.104  -0.007   4.319
 3709TIP3   OH211083   5.441   1.142   6.457
 3709TIP3    H111084   5.431   1.076   6.525
 3709TIP3    H211085   5.430   1.093   6.375
 3710TIP3   OH211086   4.076   6.378   2.056
 3710TIP3    H111087   4.042   6.446   1.997
 3710TIP3    H211088   4.013   6.306   2.047
 3711TIP3   OH211089   5.541   3.020   5.332
 3711TIP3    H111090   5.450   3.003   5.355
 3711TIP3    H211091   5.537   3.098   5.277
 3712TIP3   OH211092   4.632   5.997   3.442
 3712TIP3    H111093   4.616   6.089   3.423
 3712TIP3    H211094   4.726   5.993   3.460
 3713TIP3   OH211095   1.216   6.312   2.318
 3713TIP3    H111096   1.211   6.337   2.410
 3713TIP3    H211097   1.244   6.221   2.318
 3714TIP3   OH211098   4.017   6.172   2.515
 3714TIP3    H111099   3.932   6.131   2.530
 3714TIP3    H211100   4.045   6.139   2.430
 3715TIP3   OH211101   7.290   4.670   0.723
 3715TIP3    H111102   7.349   4.726   0.774
 3715TIP3    H211103   7.223   4.729   0.691
 3716TIP3   OH211104   5.652   7.767   4.431
 3716TIP3    H111105   5.694   7.822   4.365
 3716TIP3    H211106   5.559   7.784   4.420
 3717TIP3   OH211107   1.085   7.308   2.435
 3717TIP3    H111108   1.068   7.387   2.486
 3717TIP3    H211109   1.012   7.303   2.373
 3718TIP3   OH211110   5.422   0.239   2.912
 3718TIP3    H111111   5.456   0.150   2.916
 3718TIP3    H211112   5.396   0.251   2.821
 3719TIP3   OH211113   3.505   5.229   0.743
 3719TIP3    H111114   3.493   5.146   0.698
 3719TIP3    H211115   3.570   5.276   0.691
 3720TIP3   OH211116   1.909   2.895   1.470
 3720TIP3    H111117   1.897   2.976   1.420
 3720TIP3    H211118   1.919   2.827   1.403
 3721TIP3   OH211119   7.367   3.370   4.876
 3721TIP3    H111120   7.324   3.382   4.792
 3721TIP3    H211121   7.460   3.384   4.858
 3722TIP3   OH211122   1.107   1.669   1.111
 3722TIP3    H111123   1.097   1.732   1.040
 3722TIP3    H211124   1.096   1.720   1.191
 3723TIP3   OH211125   7.778   6.696   2.198
 3723TIP3    H111126   7.781   6.788   2.171
 3723TIP3    H211127   7.770   6.699   2.293
 3724TIP3   OH211128   6.366   6.590   5.598
 3724TIP3    H111129   6.313   6.607   5.520
 3724TIP3    H211130   6.456   6.605   5.570
 3725TIP3   OH211131   1.265   1.809   0.267
 3725TIP3    H111132   1.230   1.823   0.179
 3725TIP3    H211133   1.188   1.815   0.324
 3726TIP3   OH211134   0.393   5.441   5.513
 3726TIP3    H111135   0.396   5.462   5.419
 3726TIP3    H211136   0.419   5.522   5.556
 3727TIP3   OH211137   6.408   0.248   4.277
 3727TIP3    H111138   6.393   0.177   4.214
 3727TIP3    H211139   6.377   0.327   4.232
 3728TIP3   OH211140   2.063   3.261   2.747
 3728TIP3    H111141   2.072   3.339   2.691
 3728TIP3    H211142   2.095   3.189   2.692
 3729TIP3   OH211143   5.888   6.301   1.631
 3729TIP3    H111144   5.861   6.370   1.571
 3729TIP3    H211145   5.968   6.336   1.672
 3730TIP3   OH211146   2.189   1.554   4.505
 3730TIP3    H111147   2.220   1.501   4.431
 3730TIP3    H211148   2.253   1.625   4.512
 3731TIP3   OH211149   7.369   2.222   0.583
 3731TIP3    H111150   7.427   2.208   0.508
 3731TIP3    H211151   7.354   2.134   0.618
 3732TIP3   OH211152   2.669   5.802   4.648
 3732TIP3    H111153   2.664   5.896   4.630
 3732TIP3    H211154   2.740   5.770   4.593
 3733TIP3   OH211155   4.875   7.104   3.896
 3733TIP3    H111156   4.887   7.009   3.894
 3733TIP3    H211157   4.955   7.137   3.939
 3734TIP3   OH211158   2.424   1.274   1.833
 3734TIP3    H111159   2.450   1.309   1.748
 3734TIP3    H211160   2.506   1.240   1.870
 3735TIP3   OH211161   5.627   5.996   3.822
 3735TIP3    H111162   5.576   6.077   3.821
 3735TIP3    H211163   5.563   5.927   3.806
 3736TIP3   OH211164   1.999   6.893   4.921
 3736TIP3    H111165   1.956   6.878   5.005
 3736TIP3    H211166   2.078   6.942   4.943
 3737TIP3   OH211167   2.260   5.352   6.026
 3737TIP3    H111168   2.353   5.376   6.031
 3737TIP3    H211169   2.219   5.427   5.983
 3738TIP3   OH211170   0.378   6.226   6.183
 3738TIP3    H111171   0.367   6.289   6.253
 3738TIP3    H211172   0.361   6.275   6.103
 3739TIP3   OH211173   8.189   6.318   1.929
 3739TIP3    H111174   8.255   6.377   1.967
 3739TIP3    H211175   8.141   6.284   2.004
 3740TIP3   OH211176   6.879   2.718   1.832
 3740TIP3    H111177   6.851   2.795   1.882
 3740TIP3    H211178   6.906   2.655   1.899
 3741TIP3   OH211179   3.015   3.873   4.435
 3741TIP3    H111180   3.103   3.909   4.434
 3741TIP3    H211181   2.977   3.903   4.518
 3742TIP3   OH211182   3.777   4.203   4.878
 3742TIP3    H111183   3.787   4.271   4.944
 3742TIP3    H211184   3.780   4.121   4.927
 3743TIP3   OH211185   5.218   3.105   4.194
 3743TIP3    H111186   5.289   3.168   4.204
 3743TIP3    H211187   5.198   3.106   4.100
 3744TIP3   OH211188   7.420   1.691   0.809
 3744TIP3    H111189   7.405   1.619   0.870
 3744TIP3    H211190   7.489   1.743   0.850
 3745TIP3   OH211191   3.187   6.535   3.256
 3745TIP3    H111192   3.275   6.509   3.228
 3745TIP3    H211193   3.195   6.628   3.279
 3746TIP3   OH211194   7.071   1.569   3.552
 3746TIP3    H111195   7.018   1.611   3.620
 3746TIP3    H211196   7.161   1.581   3.581
 3747TIP3   OH211197   5.422   6.196   0.390
 3747TIP3    H111198   5.462   6.176   0.475
 3747TIP3    H211199   5.334   6.224   0.411
 3748TIP3   OH211200   0.528   3.628   1.202
 3748TIP3    H111201   0.575   3.572   1.265
 3748TIP3    H211202   0.559   3.716   1.221
 3749TIP3   OH211203   2.704   1.756   0.619
 3749TIP3    H111204   2.647   1.694   0.664
 3749TIP3    H211205   2.694   1.838   0.667
 3750TIP3   OH211206   5.557   5.733   2.104
 3750TIP3    H111207   5.611   5.680   2.162
 3750TIP3    H211208   5.615   5.754   2.030
 3751TIP3   OH211209   8.216   1.113   2.112
 3751TIP3    H111210   8.150   1.180   2.128
 3751TIP3    H211211   8.227   1.112   2.017
 3752TIP3   OH211212   7.617   6.868   1.509
 3752TIP3    H111213   7.611   6.793   1.569
 3752TIP3    H211214   7.630   6.943   1.567
 3753TIP3   OH211215   2.997   3.150   4.753
 3753TIP3    H111216   2.939   3.225   4.740
 3753TIP3    H211217   2.986   3.128   4.846
 3754TIP3   OH211218   2.480   2.336   2.045
 3754TIP3    H111219   2.484   2.418   2.093
 3754TIP3    H211220   2.527   2.273   2.099
 3755TIP3   OH211221   5.429   6.551   1.710
 3755TIP3    H111222   5.492   6.480   1.723
 3755TIP3    H211223   5.382   6.556   1.794
 3756TIP3   OH211224   6.015   2.302   1.773
 3756TIP3    H111225   6.103   2.273   1.747
 3756TIP3    H211226   6.030   2.373   1.835
 3757TIP3   OH211227   2.689   6.194   2.317
 3757TIP3    H111228   2.704   6.191   2.223
 3757TIP3    H211229   2.777   6.204   2.355
 3758TIP3   OH211230   0.385   7.527   3.109
 3758TIP3    H111231   0.341   7.445   3.087
 3758TIP3    H211232   0.315   7.593   3.104
 3759TIP3   OH211233   6.671   0.770   1.250
 3759TIP3    H111234   6.761   0.744   1.269
 3759TIP3    H211235   6.658   0.852   1.298
 3760TIP3   OH211236   0.266   4.886   4.313
 3760TIP3    H111237   0.204   4.835   4.366
 3760TIP3    H211238   0.210   4.941   4.258
 3761TIP3   OH211239   2.905   4.625   3.617
 3761TIP3    H111240   2.944   4.552   3.568
 3761TIP3    H211241   2.834   4.586   3.667
 3762TIP3   OH211242   7.075   1.046   5.921
 3762TIP3    H111243   7.160   1.002   5.914
 3762TIP3    H211244   7.014   0.986   5.880
 3763TIP3   OH211245   6.081   0.565   5.577
 3763TIP3    H111246   6.126   0.481   5.573
 3763TIP3    H211247   6.106   0.610   5.497
 3764TIP3   OH211248   7.650   6.224   6.294
 3764TIP3    H111249   7.738   6.247   6.324
 3764TIP3    H211250   7.602   6.307   6.294
 3765TIP3   OH211251   5.699   6.803   2.464
 3765TIP3    H111252   5.742   6.875   2.510
 3765TIP3    H211253   5.695   6.732   2.529
 3766TIP3   OH211254   7.199   4.863   1.018
 3766TIP3    H111255   7.169   4.951   0.998
 3766TIP3    H211256   7.125   4.820   1.061
 3767TIP3   OH211257   4.592   1.523   2.977
 3767TIP3    H111258   4.679   1.529   3.016
 3767TIP3    H211259   4.532   1.529   3.052
 3768TIP3   OH211260   5.251   1.484   3.280
 3768TIP3    H111261   5.228   1.570   3.244
 3768TIP3    H211262   5.286   1.503   3.367
 3769TIP3   OH211263   6.943   1.684   5.797
 3769TIP3    H111264   6.967   1.776   5.791
 3769TIP3    H211265   6.915   1.661   5.709
 3770TIP3   OH211266   0.415   4.404   4.005
 3770TIP3    H111267   0.421   4.463   4.081
 3770TIP3    H211268   0.327   4.368   4.010
 3771TIP3   OH211269   0.810   7.529   0.477
 3771TIP3    H111270   0.766   7.614   0.489
 3771TIP3    H211271   0.901   7.546   0.502
 3772TIP3   OH211272   1.965   0.526   1.133
 3772TIP3    H111273   1.923   0.539   1.048
 3772TIP3    H211274   1.981   0.432   1.139
 3773TIP3   OH211275   1.006   7.371   4.361
 3773TIP3    H111276   1.045   7.368   4.273
 3773TIP3    H211277   1.076   7.404   4.417
 3774TIP3   OH211278   4.517   6.264  -0.015
 3774TIP3    H111279   4.592   6.236   0.037
 3774TIP3    H211280   4.514   6.359  -0.004
 3775TIP3   OH211281   1.291   5.518   2.357
 3775TIP3    H111282   1.319   5.584   2.422
 3775TIP3    H211283   1.272   5.569   2.279
 3776TIP3   OH211284   6.175   0.946   6.203
 3776TIP3    H111285   6.181   0.991   6.287
 3776TIP3    H211286   6.253   0.973   6.155
 3777TIP3   OH211287   0.579   6.428   4.532
 3777TIP3    H111288   0.582   6.524   4.532
 3777TIP3    H211289   0.631   6.402   4.456
 3778TIP3   OH211290   5.323   7.353   1.683
 3778TIP3    H111291   5.377   7.282   1.717
 3778TIP3    H211292   5.250   7.359   1.745
 3779TIP3   OH211293   7.753   0.000   2.371
 3779TIP3    H111294   7.722  -0.046   2.449
 3779TIP3    H211295   7.728   0.091   2.386
 3780TIP3   OH211296   7.607   1.223   2.651
 3780TIP3    H111297   7.590   1.230   2.557
 3780TIP3    H211298   7.689   1.270   2.664
 3781TIP3   OH211299   1.831   2.767   2.695
 3781TIP3    H111300   1.773   2.840   2.679
 3781TIP3    H211301   1.899   2.775   2.629
 3782TIP3   OH211302   4.134   4.062   4.679
 3782TIP3    H111303   4.227   4.060   4.700
 3782TIP3    H211304   4.131   4.094   4.588
 3783TIP3   OH211305   0.890   1.504   5.753
 3783TIP3    H111306   0.953   1.574   5.735
 3783TIP3    H211307   0.808   1.535   5.713
 3784TIP3   OH211308   4.258   5.739  -0.019
 3784TIP3    H111309   4.246   5.698   0.067
 3784TIP3    H211310   4.349   5.767  -0.021
 3785TIP3   OH211311   0.115   4.031   6.630
 3785TIP3    H111312   0.098   3.968   6.560
 3785TIP3    H211313   0.172   4.097   6.590
 3786TIP3   OH211314   0.555   2.825   5.992
 3786TIP3    H111315   0.587   2.859   5.908
 3786TIP3    H211316   0.635   2.805   6.041
 3787TIP3   OH211317   6.459   0.529   1.501
 3787TIP3    H111318   6.527   0.551   1.566
 3787TIP3    H211319   6.399   0.603   1.504
 3788TIP3   OH211320   5.808   3.558   5.879
 3788TIP3    H111321   5.809   3.466   5.856
 3788TIP3    H211322   5.900   3.585   5.874
 3789TIP3   OH211323   2.517   5.313   2.180
 3789TIP3    H111324   2.496   5.307   2.272
 3789TIP3    H211325   2.611   5.331   2.178
 3790TIP3   OH211326   5.488   4.572   5.682
 3790TIP3    H111327   5.436   4.647   5.653
 3790TIP3    H211328   5.563   4.611   5.728
 3791TIP3   OH211329   8.001   0.279   0.846
 3791TIP3    H111330   8.049   0.243   0.772
 3791TIP3    H211331   7.997   0.373   0.829
 3792TIP3   OH211332   0.603   6.858   0.459
 3792TIP3    H111333   0.588   6.852   0.364
 3792TIP3    H211334   0.522   6.828   0.499
 3793TIP3   OH211335   1.836   7.094   4.314
 3793TIP3    H111336   1.922   7.077   4.276
 3793TIP3    H211337   1.816   7.015   4.365
 3794TIP3   OH211338   0.114   7.063   2.910
 3794TIP3    H111339   0.030   7.085   2.870
 3794TIP3    H211340   0.104   6.973   2.940
 3795TIP3   OH211341   3.492   6.093   0.387
 3795TIP3    H111342   3.558   6.044   0.436
 3795TIP3    H211343   3.524   6.094   0.297
 3796TIP3   OH211344   6.159   2.941   4.463
 3796TIP3    H111345   6.214   2.891   4.403
 3796TIP3    H211346   6.071   2.904   4.451
 3797TIP3   OH211347   7.955   4.654   3.836
 3797TIP3    H111348   7.985   4.670   3.746
 3797TIP3    H211349   7.982   4.564   3.854
 3798TIP3   OH211350   8.232   3.302   2.807
 3798TIP3    H111351   8.184   3.357   2.746
 3798TIP3    H211352   8.296   3.362   2.847
 3799TIP3   OH211353   4.821   4.932   2.590
 3799TIP3    H111354   4.867   4.963   2.668
 3799TIP3    H211355   4.769   4.857   2.621
 3800TIP3   OH211356   5.240   2.657   1.440
 3800TIP3    H111357   5.233   2.711   1.361
 3800TIP3    H211358   5.278   2.575   1.410
 3801TIP3   OH211359   6.228   1.458   5.563
 3801TIP3    H111360   6.277   1.380   5.535
 3801TIP3    H211361   6.158   1.424   5.618
 3802TIP3   OH211362   4.713   6.203   4.577
 3802TIP3    H111363   4.712   6.141   4.649
 3802TIP3    H211364   4.676   6.284   4.613
 3803TIP3   OH211365   4.137   4.356   4.945
 3803TIP3    H111366   4.119   4.262   4.953
 3803TIP3    H211367   4.148   4.371   4.851
 3804TIP3   OH211368   7.967   4.805   0.690
 3804TIP3    H111369   7.988   4.716   0.720
 3804TIP3    H211370   8.052   4.843   0.667
 3805TIP3   OH211371   5.565   5.730   2.590
 3805TIP3    H111372   5.588   5.637   2.601
 3805TIP3    H211373   5.649   5.772   2.573
 3806TIP3   OH211374   3.523   2.683   4.200
 3806TIP3    H111375   3.573   2.625   4.257
 3806TIP3    H211376   3.543   2.653   4.112
 3807TIP3   OH211377   1.798   0.882   5.386
 3807TIP3    H111378   1.804   0.867   5.480
 3807TIP3    H211379   1.854   0.815   5.347
 3808TIP3   OH211380   3.810   1.520   0.161
 3808TIP3    H111381   3.876   1.500   0.226
 3808TIP3    H211382   3.851   1.587   0.105
 3809TIP3   OH211383   4.569   5.654   4.189
 3809TIP3    H111384   4.603   5.573   4.226
 3809TIP3    H211385   4.639   5.718   4.203
 3810TIP3   OH211386   0.078   6.523   2.517
 3810TIP3    H111387  -0.012   6.548   2.495
 3810TIP3    H211388   0.132   6.570   2.454
 3811TIP3   OH211389   5.008   3.569   6.120
 3811TIP3    H111390   4.947   3.583   6.192
 3811TIP3    H211391   4.988   3.639   6.058
 3812TIP3   OH211392   7.292   2.057   2.137
 3812TIP3    H111393   7.318   2.009   2.215
 3812TIP3    H211394   7.312   2.149   2.157
 3813TIP3   OH211395   3.161   7.512   4.883
 3813TIP3    H111396   3.126   7.582   4.938
 3813TIP3    H211397   3.151   7.545   4.793
 3814TIP3   OH211398   7.903   4.829   2.039
 3814TIP3    H111399   7.871   4.745   2.006
 3814TIP3    H211400   7.851   4.846   2.118
 3815TIP3   OH211401   5.209   3.321   0.166
 3815TIP3    H111402   5.225   3.335   0.073
 3815TIP3    H211403   5.161   3.399   0.194
 3816TIP3   OH211404   1.044   2.868   1.390
 3816TIP3    H111405   0.970   2.919   1.423
 3816TIP3    H211406   1.120   2.925   1.401
 3817TIP3   OH211407   0.790   7.069   0.127
 3817TIP3    H111408   0.723   7.001   0.137
 3817TIP3    H211409   0.831   7.050   0.043
 3818TIP3   OH211410   5.042   0.218   0.291
 3818TIP3    H111411   5.077   0.306   0.297
 3818TIP3    H211412   5.113   0.162   0.323
 3819TIP3   OH211413   4.819   2.129   4.732
 3819TIP3    H111414   4.780   2.213   4.757
 3819TIP3    H211415   4.910   2.149   4.711
 3820TIP3   OH211416   1.448   5.273   2.489
 3820TIP3    H111417   1.447   5.306   2.579
 3820TIP3    H211418   1.453   5.351   2.434
 3821TIP3   OH211419   3.344   0.803   1.010
 3821TIP3    H111420   3.395   0.759   1.079
 3821TIP3    H211421   3.368   0.895   1.017
 3822TIP3   OH211422   5.562   6.337   2.650
 3822TIP3    H111423   5.546   6.259   2.597
 3822TIP3    H211424   5.478   6.353   2.694
 3823TIP3   OH211425   5.604   3.924   0.552
 3823TIP3    H111426   5.628   4.000   0.498
 3823TIP3    H211427   5.541   3.960   0.615
 3824TIP3   OH211428   7.373   2.118   4.665
 3824TIP3    H111429   7.296   2.115   4.723
 3824TIP3    H211430   7.336   2.108   4.577
 3825TIP3   OH211431   1.892   1.200   2.272
 3825TIP3    H111432   1.814   1.221   2.324
 3825TIP3    H211433   1.900   1.273   2.210
 3826TIP3   OH211434   1.636   3.922   4.135
 3826TIP3    H111435   1.603   3.838   4.168
 3826TIP3    H211436   1.572   3.949   4.070
 3827TIP3   OH211437   4.044   6.980   4.515
 3827TIP3    H111438   3.970   6.919   4.509
 3827TIP3    H211439   4.121   6.924   4.514
 3828TIP3   OH211440   5.762   5.236   6.310
 3828TIP3    H111441   5.805   5.209   6.229
 3828TIP3    H211442   5.809   5.315   6.336
 3829TIP3   OH211443   6.968   3.658   2.653
 3829TIP3    H111444   6.884   3.616   2.670
 3829TIP3    H211445   6.967   3.738   2.706
 3830TIP3   OH211446   1.518   7.091   3.095
 3830TIP3    H111447   1.426   7.117   3.100
 3830TIP3    H211448   1.548   7.092   3.186
 3831TIP3   OH211449   0.940   3.774   5.700
 3831TIP3    H111450   0.895   3.690   5.702
 3831TIP3    H211451   0.979   3.782   5.787
 3832TIP3   OH211452   3.611   7.265   0.384
 3832TIP3    H111453   3.636   7.247   0.293
 3832TIP3    H211454   3.694   7.268   0.431
 3833TIP3   OH211455   2.700   1.749   1.913
 3833TIP3    H111456   2.641   1.822   1.892
 3833TIP3    H211457   2.732   1.769   2.001
 3834TIP3   OH211458   6.947   1.227   6.097
 3834TIP3    H111459   7.007   1.154   6.114
 3834TIP3    H211460   6.957   1.247   6.004
 3835TIP3   OH211461   4.315   2.544   2.852
 3835TIP3    H111462   4.364   2.612   2.805
 3835TIP3    H211463   4.352   2.461   2.821
 3836TIP3   OH211464   6.707   6.044   2.474
 3836TIP3    H111465   6.732   6.095   2.396
 3836TIP3    H211466   6.743   5.956   2.457
 3837TIP3   OH211467  -0.028   7.561   6.419
 3837TIP3    H111468   0.051   7.534   6.466
 3837TIP3    H211469   0.003   7.623   6.353
 3838TIP3   OH211470   5.272   7.792   3.968
 3838TIP3    H111471   5.225   7.863   3.924
 3838TIP3    H211472   5.290   7.729   3.898
 3839TIP3   OH211473   1.524   1.077   6.690
 3839TIP3    H111474   1.546   1.119   6.607
 3839TIP3    H211475   1.576   0.997   6.691
 3840TIP3   OH211476   1.123   4.607   1.878
 3840TIP3    H111477   1.069   4.604   1.958
 3840TIP3    H211478   1.066   4.572   1.810
 3841TIP3   OH211479   6.216   1.809   1.038
 3841TIP3    H111480   6.249   1.846   1.120
 3841TIP3    H211481   6.157   1.739   1.066
 3842TIP3   OH211482   5.508   1.934   5.385
 3842TIP3    H111483   5.556   1.962   5.308
 3842TIP3    H211484   5.416   1.947   5.361
 3843TIP3   OH211485   2.319   6.449   3.818
 3843TIP3    H111486   2.411   6.472   3.832
 3843TIP3    H211487   2.291   6.412   3.902
 3844TIP3   OH211488   4.566   0.423   2.546
 3844TIP3    H111489   4.592   0.388   2.461
 3844TIP3    H211490   4.635   0.393   2.606
 3845TIP3   OH211491   4.233   4.622   1.074
 3845TIP3    H111492   4.223   4.590   0.984
 3845TIP3    H211493   4.327   4.620   1.089
 3846TIP3   OH211494   6.189   4.029   5.367
 3846TIP3    H111495   6.214   4.094   5.302
 3846TIP3    H211496   6.271   4.006   5.411
 3847TIP3   OH211497   5.507   7.164   5.076
 3847TIP3    H111498   5.506   7.240   5.134
 3847TIP3    H211499   5.530   7.199   4.990
 3848TIP3   OH211500   7.135   2.270   2.832
 3848TIP3    H111501   7.181   2.188   2.850
 3848TIP3    H211502   7.122   2.270   2.738
 3849TIP3   OH211503   7.362   5.318   3.722
 3849TIP3    H111504   7.303   5.387   3.753
 3849TIP3    H211505   7.385   5.270   3.801
 3850TIP3   OH211506   6.730   0.048   5.020
 3850TIP3    H111507   6.670   0.116   4.987
 3850TIP3    H211508   6.736   0.065   5.114
 3851TIP3   OH211509   6.409   5.311   3.972
 3851TIP3    H111510   6.414   5.217   3.992
 3851TIP3    H211511   6.450   5.320   3.886
 3852TIP3   OH211512   6.621   7.077   3.395
 3852TIP3    H111513   6.664   6.998   3.363
 3852TIP3    H211514   6.667   7.097   3.477
 3853TIP3   OH211515   0.135   5.116   3.869
 3853TIP3    H111516   0.154   5.138   3.778
 3853TIP3    H211517   0.041   5.100   3.871
 3854TIP3   OH211518   8.300   0.973   2.805
 3854TIP3    H111519   8.314   1.062   2.839
 3854TIP3    H211520   8.205   0.964   2.799
 3855TIP3   OH211521   3.339   6.760   1.280
 3855TIP3    H111522   3.387   6.824   1.331
 3855TIP3    H211523   3.250   6.763   1.315
 3856TIP3   OH211524   6.708   4.283   0.939
 3856TIP3    H111525   6.736   4.196   0.968
 3856TIP3    H211526   6.780   4.341   0.964
 3857TIP3   OH211527   4.375   6.181   2.201
 3857TIP3    H111528   4.356   6.128   2.124
 3857TIP3    H211529   4.426   6.255   2.168
 3858TIP3   OH211530   2.822   4.791   3.019
 3858TIP3    H111531   2.803   4.697   3.015
 3858TIP3    H211532   2.912   4.795   3.052
 3859TIP3   OH211533   4.256   6.268   2.653
 3859TIP3    H111534   4.181   6.229   2.607
 3859TIP3    H211535   4.330   6.212   2.630
 3860TIP3   OH211536   8.002   2.741   5.334
 3860TIP3    H111537   7.988   2.662   5.386
 3860TIP3    H211538   8.092   2.734   5.304
 3861TIP3   OH211539   3.669   5.743   2.684
 3861TIP3    H111540   3.695   5.823   2.640
 3861TIP3    H211541   3.722   5.740   2.763
 3862TIP3   OH211542   4.734   1.950   6.538
 3862TIP3    H111543   4.647   1.911   6.546
 3862TIP3    H211544   4.758   1.975   6.627
 3863TIP3   OH211545   7.182   3.054   1.024
 3863TIP3    H111546   7.154   2.977   0.974
 3863TIP3    H211547   7.270   3.032   1.054
 3864TIP3   OH211548   3.030   5.068   4.317
 3864TIP3    H111549   3.125   5.080   4.308
 3864TIP3    H211550   3.009   4.998   4.254
 3865TIP3   OH211551   3.568   0.396   5.226
 3865TIP3    H111552   3.508   0.422   5.296
 3865TIP3    H211553   3.592   0.478   5.183
 3866TIP3   OH211554   2.685   2.906   6.223
 3866TIP3    H111555   2.629   2.975   6.258
 3866TIP3    H211556   2.766   2.912   6.273
 3867TIP3   OH211557   1.552   5.584   3.550
 3867TIP3    H111558   1.540   5.511   3.489
 3867TIP3    H211559   1.465   5.599   3.587
 3868TIP3   OH211560   6.692   4.437   2.126
 3868TIP3    H111561   6.751   4.401   2.060
 3868TIP3    H211562   6.749   4.479   2.190
 3869TIP3   OH211563   5.109   2.251   5.654
 3869TIP3    H111564   5.181   2.233   5.714
 3869TIP3    H211565   5.037   2.197   5.686
 3870TIP3   OH211566   0.089   2.093   0.470
 3870TIP3    H111567   0.162   2.035   0.494
 3870TIP3    H211568   0.021   2.034   0.440
 3871TIP3   OH211569   2.446   4.798   4.813
 3871TIP3    H111570   2.473   4.706   4.808
 3871TIP3    H211571   2.395   4.804   4.894
 3872TIP3   OH211572   3.836   1.222   3.740
 3872TIP3    H111573   3.827   1.161   3.814
 3872TIP3    H211574   3.748   1.228   3.703
 3873TIP3   OH211575   8.096   1.224   4.427
 3873TIP3    H111576   8.183   1.183   4.428
 3873TIP3    H211577   8.107   1.300   4.371
 3874TIP3   OH211578   1.853   3.400   1.945
 3874TIP3    H111579   1.860   3.494   1.964
 3874TIP3    H211580   1.792   3.366   2.010
 3875TIP3   OH211581   5.089   3.990   5.609
 3875TIP3    H111582   5.173   4.029   5.635
 3875TIP3    H211583   5.113   3.910   5.562
 3876TIP3   OH211584   3.300   6.856   6.405
 3876TIP3    H111585   3.212   6.842   6.369
 3876TIP3    H211586   3.358   6.851   6.329
 3877TIP3   OH211587   5.082   1.482   2.634
 3877TIP3    H111588   5.125   1.400   2.608
 3877TIP3    H211589   4.992   1.457   2.651
 3878TIP3   OH211590   0.110   7.596   1.694
 3878TIP3    H111591   0.160   7.676   1.675
 3878TIP3    H211592   0.166   7.525   1.663
 3879TIP3   OH211593   2.950   7.375   6.388
 3879TIP3    H111594   2.898   7.450   6.417
 3879TIP3    H211595   3.032   7.383   6.436
 3880TIP3   OH211596   3.590   4.558   5.360
 3880TIP3    H111597   3.513   4.609   5.385
 3880TIP3    H211598   3.664   4.617   5.377
 3881TIP3   OH211599   6.983   2.164   0.140
 3881TIP3    H111600   7.053   2.225   0.114
 3881TIP3    H211601   6.985   2.166   0.236
 3882TIP3   OH211602   7.317   6.267   1.768
 3882TIP3    H111603   7.405   6.295   1.791
 3882TIP3    H211604   7.329   6.186   1.718
 3883TIP3   OH211605   6.728   6.371   3.588
 3883TIP3    H111606   6.817   6.378   3.552
 3883TIP3    H211607   6.736   6.305   3.657
 3884TIP3   OH211608   7.641   3.269   2.674
 3884TIP3    H111609   7.721   3.241   2.629
 3884TIP3    H211610   7.584   3.301   2.605
 3885TIP3   OH211611   0.787   3.042   1.957
 3885TIP3    H111612   0.799   3.014   2.047
 3885TIP3    H211613   0.851   3.113   1.944
 3886TIP3   OH211614   0.546   2.501   2.687
 3886TIP3    H111615   0.513   2.503   2.597
 3886TIP3    H211616   0.505   2.576   2.730
 3887TIP3   OH211617   3.519   4.883   1.654
 3887TIP3    H111618   3.602   4.846   1.625
 3887TIP3    H211619   3.529   4.892   1.749
 3888TIP3   OH211620   5.701   2.476   5.585
 3888TIP3    H111621   5.696   2.493   5.491
 3888TIP3    H211622   5.686   2.562   5.626
 3889TIP3   OH211623   1.117   1.677   1.482
 3889TIP3    H111624   1.096   1.632   1.564
 3889TIP3    H211625   1.181   1.620   1.439
 3890TIP3   OH211626   8.260   4.000   0.342
 3890TIP3    H111627   8.346   4.007   0.301
 3890TIP3    H211628   8.205   4.063   0.296
 3891TIP3   OH211629   8.066   6.193   2.504
 3891TIP3    H111630   8.161   6.199   2.509
 3891TIP3    H211631   8.034   6.269   2.553
 3892TIP3   OH211632   1.524   4.964   3.908
 3892TIP3    H111633   1.476   4.960   3.825
 3892TIP3    H211634   1.574   5.045   3.903
 3893TIP3   OH211635   1.829   4.019   6.337
 3893TIP3    H111636   1.908   4.046   6.290
 3893TIP3    H211637   1.772   4.096   6.334
 3894TIP3   OH211638   2.059   3.890   2.142
 3894TIP3    H111639   2.017   3.819   2.192
 3894TIP3    H211640   2.006   3.897   2.062
 3895TIP3   OH211641   2.158   0.048   4.979
 3895TIP3    H111642   2.150   0.076   4.888
 3895TIP3    H211643   2.101  -0.028   4.986
 3896TIP3   OH211644   1.543   4.455   1.076
 3896TIP3    H111645   1.477   4.386   1.071
 3896TIP3    H211646   1.541   4.497   0.990
 3897TIP3   OH211647   3.474   3.504   5.471
 3897TIP3    H111648   3.402   3.519   5.410
 3897TIP3    H211649   3.502   3.414   5.453
 3898TIP3   OH211650   2.181   4.826   5.057
 3898TIP3    H111651   2.252   4.766   5.079
 3898TIP3    H211652   2.221   4.913   5.055
 3899TIP3   OH211653   1.039   5.922   4.642
 3899TIP3    H111654   1.024   5.848   4.582
 3899TIP3    H211655   0.955   5.937   4.683
 3900TIP3   OH211656   2.147   3.320   6.328
 3900TIP3    H111657   2.081   3.258   6.298
 3900TIP3    H211658   2.152   3.386   6.258
 3901TIP3   OH211659   5.769   6.541   1.858
 3901TIP3    H111660   5.679   6.517   1.880
 3901TIP3    H211661   5.820   6.518   1.936
 3902TIP3   OH211662   6.974   0.243   1.160
 3902TIP3    H111663   6.959   0.190   1.238
 3902TIP3    H211664   7.062   0.280   1.173
 3903TIP3   OH211665   8.169   3.446   4.634
 3903TIP3    H111666   8.222   3.521   4.662
 3903TIP3    H211667   8.233   3.375   4.623
 3904TIP3   OH211668   1.563   3.878   2.091
 3904TIP3    H111669   1.489   3.864   2.151
 3904TIP3    H211670   1.543   3.824   2.015
 3905TIP3   OH211671   5.490   6.214   5.810
 3905TIP3    H111672   5.462   6.135   5.764
 3905TIP3    H211673   5.408   6.258   5.834
 3906TIP3   OH211674   6.581   6.811   2.449
 3906TIP3    H111675   6.545   6.871   2.384
 3906TIP3    H211676   6.505   6.780   2.499
 3907TIP3   OH211677   2.002   3.123   5.904
 3907TIP3    H111678   1.927   3.181   5.888
 3907TIP3    H211679   2.032   3.098   5.817
 3908TIP3   OH211680   6.533   1.302   3.397
 3908TIP3    H111681   6.503   1.218   3.362
 3908TIP3    H211682   6.453   1.348   3.421
 3909TIP3   OH211683   5.677   3.105   5.577
 3909TIP3    H111684   5.637   3.077   5.495
 3909TIP3    H211685   5.712   3.025   5.616
 3910TIP3   OH211686   3.200   4.933   1.022
 3910TIP3    H111687   3.216   5.015   1.068
 3910TIP3    H211688   3.146   4.958   0.946
 3911TIP3   OH211689   3.256   1.700   3.347
 3911TIP3    H111690   3.346   1.726   3.363
 3911TIP3    H211691   3.212   1.715   3.431
 3912TIP3   OH211692   0.216   2.588   5.154
 3912TIP3    H111693   0.247   2.566   5.242
 3912TIP3    H211694   0.230   2.682   5.147
 3913TIP3   OH211695   7.514   4.067   1.135
 3913TIP3    H111696   7.440   4.124   1.158
 3913TIP3    H211697   7.490   4.032   1.049
 3914TIP3   OH211698   1.431   5.901   0.658
 3914TIP3    H111699   1.415   5.822   0.607
 3914TIP3    H211700   1.446   5.869   0.747
 3915TIP3   OH211701   1.723   2.120   3.687
 3915TIP3    H111702   1.720   2.138   3.593
 3915TIP3    H211703   1.646   2.165   3.722
 3916TIP3   OH211704   3.727   5.994   0.840
 3916TIP3    H111705   3.705   5.903   0.817
 3916TIP3    H211706   3.656   6.046   0.802
 3917TIP3   OH211707   1.012   7.691   0.277
 3917TIP3    H111708   1.078   7.751   0.244
 3917TIP3    H211709   1.024   7.691   0.372
 3918TIP3   OH211710   7.650   1.480   3.339
 3918TIP3    H111711   7.631   1.540   3.268
 3918TIP3    H211712   7.586   1.409   3.330
 3919TIP3   OH211713   2.690   2.853   5.946
 3919TIP3    H111714   2.661   2.862   6.037
 3919TIP3    H211715   2.705   2.942   5.916
 3920TIP3   OH211716   5.088   0.126   6.398
 3920TIP3    H111717   5.124   0.146   6.484
 3920TIP3    H211718   5.082   0.211   6.354
 3921TIP3   OH211719   2.858   2.361   0.148
 3921TIP3    H111720   2.944   2.399   0.135
 3921TIP3    H211721   2.828   2.337   0.061
 3922TIP3   OH211722   5.623   1.356   3.349
 3922TIP3    H111723   5.644   1.399   3.266
 3922TIP3    H211724   5.665   1.411   3.416
 3923TIP3   OH211725   6.511   3.179   1.401
 3923TIP3    H111726   6.549   3.263   1.375
 3923TIP3    H211727   6.569   3.114   1.362
 3924TIP3   OH211728   6.208   4.583   2.278
 3924TIP3    H111729   6.137   4.635   2.241
 3924TIP3    H211730   6.264   4.563   2.204
 3925TIP3   OH211731   5.672   6.958   5.162
 3925TIP3    H111732   5.610   7.019   5.121
 3925TIP3    H211733   5.632   6.937   5.246
 3926TIP3   OH211734   1.662   7.625   6.088
 3926TIP3    H111735   1.718   7.550   6.072
 3926TIP3    H211736   1.597   7.623   6.018
 3927TIP3   OH211737   5.013   3.173   1.065
 3927TIP3    H111738   4.972   3.228   0.998
 3927TIP3    H211739   4.990   3.216   1.148
 3928TIP3   OH211740   1.559   6.935   0.059
 3928TIP3    H111741   1.638   6.990   0.057
 3928TIP3    H211742   1.513   6.962   0.138
 3929TIP3   OH211743   2.987   0.030   3.100
 3929TIP3    H111744   2.918   0.088   3.130
 3929TIP3    H211745   2.956  -0.058   3.120
 3930TIP3   OH211746   0.647   5.005   4.706
 3930TIP3    H111747   0.709   4.941   4.739
 3930TIP3    H211748   0.632   4.979   4.615
 3931TIP3   OH211749   6.189   5.449   3.864
 3931TIP3    H111750   6.104   5.430   3.905
 3931TIP3    H211751   6.253   5.419   3.927
 3932TIP3   OH211752   3.809   0.386   0.645
 3932TIP3    H111753   3.870   0.356   0.577
 3932TIP3    H211754   3.832   0.478   0.659
 3933TIP3   OH211755   5.769   3.566   4.861
 3933TIP3    H111756   5.843   3.619   4.891
 3933TIP3    H211757   5.807   3.481   4.839
 3934TIP3   OH211758   6.355   6.449   5.258
 3934TIP3    H111759   6.441   6.431   5.220
 3934TIP3    H211760   6.360   6.541   5.285
 3935TIP3   OH211761   1.055   2.220   2.933
 3935TIP3    H111762   0.964   2.220   2.903
 3935TIP3    H211763   1.106   2.249   2.857
 3936TIP3   OH211764   2.653   1.905   4.489
 3936TIP3    H111765   2.617   1.984   4.530
 3936TIP3    H211766   2.735   1.890   4.536
 3937TIP3   OH211767   5.673   0.316   6.134
 3937TIP3    H111768   5.641   0.323   6.044
 3937TIP3    H211769   5.597   0.285   6.184
 3938TIP3   OH211770   2.388   2.959   2.094
 3938TIP3    H111771   2.376   2.975   2.188
 3938TIP3    H211772   2.468   3.006   2.072
 3939TIP3   OH211773   5.366   7.187   2.378
 3939TIP3    H111774   5.440   7.227   2.423
 3939TIP3    H211775   5.389   7.095   2.369
 3940TIP3   OH211776   3.752   2.833   1.765
 3940TIP3    H111777   3.744   2.848   1.860
 3940TIP3    H211778   3.762   2.738   1.758
 3941TIP3   OH211779   7.947   5.778   1.563
 3941TIP3    H111780   7.977   5.708   1.621
 3941TIP3    H211781   7.909   5.731   1.488
 3942TIP3   OH211782   3.480   1.917   3.309
 3942TIP3    H111783   3.460   1.916   3.216
 3942TIP3    H211784   3.550   1.852   3.320
 3943TIP3   OH211785   3.548   6.479   3.489
 3943TIP3    H111786   3.644   6.480   3.487
 3943TIP3    H211787   3.524   6.570   3.507
 3944TIP3   OH211788   1.687   2.269   0.502
 3944TIP3    H111789   1.776   2.246   0.529
 3944TIP3    H211790   1.639   2.282   0.584
 3945TIP3   OH211791   8.290   2.091   6.189
 3945TIP3    H111792   8.222   2.057   6.130
 3945TIP3    H211793   8.346   2.144   6.132
 3946TIP3   OH211794   2.967   1.529   3.241
 3946TIP3    H111795   2.891   1.472   3.230
 3946TIP3    H211796   2.963   1.557   3.333
 3947TIP3   OH211797   7.813   1.865   4.876
 3947TIP3    H111798   7.805   1.771   4.893
 3947TIP3    H211799   7.818   1.905   4.963
 3948TIP3   OH211800   5.655   2.465   0.209
 3948TIP3    H111801   5.604   2.403   0.262
 3948TIP3    H211802   5.746   2.444   0.229
 3949TIP3   OH211803   2.402   3.445   1.665
 3949TIP3    H111804   2.377   3.532   1.696
 3949TIP3    H211805   2.322   3.394   1.669
 3950TIP3   OH211806   5.675   6.611   5.666
 3950TIP3    H111807   5.764   6.643   5.680
 3950TIP3    H211808   5.630   6.684   5.624
 3951TIP3   OH211809   4.796   6.895   1.983
 3951TIP3    H111810   4.811   6.987   2.006
 3951TIP3    H211811   4.881   6.853   1.994
 3952TIP3   OH211812   4.556   2.996   5.111
 3952TIP3    H111813   4.539   3.088   5.129
 3952TIP3    H211814   4.471   2.961   5.082
 3953TIP3   OH211815   2.496   3.890   0.783
 3953TIP3    H111816   2.504   3.938   0.701
 3953TIP3    H211817   2.407   3.854   0.780
 3954TIP3   OH211818   7.547   5.872   6.592
 3954TIP3    H111819   7.458   5.906   6.602
 3954TIP3    H211820   7.584   5.875   6.681
 3955TIP3   OH211821   7.496   2.888   6.358
 3955TIP3    H111822   7.517   2.806   6.403
 3955TIP3    H211823   7.581   2.920   6.327
 3956TIP3   OH211824   0.871   1.315   5.971
 3956TIP3    H111825   0.900   1.399   5.935
 3956TIP3    H211826   0.833   1.269   5.897
 3957TIP3   OH211827   1.336   1.031   1.965
 3957TIP3    H111828   1.271   1.093   1.932
 3957TIP3    H211829   1.419   1.077   1.960
 3958TIP3   OH211830   3.542   6.540   6.568
 3958TIP3    H111831   3.529   6.584   6.652
 3958TIP3    H211832   3.582   6.605   6.511
 3959TIP3   OH211833   4.569   6.545   3.464
 3959TIP3    H111834   4.647   6.600   3.460
 3959TIP3    H211835   4.543   6.533   3.373
 3960TIP3   OH211836   3.281   6.712   2.090
 3960TIP3    H111837   3.376   6.725   2.079
 3960TIP3    H211838   3.274   6.626   2.132
 3961TIP3   OH211839   0.331   5.711   6.500
 3961TIP3    H111840   0.278   5.633   6.483
 3961TIP3    H211841   0.270   5.784   6.491
 3962TIP3   OH211842   0.081   0.315   0.257
 3962TIP3    H111843   0.005   0.260   0.278
 3962TIP3    H211844   0.096   0.367   0.336
 3963TIP3   OH211845   4.796   0.259   0.200
 3963TIP3    H111846   4.756   0.324   0.258
 3963TIP3    H211847   4.887   0.254   0.230
 3964TIP3   OH211848   0.047   6.225   6.017
 3964TIP3    H111849   0.009   6.142   6.047
 3964TIP3    H211850   0.126   6.200   5.970
 3965TIP3   OH211851   7.381   5.730   5.773
 3965TIP3    H111852   7.439   5.803   5.751
 3965TIP3    H211853   7.358   5.744   5.865
 3966TIP3   OH211854   5.552   4.521   4.168
 3966TIP3    H111855   5.595   4.436   4.157
 3966TIP3    H211856   5.459   4.500   4.179
 3967TIP3   OH211857   4.528   4.687   3.386
 3967TIP3    H111858   4.577   4.768   3.379
 3967TIP3    H211859   4.478   4.696   3.467
 3968TIP3   OH211860   2.287   2.167   6.744
 3968TIP3    H111861   2.367   2.133   6.705
 3968TIP3    H211862   2.223   2.097   6.734
 3969TIP3   OH211863   7.034   4.548   3.466
 3969TIP3    H111864   7.046   4.641   3.445
 3969TIP3    H211865   7.042   4.504   3.381
 3970TIP3   OH211866   3.540   3.726   5.692
 3970TIP3    H111867   3.528   3.650   5.635
 3970TIP3    H211868   3.544   3.689   5.780
 3971TIP3   OH211869   4.757   2.632   0.674
 3971TIP3    H111870   4.669   2.671   0.674
 3971TIP3    H211871   4.811   2.697   0.718
 3972TIP3   OH211872   1.128   6.333   6.671
 3972TIP3    H111873   1.108   6.399   6.737
 3972TIP3    H211874   1.219   6.308   6.689
 3973TIP3   OH211875   1.665   3.895   3.655
 3973TIP3    H111876   1.570   3.898   3.656
 3973TIP3    H211877   1.688   3.889   3.562
 3974TIP3   OH211878   3.829   5.617   0.442
 3974TIP3    H111879   3.806   5.540   0.389
 3974TIP3    H211880   3.776   5.687   0.406
 3975TIP3   OH211881   0.411   1.047   3.886
 3975TIP3    H111882   0.328   1.085   3.855
 3975TIP3    H211883   0.479   1.101   3.846
 3976TIP3   OH211884   4.783   5.455   3.139
 3976TIP3    H111885   4.844   5.496   3.078
 3976TIP3    H211886   4.817   5.478   3.225
 3977TIP3   OH211887   3.754   0.052   5.453
 3977TIP3    H111888   3.849   0.040   5.451
 3977TIP3    H211889   3.719  -0.035   5.438
 3978TIP3   OH211890   6.779   1.017   0.926
 3978TIP3    H111891   6.815   1.067   0.853
 3978TIP3    H211892   6.853   1.005   0.986
 3979TIP3   OH211893   4.453   7.653   1.639
 3979TIP3    H111894   4.479   7.563   1.618
 3979TIP3    H211895   4.512   7.679   1.710
 3980TIP3   OH211896   4.092   2.858   3.136
 3980TIP3    H111897   4.001   2.878   3.153
 3980TIP3    H211898   4.119   2.922   3.070
 3981TIP3   OH211899   1.390   4.635   2.598
 3981TIP3    H111900   1.427   4.670   2.517
 3981TIP3    H211901   1.464   4.626   2.657
 3982TIP3   OH211902   3.108   1.366   2.308
 3982TIP3    H111903   3.073   1.370   2.219
 3982TIP3    H211904   3.203   1.364   2.295
 3983TIP3   OH211905   0.564   5.952   5.756
 3983TIP3    H111906   0.649   5.989   5.781
 3983TIP3    H211907   0.561   5.867   5.800
 3984TIP3   OH211908   2.351   2.508   4.089
 3984TIP3    H111909   2.317   2.594   4.114
 3984TIP3    H211910   2.444   2.523   4.073
 3985TIP3   OH211911   2.837   6.007   6.577
 3985TIP3    H111912   2.908   5.988   6.515
 3985TIP3    H211913   2.819   5.923   6.619
 3986TIP3   OH211914   2.567   5.786   0.153
 3986TIP3    H111915   2.565   5.690   0.153
 3986TIP3    H211916   2.635   5.809   0.217
 3987TIP3   OH211917   1.372   7.505   0.653
 3987TIP3    H111918   1.367   7.600   0.664
 3987TIP3    H211919   1.432   7.493   0.579
 3988TIP3   OH211920   4.693   4.844   5.568
 3988TIP3    H111921   4.677   4.781   5.638
 3988TIP3    H211922   4.623   4.908   5.576
 3989TIP3   OH211923   5.502   4.331   5.117
 3989TIP3    H111924   5.465   4.358   5.032
 3989TIP3    H211925   5.468   4.243   5.131
 3990TIP3   OH211926   5.452   6.812   1.620
 3990TIP3    H111927   5.449   6.732   1.674
 3990TIP3    H211928   5.521   6.865   1.660
 3991TIP3   OH211929   8.079   7.767   2.461
 3991TIP3    H111930   8.008   7.795   2.403
 3991TIP3    H211931   8.150   7.743   2.402
 3992TIP3   OH211932   3.272   4.546   6.129
 3992TIP3    H111933   3.310   4.632   6.148
 3992TIP3    H211934   3.342   4.497   6.088
 3993TIP3   OH211935   8.061   5.189   0.551
 3993TIP3    H111936   8.009   5.121   0.508
 3993TIP3    H211937   8.142   5.145   0.575
 3994TIP3   OH211938   3.568   1.249   2.697
 3994TIP3    H111939   3.553   1.286   2.784
 3994TIP3    H211940   3.641   1.301   2.662
 3995TIP3   OH211941   2.112   5.194   1.793
 3995TIP3    H111942   2.124   5.111   1.747
 3995TIP3    H211943   2.140   5.177   1.883
 3996TIP3   OH211944   2.717   4.377   2.646
 3996TIP3    H111945   2.737   4.285   2.664
 3996TIP3    H211946   2.623   4.384   2.661
 3997TIP3   OH211947   4.288   0.747   3.860
 3997TIP3    H111948   4.202   0.706   3.856
 3997TIP3    H211949   4.349   0.676   3.840
 3998TIP3   OH211950   4.652   6.147   1.021
 3998TIP3    H111951   4.568   6.169   0.980
 3998TIP3    H211952   4.718   6.176   0.958
 3999TIP3   OH211953   1.704   7.751   6.595
 3999TIP3    H111954   1.796   7.731   6.613
 3999TIP3    H211955   1.687   7.711   6.510
 4000TIP3   OH211956   6.744   4.390   4.553
 4000TIP3    H111957   6.768   4.385   4.460
 4000TIP3    H211958   6.652   4.415   4.552
 4001TIP3   OH211959   3.877   5.323   0.277
 4001TIP3    H111960   3.970   5.316   0.298
 4001TIP3    H211961   3.833   5.270   0.345
 4002TIP3   OH211962   5.005   3.629   3.577
 4002TIP3    H111963   5.095   3.660   3.574
 4002TIP3    H211964   4.952   3.708   3.576
 4003TIP3   OH211965   7.057   2.738   5.230
 4003TIP3    H111966   7.151   2.734   5.210
 4003TIP3    H211967   7.045   2.825   5.268
 4004TIP3   OH211968   7.723   3.008   5.977
 4004TIP3    H111969   7.771   2.942   6.027
 4004TIP3    H211970   7.633   2.977   5.976
 4005TIP3   OH211971   5.241   2.615   0.767
 4005TIP3    H111972   5.315   2.672   0.786
 4005TIP3    H211973   5.180   2.670   0.717
 4006TIP3   OH211974   1.037   4.051   4.167
 4006TIP3    H111975   1.062   4.056   4.074
 4006TIP3    H211976   1.058   4.137   4.202
 4007TIP3   OH211977   3.194   7.505   1.818
 4007TIP3    H111978   3.126   7.536   1.877
 4007TIP3    H211979   3.258   7.463   1.876
 4008TIP3   OH211980   7.325   7.466   5.149
 4008TIP3    H111981   7.282   7.542   5.110
 4008TIP3    H211982   7.292   7.463   5.239
 4009TIP3   OH211983   7.277   0.778   3.270
 4009TIP3    H111984   7.235   0.859   3.298
 4009TIP3    H211985   7.335   0.804   3.199
 4010TIP3   OH211986   0.966   3.157   3.339
 4010TIP3    H111987   0.914   3.206   3.404
 4010TIP3    H211988   0.953   3.065   3.362
 4011TIP3   OH211989   3.046   3.616   1.574
 4011TIP3    H111990   3.104   3.587   1.645
 4011TIP3    H211991   3.095   3.598   1.494
 4012TIP3   OH211992   7.451   3.039   4.290
 4012TIP3    H111993   7.435   3.129   4.321
 4012TIP3    H211994   7.514   3.050   4.218
 4013TIP3   OH211995   3.871   4.997   5.807
 4013TIP3    H111996   3.959   5.025   5.830
 4013TIP3    H211997   3.813   5.056   5.855
 4014TIP3   OH211998   4.598   2.754   3.749
 4014TIP3    H111999   4.579   2.768   3.841
 4014TIP3    H212000   4.626   2.840   3.717
 4015TIP3   OH212001   7.652   5.207   2.421
 4015TIP3    H112002   7.674   5.269   2.491
 4015TIP3    H212003   7.736   5.176   2.389
 4016TIP3   OH212004   6.538   0.614   4.633
 4016TIP3    H112005   6.590   0.614   4.552
 4016TIP3    H212006   6.553   0.700   4.671
 4017TIP3   OH212007   6.641   0.533   1.744
 4017TIP3    H112008   6.720   0.587   1.749
 4017TIP3    H212009   6.673   0.445   1.726
 4018TIP3   OH212010   2.471   3.061   0.392
 4018TIP3    H112011   2.419   2.983   0.371
 4018TIP3    H212012   2.559   3.040   0.361
 4019TIP3   OH212013   7.204   0.277   0.677
 4019TIP3    H112014   7.114   0.247   0.688
 4019TIP3    H212015   7.202   0.331   0.598
 4020TIP3   OH212016   3.119   0.672   2.668
 4020TIP3    H112017   3.042   0.726   2.650
 4020TIP3    H212018   3.139   0.689   2.760
 4021TIP3   OH212019   7.750   5.796   5.848
 4021TIP3    H112020   7.837   5.821   5.882
 4021TIP3    H212021   7.740   5.705   5.874
 4022TIP3   OH212022   4.408   2.704   4.869
 4022TIP3    H112023   4.364   2.768   4.812
 4022TIP3    H212024   4.421   2.628   4.813
 4023TIP3   OH212025   2.037   1.457   3.096
 4023TIP3    H112026   2.068   1.367   3.080
 4023TIP3    H212027   2.045   1.500   3.011
 4024TIP3   OH212028   3.348   3.113   3.546
 4024TIP3    H112029   3.316   3.147   3.462
 4024TIP3    H212030   3.310   3.025   3.552
 4025TIP3   OH212031   0.695   7.388   0.278
 4025TIP3    H112032   0.738   7.304   0.297
 4025TIP3    H212033   0.753   7.454   0.316
 4026TIP3   OH212034   8.066   2.063   4.790
 4026TIP3    H112035   8.120   2.113   4.729
 4026TIP3    H212036   7.999   2.022   4.735
 4027TIP3   OH212037   0.206   2.341   2.549
 4027TIP3    H112038   0.271   2.277   2.577
 4027TIP3    H212039   0.142   2.290   2.498
 4028TIP3   OH212040   6.621   2.424   1.288
 4028TIP3    H112041   6.569   2.439   1.367
 4028TIP3    H212042   6.567   2.365   1.235
 4029TIP3   OH212043   6.016   7.639   6.375
 4029TIP3    H112044   5.979   7.592   6.301
 4029TIP3    H212045   6.011   7.731   6.349
 4030TIP3   OH212046   2.335   1.779   4.476
 4030TIP3    H112047   2.336   1.817   4.388
 4030TIP3    H212048   2.354   1.853   4.533
 4031TIP3   OH212049   7.890   6.562   5.955
 4031TIP3    H112050   7.899   6.544   6.049
 4031TIP3    H212051   7.879   6.656   5.950
 4032TIP3   OH212052   0.377   4.575   4.507
 4032TIP3    H112053   0.417   4.626   4.578
 4032TIP3    H212054   0.399   4.484   4.527
 4033TIP3   OH212055   4.876   1.451   0.987
 4033TIP3    H112056   4.903   1.361   1.004
 4033TIP3    H212057   4.953   1.504   1.006
 4034TIP3   OH212058   1.024   5.279   5.201
 4034TIP3    H112059   0.967   5.230   5.260
 4034TIP3    H212060   0.972   5.290   5.121
 4035TIP3   OH212061   4.389   3.147   0.194
 4035TIP3    H112062   4.411   3.215   0.259
 4035TIP3    H212063   4.297   3.162   0.174
 4036TIP3   OH212064   4.056   6.774   3.016
 4036TIP3    H112065   4.074   6.710   2.947
 4036TIP3    H212066   4.140   6.819   3.029
 4037TIP3   OH212067   1.078   6.697   5.940
 4037TIP3    H112068   1.125   6.668   6.018
 4037TIP3    H212069   1.022   6.623   5.917
 4038TIP3   OH212070   5.183   0.473   3.799
 4038TIP3    H112071   5.249   0.404   3.790
 4038TIP3    H212072   5.163   0.499   3.709
 4039TIP3   OH212073   8.050   4.715   2.572
 4039TIP3    H112074   8.070   4.750   2.659
 4039TIP3    H212075   8.130   4.669   2.545
 4040TIP3   OH212076   4.464   7.759   0.250
 4040TIP3    H112077   4.522   7.816   0.299
 4040TIP3    H212078   4.486   7.671   0.278
 4041TIP3   OH212079   1.162   1.176   5.162
 4041TIP3    H112080   1.225   1.104   5.160
 4041TIP3    H212081   1.214   1.253   5.139
 4042TIP3   OH212082   5.787   2.199   5.959
 4042TIP3    H112083   5.871   2.241   5.978
 4042TIP3    H212084   5.775   2.210   5.865
 4043TIP3   OH212085   3.941   4.303   1.260
 4043TIP3    H112086   3.925   4.373   1.196
 4043TIP3    H212087   3.997   4.344   1.326
 4044TIP3   OH212088   2.720   6.569   6.148
 4044TIP3    H112089   2.643   6.539   6.098
 4044TIP3    H212090   2.792   6.514   6.116
 4045TIP3   OH212091   7.503   1.510   6.378
 4045TIP3    H112092   7.576   1.544   6.326
 4045TIP3    H212093   7.426   1.554   6.344
 4046TIP3   OH212094   3.886   1.471   3.303
 4046TIP3    H112095   3.823   1.543   3.313
 4046TIP3    H212096   3.887   1.453   3.209
 4047TIP3   OH212097   7.509   0.916   5.107
 4047TIP3    H112098   7.446   0.937   5.038
 4047TIP3    H212099   7.576   0.984   5.098
 4048TIP3   OH212100   6.753   2.792   4.459
 4048TIP3    H112101   6.770   2.704   4.424
 4048TIP3    H212102   6.707   2.777   4.541
 4049TIP3   OH212103   6.055   6.766   0.017
 4049TIP3    H112104   6.024   6.757  -0.073
 4049TIP3    H212105   5.993   6.714   0.069
 4050TIP3   OH212106   4.354   6.254   3.857
 4050TIP3    H112107   4.392   6.171   3.828
 4050TIP3    H212108   4.336   6.240   3.950
 4051TIP3   OH212109   6.238   7.434   1.835
 4051TIP3    H112110   6.258   7.517   1.879
 4051TIP3    H212111   6.285   7.439   1.752
 4052TIP3   OH212112   4.229   3.156   4.609
 4052TIP3    H112113   4.303   3.216   4.619
 4052TIP3    H212114   4.177   3.169   4.688
 4053TIP3   OH212115   5.901   4.465   2.380
 4053TIP3    H112116   5.926   4.531   2.445
 4053TIP3    H212117   5.806   4.460   2.386
 4054TIP3   OH212118   6.652   5.810   1.448
 4054TIP3    H112119   6.678   5.835   1.359
 4054TIP3    H212120   6.608   5.888   1.483
 4055TIP3   OH212121   5.027   1.600   4.724
 4055TIP3    H112122   5.071   1.515   4.727
 4055TIP3    H212123   5.097   1.664   4.738
 4056TIP3   OH212124   2.204   5.484   0.842
 4056TIP3    H112125   2.258   5.408   0.820
 4056TIP3    H212126   2.124   5.472   0.791
 4057TIP3   OH212127   2.196   4.781   4.204
 4057TIP3    H112128   2.171   4.699   4.247
 4057TIP3    H212129   2.242   4.754   4.125
 4058TIP3   OH212130   8.026   3.887   4.657
 4058TIP3    H112131   8.006   3.876   4.750
 4058TIP3    H212132   7.963   3.951   4.626
 4059TIP3   OH212133   1.774   4.305   6.603
 4059TIP3    H112134   1.767   4.254   6.683
 4059TIP3    H212135   1.715   4.378   6.615
 4060TIP3   OH212136   5.587   1.202   3.591
 4060TIP3    H112137   5.580   1.265   3.519
 4060TIP3    H212138   5.655   1.238   3.648
 4061TIP3   OH212139   5.474   5.036   6.731
 4061TIP3    H112140   5.388   5.047   6.770
 4061TIP3    H212141   5.487   5.114   6.677
 4062TIP3   OH212142   5.006   3.872   6.311
 4062TIP3    H112143   5.028   3.819   6.387
 4062TIP3    H212144   4.989   3.959   6.347
 4063TIP3   OH212145   7.808   1.390   2.842
 4063TIP3    H112146   7.863   1.428   2.911
 4063TIP3    H212147   7.734   1.450   2.834
 4064TIP3   OH212148   3.617   5.253   3.660
 4064TIP3    H112149   3.619   5.300   3.577
 4064TIP3    H212150   3.605   5.161   3.636
 4065TIP3   OH212151   1.272   4.531   5.175
 4065TIP3    H112152   1.320   4.457   5.213
 4065TIP3    H212153   1.317   4.608   5.209
 4066TIP3   OH212154   5.638   2.713   0.360
 4066TIP3    H112155   5.628   2.638   0.301
 4066TIP3    H212156   5.591   2.688   0.439
 4067TIP3   OH212157   3.613   5.380   3.379
 4067TIP3    H112158   3.631   5.450   3.315
 4067TIP3    H212159   3.518   5.365   3.372
 4068TIP3   OH212160   6.098   7.199   0.181
 4068TIP3    H112161   6.058   7.277   0.218
 4068TIP3    H212162   6.046   7.180   0.102
 4069TIP3   OH212163   5.549   6.358   3.184
 4069TIP3    H112164   5.593   6.279   3.152
 4069TIP3    H212165   5.458   6.333   3.195
 4070TIP3   OH212166   6.734   5.762   3.218
 4070TIP3    H112167   6.817   5.769   3.266
 4070TIP3    H212168   6.754   5.708   3.142
 4071TIP3   OH212169   0.224   0.434   3.090
 4071TIP3    H112170   0.167   0.386   3.029
 4071TIP3    H212171   0.278   0.489   3.033
 4072TIP3   OH212172   8.140   0.284   2.120
 4072TIP3    H112173   8.170   0.287   2.211
 4072TIP3    H212174   8.085   0.362   2.111
 4073TIP3   OH212175   6.031   4.022   6.735
 4073TIP3    H112176   6.089   3.954   6.701
 4073TIP3    H212177   6.055   4.030   6.827
 4074TIP3   OH212178   5.956   0.635   1.648
 4074TIP3    H112179   6.013   0.611   1.575
 4074TIP3    H212180   5.965   0.730   1.656
 4075TIP3   OH212181   7.025   3.753   4.880
 4075TIP3    H112182   7.034   3.658   4.883
 4075TIP3    H212183   7.025   3.774   4.786
 4076TIP3   OH212184   3.181   0.053   4.277
 4076TIP3    H112185   3.177   0.070   4.183
 4076TIP3    H212186   3.114  -0.014   4.292
 4077TIP3   OH212187   7.444   2.208   6.193
 4077TIP3    H112188   7.473   2.271   6.126
 4077TIP3    H212189   7.350   2.221   6.199
 4078TIP3   OH212190   7.540   5.180   5.771
 4078TIP3    H112191   7.473   5.156   5.835
 4078TIP3    H212192   7.552   5.102   5.717
 4079TIP3   OH212193   3.590   4.645   3.616
 4079TIP3    H112194   3.503   4.658   3.653
 4079TIP3    H212195   3.608   4.725   3.568
 4080TIP3   OH212196   5.190   6.648   4.975
 4080TIP3    H112197   5.167   6.664   5.067
 4080TIP3    H212198   5.212   6.555   4.972
 4081TIP3   OH212199   5.762   6.692   4.058
 4081TIP3    H112200   5.784   6.785   4.046
 4081TIP3    H212201   5.717   6.667   3.977
 4082TIP3   OH212202   3.290   5.393   2.121
 4082TIP3    H112203   3.316   5.451   2.192
 4082TIP3    H212204   3.285   5.450   2.044
 4083TIP3   OH212205   7.983   7.549   0.030
 4083TIP3    H112206   7.943   7.472  -0.011
 4083TIP3    H212207   8.068   7.518   0.061
 4084TIP3   OH212208   0.787   5.453   6.696
 4084TIP3    H112209   0.778   5.530   6.752
 4084TIP3    H212210   0.697   5.421   6.686
 4085TIP3   OH212211   7.601   0.345   2.942
 4085TIP3    H112212   7.644   0.328   3.026
 4085TIP3    H212213   7.670   0.333   2.877
 4086TIP3   OH212214   3.852   5.722   3.117
 4086TIP3    H112215   3.899   5.795   3.157
 4086TIP3    H212216   3.914   5.685   3.054
 4087TIP3   OH212217   0.700   5.227   4.046
 4087TIP3    H112218   0.644   5.302   4.069
 4087TIP3    H212219   0.643   5.168   3.998
 4088TIP3   OH212220   2.469   1.173   3.241
 4088TIP3    H112221   2.527   1.122   3.296
 4088TIP3    H212222   2.388   1.122   3.236
 4089TIP3   OH212223   2.904   5.715   1.302
 4089TIP3    H112224   2.922   5.629   1.341
 4089TIP3    H212225   2.845   5.696   1.229
 4090TIP3   OH212226   3.349   1.615   1.493
 4090TIP3    H112227   3.258   1.588   1.509
 4090TIP3    H212228   3.389   1.538   1.453
 4091TIP3   OH212229   2.912   3.947   3.881
 4091TIP3    H112230   2.922   3.857   3.850
 4091TIP3    H212231   2.945   3.945   3.971
 4092TIP3   OH212232   6.477   5.122   2.396
 4092TIP3    H112233   6.432   5.206   2.401
 4092TIP3    H212234   6.457   5.079   2.479
 4093TIP3   OH212235   2.495   0.302   5.067
 4093TIP3    H112236   2.449   0.368   5.119
 4093TIP3    H212237   2.521   0.348   4.987
 4094TIP3   OH212238   0.256   4.148   0.684
 4094TIP3    H112239   0.195   4.207   0.641
 4094TIP3    H212240   0.201   4.091   0.738
 4095TIP3   OH212241   0.810   3.544   0.655
 4095TIP3    H112242   0.859   3.621   0.625
 4095TIP3    H212243   0.786   3.565   0.745
 4096TIP3   OH212244   4.928   3.880   5.114
 4096TIP3    H112245   4.837   3.865   5.092
 4096TIP3    H212246   4.927   3.903   5.207
 4097TIP3   OH212247   5.861   2.674   1.653
 4097TIP3    H112248   5.946   2.656   1.612
 4097TIP3    H212249   5.883   2.699   1.743
 4098TIP3   OH212250   2.373   3.194   5.453
 4098TIP3    H112251   2.317   3.125   5.487
 4098TIP3    H212252   2.459   3.153   5.445
 4099TIP3   OH212253   1.982   4.137   5.044
 4099TIP3    H112254   2.030   4.062   5.080
 4099TIP3    H212255   1.960   4.111   4.955
 4100TIP3   OH212256   3.799   4.517   1.057
 4100TIP3    H112257   3.716   4.545   1.096
 4100TIP3    H212258   3.838   4.597   1.022
 4101TIP3   OH212259   7.261   7.614   1.911
 4101TIP3    H112260   7.286   7.622   2.002
 4101TIP3    H212261   7.267   7.520   1.891
 4102TIP3   OH212262   5.241   5.091   3.348
 4102TIP3    H112263   5.177   5.161   3.337
 4102TIP3    H212264   5.255   5.056   3.260
 4103TIP3   OH212265   1.261   3.073   2.385
 4103TIP3    H112266   1.209   3.022   2.448
 4103TIP3    H212267   1.222   3.051   2.300
 4104TIP3   OH212268   5.143   6.322   0.383
 4104TIP3    H112269   5.127   6.337   0.289
 4104TIP3    H212270   5.107   6.400   0.426
 4105TIP3   OH212271   3.382   4.598   4.857
 4105TIP3    H112272   3.380   4.582   4.952
 4105TIP3    H212273   3.460   4.653   4.845
 4106TIP3   OH212274   6.380   1.151   4.594
 4106TIP3    H112275   6.470   1.153   4.628
 4106TIP3    H212276   6.326   1.138   4.671
 4107TIP3   OH212277   2.711   4.141   5.426
 4107TIP3    H112278   2.764   4.213   5.393
 4107TIP3    H212279   2.774   4.070   5.441
 4108TIP3   OH212280   2.832   5.110   4.521
 4108TIP3    H112281   2.912   5.080   4.479
 4108TIP3    H212282   2.761   5.069   4.471
 4109TIP3   OH212283   5.043   4.386   1.567
 4109TIP3    H112284   5.016   4.302   1.604
 4109TIP3    H212285   5.115   4.364   1.508
 4110TIP3   OH212286   1.816   7.648   5.819
 4110TIP3    H112287   1.773   7.639   5.904
 4110TIP3    H212288   1.813   7.742   5.800
 4111TIP3   OH212289   5.483   6.319   3.620
 4111TIP3    H112290   5.492   6.317   3.716
 4111TIP3    H212291   5.486   6.226   3.595
 4112TIP3   OH212292   1.887   7.342   0.464
 4112TIP3    H112293   1.922   7.319   0.378
 4112TIP3    H212294   1.867   7.435   0.458
 4113TIP3   OH212295   5.014   5.032   0.806
 4113TIP3    H112296   4.933   4.988   0.830
 4113TIP3    H212297   4.985   5.109   0.756
 4114TIP3   OH212298   5.440   0.784   0.821
 4114TIP3    H112299   5.407   0.846   0.886
 4114TIP3    H212300   5.535   0.791   0.826
 4115TIP3   OH212301   4.710   5.049   4.868
 4115TIP3    H112302   4.671   4.967   4.899
 4115TIP3    H212303   4.643   5.089   4.812
 4116TIP3   OH212304   3.196   5.407   1.676
 4116TIP3    H112305   3.292   5.408   1.673
 4116TIP3    H212306   3.175   5.318   1.704
 4117TIP3   OH212307   8.103   1.086   1.841
 4117TIP3    H112308   8.026   1.034   1.862
 4117TIP3    H212309   8.072   1.176   1.843
 4118TIP3   OH212310   6.825   0.626   6.019
 4118TIP3    H112311   6.820   0.662   6.108
 4118TIP3    H212312   6.862   0.697   5.967
 4119TIP3   OH212313   0.421   4.096   0.444
 4119TIP3    H112314   0.380   4.064   0.524
 4119TIP3    H212315   0.364   4.167   0.414
 4120TIP3   OH212316   5.047   2.394   2.294
 4120TIP3    H112317   4.974   2.431   2.244
 4120TIP3    H212318   5.005   2.333   2.355
 4121TIP3   OH212319   1.209   0.245   4.091
 4121TIP3    H112320   1.215   0.339   4.077
 4121TIP3    H212321   1.166   0.236   4.175
 4122TIP3   OH212322   6.468   3.274   1.744
 4122TIP3    H112323   6.505   3.280   1.833
 4122TIP3    H212324   6.545   3.270   1.687
 4123TIP3   OH212325   0.688   2.754   3.427
 4123TIP3    H112326   0.698   2.811   3.504
 4123TIP3    H212327   0.660   2.670   3.463
 4124TIP3   OH212328   0.778   1.055   0.177
 4124TIP3    H112329   0.764   0.981   0.118
 4124TIP3    H212330   0.865   1.040   0.214
 4125TIP3   OH212331   3.096   3.298   5.414
 4125TIP3    H112332   3.113   3.206   5.430
 4125TIP3    H212333   3.027   3.299   5.348
 4126TIP3   OH212334   3.069   2.798   1.974
 4126TIP3    H112335   2.997   2.737   1.988
 4126TIP3    H212336   3.076   2.847   2.056
 4127TIP3   OH212337   5.203   6.379   4.995
 4127TIP3    H112338   5.142   6.353   5.065
 4127TIP3    H212339   5.224   6.298   4.950
 4128TIP3   OH212340   1.899   3.643   1.701
 4128TIP3    H112341   1.953   3.621   1.776
 4128TIP3    H212342   1.817   3.595   1.714
 4129TIP3   OH212343   7.599   2.282   2.915
 4129TIP3    H112344   7.520   2.333   2.898
 4129TIP3    H212345   7.637   2.266   2.828
 4130TIP3   OH212346   5.757   7.705   4.955
 4130TIP3    H112347   5.848   7.710   4.925
 4130TIP3    H212348   5.708   7.757   4.891
 4131TIP3   OH212349   6.827   2.724   0.373
 4131TIP3    H112350   6.884   2.798   0.394
 4131TIP3    H212351   6.760   2.761   0.316
 4132TIP3   OH212352   4.915   3.387   3.561
 4132TIP3    H112353   4.941   3.479   3.566
 4132TIP3    H212354   4.991   3.343   3.522
 4133TIP3   OH212355   7.340   6.118   5.743
 4133TIP3    H112356   7.402   6.105   5.671
 4133TIP3    H212357   7.391   6.098   5.822
 4134TIP3   OH212358   1.915   7.536   1.372
 4134TIP3    H112359   1.919   7.526   1.467
 4134TIP3    H212360   1.837   7.590   1.357
 4135TIP3   OH212361   6.823   3.506   6.307
 4135TIP3    H112362   6.875   3.511   6.388
 4135TIP3    H212363   6.749   3.450   6.331
 4136TIP3   OH212364   3.650   0.556   1.757
 4136TIP3    H112365   3.634   0.563   1.663
 4136TIP3    H212366   3.603   0.476   1.783
 4137TIP3   OH212367   6.231   0.667   5.957
 4137TIP3    H112368   6.221   0.694   6.048
 4137TIP3    H212369   6.308   0.716   5.926
 4138TIP3   OH212370   0.554   3.412   0.755
 4138TIP3    H112371   0.508   3.469   0.817
 4138TIP3    H212372   0.644   3.443   0.756
 4139TIP3   OH212373   5.844   2.722   2.296
 4139TIP3    H112374   5.761   2.735   2.342
 4139TIP3    H212375   5.910   2.762   2.353
 4140TIP3   OH212376   6.134   2.940   6.479
 4140TIP3    H112377   6.089   2.978   6.403
 4140TIP3    H212378   6.118   3.003   6.550
 4141TIP3   OH212379   0.899   2.582   3.046
 4141TIP3    H112380   0.828   2.534   3.089
 4141TIP3    H212381   0.978   2.532   3.067
 4142TIP3   OH212382   3.804   5.164   0.952
 4142TIP3    H112383   3.726   5.193   0.999
 4142TIP3    H212384   3.813   5.226   0.880
 4143TIP3   OH212385   3.328   2.492   6.747
 4143TIP3    H112386   3.356   2.538   6.668
 4143TIP3    H212387   3.236   2.473   6.733
 4144TIP3   OH212388   7.337   4.135   3.666
 4144TIP3    H112389   7.371   4.215   3.705
 4144TIP3    H212390   7.277   4.164   3.598
 4145TIP3   OH212391   6.118   7.506  -0.003
 4145TIP3    H112392   6.163   7.582  -0.039
 4145TIP3    H212393   6.183   7.463   0.052
 4146TIP3   OH212394   0.424   7.164   5.363
 4146TIP3    H112395   0.347   7.108   5.351
 4146TIP3    H212396   0.388   7.252   5.378
 4147TIP3   OH212397   1.392   1.430   3.518
 4147TIP3    H112398   1.334   1.497   3.485
 4147TIP3    H212399   1.456   1.417   3.448
 4148TIP3   OH212400   8.046   2.077   1.302
 4148TIP3    H112401   8.133   2.077   1.342
 4148TIP3    H212402   8.034   2.166   1.269
 4149TIP3   OH212403   1.125   2.462   0.829
 4149TIP3    H112404   1.074   2.537   0.800
 4149TIP3    H212405   1.106   2.454   0.922
 4150TIP3   OH212406   5.782   4.532   0.526
 4150TIP3    H112407   5.843   4.541   0.599
 4150TIP3    H212408   5.823   4.468   0.468
 4151TIP3   OH212409   1.461   4.212   1.228
 4151TIP3    H112410   1.504   4.213   1.314
 4151TIP3    H212411   1.524   4.171   1.170
 4152TIP3   OH212412   6.300   7.345   6.381
 4152TIP3    H112413   6.320   7.263   6.426
 4152TIP3    H212414   6.206   7.359   6.397
 4153TIP3   OH212415   1.163   3.276   2.725
 4153TIP3    H112416   1.143   3.261   2.632
 4153TIP3    H212417   1.078   3.272   2.769
 4154TIP3   OH212418   5.091   5.590   6.096
 4154TIP3    H112419   5.095   5.666   6.155
 4154TIP3    H212420   5.164   5.535   6.124
 4155TIP3   OH212421   7.199   7.169   5.823
 4155TIP3    H112422   7.286   7.210   5.820
 4155TIP3    H212423   7.195   7.115   5.744
 4156TIP3   OH212424   8.125   6.731   2.939
 4156TIP3    H112425   8.168   6.704   2.857
 4156TIP3    H212426   8.133   6.826   2.940
 4157TIP3   OH212427   3.942   1.867   0.722
 4157TIP3    H112428   3.890   1.944   0.746
 4157TIP3    H212429   3.975   1.887   0.634
 4158TIP3   OH212430   5.028   7.756   1.118
 4158TIP3    H112431   5.085   7.827   1.149
 4158TIP3    H212432   5.083   7.678   1.122
 4159TIP3   OH212433   4.479   7.525   5.601
 4159TIP3    H112434   4.556   7.485   5.561
 4159TIP3    H212435   4.457   7.468   5.674
 4160TIP3   OH212436   0.287   2.838   4.137
 4160TIP3    H112437   0.236   2.815   4.059
 4160TIP3    H212438   0.266   2.930   4.153
 4161TIP3   OH212439   1.052   6.692   2.550
 4161TIP3    H112440   0.984   6.759   2.551
 4161TIP3    H212441   1.104   6.709   2.629
 4162TIP3   OH212442   6.409   0.949   1.920
 4162TIP3    H112443   6.357   0.982   1.848
 4162TIP3    H212444   6.498   0.978   1.900
 4163TIP3   OH212445   5.548   7.610   4.153
 4163TIP3    H112446   5.545   7.540   4.088
 4163TIP3    H212447   5.565   7.689   4.102
 4164TIP3   OH212448   1.248   3.149   3.396
 4164TIP3    H112449   1.160   3.159   3.359
 4164TIP3    H212450   1.233   3.127   3.488
 4165TIP3   OH212451   6.452   0.752   1.093
 4165TIP3    H112452   6.364   0.771   1.125
 4165TIP3    H212453   6.509   0.779   1.165
 4166TIP3   OH212454   2.208   7.788   4.044
 4166TIP3    H112455   2.166   7.873   4.035
 4166TIP3    H212456   2.288   7.805   4.093
 4167TIP3   OH212457   4.712   6.227   1.722
 4167TIP3    H112458   4.737   6.158   1.661
 4167TIP3    H212459   4.709   6.183   1.807
 4168TIP3   OH212460   7.616   7.840   6.578
 4168TIP3    H112461   7.674   7.794   6.518
 4168TIP3    H212462   7.533   7.792   6.574
 4169TIP3   OH212463   2.515   2.440   4.466
 4169TIP3    H112464   2.431   2.432   4.421
 4169TIP3    H212465   2.535   2.352   4.496
 4170TIP3   OH212466   7.126   7.333   6.707
 4170TIP3    H112467   7.131   7.353   6.614
 4170TIP3    H212468   7.065   7.260   6.713
 4171TIP3   OH212469   6.122   2.521   1.907
 4171TIP3    H112470   6.176   2.587   1.863
 4171TIP3    H212471   6.090   2.565   1.986
 4172TIP3   OH212472   6.423   5.857   5.071
 4172TIP3    H112473   6.385   5.785   5.020
 4172TIP3    H212474   6.450   5.816   5.153
 4173TIP3   OH212475   3.677   6.317   4.627
 4173TIP3    H112476   3.610   6.278   4.683
 4173TIP3    H212477   3.685   6.257   4.553
 4174TIP3   OH212478   7.518   6.402   5.202
 4174TIP3    H112479   7.496   6.371   5.290
 4174TIP3    H212480   7.607   6.436   5.211
 4175TIP3   OH212481   7.879   1.509   1.461
 4175TIP3    H112482   7.840   1.595   1.442
 4175TIP3    H212483   7.807   1.457   1.494
 4176TIP3   OH212484   6.252   2.124   6.360
 4176TIP3    H112485   6.271   2.034   6.388
 4176TIP3    H212486   6.310   2.139   6.286
 4177TIP3   OH212487   3.584   3.335   3.168
 4177TIP3    H112488   3.556   3.250   3.201
 4177TIP3    H212489   3.597   3.388   3.246
 4178TIP3   OH212490   0.214   4.987   0.809
 4178TIP3    H112491   0.192   4.934   0.733
 4178TIP3    H212492   0.298   4.952   0.839
 4179TIP3   OH212493   2.952   3.548   5.355
 4179TIP3    H112494   2.913   3.466   5.385
 4179TIP3    H212495   2.913   3.564   5.269
 4180TIP3   OH212496   7.588   5.041   5.222
 4180TIP3    H112497   7.630   5.013   5.140
 4180TIP3    H212498   7.661   5.076   5.275
 4181TIP3   OH212499   2.136   1.638   6.541
 4181TIP3    H112500   2.216   1.685   6.517
 4181TIP3    H212501   2.167   1.554   6.575
 4182TIP3   OH212502   7.836   7.378   1.060
 4182TIP3    H112503   7.790   7.294   1.060
 4182TIP3    H212504   7.828   7.410   0.970
 4183TIP3   OH212505   1.870   0.215   3.449
 4183TIP3    H112506   1.797   0.216   3.387
 4183TIP3    H212507   1.947   0.201   3.394
 4184TIP3   OH212508   8.047   4.595   0.884
 4184TIP3    H112509   8.006   4.680   0.899
 4184TIP3    H212510   8.126   4.596   0.939
 4185TIP3   OH212511   3.921   3.816   2.036
 4185TIP3    H112512   3.984   3.879   2.000
 4185TIP3    H212513   3.959   3.730   2.014
 4186TIP3   OH212514   5.872   5.820   2.513
 4186TIP3    H112515   5.951   5.857   2.471
 4186TIP3    H212516   5.834   5.894   2.560
 4187TIP3   OH212517   4.463   3.750   0.001
 4187TIP3    H112518   4.381   3.701   0.005
 4187TIP3    H212519   4.495   3.750   0.091
 4188TIP3   OH212520   1.997   3.163   3.203
 4188TIP3    H112521   1.988   3.132   3.293
 4188TIP3    H212522   2.034   3.251   3.211
 4189TIP3   OH212523   6.989   6.805   5.403
 4189TIP3    H112524   7.033   6.764   5.329
 4189TIP3    H212525   6.896   6.786   5.390
 4190TIP3   OH212526   4.853   0.626   6.165
 4190TIP3    H112527   4.883   0.600   6.078
 4190TIP3    H212528   4.930   0.620   6.221
 4191TIP3   OH212529   3.920   5.894   5.617
 4191TIP3    H112530   3.927   5.905   5.522
 4191TIP3    H212531   3.968   5.969   5.654
 4192TIP3   OH212532   8.092   5.014   2.968
 4192TIP3    H112533   8.014   4.979   3.009
 4192TIP3    H212534   8.063   5.044   2.881
 4193TIP3   OH212535   5.426   1.574   4.629
 4193TIP3    H112536   5.358   1.582   4.696
 4193TIP3    H212537   5.486   1.647   4.646
 4194TIP3   OH212538   6.524   4.755   0.764
 4194TIP3    H112539   6.491   4.782   0.849
 4194TIP3    H212540   6.465   4.685   0.736
 4195TIP3   OH212541   6.980   1.995   2.778
 4195TIP3    H112542   6.888   1.975   2.760
 4195TIP3    H212543   7.003   2.062   2.713
 4196TIP3   OH212544   3.272   2.599   3.886
 4196TIP3    H112545   3.289   2.687   3.918
 4196TIP3    H212546   3.207   2.563   3.947
 4197TIP3   OH212547   1.424   7.773   2.459
 4197TIP3    H112548   1.342   7.781   2.508
 4197TIP3    H212549   1.402   7.715   2.386
 4198TIP3   OH212550   4.506   4.527   5.925
 4198TIP3    H112551   4.480   4.589   5.993
 4198TIP3    H212552   4.423   4.492   5.892
 4199TIP3   OH212553   7.397   5.353   4.179
 4199TIP3    H112554   7.370   5.392   4.262
 4199TIP3    H212555   7.441   5.424   4.132
 4200TIP3   OH212556   4.604   1.030   0.826
 4200TIP3    H112557   4.597   0.960   0.890
 4200TIP3    H212558   4.698   1.051   0.823
 4201TIP3   OH212559   7.110   5.033   6.061
 4201TIP3    H112560   7.136   5.033   6.153
 4201TIP3    H212561   7.015   5.027   6.063
 4202TIP3   OH212562   7.746   0.670   6.569
 4202TIP3    H112563   7.666   0.634   6.531
 4202TIP3    H212564   7.804   0.683   6.494
 4203TIP3   OH212565   1.690   0.025   4.636
 4203TIP3    H112566   1.779   0.054   4.614
 4203TIP3    H212567   1.679  -0.057   4.588
 4204TIP3   OH212568   7.155   5.080   0.578
 4204TIP3    H112569   7.079   5.059   0.632
 4204TIP3    H212570   7.134   5.165   0.539
 4205TIP3   OH212571   1.155   2.862   2.557
 4205TIP3    H112572   1.192   2.805   2.489
 4205TIP3    H212573   1.209   2.844   2.635
 4206TIP3   OH212574   8.203   3.059   5.204
 4206TIP3    H112575   8.250   2.998   5.260
 4206TIP3    H212576   8.130   3.089   5.257
 4207TIP3   OH212577   6.697   2.173   6.659
 4207TIP3    H112578   6.736   2.167   6.746
 4207TIP3    H212579   6.659   2.260   6.656
 4208TIP3   OH212580   2.772   2.266   5.905
 4208TIP3    H112581   2.776   2.289   5.812
 4208TIP3    H212582   2.862   2.246   5.929
 4209TIP3   OH212583   7.005   7.396   1.930
 4209TIP3    H112584   6.918   7.363   1.952
 4209TIP3    H212585   6.990   7.484   1.897
 4210TIP3   OH212586   1.954   1.002   1.490
 4210TIP3    H112587   1.920   1.086   1.521
 4210TIP3    H212588   1.877   0.945   1.488
 4211TIP3   OH212589   8.176   5.889   4.200
 4211TIP3    H112590   8.162   5.983   4.191
 4211TIP3    H212591   8.103   5.859   4.254
 4212TIP3   OH212592   1.637   4.514   1.744
 4212TIP3    H112593   1.542   4.521   1.756
 4212TIP3    H212594   1.662   4.593   1.696
 4213TIP3   OH212595   2.693   4.346   0.931
 4213TIP3    H112596   2.699   4.320   1.023
 4213TIP3    H212597   2.599   4.347   0.913
 4214TIP3   OH212598   6.420   3.521   4.866
 4214TIP3    H112599   6.378   3.449   4.820
 4214TIP3    H212600   6.480   3.558   4.802
 4215TIP3   OH212601   3.731   2.829   2.053
 4215TIP3    H112602   3.785   2.767   2.102
 4215TIP3    H212603   3.709   2.897   2.116
 4216TIP3   OH212604   3.541   4.218   1.406
 4216TIP3    H112605   3.506   4.236   1.493
 4216TIP3    H212606   3.594   4.140   1.416
 4217TIP3   OH212607   6.770   0.565   2.850
 4217TIP3    H112608   6.829   0.561   2.775
 4217TIP3    H212609   6.823   0.535   2.924
 4218TIP3   OH212610   6.299   2.215   0.869
 4218TIP3    H112611   6.322   2.123   0.885
 4218TIP3    H212612   6.299   2.223   0.774
 4219TIP3   OH212613   6.971   5.210   2.662
 4219TIP3    H112614   6.975   5.257   2.579
 4219TIP3    H212615   6.989   5.119   2.639
 4220TIP3   OH212616   1.191   6.335   3.753
 4220TIP3    H112617   1.105   6.292   3.755
 4220TIP3    H212618   1.179   6.410   3.694
 4221TIP3   OH212619   5.969   6.491   6.055
 4221TIP3    H112620   6.014   6.426   6.002
 4221TIP3    H212621   6.000   6.475   6.144
 4222TIP3   OH212622   5.471   3.769   4.151
 4222TIP3    H112623   5.410   3.826   4.200
 4222TIP3    H212624   5.483   3.814   4.067
 4223TIP3   OH212625   7.385   6.219   3.364
 4223TIP3    H112626   7.385   6.262   3.450
 4223TIP3    H212627   7.440   6.275   3.309
 4224TIP3   OH212628   2.400   0.757   6.401
 4224TIP3    H112629   2.485   0.714   6.409
 4224TIP3    H212630   2.340   0.688   6.375
 4225TIP3   OH212631   7.331   6.885   1.101
 4225TIP3    H112632   7.245   6.847   1.083
 4225TIP3    H212633   7.392   6.831   1.051
 4226TIP3   OH212634   2.118   6.337   5.441
 4226TIP3    H112635   2.209   6.361   5.456
 4226TIP3    H212636   2.067   6.404   5.488
 4227TIP3   OH212637   1.131   6.135   6.473
 4227TIP3    H112638   1.135   6.215   6.525
 4227TIP3    H212639   1.050   6.143   6.422
 4228TIP3   OH212640   7.724   5.348   3.038
 4228TIP3    H112641   7.707   5.364   3.131
 4228TIP3    H212642   7.664   5.407   2.992
 4229TIP3   OH212643   2.449   3.774   2.809
 4229TIP3    H112644   2.453   3.867   2.834
 4229TIP3    H212645   2.364   3.764   2.767
 4230TIP3   OH212646   6.366   2.279   2.703
 4230TIP3    H112647   6.319   2.259   2.784
 4230TIP3    H212648   6.399   2.368   2.716
 4231TIP3   OH212649   8.318   4.656   0.408
 4231TIP3    H112650   8.227   4.627   0.405
 4231TIP3    H212651   8.333   4.694   0.321
 4232TIP3   OH212652   4.593   5.323   1.782
 4232TIP3    H112653   4.525   5.296   1.721
 4232TIP3    H212654   4.667   5.265   1.764
 4233TIP3   OH212655   4.823   2.724   1.323
 4233TIP3    H112656   4.916   2.725   1.302
 4233TIP3    H212657   4.809   2.641   1.368
 4234TIP3   OH212658   3.750   1.000   6.281
 4234TIP3    H112659   3.837   1.034   6.262
 4234TIP3    H212660   3.749   0.987   6.376
 4235TIP3   OH212661   2.178   5.631   2.262
 4235TIP3    H112662   2.149   5.708   2.309
 4235TIP3    H212663   2.142   5.557   2.311
 4236TIP3   OH212664   1.514   6.727   3.497
 4236TIP3    H112665   1.530   6.706   3.405
 4236TIP3    H212666   1.601   6.743   3.534
 4237TIP3   OH212667   1.510   1.412   6.407
 4237TIP3    H112668   1.496   1.461   6.488
 4237TIP3    H212669   1.585   1.356   6.425
 4238TIP3   OH212670   1.922   7.365   4.190
 4238TIP3    H112671   1.955   7.308   4.259
 4238TIP3    H212672   1.858   7.421   4.234
 4239TIP3   OH212673   6.505   1.040   3.247
 4239TIP3    H112674   6.582   0.989   3.272
 4239TIP3    H212675   6.442   0.975   3.217
 4240TIP3   OH212676   0.342   7.025   3.956
 4240TIP3    H112677   0.382   6.938   3.959
 4240TIP3    H212678   0.338   7.053   4.047
 4241TIP3   OH212679   3.883   4.946   0.092
 4241TIP3    H112680   3.800   4.933   0.137
 4241TIP3    H212681   3.934   4.867   0.113
 4242TIP3   OH212682   4.899   2.993   1.317
 4242TIP3    H112683   4.849   2.912   1.317
 4242TIP3    H212684   4.969   2.978   1.254
 4243TIP3   OH212685   3.722   0.703   4.239
 4243TIP3    H112686   3.660   0.675   4.306
 4243TIP3    H212687   3.743   0.793   4.263
 4244TIP3   OH212688   5.390   3.819   6.014
 4244TIP3    H112689   5.383   3.896   5.958
 4244TIP3    H212690   5.482   3.794   6.010
 4245TIP3   OH212691   2.620   0.250   5.509
 4245TIP3    H112692   2.668   0.212   5.435
 4245TIP3    H212693   2.680   0.239   5.584
 4246TIP3   OH212694   7.506   3.227   1.802
 4246TIP3    H112695   7.421   3.229   1.758
 4246TIP3    H212696   7.504   3.145   1.853
 4247TIP3   OH212697   3.426   1.115   3.101
 4247TIP3    H112698   3.480   1.040   3.075
 4247TIP3    H212699   3.462   1.142   3.185
 4248TIP3   OH212700   1.470   2.942   2.083
 4248TIP3    H112701   1.490   2.890   2.005
 4248TIP3    H212702   1.476   2.880   2.156
 4249TIP3   OH212703   3.587   4.333   2.341
 4249TIP3    H112704   3.542   4.389   2.277
 4249TIP3    H212705   3.558   4.366   2.426
 4250TIP3   OH212706   7.257   3.447   5.769
 4250TIP3    H112707   7.306   3.371   5.739
 4250TIP3    H212708   7.165   3.423   5.754
 4251TIP3   OH212709   1.168   0.794   4.231
 4251TIP3    H112710   1.140   0.866   4.287
 4251TIP3    H212711   1.231   0.834   4.171
 4252TIP3   OH212712   2.862   6.945   1.944
 4252TIP3    H112713   2.921   6.905   2.008
 4252TIP3    H212714   2.883   6.900   1.862
 4253TIP3   OH212715   6.294   5.995   2.543
 4253TIP3    H112716   6.382   5.996   2.580
 4253TIP3    H212717   6.265   5.905   2.551
 4254TIP3   OH212718   7.654   6.366   0.211
 4254TIP3    H112719   7.598   6.302   0.167
 4254TIP3    H212720   7.743   6.335   0.196
 4255TIP3   OH212721   5.478   4.034   5.208
 4255TIP3    H112722   5.539   3.963   5.188
 4255TIP3    H212723   5.485   4.047   5.302
 4256TIP3   OH212724   3.747   1.980   4.380
 4256TIP3    H112725   3.840   1.978   4.357
 4256TIP3    H212726   3.740   2.052   4.443
 4257TIP3   OH212727   4.693   4.403   1.805
 4257TIP3    H112728   4.724   4.340   1.870
 4257TIP3    H212729   4.674   4.482   1.855
 4258TIP3   OH212730   2.405   4.249   2.989
 4258TIP3    H112731   2.326   4.289   2.955
 4258TIP3    H212732   2.385   4.231   3.081
 4259TIP3   OH212733   5.414   2.277   0.850
 4259TIP3    H112734   5.440   2.348   0.908
 4259TIP3    H212735   5.473   2.284   0.775
 4260TIP3   OH212736   7.901   3.757   1.682
 4260TIP3    H112737   7.897   3.718   1.595
 4260TIP3    H212738   7.909   3.683   1.741
 4261TIP3   OH212739   2.498   7.132   2.581
 4261TIP3    H112740   2.579   7.105   2.537
 4261TIP3    H212741   2.436   7.061   2.564
 4262TIP3   OH212742   1.266   4.361   2.700
 4262TIP3    H112743   1.248   4.454   2.713
 4262TIP3    H212744   1.339   4.359   2.638
 4263TIP3   OH212745   6.996   2.298   3.354
 4263TIP3    H112746   7.038   2.381   3.373
 4263TIP3    H212747   7.005   2.288   3.259
 4264TIP3   OH212748   2.126   6.906   4.679
 4264TIP3    H112749   2.065   6.869   4.743
 4264TIP3    H212750   2.179   6.968   4.729
 4265TIP3   OH212751   4.478   4.838   2.920
 4265TIP3    H112752   4.471   4.884   3.004
 4265TIP3    H212753   4.448   4.902   2.856
 4266TIP3   OH212754   1.973   5.908   0.097
 4266TIP3    H112755   2.040   5.840   0.102
 4266TIP3    H212756   2.013   5.984   0.138
 4267TIP3   OH212757   7.545   6.369   1.438
 4267TIP3    H112758   7.499   6.298   1.395
 4267TIP3    H212759   7.638   6.346   1.429
 4268TIP3   OH212760   0.473   5.512   6.732
 4268TIP3    H112761   0.414   5.504   6.807
 4268TIP3    H212762   0.460   5.602   6.701
 4269TIP3   OH212763   6.642   4.070   1.443
 4269TIP3    H112764   6.608   4.158   1.424
 4269TIP3    H212765   6.681   4.078   1.530
 4270TIP3   OH212766   3.508   3.295   2.320
 4270TIP3    H112767   3.449   3.335   2.256
 4270TIP3    H212768   3.454   3.283   2.398
 4271TIP3   OH212769   1.534   2.981   1.101
 4271TIP3    H112770   1.464   3.040   1.072
 4271TIP3    H212771   1.589   3.036   1.158
 4272TIP3   OH212772   1.043   2.234   6.748
 4272TIP3    H112773   0.973   2.208   6.688
 4272TIP3    H212774   1.124   2.207   6.703
 4273TIP3   OH212775   2.809   4.293   5.189
 4273TIP3    H112776   2.902   4.312   5.182
 4273TIP3    H212777   2.782   4.270   5.100
 4274TIP3   OH212778   3.944   1.970   3.772
 4274TIP3    H112779   3.856   2.005   3.785
 4274TIP3    H212780   3.984   1.972   3.859
 4275TIP3   OH212781   2.283   2.405   4.761
 4275TIP3    H112782   2.323   2.328   4.801
 4275TIP3    H212783   2.196   2.376   4.732
 4276TIP3   OH212784   5.448   4.127   0.044
 4276TIP3    H112785   5.543   4.134   0.051
 4276TIP3    H212786   5.434   4.044  -0.002
 4277TIP3   OH212787   2.225   5.969   3.574
 4277TIP3    H112788   2.192   5.939   3.490
 4277TIP3    H212789   2.165   5.932   3.639
 4278TIP3   OH212790   0.726   1.819   1.302
 4278TIP3    H112791   0.676   1.753   1.253
 4278TIP3    H212792   0.759   1.772   1.379
 4279TIP3   OH212793   4.494   3.646   3.212
 4279TIP3    H112794   4.507   3.698   3.291
 4279TIP3    H212795   4.402   3.620   3.215
 4280TIP3   OH212796   3.911   1.610   5.786
 4280TIP3    H112797   3.858   1.533   5.808
 4280TIP3    H212798   3.867   1.648   5.710
 4281TIP3   OH212799   5.628   6.762   3.032
 4281TIP3    H112800   5.554   6.754   3.092
 4281TIP3    H212801   5.633   6.677   2.987
 4282TIP3   OH212802   8.258   4.569   2.459
 4282TIP3    H112803   8.278   4.619   2.380
 4282TIP3    H212804   8.230   4.484   2.426
 4283TIP3   OH212805   3.048   7.700   1.080
 4283TIP3    H112806   3.029   7.787   1.045
 4283TIP3    H212807   3.143   7.700   1.094
 4284TIP3   OH212808   7.710   4.114   6.396
 4284TIP3    H112809   7.753   4.035   6.429
 4284TIP3    H212810   7.637   4.082   6.343
 4285TIP3   OH212811   3.777   0.423   6.166
 4285TIP3    H112812   3.861   0.469   6.175
 4285TIP3    H212813   3.759   0.389   6.254
 4286TIP3   OH212814   4.067   6.578   1.761
 4286TIP3    H112815   4.117   6.514   1.710
 4286TIP3    H212816   4.079   6.661   1.714
 4287TIP3   OH212817   2.466   2.236   2.357
 4287TIP3    H112818   2.398   2.301   2.373
 4287TIP3    H212819   2.419   2.157   2.332
 4288TIP3   OH212820   0.259   0.468   0.552
 4288TIP3    H112821   0.322   0.538   0.533
 4288TIP3    H212822   0.304   0.387   0.524
 4289TIP3   OH212823   0.889   2.002   3.844
 4289TIP3    H112824   0.857   2.064   3.910
 4289TIP3    H212825   0.843   2.027   3.764
 4290TIP3   OH212826   3.099   7.446   1.204
 4290TIP3    H112827   3.036   7.464   1.133
 4290TIP3    H212828   3.182   7.480   1.171
 4291TIP3   OH212829   5.188   2.721   0.085
 4291TIP3    H112830   5.154   2.809   0.071
 4291TIP3    H212831   5.248   2.706   0.012
 4292TIP3   OH212832   5.013   7.294   0.992
 4292TIP3    H112833   4.990   7.321   1.081
 4292TIP3    H212834   4.938   7.243   0.962
 4293TIP3   OH212835   4.859   2.454   1.127
 4293TIP3    H112836   4.878   2.462   1.033
 4293TIP3    H212837   4.919   2.516   1.169
 4294TIP3   OH212838   4.508   0.202   1.729
 4294TIP3    H112839   4.446   0.141   1.767
 4294TIP3    H212840   4.576   0.213   1.796
 4295TIP3   OH212841   2.838   5.287   0.460
 4295TIP3    H112842   2.748   5.253   0.462
 4295TIP3    H212843   2.832   5.367   0.408
 4296TIP3   OH212844   5.115   7.386   2.011
 4296TIP3    H112845   5.100   7.412   2.102
 4296TIP3    H212846   5.206   7.357   2.009
 4297TIP3   OH212847   5.080   1.153   2.859
 4297TIP3    H112848   5.073   1.168   2.953
 4297TIP3    H212849   5.066   1.239   2.820
 4298TIP3   OH212850   2.126   5.623   6.427
 4298TIP3    H112851   2.148   5.716   6.428
 4298TIP3    H212852   2.031   5.621   6.441
 4299TIP3   OH212853   5.490   1.000   3.439
 4299TIP3    H112854   5.449   1.073   3.393
 4299TIP3    H212855   5.538   1.042   3.511
 4300TIP3   OH212856   6.655   4.620   3.165
 4300TIP3    H112857   6.701   4.642   3.246
 4300TIP3    H212858   6.707   4.663   3.097
 4301TIP3   OH212859   1.583   5.606   2.783
 4301TIP3    H112860   1.572   5.517   2.818
 4301TIP3    H212861   1.519   5.658   2.831
 4302TIP3   OH212862   7.677   0.595   4.824
 4302TIP3    H112863   7.613   0.666   4.834
 4302TIP3    H212864   7.633   0.530   4.770
 4303TIP3   OH212865   6.821   7.010   0.374
 4303TIP3    H112866   6.899   6.984   0.325
 4303TIP3    H212867   6.823   6.956   0.453
 4304TIP3   OH212868   5.853   0.101   2.030
 4304TIP3    H112869   5.858   0.103   1.934
 4304TIP3    H212870   5.772   0.146   2.051
 4305TIP3   OH212871   2.364   3.460   5.443
 4305TIP3    H112872   2.400   3.485   5.357
 4305TIP3    H212873   2.379   3.366   5.449
 4306TIP3   OH212874   6.672   0.907   2.269
 4306TIP3    H112875   6.715   0.883   2.351
 4306TIP3    H212876   6.712   0.850   2.203
 4307TIP3   OH212877   3.243   3.330   0.822
 4307TIP3    H112878   3.283   3.403   0.774
 4307TIP3    H212879   3.151   3.354   0.828
 4308TIP3   OH212880   0.769   6.844   4.863
 4308TIP3    H112881   0.696   6.791   4.831
 4308TIP3    H212882   0.765   6.924   4.811
 4309TIP3   OH212883   0.063   3.585   2.128
 4309TIP3    H112884  -0.003   3.654   2.131
 4309TIP3    H212885   0.138   3.622   2.174
 4310TIP3   OH212886   6.698   0.052   6.290
 4310TIP3    H112887   6.771   0.092   6.244
 4310TIP3    H212888   6.629   0.119   6.289
 4311TIP3   OH212889   4.370   0.695   3.133
 4311TIP3    H112890   4.424   0.677   3.056
 4311TIP3    H212891   4.368   0.612   3.181
 4312TIP3   OH212892   7.092   5.461   4.159
 4312TIP3    H112893   7.075   5.367   4.168
 4312TIP3    H212894   7.160   5.479   4.223
 4313TIP3   OH212895   4.722   4.667   1.510
 4313TIP3    H112896   4.757   4.689   1.596
 4313TIP3    H212897   4.631   4.643   1.526
 4314TIP3   OH212898   1.241   6.942   3.855
 4314TIP3    H112899   1.286   6.945   3.771
 4314TIP3    H212900   1.162   6.890   3.838
 4315TIP3   OH212901   5.890   0.704   5.798
 4315TIP3    H112902   5.883   0.610   5.817
 4315TIP3    H212903   5.934   0.709   5.714
 4316TIP3   OH212904   7.280   3.296   2.596
 4316TIP3    H112905   7.310   3.222   2.542
 4316TIP3    H212906   7.271   3.368   2.534
 4317TIP3   OH212907   5.531   2.714   3.416
 4317TIP3    H112908   5.436   2.704   3.422
 4317TIP3    H212909   5.552   2.694   3.324
 4318TIP3   OH212910   7.814   6.252   3.113
 4318TIP3    H112911   7.850   6.205   3.189
 4318TIP3    H212912   7.849   6.340   3.121
 4319TIP3   OH212913   0.151   4.083   4.271
 4319TIP3    H112914   0.149   4.102   4.177
 4319TIP3    H212915   0.245   4.075   4.292
 4320TIP3   OH212916   0.387   4.980   0.360
 4320TIP3    H112917   0.481   4.997   0.368
 4320TIP3    H212918   0.366   4.929   0.439
 4321TIP3   OH212919   3.081   0.020   6.452
 4321TIP3    H112920   3.004   0.010   6.396
 4321TIP3    H212921   3.155   0.027   6.392
 4322TIP3   OH212922   4.544   0.886   6.234
 4322TIP3    H112923   4.574   0.977   6.243
 4322TIP3    H212924   4.597   0.837   6.297
 4323TIP3   OH212925   4.223   5.581   0.208
 4323TIP3    H112926   4.157   5.532   0.159
 4323TIP3    H212927   4.236   5.531   0.288
 4324TIP3   OH212928   1.078   1.603   0.633
 4324TIP3    H112929   1.104   1.617   0.542
 4324TIP3    H212930   1.008   1.538   0.628
 4325TIP3   OH212931   6.483   7.359   6.118
 4325TIP3    H112932   6.428   7.375   6.195
 4325TIP3    H212933   6.497   7.446   6.081
 4326TIP3   OH212934   5.828   5.403   3.708
 4326TIP3    H112935   5.861   5.485   3.671
 4326TIP3    H212936   5.890   5.336   3.678
 4327TIP3   OH212937   7.465   2.796   2.105
 4327TIP3    H112938   7.391   2.738   2.087
 4327TIP3    H212939   7.504   2.760   2.184
 4328TIP3   OH212940   5.023   4.509   4.507
 4328TIP3    H112941   5.114   4.538   4.507
 4328TIP3    H212942   4.979   4.567   4.569
 4329TIP3   OH212943   2.137   2.948   1.649
 4329TIP3    H112944   2.119   2.965   1.557
 4329TIP3    H212945   2.074   2.880   1.675
 4330TIP3   OH212946   7.408   1.117   1.269
 4330TIP3    H112947   7.443   1.179   1.205
 4330TIP3    H212948   7.344   1.167   1.319
 4331TIP3   OH212949   3.055   4.779   4.400
 4331TIP3    H112950   3.054   4.852   4.462
 4331TIP3    H212951   3.146   4.750   4.398
 4332TIP3   OH212952   6.049   1.684   4.820
 4332TIP3    H112953   5.975   1.636   4.782
 4332TIP3    H212954   6.071   1.636   4.899
 4333TIP3   OH212955   5.444   0.975   6.246
 4333TIP3    H112956   5.453   0.885   6.214
 4333TIP3    H212957   5.534   1.006   6.255
 4334TIP3   OH212958   8.166   5.554   1.681
 4334TIP3    H112959   8.241   5.611   1.700
 4334TIP3    H212960   8.202   5.483   1.629
 4335TIP3   OH212961   6.147   2.817   1.738
 4335TIP3    H112962   6.229   2.828   1.785
 4335TIP3    H212963   6.113   2.905   1.726
 4336TIP3   OH212964   3.781   4.840   1.610
 4336TIP3    H112965   3.854   4.778   1.610
 4336TIP3    H212966   3.762   4.855   1.518
 4337TIP3   OH212967   4.728   0.585   6.714
 4337TIP3    H112968   4.824   0.587   6.719
 4337TIP3    H212969   4.701   0.675   6.731
 4338TIP3   OH212970   3.313   7.693   1.114
 4338TIP3    H112971   3.366   7.615   1.101
 4338TIP3    H212972   3.356   7.761   1.062
 4339TIP3   OH212973   1.971   2.882   5.409
 4339TIP3    H112974   1.897   2.880   5.469
 4339TIP3    H212975   1.932   2.908   5.325
 4340TIP3   OH212976   0.782   1.707   2.211
 4340TIP3    H112977   0.774   1.622   2.255
 4340TIP3    H212978   0.826   1.687   2.128
 4341TIP3   OH212979   5.917   0.441   1.293
 4341TIP3    H112980   5.864   0.364   1.273
 4341TIP3    H212981   5.899   0.502   1.222
 4342TIP3   OH212982   0.509   6.513   2.191
 4342TIP3    H112983   0.464   6.554   2.118
 4342TIP3    H212984   0.587   6.474   2.152
 4343TIP3   OH212985   2.831   5.044   3.710
 4343TIP3    H112986   2.910   4.996   3.733
 4343TIP3    H212987   2.759   4.984   3.730
 4344TIP3   OH212988   7.340   3.090   3.638
 4344TIP3    H112989   7.435   3.096   3.632
 4344TIP3    H212990   7.320   3.120   3.727
 4345TIP3   OH212991   4.285   0.352   0.124
 4345TIP3    H112992   4.257   0.264   0.099
 4345TIP3    H212993   4.328   0.387   0.046
 4346TIP3   OH212994   4.657   1.082   2.050
 4346TIP3    H112995   4.751   1.074   2.067
 4346TIP3    H212996   4.628   1.152   2.107
 4347TIP3   OH212997   5.121   3.878   1.768
 4347TIP3    H112998   5.127   3.956   1.713
 4347TIP3    H212999   5.178   3.814   1.727
 4348TIP3   OH213000   3.670   0.732   2.906
 4348TIP3    H113001   3.741   0.717   2.969
 4348TIP3    H213002   3.676   0.825   2.884
 4349TIP3   OH213003   5.378   3.311   4.303
 4349TIP3    H113004   5.449   3.356   4.257
 4349TIP3    H213005   5.364   3.362   4.382
 4350TIP3   OH213006   7.397   1.342   0.582
 4350TIP3    H113007   7.319   1.396   0.593
 4350TIP3    H213008   7.388   1.273   0.647
 4351TIP3   OH213009   4.818   6.657   4.838
 4351TIP3    H113010   4.827   6.748   4.811
 4351TIP3    H213011   4.766   6.661   4.918
 4352TIP3   OH213012   7.550   6.422   3.283
 4352TIP3    H113013   7.600   6.418   3.364
 4352TIP3    H213014   7.609   6.387   3.216
 4353TIP3   OH213015   3.365   0.680   1.491
 4353TIP3    H113016   3.326   0.739   1.555
 4353TIP3    H213017   3.334   0.593   1.516
 4354TIP3   OH213018   5.200   2.473   5.518
 4354TIP3    H113019   5.293   2.481   5.541
 4354TIP3    H213020   5.164   2.416   5.585
 4355TIP3   OH213021   5.095   7.231   1.491
 4355TIP3    H113022   5.124   7.148   1.529
 4355TIP3    H213023   5.077   7.286   1.567
 4356TIP3   OH213024   2.909   5.188   2.185
 4356TIP3    H113025   2.966   5.241   2.241
 4356TIP3    H213026   2.873   5.250   2.122
 4357TIP3   OH213027   5.847   1.499   5.152
 4357TIP3    H113028   5.919   1.469   5.096
 4357TIP3    H213029   5.808   1.572   5.104
 4358TIP3   OH213030   0.385   7.397   4.410
 4358TIP3    H113031   0.293   7.371   4.411
 4358TIP3    H213032   0.402   7.423   4.320
 4359TIP3   OH213033   0.942   2.375   2.634
 4359TIP3    H113034   0.991   2.358   2.553
 4359TIP3    H213035   0.938   2.471   2.640
 4360TIP3   OH213036   5.142   3.488   5.720
 4360TIP3    H113037   5.063   3.438   5.698
 4360TIP3    H213038   5.180   3.441   5.794
 4361TIP3   OH213039   2.856   2.770   0.195
 4361TIP3    H113040   2.845   2.676   0.208
 4361TIP3    H213041   2.918   2.797   0.262
 4362TIP3   OH213042   1.063   4.260   0.521
 4362TIP3    H113043   1.099   4.182   0.564
 4362TIP3    H213044   0.984   4.279   0.570
 4363TIP3   OH213045   2.805   7.150   3.492
 4363TIP3    H113046   2.795   7.078   3.555
 4363TIP3    H213047   2.809   7.106   3.407
 4364TIP3   OH213048   2.566   3.022   6.624
 4364TIP3    H113049   2.499   2.955   6.611
 4364TIP3    H213050   2.521   3.105   6.609
 4365TIP3   OH213051   2.635   6.843   0.944
 4365TIP3    H113052   2.557   6.789   0.930
 4365TIP3    H213053   2.622   6.881   1.031
 4366TIP3   OH213054   6.379   4.543   0.667
 4366TIP3    H113055   6.454   4.495   0.632
 4366TIP3    H213056   6.368   4.510   0.757
 4367TIP3   OH213057   1.836   4.809   1.973
 4367TIP3    H113058   1.773   4.831   2.041
 4367TIP3    H213059   1.787   4.755   1.911
 4368TIP3   OH213060   1.724   5.238   5.791
 4368TIP3    H113061   1.697   5.272   5.876
 4368TIP3    H213062   1.728   5.315   5.734
 4369TIP3   OH213063   0.446   2.055   1.643
 4369TIP3    H113064   0.506   2.034   1.572
 4369TIP3    H213065   0.360   2.057   1.602
 4370TIP3   OH213066   2.340   3.915   3.914
 4370TIP3    H113067   2.413   3.948   3.967
 4370TIP3    H213068   2.262   3.955   3.953
 4371TIP3   OH213069   6.168   1.502   0.526
 4371TIP3    H113070   6.151   1.583   0.574
 4371TIP3    H213071   6.154   1.433   0.591
 4372TIP3   OH213072   3.526   0.138   3.322
 4372TIP3    H113073   3.517   0.138   3.226
 4372TIP3    H213074   3.602   0.083   3.339
 4373TIP3   OH213075   4.541   4.832   4.524
 4373TIP3    H113076   4.533   4.741   4.496
 4373TIP3    H213077   4.455   4.870   4.508
 4374TIP3   OH213078   7.192   4.000   5.646
 4374TIP3    H113079   7.128   3.976   5.714
 4374TIP3    H213080   7.230   4.082   5.678
 4375TIP3   OH213081   6.944   0.875   5.742
 4375TIP3    H113082   6.851   0.887   5.721
 4375TIP3    H213083   6.960   0.782   5.727
 4376TIP3   OH213084   7.284   2.640   5.876
 4376TIP3    H113085   7.208   2.692   5.901
 4376TIP3    H213086   7.250   2.551   5.867
 4377TIP3   OH213087   5.208   4.357   5.414
 4377TIP3    H113088   5.221   4.376   5.507
 4377TIP3    H213089   5.165   4.271   5.413
 4378TIP3   OH213090   3.752   0.849   2.225
 4378TIP3    H113091   3.662   0.883   2.224
 4378TIP3    H213092   3.760   0.800   2.144
 4379TIP3   OH213093   1.755   7.624   1.903
 4379TIP3    H113094   1.714   7.548   1.943
 4379TIP3    H213095   1.825   7.649   1.964
 4380TIP3   OH213096   5.582   3.982   1.454
 4380TIP3    H113097   5.510   3.922   1.474
 4380TIP3    H213098   5.540   4.067   1.442
 4381TIP3   OH213099   5.243   0.995   3.034
 4381TIP3    H113100   5.262   1.031   2.947
 4381TIP3    H213101   5.219   1.072   3.086
 4382TIP3   OH213102   7.500   5.647   3.755
 4382TIP3    H113103   7.441   5.699   3.701
 4382TIP3    H213104   7.537   5.583   3.694
 4383TIP3   OH213105   7.026   7.368   5.301
 4383TIP3    H113106   7.007   7.280   5.335
 4383TIP3    H213107   6.957   7.384   5.237
 4384TIP3   OH213108   4.670   2.678   2.096
 4384TIP3    H113109   4.645   2.769   2.110
 4384TIP3    H213110   4.752   2.682   2.047
 4385TIP3   OH213111   6.466   4.550   5.611
 4385TIP3    H113112   6.554   4.519   5.629
 4385TIP3    H213113   6.408   4.489   5.656
 4386TIP3   OH213114   0.527   3.934   3.882
 4386TIP3    H113115   0.509   3.913   3.973
 4386TIP3    H213116   0.590   4.006   3.886
 4387TIP3   OH213117   5.060   2.631   5.826
 4387TIP3    H113118   5.009   2.557   5.794
 4387TIP3    H213119   4.995   2.690   5.865
 4388TIP3   OH213120   5.240   0.191   4.440
 4388TIP3    H113121   5.200   0.277   4.429
 4388TIP3    H213122   5.186   0.147   4.505
 4389TIP3   OH213123   2.753   1.693   5.612
 4389TIP3    H113124   2.741   1.637   5.689
 4389TIP3    H213125   2.847   1.709   5.609
 4390TIP3   OH213126   3.879   4.686   6.591
 4390TIP3    H113127   3.923   4.669   6.674
 4390TIP3    H213128   3.942   4.739   6.541
 4391TIP3   OH213129   2.287   4.916   0.939
 4391TIP3    H113130   2.266   4.931   1.032
 4391TIP3    H213131   2.364   4.970   0.923
 4392TIP3   OH213132   1.745   5.912   5.071
 4392TIP3    H113133   1.817   5.849   5.062
 4392TIP3    H213134   1.671   5.870   5.028
 4393TIP3   OH213135   2.071   4.370   3.816
 4393TIP3    H113136   2.136   4.412   3.758
 4393TIP3    H213137   2.034   4.300   3.763
 4394TIP3   OH213138   2.800   4.033   1.655
 4394TIP3    H113139   2.864   4.021   1.585
 4394TIP3    H213140   2.765   3.945   1.671
 4395TIP3   OH213141   4.168   7.520   5.392
 4395TIP3    H113142   4.196   7.486   5.307
 4395TIP3    H213143   4.214   7.603   5.402
 4396TIP3   OH213144   4.540   1.585   5.166
 4396TIP3    H113145   4.617   1.534   5.191
 4396TIP3    H213146   4.576   1.668   5.135
 4397TIP3   OH213147   4.587   5.135   5.819
 4397TIP3    H113148   4.634   5.192   5.758
 4397TIP3    H213149   4.503   5.119   5.777
 4398TIP3   OH213150   2.503   1.834   0.148
 4398TIP3    H113151   2.576   1.889   0.120
 4398TIP3    H213152   2.451   1.821   0.068
 4399TIP3   OH213153   4.588   1.041   2.368
 4399TIP3    H113154   4.571   1.124   2.323
 4399TIP3    H213155   4.660   1.060   2.428
 4400TIP3   OH213156   1.886   6.187   5.501
 4400TIP3    H113157   1.964   6.228   5.464
 4400TIP3    H213158   1.912   6.164   5.590
 4401TIP3   OH213159   4.347   0.228   6.620
 4401TIP3    H113160   4.412   0.290   6.588
 4401TIP3    H213161   4.397   0.149   6.641
 4402TIP3   OH213162   5.820   0.477   6.435
 4402TIP3    H113163   5.835   0.420   6.359
 4402TIP3    H213164   5.727   0.499   6.429
 4403TIP3   OH213165   5.999   3.221   3.271
 4403TIP3    H113166   6.045   3.156   3.219
 4403TIP3    H213167   5.998   3.185   3.360
 4404TIP3   OH213168   6.671   4.769   4.095
 4404TIP3    H113169   6.589   4.724   4.112
 4404TIP3    H213170   6.687   4.757   4.002
 4405TIP3   OH213171   0.498   7.389   0.091
 4405TIP3    H113172   0.552   7.389   0.012
 4405TIP3    H213173   0.560   7.374   0.162
 4406TIP3   OH213174   5.904   5.970   0.445
 4406TIP3    H113175   5.829   5.914   0.465
 4406TIP3    H213176   5.910   5.972   0.350
 4407TIP3   OH213177   5.649   1.782   0.133
 4407TIP3    H113178   5.607   1.819   0.211
 4407TIP3    H213179   5.604   1.698   0.120
 4408TIP3   OH213180   7.710   7.199   5.744
 4408TIP3    H113181   7.765   7.145   5.688
 4408TIP3    H213182   7.754   7.283   5.748
 4409TIP3   OH213183   7.338   3.873   3.759
 4409TIP3    H113184   7.341   3.956   3.712
 4409TIP3    H213185   7.400   3.884   3.831
 4410TIP3   OH213186   0.277   7.011   5.741
 4410TIP3    H113187   0.325   6.954   5.800
 4410TIP3    H213188   0.341   7.032   5.672
 4411TIP3   OH213189   0.356   6.828   4.375
 4411TIP3    H113190   0.309   6.811   4.293
 4411TIP3    H213191   0.327   6.915   4.401
 4412TIP3   OH213192   1.385   5.692   6.423
 4412TIP3    H113193   1.292   5.671   6.428
 4412TIP3    H213194   1.388   5.784   6.396
 4413TIP3   OH213195   0.920   4.499   3.124
 4413TIP3    H113196   0.904   4.567   3.059
 4413TIP3    H213197   0.833   4.464   3.145
 4414TIP3   OH213198   0.076   2.796   3.231
 4414TIP3    H113199  -0.015   2.795   3.261
 4414TIP3    H213200   0.081   2.871   3.172
 4415TIP3   OH213201   6.876   5.176   3.552
 4415TIP3    H113202   6.795   5.221   3.526
 4415TIP3    H213203   6.946   5.236   3.526
 4416TIP3   OH213204   5.206   5.945   1.811
 4416TIP3    H113205   5.143   5.994   1.759
 4416TIP3    H213206   5.230   5.870   1.757
 4417TIP3   OH213207   2.805   4.550   4.657
 4417TIP3    H113208   2.881   4.493   4.646
 4417TIP3    H213209   2.782   4.577   4.568
 4418TIP3   OH213210   4.599   5.644   5.586
 4418TIP3    H113211   4.650   5.724   5.600
 4418TIP3    H213212   4.615   5.621   5.494
 4419TIP3   OH213213   5.004   4.169   3.846
 4419TIP3    H113214   5.094   4.147   3.867
 4419TIP3    H213215   5.004   4.181   3.751
 4420TIP3   OH213216   1.542   6.529   6.573
 4420TIP3    H113217   1.447   6.530   6.570
 4420TIP3    H213218   1.569   6.598   6.512
 4421TIP3   OH213219   7.725   7.614   1.581
 4421TIP3    H113220   7.795   7.678   1.594
 4421TIP3    H213221   7.736   7.583   1.491
 4422TIP3   OH213222   2.577   5.738   3.301
 4422TIP3    H113223   2.540   5.818   3.262
 4422TIP3    H213224   2.554   5.669   3.239
 4423TIP3   OH213225   1.118   7.692   4.626
 4423TIP3    H113226   1.046   7.643   4.665
 4423TIP3    H213227   1.104   7.782   4.653
 4424TIP3   OH213228   4.179   7.544   0.492
 4424TIP3    H113229   4.147   7.633   0.507
 4424TIP3    H213230   4.252   7.534   0.553
 4425TIP3   OH213231   0.209   0.523   1.347
 4425TIP3    H113232   0.293   0.509   1.303
 4425TIP3    H213233   0.143   0.509   1.278
 4426TIP3   OH213234   3.988   7.468   0.043
 4426TIP3    H113235   4.041   7.466   0.123
 4426TIP3    H213236   4.052   7.476  -0.028
 4427TIP3   OH213237   1.739   6.970   5.640
 4427TIP3    H113238   1.793   6.960   5.562
 4427TIP3    H213239   1.655   7.001   5.607
 4428TIP3   OH213240   8.122   4.215   0.695
 4428TIP3    H113241   8.066   4.288   0.669
 4428TIP3    H213242   8.127   4.221   0.791
 4429TIP3   OH213243   6.837   0.462   2.334
 4429TIP3    H113244   6.879   0.415   2.261
 4429TIP3    H213245   6.759   0.411   2.354
 4430TIP3   OH213246   6.458   4.223   5.271
 4430TIP3    H113247   6.490   4.306   5.304
 4430TIP3    H213248   6.366   4.240   5.249
 4431TIP3   OH213249   1.485   0.227   2.870
 4431TIP3    H113250   1.464   0.143   2.909
 4431TIP3    H213251   1.454   0.220   2.779
 4432TIP3   OH213252   4.955   2.059   5.143
 4432TIP3    H113253   4.865   2.093   5.141
 4432TIP3    H213254   4.947   1.971   5.178
 4433TIP3   OH213255   0.600   6.513   2.781
 4433TIP3    H113256   0.572   6.601   2.754
 4433TIP3    H213257   0.582   6.509   2.874
 4434TIP3   OH213258   1.888   3.134   5.237
 4434TIP3    H113259   1.958   3.155   5.175
 4434TIP3    H213260   1.835   3.213   5.241
 4435TIP3   OH213261   5.057   7.582   1.634
 4435TIP3    H113262   5.143   7.579   1.592
 4435TIP3    H213263   5.050   7.672   1.666
 4436TIP3   OH213264   0.744   2.024   3.614
 4436TIP3    H113265   0.677   1.964   3.647
 4436TIP3    H213266   0.696   2.083   3.555
 4437TIP3   OH213267   7.191   7.428   6.464
 4437TIP3    H113268   7.143   7.504   6.430
 4437TIP3    H213269   7.161   7.355   6.411
 4438TIP3   OH213270   6.614   7.809   6.501
 4438TIP3    H113271   6.566   7.731   6.528
 4438TIP3    H213272   6.562   7.882   6.533
 4439TIP3   OH213273   6.671   1.130   3.726
 4439TIP3    H113274   6.599   1.150   3.786
 4439TIP3    H213275   6.683   1.210   3.676
 4440TIP3   OH213276   2.574   4.766   3.144
 4440TIP3    H113277   2.562   4.839   3.205
 4440TIP3    H213278   2.648   4.792   3.089
 4441TIP3   OH213279   3.519   3.851   6.529
 4441TIP3    H113280   3.581   3.807   6.587
 4441TIP3    H213281   3.561   3.934   6.508
 4442TIP3   OH213282   6.034   3.388   6.022
 4442TIP3    H113283   6.061   3.469   5.980
 4442TIP3    H213284   5.963   3.354   5.968
 4443TIP3   OH213285   0.549   7.533   1.372
 4443TIP3    H113286   0.552   7.616   1.324
 4443TIP3    H213287   0.477   7.484   1.333
 4444TIP3   OH213288   7.921   7.714   4.789
 4444TIP3    H113289   7.908   7.631   4.836
 4444TIP3    H213290   8.016   7.720   4.777
 4445TIP3   OH213291   5.166   0.615   6.695
 4445TIP3    H113292   5.155   0.661   6.779
 4445TIP3    H213293   5.085   0.565   6.685
 4446TIP3   OH213294   0.459   5.184   6.083
 4446TIP3    H113295   0.519   5.198   6.009
 4446TIP3    H213296   0.416   5.268   6.096
 4447TIP3   OH213297   4.948   5.031   5.631
 4447TIP3    H113298   4.923   5.004   5.719
 4447TIP3    H213299   4.943   4.951   5.579
 4448TIP3   OH213300   3.336   2.804   1.881
 4448TIP3    H113301   3.250   2.768   1.902
 4448TIP3    H213302   3.338   2.887   1.928
 4449TIP3   OH213303   3.643   6.003   6.287
 4449TIP3    H113304   3.651   5.932   6.223
 4449TIP3    H213305   3.725   6.051   6.279
 4450TIP3   OH213306   2.774   0.339   2.715
 4450TIP3    H113307   2.759   0.304   2.803
 4450TIP3    H213308   2.766   0.433   2.725
 4451TIP3   OH213309   7.881   3.238   2.476
 4451TIP3    H113310   7.841   3.273   2.396
 4451TIP3    H213311   7.974   3.255   2.465
 4452TIP3   OH213312   7.473   1.733   3.783
 4452TIP3    H113313   7.448   1.656   3.732
 4452TIP3    H213314   7.405   1.798   3.762
 4453TIP3   OH213315   3.100   0.975   4.554
 4453TIP3    H113316   3.098   0.925   4.472
 4453TIP3    H213317   3.187   1.015   4.555
 4454TIP3   OH213318   0.828   6.078   6.396
 4454TIP3    H113319   0.804   6.005   6.339
 4454TIP3    H213320   0.747   6.099   6.443
 4455TIP3   OH213321   1.403   4.739   5.317
 4455TIP3    H113322   1.466   4.674   5.348
 4455TIP3    H213323   1.421   4.816   5.371
 4456TIP3   OH213324   6.461   6.726   2.921
 4456TIP3    H113325   6.528   6.765   2.864
 4456TIP3    H213326   6.510   6.697   2.998
 4457TIP3   OH213327   0.845   2.453   5.440
 4457TIP3    H113328   0.927   2.433   5.485
 4457TIP3    H213329   0.810   2.367   5.415
 4458TIP3   OH213330   5.397   6.778   2.652
 4458TIP3    H113331   5.350   6.710   2.603
 4458TIP3    H213332   5.489   6.751   2.647
 4459TIP3   OH213333   2.701   6.909   3.627
 4459TIP3    H113334   2.701   6.921   3.722
 4459TIP3    H213335   2.636   6.841   3.611
 4460TIP3   OH213336   4.834   1.395   2.670
 4460TIP3    H113337   4.846   1.310   2.628
 4460TIP3    H213338   4.839   1.377   2.764
 4461TIP3   OH213339   0.332   1.014   2.557
 4461TIP3    H113340   0.423   1.010   2.529
 4461TIP3    H213341   0.283   1.023   2.475
 4462TIP3   OH213342   3.482   0.772   1.783
 4462TIP3    H113343   3.550   0.709   1.760
 4462TIP3    H213344   3.446   0.739   1.865
 4463TIP3   OH213345   3.310   6.108   0.135
 4463TIP3    H113346   3.404   6.109   0.117
 4463TIP3    H213347   3.270   6.087   0.051
 4464TIP3   OH213348   2.319   4.881   6.289
 4464TIP3    H113349   2.322   4.914   6.379
 4464TIP3    H213350   2.232   4.842   6.281
 4465TIP3   OH213351   6.381   5.376   2.528
 4465TIP3    H113352   6.294   5.362   2.490
 4465TIP3    H213353   6.397   5.469   2.519
 4466TIP3   OH213354   6.299   2.041   3.468
 4466TIP3    H113355   6.228   2.103   3.447
 4466TIP3    H213356   6.378   2.085   3.437
 4467TIP3   OH213357   7.971   4.041   5.530
 4467TIP3    H113358   7.918   3.977   5.579
 4467TIP3    H213359   7.997   4.106   5.595
 4468TIP3   OH213360   2.041   0.246   6.396
 4468TIP3    H113361   2.059   0.154   6.418
 4468TIP3    H213362   2.111   0.295   6.439
 4469TIP3   OH213363   5.040   5.240   3.230
 4469TIP3    H113364   5.042   5.221   3.136
 4469TIP3    H213365   5.088   5.322   3.239
 4470TIP3   OH213366   0.220   2.963   1.682
 4470TIP3    H113367   0.296   2.934   1.632
 4470TIP3    H213368   0.224   3.059   1.680
 4471TIP3   OH213369   7.682   6.006   4.470
 4471TIP3    H113370   7.664   6.033   4.380
 4471TIP3    H213371   7.625   6.061   4.524
 4472TIP3   OH213372   5.929   4.509   5.313
 4472TIP3    H113373   5.862   4.517   5.245
 4472TIP3    H213374   5.893   4.556   5.388
 4473TIP3   OH213375   2.524   4.533   3.275
 4473TIP3    H113376   2.532   4.604   3.212
 4473TIP3    H213377   2.552   4.572   3.358
 4474TIP3   OH213378   6.425   3.721   0.413
 4474TIP3    H113379   6.458   3.787   0.353
 4474TIP3    H213380   6.427   3.639   0.363
 4475TIP3   OH213381   2.313   4.478   1.781
 4475TIP3    H113382   2.311   4.436   1.695
 4475TIP3    H213383   2.404   4.506   1.792
 4476TIP3   OH213384   5.161   2.038   6.047
 4476TIP3    H113385   5.121   1.952   6.035
 4476TIP3    H213386   5.146   2.058   6.140
 4477TIP3   OH213387   1.210   5.025   4.283
 4477TIP3    H113388   1.164   5.043   4.201
 4477TIP3    H213389   1.188   4.935   4.304
 4478TIP3   OH213390   0.167   7.118   1.231
 4478TIP3    H113391   0.105   7.177   1.188
 4478TIP3    H213392   0.225   7.089   1.160
 4479TIP3   OH213393   3.987   3.007   2.060
 4479TIP3    H113394   3.913   2.950   2.040
 4479TIP3    H213395   3.973   3.035   2.150
 4480TIP3   OH213396   5.876   5.340   3.309
 4480TIP3    H113397   5.933   5.294   3.248
 4480TIP3    H213398   5.902   5.432   3.301
 4481TIP3   OH213399   4.550   7.475   4.343
 4481TIP3    H113400   4.645   7.470   4.347
 4481TIP3    H213401   4.524   7.502   4.431
 4482TIP3   OH213402   7.070   1.916   0.021
 4482TIP3    H113403   7.048   2.010   0.027
 4482TIP3    H213404   7.135   1.903   0.090
 4483TIP3   OH213405   1.572   5.859   5.501
 4483TIP3    H113406   1.613   5.775   5.481
 4483TIP3    H213407   1.482   5.836   5.527
 4484TIP3   OH213408   1.197   3.884   6.767
 4484TIP3    H113409   1.240   3.927   6.693
 4484TIP3    H213410   1.268   3.841   6.815
 4485TIP3   OH213411   4.401   2.179   5.245
 4485TIP3    H113412   4.430   2.193   5.335
 4485TIP3    H213413   4.364   2.091   5.245
 4486TIP3   OH213414   0.131   5.504   5.107
 4486TIP3    H113415   0.139   5.495   5.012
 4486TIP3    H213416   0.094   5.591   5.120
 4487TIP3   OH213417   6.583   6.634   3.617
 4487TIP3    H113418   6.619   6.556   3.575
 4487TIP3    H213419   6.659   6.692   3.630
 4488TIP3   OH213420   4.138   1.904   0.249
 4488TIP3    H113421   4.218   1.930   0.205
 4488TIP3    H213422   4.068   1.926   0.187
 4489TIP3   OH213423   2.738   5.761   1.036
 4489TIP3    H113424   2.720   5.852   1.058
 4489TIP3    H213425   2.656   5.729   0.998
 4490TIP3   OH213426   5.969   5.797   2.112
 4490TIP3    H113427   5.945   5.887   2.134
 4490TIP3    H213428   6.030   5.805   2.039
 4491TIP3   OH213429   5.061   0.948   2.585
 4491TIP3    H113430   5.023   0.957   2.673
 4491TIP3    H213431   5.073   0.853   2.574
 4492TIP3   OH213432   5.882   4.971   4.273
 4492TIP3    H113433   5.839   4.886   4.268
 4492TIP3    H213434   5.834   5.018   4.341
 4493TIP3   OH213435   2.456   2.091   5.766
 4493TIP3    H113436   2.399   2.098   5.843
 4493TIP3    H213437   2.531   2.041   5.797
 4494TIP3   OH213438   5.816   4.550   4.045
 4494TIP3    H113439   5.753   4.516   4.108
 4494TIP3    H213440   5.767   4.613   3.992
 4495TIP3   OH213441   4.549   3.619   1.066
 4495TIP3    H113442   4.556   3.615   0.971
 4495TIP3    H213443   4.620   3.562   1.098
 4496TIP3   OH213444   6.703   2.974   4.164
 4496TIP3    H113445   6.787   2.981   4.209
 4496TIP3    H213446   6.692   2.880   4.149
 4497TIP3   OH213447   2.250   5.499   4.087
 4497TIP3    H113448   2.334   5.483   4.044
 4497TIP3    H213449   2.184   5.475   4.022
 4498TIP3   OH213450   1.446   4.820   1.637
 4498TIP3    H113451   1.385   4.845   1.568
 4498TIP3    H213452   1.408   4.740   1.674
 4499TIP3   OH213453   1.466   6.890   2.108
 4499TIP3    H113454   1.539   6.830   2.123
 4499TIP3    H213455   1.464   6.945   2.186
 4500TIP3   OH213456   3.191   1.941   2.037
 4500TIP3    H113457   3.232   1.984   1.962
 4500TIP3    H213458   3.216   1.849   2.029
 4501TIP3   OH213459   1.190   1.523   5.574
 4501TIP3    H113460   1.103   1.495   5.547
 4501TIP3    H213461   1.175   1.593   5.637
 4502TIP3   OH213462   0.120   2.933   1.961
 4502TIP3    H113463   0.159   2.931   1.873
 4502TIP3    H213464   0.157   2.856   2.005
 4503TIP3   OH213465   4.651   2.534   2.447
 4503TIP3    H113466   4.702   2.453   2.459
 4503TIP3    H213467   4.715   2.598   2.416
 4504TIP3   OH213468   0.883   1.572   3.631
 4504TIP3    H113469   0.796   1.582   3.594
 4504TIP3    H213470   0.876   1.605   3.720
 4505TIP3   OH213471   2.946   3.900   4.715
 4505TIP3    H113472   2.996   3.839   4.770
 4505TIP3    H213473   2.889   3.947   4.777
 4506TIP3   OH213474   8.033   6.371   3.868
 4506TIP3    H113475   7.975   6.299   3.842
 4506TIP3    H213476   7.980   6.450   3.855
 4507TIP3   OH213477   3.577   1.161   0.708
 4507TIP3    H113478   3.540   1.124   0.627
 4507TIP3    H213479   3.606   1.085   0.758
 4508TIP3   OH213480   5.952   7.396   1.806
 4508TIP3    H113481   6.037   7.431   1.777
 4508TIP3    H213482   5.891   7.422   1.738
 4509TIP3   OH213483   4.143   7.432   4.269
 4509TIP3    H113484   4.163   7.361   4.208
 4509TIP3    H213485   4.166   7.396   4.355
 4510TIP3   OH213486   7.519   3.628   5.860
 4510TIP3    H113487   7.434   3.584   5.853
 4510TIP3    H213488   7.557   3.594   5.941
 4511TIP3   OH213489   3.645   4.369   4.709
 4511TIP3    H113490   3.702   4.310   4.759
 4511TIP3    H213491   3.562   4.323   4.703
 4512TIP3   OH213492   1.685   6.125   5.256
 4512TIP3    H113493   1.705   6.191   5.190
 4512TIP3    H213494   1.719   6.044   5.219
 4513TIP3   OH213495   2.186   6.264   1.913
 4513TIP3    H113496   2.091   6.273   1.913
 4513TIP3    H213497   2.218   6.342   1.958
 4514TIP3   OH213498   2.668   6.658   5.826
 4514TIP3    H113499   2.732   6.702   5.771
 4514TIP3    H213500   2.584   6.699   5.802
 4515TIP3   OH213501   2.837   1.236   4.930
 4515TIP3    H113502   2.761   1.272   4.976
 4515TIP3    H213503   2.805   1.217   4.842
 4516TIP3   OH213504   2.848   0.600   4.481
 4516TIP3    H113505   2.791   0.626   4.554
 4516TIP3    H213506   2.858   0.679   4.429
 4517TIP3   OH213507   0.915   4.959   4.524
 4517TIP3    H113508   0.948   5.021   4.459
 4517TIP3    H213509   0.990   4.943   4.581
 4518TIP3   OH213510   1.079   0.472   1.052
 4518TIP3    H113511   1.097   0.380   1.031
 4518TIP3    H213512   1.023   0.469   1.129
 4519TIP3   OH213513   5.992   4.704   4.796
 4519TIP3    H113514   5.975   4.635   4.860
 4519TIP3    H213515   5.987   4.785   4.847
 4520TIP3   OH213516   4.250   5.698   5.582
 4520TIP3    H113517   4.221   5.624   5.636
 4520TIP3    H213518   4.345   5.689   5.579
 4521TIP3   OH213519   4.012   7.279   1.003
 4521TIP3    H113520   3.923   7.296   0.974
 4521TIP3    H213521   4.003   7.246   1.092
 4522TIP3   OH213522   2.960   4.988   4.749
 4522TIP3    H113523   2.933   4.980   4.840
 4522TIP3    H213524   2.892   5.043   4.709
 4523TIP3   OH213525   8.113   5.714   3.449
 4523TIP3    H113526   8.058   5.787   3.423
 4523TIP3    H213527   8.195   5.754   3.476
 4524TIP3   OH213528   8.006   6.026   1.735
 4524TIP3    H113529   7.996   5.949   1.679
 4524TIP3    H213530   8.049   5.993   1.814
 4525TIP3   OH213531   5.332   4.421   1.938
 4525TIP3    H113532   5.382   4.418   2.020
 4525TIP3    H213533   5.255   4.473   1.959
 4526TIP3   OH213534   3.783   3.155   4.803
 4526TIP3    H113535   3.877   3.151   4.786
 4526TIP3    H213536   3.776   3.171   4.897
 4527TIP3   OH213537   6.166   5.028   6.749
 4527TIP3    H113538   6.190   5.067   6.665
 4527TIP3    H213539   6.139   4.939   6.728
 4528TIP3   OH213540   1.241   0.684   0.068
 4528TIP3    H113541   1.159   0.636   0.079
 4528TIP3    H213542   1.303   0.638   0.124
 4529TIP3   OH213543   1.048   5.817   6.205
 4529TIP3    H113544   1.062   5.735   6.254
 4529TIP3    H213545   0.955   5.834   6.213
 4530TIP3   OH213546   0.306   6.855   2.652
 4530TIP3    H113547   0.262   6.770   2.654
 4530TIP3    H213548   0.237   6.919   2.667
 4531TIP3   OH213549   1.533   4.634   0.871
 4531TIP3    H113550   1.604   4.698   0.857
 4531TIP3    H213551   1.455   4.678   0.838
 4532TIP3   OH213552   3.518   5.598   6.674
 4532TIP3    H113553   3.450   5.555   6.622
 4532TIP3    H213554   3.530   5.683   6.632
 4533TIP3   OH213555   7.123   0.937   6.624
 4533TIP3    H113556   7.074   0.955   6.704
 4533TIP3    H213557   7.073   0.869   6.579
 4534TIP3   OH213558   1.579   6.468   1.779
 4534TIP3    H113559   1.579   6.474   1.874
 4534TIP3    H213560   1.665   6.434   1.756
 4535TIP3   OH213561   5.421   1.220   4.472
 4535TIP3    H113562   5.451   1.131   4.453
 4535TIP3    H213563   5.426   1.226   4.568
 4536TIP3   OH213564   1.998   5.426   1.118
 4536TIP3    H113565   2.042   5.509   1.097
 4536TIP3    H213566   2.043   5.361   1.064
 4537TIP3   OH213567   5.970   4.147   2.050
 4537TIP3    H113568   5.962   4.236   2.084
 4537TIP3    H213569   6.004   4.158   1.961
 4538TIP3   OH213570   5.746   6.054   2.592
 4538TIP3    H113571   5.825   6.108   2.595
 4538TIP3    H213572   5.692   6.096   2.525
 4539TIP3   OH213573   0.106   3.635   4.683
 4539TIP3    H113574   0.086   3.660   4.773
 4539TIP3    H213575   0.038   3.678   4.631
 4540TIP3   OH213576   5.758   1.881   6.410
 4540TIP3    H113577   5.796   1.879   6.497
 4540TIP3    H213578   5.802   1.954   6.366
 4541TIP3   OH213579   6.131   3.210   4.937
 4541TIP3    H113580   6.169   3.166   5.013
 4541TIP3    H213581   6.116   3.140   4.874
 4542TIP3   OH213582   6.493   7.216   4.463
 4542TIP3    H113583   6.507   7.140   4.521
 4542TIP3    H213584   6.572   7.269   4.474
 4543TIP3   OH213585   1.783   2.749   3.256
 4543TIP3    H113586   1.845   2.691   3.213
 4543TIP3    H213587   1.722   2.775   3.187
 4544TIP3   OH213588   4.030   2.192   4.720
 4544TIP3    H113589   4.084   2.158   4.792
 4544TIP3    H213590   4.041   2.129   4.649
 4545TIP3   OH213591   0.362   0.579   1.766
 4545TIP3    H113592   0.323   0.497   1.796
 4545TIP3    H213593   0.304   0.647   1.801
 4546TIP3   OH213594   3.613   4.837   5.765
 4546TIP3    H113595   3.614   4.875   5.677
 4546TIP3    H213596   3.688   4.878   5.809
 4547TIP3   OH213597   4.909   6.952   3.234
 4547TIP3    H113598   4.935   6.953   3.142
 4547TIP3    H213599   4.859   7.032   3.246
 4548TIP3   OH213600   7.935   2.135   0.707
 4548TIP3    H113601   7.865   2.200   0.709
 4548TIP3    H213602   7.913   2.078   0.634
 4549TIP3   OH213603   7.747   2.569   0.961
 4549TIP3    H113604   7.679   2.636   0.964
 4549TIP3    H213605   7.700   2.487   0.977
 4550TIP3   OH213606   5.117   4.815   5.046
 4550TIP3    H113607   5.110   4.882   4.978
 4550TIP3    H213608   5.124   4.863   5.128
 4551TIP3   OH213609   8.086   5.572   1.088
 4551TIP3    H113610   8.126   5.587   1.173
 4551TIP3    H213611   8.127   5.491   1.056
 4552TIP3   OH213612   3.528   2.626   1.927
 4552TIP3    H113613   3.461   2.693   1.911
 4552TIP3    H213614   3.583   2.664   1.996
 4553TIP3   OH213615   1.490   7.405   5.388
 4553TIP3    H113616   1.418   7.384   5.447
 4553TIP3    H213617   1.477   7.348   5.312
 4554TIP3   OH213618   6.244   2.899   6.097
 4554TIP3    H113619   6.316   2.864   6.150
 4554TIP3    H213620   6.233   2.836   6.026
 4555TIP3   OH213621   7.352   6.146   6.079
 4555TIP3    H113622   7.426   6.091   6.106
 4555TIP3    H213623   7.276   6.087   6.083
 4556TIP3   OH213624   7.662   1.138   0.568
 4556TIP3    H113625   7.612   1.141   0.486
 4556TIP3    H213626   7.678   1.045   0.583
 4557TIP3   OH213627   1.628   6.293   6.409
 4557TIP3    H113628   1.665   6.211   6.440
 4557TIP3    H213629   1.635   6.352   6.485
 4558TIP3   OH213630   2.074   2.527   3.988
 4558TIP3    H113631   2.167   2.509   4.005
 4558TIP3    H213632   2.044   2.576   4.064
 4559TIP3   OH213633   7.965   3.248   2.873
 4559TIP3    H113634   7.941   3.177   2.815
 4559TIP3    H213635   8.061   3.249   2.871
 4560TIP3   OH213636   2.237   4.065   3.114
 4560TIP3    H113637   2.278   3.980   3.132
 4560TIP3    H213638   2.169   4.074   3.181
 4561TIP3   OH213639   6.503   0.018   1.218
 4561TIP3    H113640   6.571   0.027   1.151
 4561TIP3    H213641   6.440   0.087   1.196
 4562TIP3   OH213642   6.661   3.247   5.165
 4562TIP3    H113643   6.705   3.331   5.153
 4562TIP3    H213644   6.700   3.189   5.099
 4563TIP3   OH213645   0.425   0.481   0.227
 4563TIP3    H113646   0.429   0.386   0.224
 4563TIP3    H213647   0.504   0.508   0.274
 4564TIP3   OH213648   1.825   2.320   5.393
 4564TIP3    H113649   1.730   2.314   5.404
 4564TIP3    H213650   1.858   2.340   5.480
 4565TIP3   OH213651   7.331   5.992   1.636
 4565TIP3    H113652   7.249   5.949   1.612
 4565TIP3    H213653   7.382   5.923   1.680
 4566TIP3   OH213654   5.105   5.240   2.959
 4566TIP3    H113655   5.059   5.159   2.938
 4566TIP3    H213656   5.195   5.225   2.931
 4567TIP3   OH213657   0.622   7.291   0.731
 4567TIP3    H113658   0.640   7.198   0.719
 4567TIP3    H213659   0.569   7.295   0.811
 4568TIP3   OH213660   2.936   5.865   4.550
 4568TIP3    H113661   2.980   5.950   4.555
 4568TIP3    H213662   2.904   5.860   4.460
 4569TIP3   OH213663   2.193   2.687   4.436
 4569TIP3    H113664   2.172   2.594   4.430
 4569TIP3    H213665   2.221   2.700   4.527
 4570TIP3   OH213666   4.937   7.073   6.322
 4570TIP3    H113667   4.923   7.135   6.393
 4570TIP3    H213668   4.939   7.127   6.243
 4571TIP3   OH213669   2.038   2.194   4.940
 4571TIP3    H113670   2.038   2.265   5.004
 4571TIP3    H213671   1.946   2.167   4.934
 4572TIP3   OH213672   5.459   0.369   0.478
 4572TIP3    H113673   5.380   0.396   0.525
 4572TIP3    H213674   5.531   0.392   0.536
 4573TIP3   OH213675   7.136   3.715   1.702
 4573TIP3    H113676   7.146   3.714   1.607
 4573TIP3    H213677   7.159   3.804   1.727
 4574TIP3   OH213678   8.008   6.426   2.895
 4574TIP3    H113679   7.981   6.470   2.975
 4574TIP3    H213680   8.064   6.354   2.925
 4575TIP3   OH213681   3.775   7.263   0.151
 4575TIP3    H113682   3.806   7.304   0.070
 4575TIP3    H213683   3.851   7.215   0.183
 4576TIP3   OH213684   5.387   3.616   0.876
 4576TIP3    H113685   5.383   3.711   0.890
 4576TIP3    H213686   5.330   3.601   0.800
 4577TIP3   OH213687   2.799   3.399   0.668
 4577TIP3    H113688   2.795   3.395   0.572
 4577TIP3    H213689   2.752   3.480   0.690
 4578TIP3   OH213690   3.289   7.063   3.097
 4578TIP3    H113691   3.300   7.055   3.191
 4578TIP3    H213692   3.195   7.072   3.084
 4579TIP3   OH213693   2.191   3.600   4.675
 4579TIP3    H113694   2.200   3.674   4.614
 4579TIP3    H213695   2.178   3.524   4.618
 4580TIP3   OH213696   1.726   5.698   0.840
 4580TIP3    H113697   1.644   5.730   0.879
 4580TIP3    H213698   1.766   5.776   0.801
 4581TIP3   OH213699   3.517   3.538   5.927
 4581TIP3    H113700   3.529   3.533   6.022
 4581TIP3    H213701   3.534   3.449   5.896
 4582TIP3   OH213702   5.594   5.463   4.580
 4582TIP3    H113703   5.682   5.425   4.582
 4582TIP3    H213704   5.606   5.553   4.609
 4583TIP3   OH213705   2.236   1.317   4.362
 4583TIP3    H113706   2.285   1.267   4.297
 4583TIP3    H213707   2.145   1.289   4.352
 4584TIP3   OH213708   1.877   0.255   5.471
 4584TIP3    H113709   1.812   0.323   5.486
 4584TIP3    H213710   1.868   0.195   5.545
 4585TIP3   OH213711   1.251   7.088   0.396
 4585TIP3    H113712   1.327   7.080   0.338
 4585TIP3    H213713   1.199   7.009   0.379
 4586TIP3   OH213714   5.933   4.956   4.930
 4586TIP3    H113715   5.899   4.894   4.995
 4586TIP3    H213716   5.995   5.010   4.978
 4587TIP3   OH213717   1.184   0.680   5.746
 4587TIP3    H113718   1.215   0.750   5.689
 4587TIP3    H213719   1.093   0.667   5.721
 4588TIP3   OH213720   0.124   6.521   1.830
 4588TIP3    H113721   0.132   6.429   1.806
 4588TIP3    H213722   0.101   6.565   1.748
 4589TIP3   OH213723   0.891   4.078   6.475
 4589TIP3    H113724   0.885   4.171   6.494
 4589TIP3    H213725   0.800   4.047   6.472
 4590TIP3   OH213726   7.493   4.714   6.679
 4590TIP3    H113727   7.508   4.737   6.771
 4590TIP3    H213728   7.420   4.769   6.653
 4591TIP3   OH213729   5.454   1.711   1.447
 4591TIP3    H113730   5.505   1.629   1.451
 4591TIP3    H213731   5.387   1.700   1.514
 4592TIP3   OH213732   4.973   5.021   4.961
 4592TIP3    H113733   4.973   5.071   5.042
 4592TIP3    H213734   4.883   5.024   4.930
 4593TIP3   OH213735   8.147   5.709   5.191
 4593TIP3    H113736   8.089   5.771   5.236
 4593TIP3    H213737   8.090   5.637   5.165
 4594TIP3   OH213738   1.806   4.283   6.159
 4594TIP3    H113739   1.768   4.342   6.094
 4594TIP3    H213740   1.883   4.246   6.116
 4595TIP3   OH213741   2.836   7.175   0.180
 4595TIP3    H113742   2.809   7.121   0.254
 4595TIP3    H213743   2.863   7.112   0.112
 4596TIP3   OH213744   3.532   6.098   6.566
 4596TIP3    H113745   3.542   6.011   6.527
 4596TIP3    H213746   3.492   6.151   6.497
 4597TIP3   OH213747   1.146   6.030   2.820
 4597TIP3    H113748   1.110   6.030   2.731
 4597TIP3    H213749   1.192   6.114   2.827
 4598TIP3   OH213750   2.535   7.135   2.188
 4598TIP3    H113751   2.585   7.111   2.266
 4598TIP3    H213752   2.489   7.055   2.164
 4599TIP3   OH213753   1.438   2.294   4.728
 4599TIP3    H113754   1.407   2.366   4.674
 4599TIP3    H213755   1.358   2.252   4.760
 4600TIP3   OH213756   0.199   3.536   0.948
 4600TIP3    H113757   0.125   3.480   0.924
 4600TIP3    H213758   0.225   3.505   1.034
 4601TIP3   OH213759   1.638   3.007   3.482
 4601TIP3    H113760   1.631   2.976   3.572
 4601TIP3    H213761   1.631   3.102   3.489
 4602TIP3   OH213762   4.232   7.547   3.074
 4602TIP3    H113763   4.266   7.616   3.017
 4602TIP3    H213764   4.191   7.485   3.013
 4603TIP3   OH213765   5.403   3.890   6.732
 4603TIP3    H113766   5.461   3.848   6.796
 4603TIP3    H213767   5.330   3.922   6.784
 4604TIP3   OH213768   5.885   6.062   2.131
 4604TIP3    H113769   5.924   6.130   2.076
 4604TIP3    H213770   5.927   6.073   2.216
 4605TIP3   OH213771   3.552   3.041   3.241
 4605TIP3    H113772   3.466   3.008   3.268
 4605TIP3    H213773   3.581   3.093   3.316
 4606TIP3   OH213774   4.425   5.044   2.770
 4606TIP3    H113775   4.357   5.088   2.821
 4606TIP3    H213776   4.502   5.046   2.827
 4607TIP3   OH213777   0.116   5.882   6.458
 4607TIP3    H113778   0.153   5.947   6.398
 4607TIP3    H213779   0.025   5.872   6.430
 4608TIP3   OH213780   3.224   5.167   6.185
 4608TIP3    H113781   3.197   5.210   6.266
 4608TIP3    H213782   3.295   5.109   6.211
 4609TIP3   OH213783   7.474   2.638   3.783
 4609TIP3    H113784   7.518   2.555   3.771
 4609TIP3    H213785   7.527   2.701   3.734
 4610TIP3   OH213786   1.194   2.285   3.664
 4610TIP3    H113787   1.168   2.203   3.622
 4610TIP3    H213788   1.213   2.260   3.755
 4611TIP3   OH213789   6.450   0.890   4.995
 4611TIP3    H113790   6.355   0.883   4.996
 4611TIP3    H213791   6.481   0.800   4.993
 4612TIP3   OH213792   0.496   7.007   5.602
 4612TIP3    H113793   0.501   7.070   5.530
 4612TIP3    H213794   0.545   6.931   5.570
 4613TIP3   OH213795   5.072   4.287   6.517
 4613TIP3    H113796   5.046   4.213   6.571
 4613TIP3    H213797   5.126   4.341   6.575
 4614TIP3   OH213798   6.776   4.071   3.147
 4614TIP3    H113799   6.818   4.079   3.232
 4614TIP3    H213800   6.719   3.994   3.155
 4615TIP3   OH213801   6.396   1.548   1.365
 4615TIP3    H113802   6.387   1.519   1.455
 4615TIP3    H213803   6.416   1.468   1.316
 4616TIP3   OH213804   5.923   0.907   3.632
 4616TIP3    H113805   5.848   0.950   3.589
 4616TIP3    H213806   5.886   0.829   3.672
 4617TIP3   OH213807   3.700   0.616   5.116
 4617TIP3    H113808   3.691   0.673   5.193
 4617TIP3    H213809   3.772   0.655   5.066
 4618TIP3   OH213810   0.976   3.145   5.877
 4618TIP3    H113811   1.008   3.219   5.825
 4618TIP3    H213812   0.891   3.124   5.837
 4619TIP3   OH213813   7.802   3.005   4.975
 4619TIP3    H113814   7.895   2.981   4.972
 4619TIP3    H213815   7.770   2.988   4.886
 4620TIP3   OH213816   7.342   3.634   2.135
 4620TIP3    H113817   7.274   3.672   2.080
 4620TIP3    H213818   7.424   3.660   2.094
 4621TIP3   OH213819   0.942   3.265   1.940
 4621TIP3    H113820   0.980   3.288   1.855
 4621TIP3    H213821   0.856   3.307   1.939
 4622TIP3   OH213822   4.043   6.698   3.412
 4622TIP3    H113823   3.969   6.757   3.422
 4622TIP3    H213824   4.012   6.633   3.348
 4623TIP3   OH213825   8.241   6.521   4.124
 4623TIP3    H113826   8.305   6.500   4.192
 4623TIP3    H213827   8.239   6.442   4.069
 4624TIP3   OH213828   0.897   0.748   1.987
 4624TIP3    H113829   0.934   0.826   2.030
 4624TIP3    H213830   0.903   0.679   2.054
 4625TIP3   OH213831   7.713   1.676   5.929
 4625TIP3    H113832   7.716   1.764   5.890
 4625TIP3    H213833   7.652   1.684   6.002
 4626TIP3   OH213834   0.362   3.473   0.315
 4626TIP3    H113835   0.441   3.527   0.311
 4626TIP3    H213836   0.333   3.481   0.406
 4627TIP3   OH213837   3.765   7.674   2.788
 4627TIP3    H113838   3.806   7.756   2.760
 4627TIP3    H213839   3.692   7.662   2.727
 4628TIP3   OH213840   5.478   6.279   1.420
 4628TIP3    H113841   5.436   6.358   1.453
 4628TIP3    H213842   5.519   6.240   1.497
 4629TIP3   OH213843   2.755   1.802   6.679
 4629TIP3    H113844   2.671   1.842   6.659
 4629TIP3    H213845   2.743   1.764   6.767
 4630TIP3   OH213846   3.698   3.299   0.149
 4630TIP3    H113847   3.662   3.211   0.137
 4630TIP3    H213848   3.739   3.297   0.236
 4631TIP3   OH213849   4.322   2.668   6.357
 4631TIP3    H113850   4.340   2.589   6.306
 4631TIP3    H213851   4.245   2.646   6.409
 4632TIP3   OH213852   1.927   4.704   3.957
 4632TIP3    H113853   1.868   4.708   3.882
 4632TIP3    H213854   1.892   4.768   4.019
 4633TIP3   OH213855   3.695   7.121   4.590
 4633TIP3    H113856   3.767   7.066   4.559
 4633TIP3    H213857   3.619   7.089   4.542
 4634TIP3   OH213858   5.167   2.581   4.180
 4634TIP3    H113859   5.089   2.545   4.221
 4634TIP3    H213860   5.143   2.593   4.088
 4635TIP3   OH213861   3.459   5.338   2.841
 4635TIP3    H113862   3.461   5.303   2.930
 4635TIP3    H213863   3.548   5.369   2.825
 4636TIP3   OH213864   8.126   3.900   1.065
 4636TIP3    H113865   8.047   3.879   1.115
 4636TIP3    H213866   8.154   3.817   1.028
 4637TIP3   OH213867   2.009   5.385   3.479
 4637TIP3    H113868   1.987   5.313   3.537
 4637TIP3    H213869   1.943   5.452   3.497
 4638TIP3   OH213870   4.412   1.644   6.013
 4638TIP3    H113871   4.377   1.600   6.091
 4638TIP3    H213872   4.381   1.591   5.940
 4639TIP3   OH213873   7.537   0.205   5.391
 4639TIP3    H113874   7.509   0.139   5.328
 4639TIP3    H213875   7.461   0.219   5.447
 4640TIP3   OH213876   3.277   4.149   3.278
 4640TIP3    H113877   3.361   4.193   3.292
 4640TIP3    H213878   3.214   4.202   3.326
 4641TIP3   OH213879   3.079   1.255   4.256
 4641TIP3    H113880   3.023   1.221   4.326
 4641TIP3    H213881   3.017   1.280   4.187
 4642TIP3   OH213882   4.060   5.729   1.656
 4642TIP3    H113883   4.043   5.823   1.657
 4642TIP3    H213884   4.149   5.721   1.622
 4643TIP3   OH213885   7.526   3.812   1.508
 4643TIP3    H113886   7.573   3.728   1.507
 4643TIP3    H213887   7.573   3.864   1.573
 4644TIP3   OH213888   7.851   5.559   3.777
 4644TIP3    H113889   7.858   5.567   3.873
 4644TIP3    H213890   7.932   5.514   3.751
 4645TIP3   OH213891   3.416   0.814   2.382
 4645TIP3    H113892   3.454   0.745   2.437
 4645TIP3    H213893   3.415   0.891   2.438
 4646TIP3   OH213894   3.014   1.484   0.430
 4646TIP3    H113895   3.093   1.528   0.462
 4646TIP3    H213896   2.969   1.455   0.509
 4647TIP3   OH213897   1.330   0.291   0.179
 4647TIP3    H113898   1.377   0.373   0.193
 4647TIP3    H213899   1.317   0.287   0.084
 4648TIP3   OH213900   1.416   7.756   6.225
 4648TIP3    H113901   1.382   7.817   6.159
 4648TIP3    H213902   1.511   7.761   6.215
 4649TIP3   OH213903   1.599   6.312   1.006
 4649TIP3    H113904   1.521   6.263   1.027
 4649TIP3    H213905   1.567   6.388   0.957
 4650TIP3   OH213906   0.945   6.953   5.284
 4650TIP3    H113907   1.023   6.989   5.241
 4650TIP3    H213908   0.889   7.030   5.298
 4651TIP3   OH213909   2.271   2.609   6.674
 4651TIP3    H113910   2.188   2.575   6.639
 4651TIP3    H213911   2.289   2.686   6.620
 4652TIP3   OH213912   0.888   6.495   5.269
 4652TIP3    H113913   0.916   6.410   5.236
 4652TIP3    H213914   0.877   6.482   5.363
 4653TIP3   OH213915   6.387   0.483   4.155
 4653TIP3    H113916   6.360   0.568   4.120
 4653TIP3    H213917   6.407   0.430   4.078
 4654TIP3   OH213918   4.958   6.649   2.935
 4654TIP3    H113919   4.953   6.742   2.914
 4654TIP3    H213920   4.868   6.617   2.926
 4655TIP3   OH213921   7.033   0.269   6.395
 4655TIP3    H113922   6.989   0.279   6.479
 4655TIP3    H213923   6.965   0.239   6.335
 4656TIP3   OH213924   8.257   5.973   5.341
 4656TIP3    H113925   8.266   5.893   5.391
 4656TIP3    H213926   8.183   6.019   5.381
 4657TIP3   OH213927   4.928   2.730   0.848
 4657TIP3    H113928   4.972   2.782   0.781
 4657TIP3    H213929   4.955   2.640   0.832
 4658TIP3   OH213930   3.108   4.896   1.660
 4658TIP3    H113931   3.046   4.872   1.729
 4658TIP3    H213932   3.181   4.835   1.672
 4659TIP3   OH213933   4.526   1.877   5.887
 4659TIP3    H113934   4.465   1.810   5.919
 4659TIP3    H213935   4.578   1.901   5.964
 4660TIP3   OH213936   6.443   5.981   5.423
 4660TIP3    H113937   6.381   6.036   5.375
 4660TIP3    H213938   6.483   6.039   5.487
 4661TIP3   OH213939   4.077   7.089   2.923
 4661TIP3    H113940   4.043   7.029   2.857
 4661TIP3    H213941   4.139   7.037   2.974
 4662TIP3   OH213942   7.990   6.753   3.489
 4662TIP3    H113943   7.963   6.829   3.540
 4662TIP3    H213944   7.928   6.684   3.512
 4663TIP3   OH213945   3.844   6.641   0.286
 4663TIP3    H113946   3.870   6.596   0.206
 4663TIP3    H213947   3.927   6.659   0.331
 4664TIP3   OH213948   6.324   5.060   5.565
 4664TIP3    H113949   6.281   4.977   5.546
 4664TIP3    H213950   6.398   5.037   5.622
 4665TIP3   OH213951   7.247   5.190   2.509
 4665TIP3    H113952   7.276   5.222   2.594
 4665TIP3    H213953   7.315   5.128   2.482
 4666TIP3   OH213954   6.558   1.046   4.157
 4666TIP3    H113955   6.468   1.078   4.158
 4666TIP3    H213956   6.549   0.952   4.139
 4667TIP3   OH213957   2.595   1.699   3.757
 4667TIP3    H113958   2.601   1.766   3.825
 4667TIP3    H213959   2.683   1.661   3.752
 4668TIP3   OH213960   7.632   1.242   2.349
 4668TIP3    H113961   7.695   1.193   2.402
 4668TIP3    H213962   7.657   1.223   2.259
 4669TIP3   OH213963   3.670   2.209   2.779
 4669TIP3    H113964   3.671   2.290   2.728
 4669TIP3    H213965   3.582   2.204   2.815
 4670TIP3   OH213966   1.058   7.440   5.120
 4670TIP3    H113967   0.969   7.445   5.153
 4670TIP3    H213968   1.102   7.516   5.157
 4671TIP3   OH213969   1.849   2.665   3.887
 4671TIP3    H113970   1.862   2.616   3.806
 4671TIP3    H213971   1.932   2.657   3.935
 4672TIP3   OH213972   4.589   5.001   0.982
 4672TIP3    H113973   4.585   5.050   1.064
 4672TIP3    H213974   4.683   4.988   0.966
 4673TIP3   OH213975   6.350   7.507   4.011
 4673TIP3    H113976   6.443   7.528   4.021
 4673TIP3    H213977   6.338   7.428   4.064
 4674TIP3   OH213978   0.362   5.397   2.772
 4674TIP3    H113979   0.376   5.390   2.867
 4674TIP3    H213980   0.312   5.320   2.749
 4675TIP3   OH213981   0.899   3.344   6.549
 4675TIP3    H113982   0.868   3.304   6.630
 4675TIP3    H213983   0.826   3.336   6.488
 4676TIP3   OH213984   4.102   5.865   5.375
 4676TIP3    H113985   4.034   5.811   5.334
 4676TIP3    H213986   4.128   5.816   5.453
 4677TIP3   OH213987   1.574   5.350   6.724
 4677TIP3    H113988   1.513   5.279   6.706
 4677TIP3    H213989   1.645   5.338   6.660
 4678TIP3   OH213990   5.197   4.397   5.674
 4678TIP3    H113991   5.238   4.450   5.743
 4678TIP3    H213992   5.149   4.329   5.721
 4679TIP3   OH213993   0.984   6.928   0.288
 4679TIP3    H113994   0.950   6.865   0.351
 4679TIP3    H213995   0.907   6.967   0.248
 4680TIP3   OH213996   6.463   4.698   6.050
 4680TIP3    H113997   6.504   4.785   6.052
 4680TIP3    H213998   6.520   4.643   6.103
 4681TIP3   OH213999   1.373   7.331   5.023
 4681TIP3    H114000   1.346   7.332   5.115
 4681TIP3    H214001   1.443   7.396   5.017
 4682TIP3   OH214002   1.040   0.912   6.471
 4682TIP3    H114003   1.039   0.980   6.404
 4682TIP3    H214004   1.124   0.923   6.515
 4683TIP3   OH214005   1.200   2.394   2.167
 4683TIP3    H114006   1.254   2.435   2.099
 4683TIP3    H214007   1.257   2.394   2.244
 4684TIP3   OH214008   6.158   1.514   0.847
 4684TIP3    H114009   6.238   1.531   0.896
 4684TIP3    H214010   6.154   1.418   0.839
 4685TIP3   OH214011   1.965   6.862   0.508
 4685TIP3    H114012   1.983   6.771   0.534
 4685TIP3    H214013   1.893   6.889   0.564
 4686TIP3   OH214014   0.395   6.328   5.659
 4686TIP3    H114015   0.470   6.336   5.600
 4686TIP3    H214016   0.322   6.365   5.610
 4687TIP3   OH214017   4.039   0.475   0.246
 4687TIP3    H114018   3.974   0.492   0.177
 4687TIP3    H214019   4.120   0.457   0.197
 4688TIP3   OH214020   1.441   0.542   0.206
 4688TIP3    H114021   1.510   0.591   0.161
 4688TIP3    H214022   1.450   0.568   0.298
 4689TIP3   OH214023   5.616   1.193   3.935
 4689TIP3    H114024   5.668   1.262   3.895
 4689TIP3    H214025   5.676   1.119   3.942
 4690TIP3   OH214026   7.371   4.741   0.019
 4690TIP3    H114027   7.362   4.690   0.100
 4690TIP3    H214028   7.389   4.830   0.049
 4691TIP3   OH214029   4.661   3.540   5.724
 4691TIP3    H114030   4.650   3.619   5.778
 4691TIP3    H214031   4.572   3.514   5.702
 4692TIP3   OH214032   2.285   1.301   5.023
 4692TIP3    H114033   2.214   1.362   5.042
 4692TIP3    H214034   2.343   1.306   5.099
 4693TIP3   OH214035   1.251   5.943   1.236
 4693TIP3    H114036   1.221   5.913   1.150
 4693TIP3    H214037   1.275   5.862   1.282
 4694TIP3   OH214038   5.984   2.488   2.634
 4694TIP3    H114039   5.937   2.571   2.625
 4694TIP3    H214040   5.955   2.454   2.719
 4695TIP3   OH214041   1.254   3.765   4.079
 4695TIP3    H114042   1.309   3.760   4.001
 4695TIP3    H214043   1.178   3.815   4.051
 4696TIP3   OH214044   3.249   6.131   2.026
 4696TIP3    H114045   3.338   6.160   2.047
 4696TIP3    H214046   3.198   6.211   2.019
 4697TIP3   OH214047   1.759   4.870   1.362
 4697TIP3    H114048   1.833   4.898   1.417
 4697TIP3    H214049   1.742   4.946   1.305
 4698TIP3   OH214050   5.010   0.594   5.590
 4698TIP3    H114051   4.925   0.576   5.550
 4698TIP3    H214052   5.074   0.572   5.522
 4699TIP3   OH214053   6.769   4.917   2.084
 4699TIP3    H114054   6.720   4.992   2.049
 4699TIP3    H214055   6.744   4.844   2.028
 4700TIP3   OH214056   2.427   6.050   0.203
 4700TIP3    H114057   2.481   5.978   0.235
 4700TIP3    H214058   2.490   6.113   0.166
 4701TIP3   OH214059   6.816   5.761   3.967
 4701TIP3    H114060   6.776   5.699   3.904
 4701TIP3    H214061   6.814   5.714   4.050
 4702TIP3   OH214062   5.125   5.197   4.834
 4702TIP3    H114063   5.094   5.125   4.890
 4702TIP3    H214064   5.195   5.237   4.884
 4703TIP3   OH214065   5.439   6.437   0.619
 4703TIP3    H114066   5.443   6.468   0.528
 4703TIP3    H214067   5.519   6.386   0.630
 4704TIP3   OH214068   6.114   2.522   6.580
 4704TIP3    H114069   6.048   2.453   6.591
 4704TIP3    H214070   6.196   2.475   6.570
 4705TIP3   OH214071   4.248   3.033   0.491
 4705TIP3    H114072   4.308   2.959   0.479
 4705TIP3    H214073   4.304   3.109   0.502
 4706TIP3   OH214074   0.864   4.615   3.972
 4706TIP3    H114075   0.818   4.688   4.014
 4706TIP3    H214076   0.863   4.637   3.878
 4707TIP3   OH214077   6.725   0.646   6.268
 4707TIP3    H114078   6.759   0.591   6.339
 4707TIP3    H214079   6.760   0.733   6.287
 4708TIP3   OH214080   5.427   0.516   6.630
 4708TIP3    H114081   5.333   0.533   6.625
 4708TIP3    H214082   5.434   0.421   6.626
 4709TIP3   OH214083   4.776   1.422   5.090
 4709TIP3    H114084   4.797   1.495   5.031
 4709TIP3    H214085   4.725   1.361   5.037
 4710TIP3   OH214086   3.024   3.830   0.690
 4710TIP3    H114087   3.038   3.776   0.768
 4710TIP3    H214088   2.983   3.772   0.627
 4711TIP3   OH214089   0.395   1.816   2.302
 4711TIP3    H114090   0.328   1.754   2.276
 4711TIP3    H214091   0.348   1.899   2.314
 4712TIP3   OH214092   1.213   5.778   5.858
 4712TIP3    H114093   1.233   5.864   5.894
 4712TIP3    H214094   1.252   5.716   5.920
 4713TIP3   OH214095   0.660   5.383   4.415
 4713TIP3    H114096   0.737   5.407   4.466
 4713TIP3    H214097   0.639   5.294   4.442
 4714TIP3   OH214098   0.508   1.045   1.856
 4714TIP3    H114099   0.529   1.134   1.829
 4714TIP3    H214100   0.430   1.022   1.805
 4715TIP3   OH214101   7.258   4.514   3.963
 4715TIP3    H114102   7.169   4.524   3.930
 4715TIP3    H214103   7.266   4.421   3.984
 4716TIP3   OH214104   4.742   2.968   0.365
 4716TIP3    H114105   4.835   2.951   0.347
 4716TIP3    H214106   4.697   2.944   0.284
 4717TIP3   OH214107   6.789   2.550   0.980
 4717TIP3    H114108   6.837   2.530   1.060
 4717TIP3    H214109   6.854   2.543   0.910
 4718TIP3   OH214110   3.412   7.667   6.329
 4718TIP3    H114111   3.428   7.628   6.243
 4718TIP3    H214112   3.500   7.683   6.364
 4719TIP3   OH214113   3.429   2.244   4.935
 4719TIP3    H114114   3.511   2.197   4.951
 4719TIP3    H214115   3.427   2.311   5.003
 4720TIP3   OH214116   1.340   7.345   2.325
 4720TIP3    H114117   1.329   7.290   2.248
 4720TIP3    H214118   1.254   7.344   2.368
 4721TIP3   OH214119   0.892   1.858   4.539
 4721TIP3    H114120   0.902   1.844   4.633
 4721TIP3    H214121   0.935   1.783   4.498
 4722TIP3   OH214122   0.592   3.711   2.786
 4722TIP3    H114123   0.671   3.745   2.826
 4722TIP3    H214124   0.608   3.617   2.777
 4723TIP3   OH214125   5.397   5.750   6.170
 4723TIP3    H114126   5.306   5.778   6.167
 4723TIP3    H214127   5.448   5.826   6.143
 4724TIP3   OH214128   7.931   7.130   4.859
 4724TIP3    H114129   7.920   7.036   4.846
 4724TIP3    H214130   8.001   7.137   4.924
 4725TIP3   OH214131   2.942   6.229   2.445
 4725TIP3    H114132   2.980   6.225   2.532
 4725TIP3    H214133   3.000   6.175   2.391
 4726TIP3   OH214134   3.032   4.451   0.132
 4726TIP3    H114135   3.015   4.458   0.038
 4726TIP3    H214136   3.062   4.361   0.144
 4727TIP3   OH214137   3.897   3.587   0.690
 4727TIP3    H114138   3.925   3.553   0.775
 4727TIP3    H214139   3.801   3.577   0.690
 4728TIP3   OH214140   1.520   5.521   5.629
 4728TIP3    H114141   1.615   5.512   5.634
 4728TIP3    H214142   1.490   5.519   5.719
 4729TIP3   OH214143   6.479   2.406   3.510
 4729TIP3    H114144   6.559   2.353   3.512
 4729TIP3    H214145   6.496   2.474   3.446
 4730TIP3   OH214146   7.275   7.823   0.542
 4730TIP3    H114147   7.277   7.730   0.563
 4730TIP3    H214148   7.311   7.866   0.620
 4731TIP3   OH214149   5.179   0.202   4.847
 4731TIP3    H114150   5.203   0.241   4.931
 4731TIP3    H214151   5.148   0.275   4.794
 4732TIP3   OH214152   5.337   1.344   0.154
 4732TIP3    H114153   5.340   1.413   0.089
 4732TIP3    H214154   5.425   1.306   0.153
 4733TIP3   OH214155   6.484   2.744   6.570
 4733TIP3    H114156   6.443   2.783   6.647
 4733TIP3    H214157   6.411   2.725   6.511
 4734TIP3   OH214158   8.031   3.175   1.651
 4734TIP3    H114159   8.117   3.215   1.664
 4734TIP3    H214160   7.988   3.182   1.736
 4735TIP3   OH214161   2.264   4.733   6.056
 4735TIP3    H114162   2.276   4.803   6.120
 4735TIP3    H214163   2.294   4.654   6.101
 4736TIP3   OH214164   1.560   6.552   3.199
 4736TIP3    H114165   1.619   6.499   3.145
 4736TIP3    H214166   1.472   6.523   3.173
 4737TIP3   OH214167   0.559   1.615   6.263
 4737TIP3    H114168   0.470   1.622   6.228
 4737TIP3    H214169   0.554   1.542   6.325
 4738TIP3   OH214170   0.431   3.926   2.809
 4738TIP3    H114171   0.422   3.929   2.905
 4738TIP3    H214172   0.498   3.859   2.794
 4739TIP3   OH214173   2.993   1.510   4.500
 4739TIP3    H114174   3.081   1.502   4.463
 4739TIP3    H214175   2.964   1.419   4.512
 4740TIP3   OH214176   5.361   7.827   3.615
 4740TIP3    H114177   5.343   7.742   3.655
 4740TIP3    H214178   5.323   7.890   3.677
 4741TIP3   OH214179   0.813   4.982   2.140
 4741TIP3    H114180   0.861   5.028   2.071
 4741TIP3    H214181   0.746   5.044   2.168
 4742TIP3   OH214182   8.056   0.274   3.067
 4742TIP3    H114183   8.078   0.332   2.994
 4742TIP3    H214184   7.982   0.223   3.035
 4743TIP3   OH214185   1.685   0.604   4.275
 4743TIP3    H114186   1.592   0.584   4.285
 4743TIP3    H214187   1.688   0.692   4.240
 4744TIP3   OH214188   6.181   3.117   5.190
 4744TIP3    H114189   6.166   3.086   5.279
 4744TIP3    H214190   6.197   3.211   5.199
 4745TIP3   OH214191   3.025   4.371   0.603
 4745TIP3    H114192   3.013   4.358   0.697
 4745TIP3    H214193   2.971   4.302   0.563
 4746TIP3   OH214194   3.752   4.272   3.886
 4746TIP3    H114195   3.719   4.219   3.813
 4746TIP3    H214196   3.767   4.208   3.956
 4747TIP3   OH214197   3.402   1.944   5.159
 4747TIP3    H114198   3.364   1.870   5.207
 4747TIP3    H214199   3.482   1.909   5.120
 4748TIP3   OH214200   7.005   1.368   5.458
 4748TIP3    H114201   7.053   1.307   5.403
 4748TIP3    H214202   7.025   1.341   5.548
 4749TIP3   OH214203   0.783   3.142   5.688
 4749TIP3    H114204   0.773   3.223   5.638
 4749TIP3    H214205   0.733   3.077   5.639
 4750TIP3   OH214206   5.230   4.030   3.535
 4750TIP3    H114207   5.187   4.112   3.561
 4750TIP3    H214208   5.320   4.039   3.566
 4751TIP3   OH214209   6.711   4.068   4.468
 4751TIP3    H114210   6.758   4.126   4.407
 4751TIP3    H214211   6.627   4.112   4.481
 4752TIP3   OH214212   5.128   1.449   0.280
 4752TIP3    H114213   5.073   1.488   0.213
 4752TIP3    H214214   5.186   1.390   0.233
 4753TIP3   OH214215   5.106   0.680   2.562
 4753TIP3    H114216   5.132   0.613   2.625
 4753TIP3    H214217   5.019   0.653   2.533
 4754TIP3   OH214218   3.567   6.161   2.416
 4754TIP3    H114219   3.527   6.167   2.503
 4754TIP3    H214220   3.658   6.137   2.433
 4755TIP3   OH214221   3.575   1.229   3.639
 4755TIP3    H114222   3.510   1.216   3.709
 4755TIP3    H214223   3.531   1.199   3.560
 4756TIP3   OH214224   4.496   3.266   2.475
 4756TIP3    H114225   4.428   3.230   2.418
 4756TIP3    H214226   4.448   3.319   2.538
 4757TIP3   OH214227   0.077   4.300   0.533
 4757TIP3    H114228  -0.003   4.267   0.575
 4757TIP3    H214229   0.061   4.290   0.440
 4758TIP3   OH214230   3.022   2.273   2.432
 4758TIP3    H114231   2.942   2.222   2.422
 4758TIP3    H214232   3.071   2.256   2.351
 4759TIP3   OH214233   6.690   3.472   4.938
 4759TIP3    H114234   6.595   3.468   4.945
 4759TIP3    H214235   6.710   3.421   4.859
 4760TIP3   OH214236   2.118   5.442   1.527
 4760TIP3    H114237   2.124   5.535   1.503
 4760TIP3    H214238   2.144   5.395   1.448
 4761TIP3   OH214239   6.259   4.275   0.108
 4761TIP3    H114240   6.299   4.203   0.059
 4761TIP3    H214241   6.287   4.260   0.199
 4762TIP3   OH214242   3.561   6.513   5.503
 4762TIP3    H114243   3.475   6.542   5.472
 4762TIP3    H214244   3.560   6.418   5.492
 4763TIP3   OH214245   5.619   1.066   1.147
 4763TIP3    H114246   5.693   1.115   1.184
 4763TIP3    H214247   5.595   1.004   1.216
 4764TIP3   OH214248   4.716   0.846   3.746
 4764TIP3    H114249   4.650   0.912   3.766
 4764TIP3    H214250   4.666   0.769   3.718
 4765TIP3   OH214251   2.857   4.198   4.771
 4765TIP3    H114252   2.836   4.127   4.832
 4765TIP3    H214253   2.912   4.258   4.823
 4766TIP3   OH214254   5.194   4.944   6.211
 4766TIP3    H114255   5.270   5.003   6.211
 4766TIP3    H214256   5.231   4.859   6.186
 4767TIP3   OH214257   4.598   5.196   6.523
 4767TIP3    H114258   4.595   5.258   6.451
 4767TIP3    H214259   4.595   5.251   6.602
 4768TIP3   OH214260   5.442   0.756   0.230
 4768TIP3    H114261   5.357   0.737   0.270
 4768TIP3    H214262   5.455   0.850   0.245
 4769TIP3   OH214263   5.474   6.772   0.053
 4769TIP3    H114264   5.460   6.801  -0.037
 4769TIP3    H214265   5.387   6.770   0.092
 4770TIP3   OH214266   5.929   1.970   1.103
 4770TIP3    H114267   5.996   1.997   1.166
 4770TIP3    H214268   5.852   1.953   1.158
 4771TIP3   OH214269   4.938   4.106   1.293
 4771TIP3    H114270   5.031   4.090   1.309
 4771TIP3    H214271   4.892   4.041   1.346
 4772TIP3   OH214272   6.783   4.920   4.489
 4772TIP3    H114273   6.879   4.920   4.496
 4772TIP3    H214274   6.762   4.833   4.454
 4773TIP3   OH214275   3.976   6.176   0.815
 4773TIP3    H114276   3.894   6.127   0.816
 4773TIP3    H214277   3.982   6.212   0.727
 4774TIP3   OH214278   3.574   4.792   1.945
 4774TIP3    H114279   3.591   4.791   2.040
 4774TIP3    H214280   3.629   4.722   1.911
 4775TIP3   OH214281   3.285   7.242   5.103
 4775TIP3    H114282   3.204   7.243   5.153
 4775TIP3    H214283   3.342   7.305   5.147
 4776TIP3   OH214284   6.579   2.771   5.474
 4776TIP3    H114285   6.486   2.769   5.454
 4776TIP3    H214286   6.610   2.854   5.440
 4777TIP3   OH214287   3.216   6.739   1.783
 4777TIP3    H114288   3.222   6.722   1.878
 4777TIP3    H214289   3.285   6.802   1.766
 4778TIP3   OH214290   3.806   7.309   5.680
 4778TIP3    H114291   3.898   7.284   5.681
 4778TIP3    H214292   3.765   7.250   5.617
 4779TIP3   OH214293   3.731   3.138   6.668
 4779TIP3    H114294   3.671   3.086   6.722
 4779TIP3    H214295   3.817   3.124   6.708
 4780TIP3   OH214296   2.047   2.428   1.849
 4780TIP3    H114297   2.111   2.359   1.866
 4780TIP3    H214298   1.976   2.411   1.911
 4781TIP3   OH214299   6.072   3.641   5.929
 4781TIP3    H114300   6.059   3.705   5.859
 4781TIP3    H214301   6.134   3.683   5.989
 4782TIP3   OH214302   8.254   2.882   0.056
 4782TIP3    H114303   8.326   2.873  -0.007
 4782TIP3    H214304   8.253   2.975   0.078
 4783TIP3   OH214305   7.287   2.596   1.971
 4783TIP3    H114306   7.211   2.636   2.013
 4783TIP3    H214307   7.301   2.514   2.019
 4784TIP3   OH214308   1.752   4.112   3.208
 4784TIP3    H114309   1.660   4.127   3.188
 4784TIP3    H214310   1.793   4.095   3.124
 4785TIP3   OH214311   0.867   7.733   4.979
 4785TIP3    H114312   0.782   7.692   4.965
 4785TIP3    H214313   0.847   7.810   5.033
 4786TIP3   OH214314   6.988   0.104   0.944
 4786TIP3    H114315   6.984   0.142   1.031
 4786TIP3    H214316   7.080   0.080   0.933
 4787TIP3   OH214317   4.452   5.648   3.907
 4787TIP3    H114318   4.374   5.674   3.956
 4787TIP3    H214319   4.519   5.635   3.974
 4788TIP3   OH214320   2.722   2.958   0.334
 4788TIP3    H114321   2.760   3.042   0.307
 4788TIP3    H214322   2.770   2.892   0.285
 4789TIP3   OH214323   5.945   5.475   1.982
 4789TIP3    H114324   5.904   5.553   2.019
 4789TIP3    H214325   5.987   5.432   2.057
 4790TIP3   OH214326   2.125   3.741   2.749
 4790TIP3    H114327   2.104   3.657   2.708
 4790TIP3    H214328   2.168   3.791   2.679
 4791TIP3   OH214329   6.907   1.015   2.028
 4791TIP3    H114330   6.848   1.062   2.086
 4791TIP3    H214331   6.934   0.938   2.078
 4792TIP3   OH214332   6.384   2.533   6.231
 4792TIP3    H114333   6.322   2.464   6.208
 4792TIP3    H214334   6.353   2.567   6.315
 4793TIP3   OH214335   0.311   6.345   5.943
 4793TIP3    H114336   0.339   6.331   5.853
 4793TIP3    H214337   0.227   6.390   5.936
 4794TIP3   OH214338   0.697   6.618   1.230
 4794TIP3    H114339   0.616   6.605   1.279
 4794TIP3    H214340   0.710   6.535   1.183
 4795TIP3   OH214341   7.317   0.641   6.442
 4795TIP3    H114342   7.280   0.622   6.528
 4795TIP3    H214343   7.322   0.737   6.438
 4796TIP3   OH214344   7.673   4.689   3.392
 4796TIP3    H114345   7.662   4.751   3.464
 4796TIP3    H214346   7.595   4.633   3.396
 4797TIP3   OH214347   6.327   6.506   2.868
 4797TIP3    H114348   6.337   6.595   2.903
 4797TIP3    H214349   6.386   6.503   2.793
 4798TIP3   OH214350   2.485   1.965   2.567
 4798TIP3    H114351   2.470   1.927   2.480
 4798TIP3    H214352   2.424   2.038   2.572
 4799TIP3   OH214353   6.688   4.395   6.510
 4799TIP3    H114354   6.756   4.437   6.563
 4799TIP3    H214355   6.607   4.439   6.536
 4800TIP3   OH214356   0.912   0.501   2.148
 4800TIP3    H114357   0.881   0.499   2.239
 4800TIP3    H214358   0.886   0.416   2.113
 4801TIP3   OH214359   3.938   6.639   0.741
 4801TIP3    H114360   4.011   6.584   0.713
 4801TIP3    H214361   3.949   6.721   0.693
 4802TIP3   OH214362   3.667   3.678   3.181
 4802TIP3    H114363   3.652   3.632   3.264
 4802TIP3    H214364   3.731   3.624   3.135
 4803TIP3   OH214365   2.488   2.613   0.695
 4803TIP3    H114366   2.471   2.606   0.601
 4803TIP3    H214367   2.433   2.685   0.724
 4804TIP3   OH214368   3.526   4.754   2.867
 4804TIP3    H114369   3.551   4.819   2.932
 4804TIP3    H214370   3.589   4.683   2.878
 4805TIP3   OH214371   5.152   2.450   0.109
 4805TIP3    H114372   5.189   2.537   0.127
 4805TIP3    H214373   5.064   2.468   0.076
 4806TIP3   OH214374   0.956   4.208   5.590
 4806TIP3    H114375   1.001   4.149   5.529
 4806TIP3    H214376   0.932   4.152   5.664
 4807TIP3   OH214377   5.663   0.788   2.884
 4807TIP3    H114378   5.668   0.730   2.808
 4807TIP3    H214379   5.727   0.753   2.946
 4808TIP3   OH214380   5.360   0.601   4.062
 4808TIP3    H114381   5.339   0.589   3.970
 4808TIP3    H214382   5.399   0.688   4.067
 4809TIP3   OH214383   6.597   6.114   1.053
 4809TIP3    H114384   6.631   6.162   0.977
 4809TIP3    H214385   6.525   6.062   1.018
 4810TIP3   OH214386   0.916   3.899   6.686
 4810TIP3    H114387   0.930   3.980   6.637
 4810TIP3    H214388   1.003   3.872   6.714
 4811TIP3   OH214389   1.436   6.219   6.030
 4811TIP3    H114390   1.515   6.270   6.051
 4811TIP3    H214391   1.384   6.221   6.110
 4812TIP3   OH214392   5.539   2.610   3.702
 4812TIP3    H114393   5.461   2.553   3.706
 4812TIP3    H214394   5.536   2.649   3.615
 4813TIP3   OH214395   7.736   7.178   2.083
 4813TIP3    H114396   7.675   7.241   2.043
 4813TIP3    H214397   7.797   7.157   2.012
 4814TIP3   OH214398   6.234   6.341   3.053
 4814TIP3    H114399   6.282   6.406   3.002
 4814TIP3    H214400   6.237   6.374   3.142
 4815TIP3   OH214401   2.274   7.040  -0.002
 4815TIP3    H114402   2.329   6.965  -0.022
 4815TIP3    H214403   2.319   7.084   0.071
 4816TIP3   OH214404   3.672   0.388   1.302
 4816TIP3    H114405   3.682   0.334   1.224
 4816TIP3    H214406   3.684   0.326   1.375
 4817TIP3   OH214407   2.360   1.284   0.462
 4817TIP3    H114408   2.440   1.257   0.506
 4817TIP3    H214409   2.388   1.305   0.373
 4818TIP3   OH214410   1.346   1.839   1.623
 4818TIP3    H114411   1.267   1.785   1.631
 4818TIP3    H214412   1.399   1.796   1.556
 4819TIP3   OH214413   3.834   0.951   0.183
 4819TIP3    H114414   3.839   1.046   0.174
 4819TIP3    H214415   3.749   0.928   0.144
 4820TIP3   OH214416   6.833   7.349   1.352
 4820TIP3    H114417   6.882   7.270   1.329
 4820TIP3    H214418   6.837   7.352   1.448
 4821TIP3   OH214419   6.523   4.508   3.621
 4821TIP3    H114420   6.608   4.552   3.619
 4821TIP3    H214421   6.479   4.543   3.699
 4822TIP3   OH214422   5.746   3.142   0.927
 4822TIP3    H114423   5.760   3.057   0.969
 4822TIP3    H214424   5.806   3.142   0.853
 4823TIP3   OH214425   7.063   1.953   4.918
 4823TIP3    H114426   7.056   2.028   4.859
 4823TIP3    H214427   6.990   1.897   4.894
 4824TIP3   OH214428   1.492   5.784   0.946
 4824TIP3    H114429   1.431   5.846   0.986
 4824TIP3    H214430   1.488   5.707   1.002
 4825TIP3   OH214431   2.630   4.752   1.554
 4825TIP3    H114432   2.563   4.721   1.493
 4825TIP3    H214433   2.712   4.740   1.506
 4826TIP3   OH214434   5.012   7.162   3.430
 4826TIP3    H114435   4.962   7.177   3.509
 4826TIP3    H214436   4.974   7.083   3.392
 4827TIP3   OH214437   3.118   6.878   2.830
 4827TIP3    H114438   3.161   6.797   2.859
 4827TIP3    H214439   3.182   6.919   2.771
 4828TIP3   OH214440   0.583   3.254   3.647
 4828TIP3    H114441   0.628   3.253   3.562
 4828TIP3    H214442   0.634   3.194   3.701
 4829TIP3   OH214443   5.728   3.667   5.398
 4829TIP3    H114444   5.757   3.752   5.433
 4829TIP3    H214445   5.762   3.603   5.461
 4830TIP3   OH214446   7.378   7.268   4.095
 4830TIP3    H114447   7.356   7.178   4.070
 4830TIP3    H214448   7.386   7.266   4.190
 4831TIP3   OH214449   3.262   7.053   3.632
 4831TIP3    H114450   3.342   7.069   3.682
 4831TIP3    H214451   3.192   7.084   3.689
 4832TIP3   OH214452   4.878   3.385   5.763
 4832TIP3    H114453   4.820   3.460   5.747
 4832TIP3    H214454   4.870   3.368   5.857
 4833TIP3   OH214455   1.935   1.884   1.429
 4833TIP3    H114456   1.842   1.878   1.405
 4833TIP3    H214457   1.978   1.918   1.350
 4834TIP3   OH214458   6.627   6.859   2.756
 4834TIP3    H114459   6.606   6.946   2.790
 4834TIP3    H214460   6.712   6.870   2.714
 4835TIP3   OH214461   2.175   7.798   5.139
 4835TIP3    H114462   2.251   7.784   5.196
 4835TIP3    H214463   2.100   7.765   5.190
 4836TIP3   OH214464   6.986   0.159   0.299
 4836TIP3    H114465   7.037   0.231   0.336
 4836TIP3    H214466   7.045   0.117   0.237
 4837TIP3   OH214467   4.274   0.738   0.135
 4837TIP3    H114468   4.294   0.729   0.228
 4837TIP3    H214469   4.197   0.796   0.132
 4838TIP3   OH214470   6.159   3.216   4.389
 4838TIP3    H114471   6.130   3.127   4.410
 4838TIP3    H214472   6.197   3.208   4.302
 4839TIP3   OH214473   5.502   6.954   2.346
 4839TIP3    H114474   5.558   7.018   2.302
 4839TIP3    H214475   5.562   6.892   2.386
 4840TIP3   OH214476   5.618   0.429   3.279
 4840TIP3    H114477   5.663   0.437   3.195
 4840TIP3    H214478   5.615   0.518   3.313
 4841TIP3   OH214479   2.903   7.369   3.223
 4841TIP3    H114480   2.854   7.408   3.295
 4841TIP3    H214481   2.930   7.283   3.254
 4842TIP3   OH214482   4.661   3.744   2.154
 4842TIP3    H114483   4.576   3.779   2.130
 4842TIP3    H214484   4.641   3.670   2.212
 4843TIP3   OH214485   5.717   5.678   5.298
 4843TIP3    H114486   5.637   5.698   5.347
 4843TIP3    H214487   5.687   5.626   5.223
 4844TIP3   OH214488   4.344   1.912   4.571
 4844TIP3    H114489   4.410   1.843   4.579
 4844TIP3    H214490   4.386   1.978   4.515
 4845TIP3   OH214491   2.315   4.481   1.117
 4845TIP3    H114492   2.352   4.554   1.166
 4845TIP3    H214493   2.223   4.504   1.104
 4846TIP3   OH214494   6.677   4.485   3.989
 4846TIP3    H114495   6.636   4.496   4.075
 4846TIP3    H214496   6.660   4.393   3.966
 4847TIP3   OH214497   6.968   0.658   2.062
 4847TIP3    H114498   6.984   0.572   2.103
 4847TIP3    H214499   6.875   0.674   2.078
 4848TIP3   OH214500   8.083   7.160   5.361
 4848TIP3    H114501   8.166   7.207   5.363
 4848TIP3    H214502   8.088   7.099   5.435
 4849TIP3   OH214503   6.028   4.689   2.109
 4849TIP3    H114504   6.049   4.783   2.112
 4849TIP3    H214505   5.981   4.678   2.027
 4850TIP3   OH214506   0.644   7.432   5.396
 4850TIP3    H114507   0.612   7.416   5.307
 4850TIP3    H214508   0.691   7.352   5.420
 4851TIP3   OH214509   1.288   1.585   5.304
 4851TIP3    H114510   1.199   1.550   5.291
 4851TIP3    H214511   1.300   1.585   5.399
 4852TIP3   OH214512   1.961   2.009   3.745
 4852TIP3    H114513   1.886   2.067   3.737
 4852TIP3    H214514   1.937   1.947   3.814
 4853TIP3   OH214515   3.640   4.853   6.315
 4853TIP3    H114516   3.709   4.816   6.259
 4853TIP3    H214517   3.678   4.934   6.350
 4854TIP3   OH214518   5.773   7.557   2.835
 4854TIP3    H114519   5.868   7.565   2.837
 4854TIP3    H214520   5.741   7.642   2.865
 4855TIP3   OH214521   3.465   7.586   2.900
 4855TIP3    H114522   3.431   7.498   2.918
 4855TIP3    H214523   3.484   7.585   2.807
 4856TIP3   OH214524   0.322   7.841   2.833
 4856TIP3    H114525   0.380   7.766   2.838
 4856TIP3    H214526   0.289   7.852   2.923
 4857TIP3   OH214527   6.323   3.298   4.725
 4857TIP3    H114528   6.304   3.216   4.681
 4857TIP3    H214529   6.350   3.273   4.814
 4858TIP3   OH214530   6.972   4.999   6.602
 4858TIP3    H114531   6.896   5.003   6.659
 4858TIP3    H214532   7.047   5.011   6.660
 4859TIP3   OH214533   2.773   2.234   0.539
 4859TIP3    H114534   2.779   2.296   0.611
 4859TIP3    H214535   2.679   2.223   0.524
 4860TIP3   OH214536   3.136   4.081   1.794
 4860TIP3    H114537   3.055   4.050   1.833
 4860TIP3    H214538   3.168   4.149   1.853
 4861TIP3   OH214539   0.997   7.264   0.124
 4861TIP3    H114540   0.906   7.289   0.138
 4861TIP3    H214541   1.003   7.174   0.154
 4862TIP3   OH214542   1.797   2.493   4.971
 4862TIP3    H114543   1.859   2.542   4.918
 4862TIP3    H214544   1.740   2.559   5.010
 4863TIP3   OH214545   2.519   7.475   4.020
 4863TIP3    H114546   2.440   7.517   3.986
 4863TIP3    H214547   2.526   7.508   4.110
 4864TIP3   OH214548   5.000   3.883   2.451
 4864TIP3    H114549   5.064   3.867   2.382
 4864TIP3    H214550   5.002   3.804   2.505
 4865TIP3   OH214551   1.349   2.654   5.839
 4865TIP3    H114552   1.428   2.600   5.837
 4865TIP3    H214553   1.368   2.721   5.905
 4866TIP3   OH214554   2.330   1.465   6.666
 4866TIP3    H114555   2.414   1.426   6.693
 4866TIP3    H214556   2.313   1.532   6.732
 4867TIP3   OH214557   2.843   0.054   6.307
 4867TIP3    H114558   2.863   0.146   6.288
 4867TIP3    H214559   2.802   0.022   6.227
 4868TIP3   OH214560   4.115   4.010   4.391
 4868TIP3    H114561   4.042   3.963   4.351
 4868TIP3    H214562   4.188   3.947   4.389
 4869TIP3   OH214563   0.856   2.002   4.306
 4869TIP3    H114564   0.789   1.947   4.265
 4869TIP3    H214565   0.871   1.960   4.391
 4870TIP3   OH214566   5.999   0.746   4.453
 4870TIP3    H114567   6.027   0.835   4.430
 4870TIP3    H214568   5.967   0.755   4.543
 4871TIP3   OH214569   4.362   3.896   0.476
 4871TIP3    H114570   4.274   3.858   0.469
 4871TIP3    H214571   4.370   3.919   0.569
 4872TIP3   OH214572   6.522   7.537   0.765
 4872TIP3    H114573   6.576   7.490   0.703
 4872TIP3    H214574   6.451   7.476   0.788
 4873TIP3   OH214575   2.677   6.187   2.778
 4873TIP3    H114576   2.727   6.216   2.854
 4873TIP3    H214577   2.723   6.109   2.747
 4874TIP3   OH214578   8.070   1.767   6.352
 4874TIP3    H114579   8.148   1.710   6.352
 4874TIP3    H214580   8.064   1.800   6.263
 4875TIP3   OH214581   3.011   5.258   4.049
 4875TIP3    H114582   3.092   5.264   4.100
 4875TIP3    H214583   3.022   5.180   3.995
 4876TIP3   OH214584   6.336   4.928   3.645
 4876TIP3    H114585   6.290   4.973   3.716
 4876TIP3    H214586   6.426   4.960   3.650
 4877TIP3   OH214587   5.527   3.437   3.359
 4877TIP3    H114588   5.446   3.425   3.309
 4877TIP3    H214589   5.589   3.375   3.321
 4878TIP3   OH214590   0.211   1.903   0.656
 4878TIP3    H114591   0.221   1.845   0.581
 4878TIP3    H214592   0.117   1.913   0.667
 4879TIP3   OH214593   0.318   4.356   1.220
 4879TIP3    H114594   0.391   4.380   1.164
 4879TIP3    H214595   0.285   4.274   1.183
 4880TIP3   OH214596   4.429   4.282   0.383
 4880TIP3    H114597   4.363   4.337   0.424
 4880TIP3    H214598   4.472   4.236   0.456
 4881TIP3   OH214599   4.329   1.165   5.097
 4881TIP3    H114600   4.267   1.144   5.027
 4881TIP3    H214601   4.275   1.176   5.175
 4882TIP3   OH214602   4.386   6.439   0.846
 4882TIP3    H114603   4.404   6.530   0.870
 4882TIP3    H214604   4.470   6.406   0.813
 4883TIP3   OH214605   5.639   4.326   0.653
 4883TIP3    H114606   5.691   4.406   0.639
 4883TIP3    H214607   5.704   4.256   0.652
 4884TIP3   OH214608   7.161   3.851   2.986
 4884TIP3    H114609   7.231   3.833   3.048
 4884TIP3    H214610   7.161   3.775   2.927
 4885TIP3   OH214611   7.683   5.380   0.984
 4885TIP3    H114612   7.715   5.297   1.019
 4885TIP3    H214613   7.754   5.442   0.999
 4886TIP3   OH214614   5.672   5.471   2.635
 4886TIP3    H114615   5.594   5.463   2.581
 4886TIP3    H214616   5.659   5.409   2.706
 4887TIP3   OH214617   3.469   6.660   1.596
 4887TIP3    H114618   3.510   6.599   1.534
 4887TIP3    H214619   3.454   6.740   1.545
 4888TIP3   OH214620   8.179   0.681   2.661
 4888TIP3    H114621   8.240   0.708   2.731
 4888TIP3    H214622   8.121   0.618   2.703
 4889TIP3   OH214623   5.012   1.193   1.792
 4889TIP3    H114624   5.081   1.176   1.727
 4889TIP3    H214625   4.931   1.188   1.742
 4890TIP3   OH214626   4.521   0.692   1.891
 4890TIP3    H114627   4.480   0.768   1.932
 4890TIP3    H214628   4.463   0.619   1.914
 4891TIP3   OH214629   5.588   2.531   5.334
 4891TIP3    H114630   5.584   2.565   5.245
 4891TIP3    H214631   5.521   2.580   5.381
 4892TIP3   OH214632   2.245   6.229   3.583
 4892TIP3    H114633   2.215   6.138   3.591
 4892TIP3    H214634   2.271   6.254   3.671
 4893TIP3   OH214635   0.229   6.595   2.308
 4893TIP3    H114636   0.270   6.615   2.224
 4893TIP3    H214637   0.253   6.505   2.327
 4894TIP3   OH214638   2.537   5.052   0.932
 4894TIP3    H114639   2.618   5.050   0.982
 4894TIP3    H214640   2.483   5.118   0.976
 4895TIP3   OH214641   3.835   6.938   6.152
 4895TIP3    H114642   3.918   6.918   6.195
 4895TIP3    H214643   3.817   7.029   6.175
 4896TIP3   OH214644   0.802   6.490   2.463
 4896TIP3    H114645   0.854   6.515   2.540
 4896TIP3    H214646   0.861   6.504   2.389
 4897TIP3   OH214647   8.198   5.922   0.839
 4897TIP3    H114648   8.219   5.829   0.851
 4897TIP3    H214649   8.281   5.963   0.816
 4898TIP3   OH214650   4.914   0.113   0.949
 4898TIP3    H114651   4.925   0.082   1.039
 4898TIP3    H214652   4.823   0.143   0.945
 4899TIP3   OH214653   6.914   0.858   4.479
 4899TIP3    H114654   6.949   0.841   4.392
 4899TIP3    H214655   6.989   0.888   4.530
 4900TIP3   OH214656   8.017   3.474   1.260
 4900TIP3    H114657   8.015   3.437   1.171
 4900TIP3    H214658   8.079   3.419   1.307
 4901TIP3   OH214659   3.752   2.537   1.654
 4901TIP3    H114660   3.793   2.556   1.569
 4901TIP3    H214661   3.671   2.491   1.631
 4902TIP3   OH214662   2.169   5.696   1.375
 4902TIP3    H114663   2.252   5.708   1.328
 4902TIP3    H214664   2.121   5.778   1.360
 4903TIP3   OH214665   5.759   5.761   1.910
 4903TIP3    H114666   5.735   5.828   1.846
 4903TIP3    H214667   5.851   5.777   1.929
 4904TIP3   OH214668   2.695   5.721   3.911
 4904TIP3    H114669   2.788   5.742   3.909
 4904TIP3    H214670   2.661   5.755   3.829
 4905TIP3   OH214671   6.163   4.528   2.558
 4905TIP3    H114672   6.185   4.567   2.474
 4905TIP3    H214673   6.071   4.550   2.572
 4906TIP3   OH214674   3.715   3.677   0.323
 4906TIP3    H114675   3.695   3.585   0.337
 4906TIP3    H214676   3.655   3.705   0.255
 4907TIP3   OH214677   4.623   1.928   2.297
 4907TIP3    H114678   4.618   2.015   2.259
 4907TIP3    H214679   4.710   1.896   2.271
 4908TIP3   OH214680   4.100   6.598   3.712
 4908TIP3    H114681   4.117   6.663   3.643
 4908TIP3    H214682   4.182   6.550   3.721
 4909TIP3   OH214683   3.274   1.726   6.074
 4909TIP3    H114684   3.194   1.719   6.021
 4909TIP3    H214685   3.265   1.810   6.118
 4910TIP3   OH214686   1.860   3.529   3.915
 4910TIP3    H114687   1.862   3.625   3.924
 4910TIP3    H214688   1.937   3.499   3.963
 4911TIP3   OH214689   1.517   4.705   3.345
 4911TIP3    H114690   1.575   4.633   3.369
 4911TIP3    H214691   1.430   4.665   3.339
 4912TIP3   OH214692   7.011   2.003   3.050
 4912TIP3    H114693   6.981   2.010   2.959
 4912TIP3    H214694   7.104   2.024   3.047
 4913TIP3   OH214695   2.858   6.415   4.959
 4913TIP3    H114696   2.809   6.459   5.029
 4913TIP3    H214697   2.865   6.480   4.890
 4914TIP3   OH214698   7.494   2.828   2.437
 4914TIP3    H114699   7.493   2.820   2.533
 4914TIP3    H214700   7.576   2.786   2.411
 4915TIP3   OH214701   6.592   0.821   3.068
 4915TIP3    H114702   6.535   0.744   3.069
 4915TIP3    H214703   6.555   0.876   2.998
 4916TIP3   OH214704   4.677   5.449   2.020
 4916TIP3    H114705   4.650   5.394   1.946
 4916TIP3    H214706   4.597   5.462   2.071
 4917TIP3   OH214707   5.418   5.631   4.770
 4917TIP3    H114708   5.384   5.542   4.765
 4917TIP3    H214709   5.371   5.679   4.702
 4918TIP3   OH214710   6.324   5.796   1.183
 4918TIP3    H114711   6.308   5.824   1.093
 4918TIP3    H214712   6.411   5.755   1.181
 4919TIP3   OH214713   5.748   7.715   6.117
 4919TIP3    H114714   5.670   7.771   6.120
 4919TIP3    H214715   5.749   7.681   6.028
 4920TIP3   OH214716   3.171   1.103   0.379
 4920TIP3    H114717   3.099   1.154   0.344
 4920TIP3    H214718   3.169   1.021   0.329
 4921TIP3   OH214719   3.686   2.233   4.444
 4921TIP3    H114720   3.641   2.218   4.361
 4921TIP3    H214721   3.665   2.323   4.467
 4922TIP3   OH214722   7.870   3.668   5.898
 4922TIP3    H114723   7.840   3.750   5.938
 4922TIP3    H214724   7.812   3.655   5.823
 4923TIP3   OH214725   1.847   1.485   5.591
 4923TIP3    H114726   1.839   1.523   5.504
 4923TIP3    H214727   1.917   1.535   5.633
 4924TIP3   OH214728   0.515   6.629   5.743
 4924TIP3    H114729   0.471   6.593   5.666
 4924TIP3    H214730   0.534   6.553   5.797
 4925TIP3   OH214731   4.595   3.353   2.043
 4925TIP3    H114732   4.517   3.381   1.994
 4925TIP3    H214733   4.571   3.367   2.134
 4926TIP3   OH214734   4.881   7.321   0.460
 4926TIP3    H114735   4.874   7.387   0.392
 4926TIP3    H214736   4.818   7.253   0.434
 4927TIP3   OH214737   8.080   0.674   5.216
 4927TIP3    H114738   8.038   0.744   5.266
 4927TIP3    H214739   8.155   0.648   5.270
 4928TIP3   OH214740   0.882   5.075   2.988
 4928TIP3    H114741   0.958   5.033   3.028
 4928TIP3    H214742   0.880   5.163   3.027
 4929TIP3   OH214743   5.660   7.042   6.397
 4929TIP3    H114744   5.575   7.077   6.371
 4929TIP3    H214745   5.655   7.034   6.492
 4930TIP3   OH214746   5.434   5.842   4.359
 4930TIP3    H114747   5.439   5.896   4.438
 4930TIP3    H214748   5.505   5.873   4.303
 4931TIP3   OH214749   0.998   2.842   5.814
 4931TIP3    H114750   1.064   2.894   5.767
 4931TIP3    H214751   1.012   2.753   5.784
 4932TIP3   OH214752   0.968   6.411   2.217
 4932TIP3    H114753   0.964   6.490   2.163
 4932TIP3    H214754   1.061   6.389   2.220
 4933TIP3   OH214755   5.359   6.187   2.982
 4933TIP3    H114756   5.299   6.163   2.911
 4933TIP3    H214757   5.427   6.119   2.979
 4934TIP3   OH214758   1.088   5.613   6.430
 4934TIP3    H114759   1.038   5.531   6.431
 4934TIP3    H214760   1.127   5.618   6.517
 4935TIP3   OH214761   3.325   6.633   2.538
 4935TIP3    H114762   3.341   6.590   2.454
 4935TIP3    H214763   3.235   6.608   2.560
 4936TIP3   OH214764   2.620   4.629   1.209
 4936TIP3    H114765   2.540   4.666   1.245
 4936TIP3    H214766   2.673   4.608   1.286
 4937TIP3   OH214767   4.811   1.609   4.553
 4937TIP3    H114768   4.897   1.620   4.593
 4937TIP3    H214769   4.773   1.533   4.598
 4938TIP3   OH214770   4.122   6.533   1.331
 4938TIP3    H114771   4.204   6.556   1.374
 4938TIP3    H214772   4.145   6.462   1.271
 4939TIP3   OH214773   6.137   1.271   5.771
 4939TIP3    H114774   6.066   1.304   5.825
 4939TIP3    H214775   6.168   1.193   5.817
 4940TIP3   OH214776   0.780   6.014   1.176
 4940TIP3    H114777   0.731   6.034   1.097
 4940TIP3    H214778   0.811   5.924   1.163
 4941TIP3   OH214779   5.396   6.650   6.529
 4941TIP3    H114780   5.483   6.690   6.536
 4941TIP3    H214781   5.365   6.646   6.619
 4942TIP3   OH214782   1.659   1.912   5.822
 4942TIP3    H114783   1.647   1.824   5.856
 4942TIP3    H214784   1.621   1.910   5.734
 4943TIP3   OH214785   5.831   3.075   3.640
 4943TIP3    H114786   5.870   3.004   3.691
 4943TIP3    H214787   5.743   3.043   3.619
 4944TIP3   OH214788   4.718   5.538   0.284
 4944TIP3    H114789   4.661   5.559   0.210
 4944TIP3    H214790   4.672   5.467   0.330
 4945TIP3   OH214791   1.735   5.707   5.947
 4945TIP3    H114792   1.734   5.803   5.946
 4945TIP3    H214793   1.758   5.684   6.037
 4946TIP3   OH214794   7.568   6.329   5.467
 4946TIP3    H114795   7.566   6.359   5.558
 4946TIP3    H214796   7.583   6.234   5.474
 4947TIP3   OH214797   4.034   1.824   1.280
 4947TIP3    H114798   3.957   1.766   1.286
 4947TIP3    H214799   4.047   1.837   1.186
 4948TIP3   OH214800   7.033   0.736   1.015
 4948TIP3    H114801   7.030   0.822   0.973
 4948TIP3    H214802   7.052   0.676   0.944
 4949TIP3   OH214803   0.188   3.685   5.565
 4949TIP3    H114804   0.204   3.761   5.509
 4949TIP3    H214805   0.225   3.611   5.518
 4950TIP3   OH214806   6.108   4.496   2.814
 4950TIP3    H114807   6.164   4.506   2.737
 4950TIP3    H214808   6.158   4.534   2.885
 4951TIP3   OH214809   5.877   0.405   3.718
 4951TIP3    H114810   5.942   0.358   3.769
 4951TIP3    H214811   5.865   0.353   3.638
 4952TIP3   OH214812   3.801   7.529   0.947
 4952TIP3    H114813   3.828   7.582   0.872
 4952TIP3    H214814   3.875   7.532   1.007
 4953TIP3   OH214815   6.108   1.474   2.986
 4953TIP3    H114816   6.195   1.454   2.953
 4953TIP3    H214817   6.047   1.438   2.921
 4954TIP3   OH214818   5.179   3.173   3.938
 4954TIP3    H114819   5.263   3.188   3.896
 4954TIP3    H214820   5.125   3.132   3.871
 4955TIP3   OH214821   4.176   0.920   3.158
 4955TIP3    H114822   4.229   0.840   3.165
 4955TIP3    H214823   4.205   0.961   3.076
 4956TIP3   OH214824   6.114   5.815   0.812
 4956TIP3    H114825   6.054   5.884   0.785
 4956TIP3    H214826   6.082   5.788   0.898
 4957TIP3   OH214827   4.076   5.502   4.343
 4957TIP3    H114828   4.047   5.410   4.349
 4957TIP3    H214829   4.171   5.498   4.353
 4958TIP3   OH214830   7.941   5.167  -0.034
 4958TIP3    H114831   7.854   5.143  -0.003
 4958TIP3    H214832   7.999   5.156   0.042
 4959TIP3   OH214833   1.806   6.123   1.261
 4959TIP3    H114834   1.794   6.127   1.166
 4959TIP3    H214835   1.832   6.033   1.279
 4960TIP3   OH214836   4.072   0.050   5.588
 4960TIP3    H114837   4.062   0.007   5.673
 4960TIP3    H214838   4.122   0.130   5.607
 4961TIP3   OH214839   4.978   3.801   0.078
 4961TIP3    H114840   4.981   3.801   0.173
 4961TIP3    H214841   4.893   3.840   0.056
 4962TIP3   OH214842   6.104   4.161   6.345
 4962TIP3    H114843   6.063   4.096   6.289
 4962TIP3    H214844   6.047   4.167   6.422
 4963TIP3   OH214845   7.833   6.604   0.074
 4963TIP3    H114846   7.886   6.534   0.111
 4963TIP3    H214847   7.768   6.558   0.021
 4964TIP3   OH214848   0.588   1.021   5.384
 4964TIP3    H114849   0.666   0.966   5.381
 4964TIP3    H214850   0.522   0.972   5.336
 4965TIP3   OH214851   3.590   7.008   0.789
 4965TIP3    H114852   3.574   7.102   0.801
 4965TIP3    H214853   3.656   7.003   0.720
 4966TIP3   OH214854   3.397   2.471   2.365
 4966TIP3    H114855   3.486   2.505   2.374
 4966TIP3    H214856   3.392   2.438   2.275
 4967TIP3   OH214857   4.451   7.248   2.023
 4967TIP3    H114858   4.504   7.216   2.096
 4967TIP3    H214859   4.433   7.170   1.970
 4968TIP3   OH214860   2.016   6.291   1.015
 4968TIP3    H114861   2.071   6.352   0.966
 4968TIP3    H214862   1.953   6.346   1.060
 4969TIP3   OH214863   6.864   0.228   3.528
 4969TIP3    H114864   6.811   0.306   3.514
 4969TIP3    H214865   6.925   0.253   3.598
 4970TIP3   OH214866   5.261   2.676   3.532
 4970TIP3    H114867   5.194   2.628   3.483
 4970TIP3    H214868   5.256   2.640   3.621
 4971TIP3   OH214869   6.316   4.788   5.485
 4971TIP3    H114870   6.403   4.819   5.459
 4971TIP3    H214871   6.334   4.719   5.549
 4972TIP3   OH214872   0.669   3.122   3.429
 4972TIP3    H114873   0.607   3.178   3.382
 4972TIP3    H214874   0.716   3.075   3.360
 4973TIP3   OH214875   4.551   1.035   3.525
 4973TIP3    H114876   4.549   1.025   3.620
 4973TIP3    H214877   4.637   1.073   3.506
 4974TIP3   OH214878   3.477   5.149   1.515
 4974TIP3    H114879   3.494   5.066   1.558
 4974TIP3    H214880   3.450   5.125   1.426
 4975TIP3   OH214881   4.240   4.329   1.387
 4975TIP3    H114882   4.183   4.347   1.461
 4975TIP3    H214883   4.291   4.253   1.414
 4976TIP3   OH214884   1.397   1.323   2.802
 4976TIP3    H114885   1.471   1.270   2.833
 4976TIP3    H214886   1.329   1.311   2.869
 4977TIP3   OH214887   0.921   5.377   6.454
 4977TIP3    H114888   0.859   5.410   6.389
 4977TIP3    H214889   0.890   5.414   6.537
 4978TIP3   OH214890   6.667   7.038   5.460
 4978TIP3    H114891   6.679   7.091   5.381
 4978TIP3    H214892   6.658   7.102   5.531
 4979TIP3   OH214893   6.219   6.193   5.571
 4979TIP3    H114894   6.269   6.176   5.650
 4979TIP3    H214895   6.190   6.284   5.580
 4980TIP3   OH214896   2.836   0.086   4.900
 4980TIP3    H114897   2.918   0.066   4.854
 4980TIP3    H214898   2.820   0.010   4.955
 4981TIP3   OH214899   4.189   7.445   5.123
 4981TIP3    H114900   4.204   7.539   5.109
 4981TIP3    H214901   4.276   7.410   5.143
 4982TIP3   OH214902   2.774   2.154   6.743
 4982TIP3    H114903   2.834   2.113   6.806
 4982TIP3    H214904   2.822   2.152   6.660
 4983TIP3   OH214905   5.786   5.627   2.265
 4983TIP3    H114906   5.834   5.690   2.211
 4983TIP3    H214907   5.824   5.635   2.352
 4984TIP3   OH214908   8.277   1.894   2.118
 4984TIP3    H114909   8.238   1.977   2.094
 4984TIP3    H214910   8.256   1.882   2.211
 4985TIP3   OH214911   6.064   0.406   5.304
 4985TIP3    H114912   5.977   0.442   5.321
 4985TIP3    H214913   6.071   0.330   5.362
 4986TIP3   OH214914   0.066   3.563   2.970
 4986TIP3    H114915   0.108   3.571   3.056
 4986TIP3    H214916   0.139   3.544   2.911
 4987TIP3   OH214917   3.214   7.124   2.239
 4987TIP3    H114918   3.189   7.216   2.231
 4987TIP3    H214919   3.248   7.117   2.329
 4988TIP3   OH214920   0.981   3.707   1.802
 4988TIP3    H114921   0.887   3.702   1.815
 4988TIP3    H214922   1.000   3.801   1.805
 4989TIP3   OH214923   2.319   7.547   5.590
 4989TIP3    H114924   2.310   7.479   5.524
 4989TIP3    H214925   2.237   7.545   5.639
 4990TIP3   OH214926   0.035   5.563   3.685
 4990TIP3    H114927  -0.019   5.600   3.755
 4990TIP3    H214928   0.002   5.473   3.675
 4991TIP3   OH214929   7.745   4.134   5.384
 4991TIP3    H114930   7.809   4.097   5.445
 4991TIP3    H214931   7.732   4.224   5.415
 4992TIP3   OH214932   3.304   2.449   0.418
 4992TIP3    H114933   3.256   2.498   0.352
 4992TIP3    H214934   3.312   2.509   0.492
 4993TIP3   OH214935   6.883   0.244   1.840
 4993TIP3    H114936   6.920   0.323   1.800
 4993TIP3    H214937   6.940   0.173   1.811
 4994TIP3   OH214938   3.199   7.230   4.495
 4994TIP3    H114939   3.116   7.202   4.533
 4994TIP3    H214940   3.179   7.246   4.403
 4995TIP3   OH214941   4.250   2.294   3.018
 4995TIP3    H114942   4.202   2.244   2.952
 4995TIP3    H214943   4.294   2.363   2.969
 4996TIP3   OH214944   6.704   7.597   3.592
 4996TIP3    H114945   6.799   7.592   3.604
 4996TIP3    H214946   6.692   7.605   3.498
 4997TIP3   OH214947   2.305   4.989   1.467
 4997TIP3    H114948   2.255   4.985   1.549
 4997TIP3    H214949   2.259   5.055   1.415
 4998TIP3   OH214950   0.467   3.669   6.319
 4998TIP3    H114951   0.393   3.626   6.276
 4998TIP3    H214952   0.542   3.651   6.261
 4999TIP3   OH214953   3.861   1.389   6.240
 4999TIP3    H114954   3.901   1.302   6.230
 4999TIP3    H214955   3.768   1.371   6.251
 5000TIP3   OH214956   5.237   5.409   3.808
 5000TIP3    H114957   5.249   5.335   3.749
 5000TIP3    H214958   5.232   5.370   3.895
 5001TIP3   OH214959   6.729   1.281   4.025
 5001TIP3    H114960   6.711   1.216   4.092
 5001TIP3    H214961   6.816   1.259   3.991
 5002TIP3   OH214962   3.726   4.600   3.004
 5002TIP3    H114963   3.800   4.587   3.063
 5002TIP3    H214964   3.655   4.628   3.061
 5003TIP3   OH214965   1.859   1.668   2.682
 5003TIP3    H114966   1.854   1.743   2.741
 5003TIP3    H214967   1.770   1.632   2.681
 5004TIP3   OH214968   0.016   4.181   1.585
 5004TIP3    H114969   0.061   4.110   1.631
 5004TIP3    H214970  -0.035   4.137   1.517
 5005TIP3   OH214971   1.098   3.748   6.431
 5005TIP3    H114972   1.076   3.703   6.513
 5005TIP3    H214973   1.108   3.840   6.456
 5006TIP3   OH214974   3.937   4.536   5.057
 5006TIP3    H114975   4.004   4.481   5.016
 5006TIP3    H214976   3.863   4.477   5.073
 5007TIP3   OH214977   5.936   0.304   6.242
 5007TIP3    H114978   6.000   0.283   6.173
 5007TIP3    H214979   5.857   0.328   6.194
 5008TIP3   OH214980   2.063   7.380   0.880
 5008TIP3    H114981   2.000   7.405   0.947
 5008TIP3    H214982   2.143   7.429   0.903
 5009TIP3   OH214983   0.425   6.774   6.631
 5009TIP3    H114984   0.466   6.848   6.587
 5009TIP3    H214985   0.430   6.796   6.724
 5010TIP3   OH214986   0.565   1.696   2.903
 5010TIP3    H114987   0.528   1.608   2.906
 5010TIP3    H214988   0.500   1.748   2.855
 5011TIP3   OH214989   5.911   5.223   6.585
 5011TIP3    H114990   5.972   5.185   6.522
 5011TIP3    H214991   5.836   5.250   6.532
 5012TIP3   OH214992   1.378   3.353   1.596
 5012TIP3    H114993   1.423   3.403   1.527
 5012TIP3    H214994   1.445   3.339   1.663
 5013TIP3   OH214995   1.026   3.166   4.703
 5013TIP3    H114996   0.996   3.113   4.630
 5013TIP3    H214997   0.972   3.138   4.777
 5014TIP3   OH214998   2.469   2.403   2.891
 5014TIP3    H114999   2.426   2.395   2.976
 5014TIP3    H215000   2.507   2.491   2.890
 5015TIP3   OH215001   4.573   6.370   2.122
 5015TIP3    H115002   4.519   6.419   2.059
 5015TIP3    H215003   4.588   6.431   2.194
 5016TIP3   OH215004   1.672   1.364   2.002
 5016TIP3    H115005   1.646   1.454   1.981
 5016TIP3    H215006   1.754   1.374   2.051
 5017TIP3   OH215007   1.216   2.663   1.334
 5017TIP3    H115008   1.224   2.619   1.419
 5017TIP3    H215009   1.138   2.718   1.343
 5018TIP3   OH215010   4.196   2.996   6.329
 5018TIP3    H115011   4.166   2.905   6.329
 5018TIP3    H215012   4.279   2.994   6.281
 5019TIP3   OH215013   0.345   2.829   4.494
 5019TIP3    H115014   0.268   2.802   4.543
 5019TIP3    H215015   0.348   2.769   4.419
 5020TIP3   OH215016   3.288   1.255   5.571
 5020TIP3    H115017   3.267   1.175   5.522
 5020TIP3    H215018   3.217   1.264   5.634
 5021TIP3   OH215019   6.754   5.149   4.765
 5021TIP3    H115020   6.681   5.148   4.703
 5021TIP3    H215021   6.782   5.057   4.770
 5022TIP3   OH215022   0.847   0.026   4.295
 5022TIP3    H115023   0.847   0.050   4.202
 5022TIP3    H215024   0.755   0.032   4.321
 5023TIP3   OH215025   2.830   3.557   5.108
 5023TIP3    H115026   2.797   3.624   5.048
 5023TIP3    H215027   2.759   3.494   5.115
 5024TIP3   OH215028   2.414   2.984   5.188
 5024TIP3    H115029   2.494   2.931   5.188
 5024TIP3    H215030   2.344   2.921   5.205
 5025TIP3   OH215031   0.988   3.068   3.850
 5025TIP3    H115032   1.038   2.992   3.879
 5025TIP3    H215033   0.996   3.131   3.921
 5026TIP3   OH215034   5.178   5.483   5.238
 5026TIP3    H115035   5.229   5.408   5.208
 5026TIP3    H215036   5.181   5.477   5.334
 5027TIP3   OH215037   4.853   0.498   4.863
 5027TIP3    H115038   4.772   0.491   4.813
 5027TIP3    H215039   4.844   0.579   4.913
 5028TIP3   OH215040   2.351   2.435   3.436
 5028TIP3    H115041   2.298   2.464   3.510
 5028TIP3    H215042   2.433   2.405   3.476
 5029TIP3   OH215043   6.472   6.165   1.331
 5029TIP3    H115044   6.436   6.253   1.324
 5029TIP3    H215045   6.524   6.153   1.251
 5030TIP3   OH215046   7.452   4.883   6.217
 5030TIP3    H115047   7.497   4.803   6.190
 5030TIP3    H215048   7.359   4.857   6.221
 5031TIP3   OH215049   2.439   0.972   2.702
 5031TIP3    H115050   2.508   0.932   2.755
 5031TIP3    H215051   2.476   0.973   2.613
 5032TIP3   OH215052   5.499   1.265   1.736
 5032TIP3    H115053   5.489   1.323   1.811
 5032TIP3    H215054   5.421   1.209   1.737
 5033TIP3   OH215055   7.388   0.989   5.779
 5033TIP3    H115056   7.342   0.905   5.773
 5033TIP3    H215057   7.343   1.046   5.717
 5034TIP3   OH215058   0.449   3.825   4.135
 5034TIP3    H115059   0.444   3.876   4.216
 5034TIP3    H215060   0.462   3.735   4.165
 5035TIP3   OH215061   7.423   6.918   2.371
 5035TIP3    H115062   7.408   6.895   2.280
 5035TIP3    H215063   7.379   7.003   2.382
 5036TIP3   OH215064   1.886   3.293   2.967
 5036TIP3    H115065   1.973   3.304   2.926
 5036TIP3    H215066   1.834   3.365   2.932
 5037TIP3   OH215067   7.002   6.309   3.402
 5037TIP3    H115068   7.039   6.373   3.340
 5037TIP3    H215069   7.071   6.295   3.466
 5038TIP3   OH215070   3.663   0.953   3.482
 5038TIP3    H115071   3.690   0.973   3.572
 5038TIP3    H215072   3.627   0.864   3.487
 5039TIP3   OH215073   3.270   5.812   6.687
 5039TIP3    H115074   3.243   5.824   6.596
 5039TIP3    H215075   3.189   5.791   6.734
 5040TIP3   OH215076   5.236   7.217   0.230
 5040TIP3    H115077   5.309   7.192   0.287
 5040TIP3    H215078   5.205   7.300   0.265
 5041TIP3   OH215079   0.667   0.901   3.815
 5041TIP3    H115080   0.594   0.962   3.820
 5041TIP3    H215081   0.709   0.920   3.730
 5042TIP3   OH215082   7.157   4.749   3.259
 5042TIP3    H115083   7.211   4.740   3.180
 5042TIP3    H215084   7.181   4.834   3.296
 5043TIP3   OH215085   0.866   1.810   5.168
 5043TIP3    H115086   0.838   1.811   5.077
 5043TIP3    H215087   0.785   1.816   5.219
 5044TIP3   OH215088   5.739   0.858   1.337
 5044TIP3    H115089   5.692   0.921   1.392
 5044TIP3    H215090   5.806   0.910   1.293
 5045TIP3   OH215091   6.431   5.156   3.511
 5045TIP3    H115092   6.344   5.117   3.517
 5045TIP3    H215093   6.431   5.199   3.425
 5046TIP3   OH215094   3.045   6.406   0.372
 5046TIP3    H115095   3.084   6.485   0.337
 5046TIP3    H215096   3.021   6.428   0.462
 5047TIP3   OH215097   8.181   3.124   0.746
 5047TIP3    H115098   8.194   3.168   0.662
 5047TIP3    H215099   8.260   3.072   0.758
 5048TIP3   OH215100   4.348   1.011   2.527
 5048TIP3    H115101   4.426   0.986   2.477
 5048TIP3    H215102   4.305   1.076   2.472
 5049TIP3   OH215103   7.675   0.576   0.179
 5049TIP3    H115104   7.614   0.527   0.234
 5049TIP3    H215105   7.644   0.667   0.184
 5050TIP3   OH215106   5.865   1.529   0.701
 5050TIP3    H115107   5.933   1.596   0.708
 5050TIP3    H215108   5.884   1.469   0.773
 5051TIP3   OH215109   3.725   6.144   5.863
 5051TIP3    H115110   3.797   6.085   5.884
 5051TIP3    H215111   3.647   6.100   5.897
 5052TIP3   OH215112   6.732   5.903   1.168
 5052TIP3    H115113   6.678   5.961   1.115
 5052TIP3    H215114   6.810   5.955   1.188
 5053TIP3   OH215115   0.263   0.765   4.381
 5053TIP3    H115116   0.340   0.804   4.423
 5053TIP3    H215117   0.273   0.671   4.396
 5054TIP3   OH215118   1.243   4.364   1.189
 5054TIP3    H115119   1.333   4.342   1.213
 5054TIP3    H215120   1.227   4.448   1.232
 5055TIP3   OH215121   0.498   6.129   4.594
 5055TIP3    H115122   0.513   6.175   4.511
 5055TIP3    H215123   0.403   6.127   4.603
 5056TIP3   OH215124   0.764   0.734   0.422
 5056TIP3    H115125   0.825   0.739   0.496
 5056TIP3    H215126   0.712   0.814   0.430
 5057TIP3   OH215127   0.937   5.221   3.917
 5057TIP3    H115128   0.851   5.212   3.959
 5057TIP3    H215129   0.966   5.309   3.941
 5058TIP3   OH215130   1.872   5.692   6.464
 5058TIP3    H115131   1.897   5.765   6.521
 5058TIP3    H215132   1.778   5.681   6.478
 5059TIP3   OH215133   0.204   3.822   3.988
 5059TIP3    H115134   0.292   3.858   3.997
 5059TIP3    H215135   0.151   3.896   3.958
 5060TIP3   OH215136   0.889   2.623   1.427
 5060TIP3    H115137   0.804   2.649   1.463
 5060TIP3    H215138   0.921   2.702   1.383
 5061TIP3   OH215139   3.394   4.241   4.657
 5061TIP3    H115140   3.406   4.181   4.584
 5061TIP3    H215141   3.339   4.193   4.719
 5062TIP3   OH215142   4.620   7.195   3.849
 5062TIP3    H115143   4.623   7.277   3.899
 5062TIP3    H215144   4.704   7.154   3.865
 5063TIP3   OH215145   2.538   4.495   5.465
 5063TIP3    H115146   2.500   4.572   5.422
 5063TIP3    H215147   2.618   4.528   5.506
 5064TIP3   OH215148   3.023   4.196   3.825
 5064TIP3    H115149   2.949   4.199   3.765
 5064TIP3    H215150   3.015   4.112   3.869
 5065TIP3   OH215151   4.955   5.437   2.072
 5065TIP3    H115152   4.861   5.441   2.056
 5065TIP3    H215153   4.964   5.414   2.164
 5066TIP3   OH215154   2.314   3.543   6.549
 5066TIP3    H115155   2.298   3.595   6.470
 5066TIP3    H215156   2.355   3.605   6.610
 5067TIP3   OH215157   2.904   5.060   6.793
 5067TIP3    H115158   2.895   5.077   6.699
 5067TIP3    H215159   2.987   5.013   6.801
 5068TIP3   OH215160   0.067   4.795   3.084
 5068TIP3    H115161   0.032   4.742   3.155
 5068TIP3    H215162   0.024   4.880   3.094
 5069TIP3   OH215163   0.151   7.201   2.025
 5069TIP3    H115164   0.110   7.124   2.065
 5069TIP3    H215165   0.135   7.190   1.931
 5070TIP3   OH215166   7.286   3.384   4.415
 5070TIP3    H115167   7.231   3.351   4.343
 5070TIP3    H215168   7.317   3.469   4.384
 5071TIP3   OH215169   2.506   2.249   0.406
 5071TIP3    H115170   2.530   2.245   0.313
 5071TIP3    H215171   2.452   2.172   0.420
 5072TIP3   OH215172   6.514   7.746   5.548
 5072TIP3    H115173   6.577   7.742   5.475
 5072TIP3    H215174   6.465   7.826   5.533
 5073TIP3   OH215175   0.419   0.618   4.672
 5073TIP3    H115176   0.505   0.579   4.661
 5073TIP3    H215177   0.408   0.625   4.767
 5074TIP3   OH215178   3.817   0.469   6.613
 5074TIP3    H115179   3.910   0.471   6.636
 5074TIP3    H215180   3.775   0.527   6.676
 5075TIP3   OH215181   8.290   2.110   6.755
 5075TIP3    H115182   8.241   2.176   6.804
 5075TIP3    H215183   8.223   2.050   6.722
 5076TIP3   OH215184   6.681   1.027   1.833
 5076TIP3    H115185   6.706   0.993   1.747
 5076TIP3    H215186   6.755   1.006   1.890
 5077TIP3   OH215187   2.225   0.876   1.136
 5077TIP3    H115188   2.236   0.932   1.213
 5077TIP3    H215189   2.191   0.794   1.170
 5078TIP3   OH215190   3.990   4.449   5.984
 5078TIP3    H115191   3.945   4.532   5.970
 5078TIP3    H215192   3.938   4.385   5.936
 5079TIP3   OH215193   1.574   2.946   3.741
 5079TIP3    H115194   1.533   2.997   3.811
 5079TIP3    H215195   1.517   2.870   3.731
 5080TIP3   OH215196   0.984   4.005   0.928
 5080TIP3    H115197   1.067   4.055   0.928
 5080TIP3    H215198   0.985   3.957   1.010
 5081TIP3   OH215199   0.808   5.091   5.228
 5081TIP3    H115200   0.810   5.028   5.157
 5081TIP3    H215201   0.786   5.040   5.306
 5082TIP3   OH215202   2.542   7.582   3.663
 5082TIP3    H115203   2.541   7.556   3.755
 5082TIP3    H215204   2.524   7.676   3.664
 5083TIP3   OH215205   6.938   4.194   6.249
 5083TIP3    H115206   6.970   4.110   6.282
 5083TIP3    H215207   6.959   4.257   6.317
 5084TIP3   OH215208   5.556   5.562   5.817
 5084TIP3    H115209   5.618   5.520   5.757
 5084TIP3    H215210   5.570   5.656   5.805
 5085TIP3   OH215211   2.514   4.264   0.100
 5085TIP3    H115212   2.492   4.338   0.157
 5085TIP3    H215213   2.561   4.304   0.027
 5086TIP3   OH215214   4.292   0.917   0.930
 5086TIP3    H115215   4.357   0.988   0.925
 5086TIP3    H215216   4.287   0.896   1.023
 5087TIP3   OH215217   4.891   7.150   2.094
 5087TIP3    H115218   4.973   7.127   2.136
 5087TIP3    H215219   4.914   7.220   2.033
 5088TIP3   OH215220   7.325   6.363   6.629
 5088TIP3    H115221   7.260   6.356   6.559
 5088TIP3    H215222   7.409   6.369   6.583
 5089TIP3   OH215223   1.324   6.501   4.911
 5089TIP3    H115224   1.368   6.455   4.840
 5089TIP3    H215225   1.239   6.458   4.919
 5090TIP3   OH215226   5.710   4.893   6.619
 5090TIP3    H115227   5.788   4.870   6.669
 5090TIP3    H215228   5.649   4.928   6.684
 5091TIP3   OH215229   1.579   4.003   5.433
 5091TIP3    H115230   1.661   3.985   5.387
 5091TIP3    H215231   1.590   3.965   5.519
 5092TIP3   OH215232   5.748   3.247   4.384
 5092TIP3    H115233   5.736   3.222   4.476
 5092TIP3    H215234   5.681   3.313   4.368
 5093TIP3   OH215235   5.253   2.570   5.184
 5093TIP3    H115236   5.258   2.583   5.089
 5093TIP3    H215237   5.336   2.606   5.217
 5094TIP3   OH215238   2.650   6.219   3.848
 5094TIP3    H115239   2.625   6.247   3.936
 5094TIP3    H215240   2.596   6.143   3.830
 5095TIP3   OH215241   0.939   2.820   4.213
 5095TIP3    H115242   0.924   2.772   4.131
 5095TIP3    H215243   1.011   2.774   4.255
 5096TIP3   OH215244   0.444   1.618   1.827
 5096TIP3    H115245   0.492   1.632   1.909
 5096TIP3    H215246   0.441   1.523   1.817
 5097TIP3   OH215247   5.360   4.234   2.597
 5097TIP3    H115248   5.270   4.260   2.613
 5097TIP3    H215249   5.360   4.139   2.610
 5098TIP3   OH215250   0.096   7.633   2.553
 5098TIP3    H115251   0.043   7.554   2.552
 5098TIP3    H215252   0.186   7.603   2.537
 5099TIP3   OH215253   2.318  -0.016   2.326
 5099TIP3    H115254   2.291  -0.001   2.235
 5099TIP3    H215255   2.266   0.046   2.377
 5100TIP3   OH215256   7.501   5.264   6.181
 5100TIP3    H115257   7.456   5.232   6.103
 5100TIP3    H215258   7.430   5.298   6.236
 5101TIP3   OH215259   1.399   6.459   0.879
 5101TIP3    H115260   1.344   6.537   0.871
 5101TIP3    H215261   1.338   6.386   0.885
 5102TIP3   OH215262   0.823   6.385   1.406
 5102TIP3    H115263   0.728   6.395   1.404
 5102TIP3    H215264   0.855   6.459   1.457
 5103TIP3   OH215265   3.479   6.474   0.717
 5103TIP3    H115266   3.438   6.390   0.696
 5103TIP3    H215267   3.408   6.526   0.755
 5104TIP3   OH215268   8.234   1.886   5.814
 5104TIP3    H115269   8.210   1.977   5.831
 5104TIP3    H215270   8.329   1.888   5.801
 5105TIP3   OH215271   5.500   2.079   4.642
 5105TIP3    H115272   5.449   2.019   4.588
 5105TIP3    H215273   5.505   2.160   4.591
 5106TIP3   OH215274   6.567   2.095   5.799
 5106TIP3    H115275   6.575   2.142   5.716
 5106TIP3    H215276   6.597   2.158   5.865
 5107TIP3   OH215277   1.213   2.117   4.764
 5107TIP3    H115278   1.210   2.046   4.828
 5107TIP3    H215279   1.252   2.077   4.686
 5108TIP3   OH215280   6.752   2.178   2.410
 5108TIP3    H115281   6.688   2.240   2.444
 5108TIP3    H215282   6.831   2.193   2.462
 5109TIP3   OH215283   3.942   1.704   4.375
 5109TIP3    H115284   4.022   1.746   4.345
 5109TIP3    H215285   3.922   1.638   4.309
 5110TIP3   OH215286   5.572   2.571   6.319
 5110TIP3    H115287   5.500   2.630   6.340
 5110TIP3    H215288   5.573   2.507   6.390
 5111TIP3   OH215289   0.944   1.876   1.587
 5111TIP3    H115290   0.938   1.793   1.540
 5111TIP3    H215291   0.949   1.942   1.518
 5112TIP3   OH215292   4.899   1.035   5.944
 5112TIP3    H115293   4.821   1.077   5.905
 5112TIP3    H215294   4.875   1.023   6.036
 5113TIP3   OH215295   1.281   1.699   2.018
 5113TIP3    H115296   1.362   1.652   2.041
 5113TIP3    H215297   1.310   1.786   1.993
 5114TIP3   OH215298   3.760   2.868   5.073
 5114TIP3    H115299   3.841   2.914   5.051
 5114TIP3    H215300   3.692   2.936   5.071
 5115TIP3   OH215301   1.977   7.690   2.106
 5115TIP3    H115302   2.014   7.774   2.079
 5115TIP3    H215303   2.035   7.660   2.176
 5116TIP3   OH215304   2.656   6.362   0.915
 5116TIP3    H115305   2.656   6.447   0.959
 5116TIP3    H215306   2.564   6.339   0.907
 5117TIP3   OH215307   4.864   6.344   3.532
 5117TIP3    H115308   4.786   6.304   3.571
 5117TIP3    H215309   4.931   6.276   3.538
 5118TIP3   OH215310   4.832   4.780   4.302
 5118TIP3    H115311   4.802   4.866   4.274
 5118TIP3    H215312   4.926   4.779   4.282
 5119TIP3   OH215313   7.228   6.227   0.893
 5119TIP3    H115314   7.317   6.191   0.900
 5119TIP3    H215315   7.209   6.260   0.981
 5120TIP3   OH215316   2.841   5.436   2.583
 5120TIP3    H115317   2.831   5.368   2.651
 5120TIP3    H215318   2.820   5.518   2.628
 5121TIP3   OH215319   3.951   3.466   2.447
 5121TIP3    H115320   3.856   3.472   2.452
 5121TIP3    H215321   3.968   3.374   2.426
 5122TIP3   OH215322   0.334   3.090   2.821
 5122TIP3    H115323   0.377   3.041   2.891
 5122TIP3    H215324   0.345   3.034   2.744
 5123TIP3   OH215325   8.195   2.318   5.147
 5123TIP3    H115326   8.135   2.362   5.087
 5123TIP3    H215327   8.278   2.315   5.100
 5124TIP3   OH215328   3.275   6.558   4.752
 5124TIP3    H115329   3.354   6.525   4.709
 5124TIP3    H215330   3.207   6.553   4.684
 5125TIP3   OH215331   0.715   0.654   3.426
 5125TIP3    H115332   0.808   0.657   3.448
 5125TIP3    H215333   0.684   0.572   3.464
 5126TIP3   OH215334   4.680   6.091   3.729
 5126TIP3    H115335   4.609   6.081   3.666
 5126TIP3    H215336   4.730   6.010   3.722
 5127TIP3   OH215337   3.334   2.213   6.325
 5127TIP3    H115338   3.328   2.164   6.407
 5127TIP3    H215339   3.425   2.204   6.298
 5128TIP3   OH215340   3.993   6.445   2.419
 5128TIP3    H115341   3.970   6.352   2.425
 5128TIP3    H215342   4.088   6.445   2.408
 5129TIP3   OH215343   4.775   7.350   6.377
 5129TIP3    H115344   4.700   7.299   6.345
 5129TIP3    H215345   4.737   7.410   6.441
 5130TIP3   OH215346   1.640   4.327   4.116
 5130TIP3    H115347   1.729   4.360   4.105
 5130TIP3    H215348   1.585   4.405   4.110
 5131TIP3   OH215349   5.717   3.639   1.214
 5131TIP3    H115350   5.645   3.621   1.275
 5131TIP3    H215351   5.691   3.595   1.133
 5132TIP3   OH215352   6.085   3.480   5.493
 5132TIP3    H115353   6.065   3.438   5.409
 5132TIP3    H215354   6.164   3.532   5.476
 5133TIP3   OH215355   5.126   5.764   5.466
 5133TIP3    H115356   5.091   5.790   5.552
 5133TIP3    H215357   5.214   5.731   5.485
 5134TIP3   OH215358   3.801   3.231   0.592
 5134TIP3    H115359   3.894   3.224   0.616
 5134TIP3    H215360   3.756   3.246   0.675
 5135TIP3   OH215361   5.454   3.376   5.117
 5135TIP3    H115362   5.371   3.398   5.159
 5135TIP3    H215363   5.511   3.451   5.137
 5136TIP3   OH215364   0.880   0.691   4.285
 5136TIP3    H115365   0.971   0.699   4.312
 5136TIP3    H215366   0.872   0.749   4.210
 5137TIP3   OH215367   2.154   5.362   6.507
 5137TIP3    H115368   2.151   5.454   6.480
 5137TIP3    H215369   2.205   5.319   6.438
 5138TIP3   OH215370   5.832   5.628   3.534
 5138TIP3    H115371   5.919   5.630   3.493
 5138TIP3    H215372   5.794   5.714   3.513
 5139TIP3   OH215373   6.738   3.061   1.627
 5139TIP3    H115374   6.738   3.154   1.607
 5139TIP3    H215375   6.693   3.020   1.552
 5140TIP3   OH215376   5.380   4.799   3.329
 5140TIP3    H115377   5.305   4.832   3.379
 5140TIP3    H215378   5.418   4.877   3.289
 5141TIP3   OH215379   6.629   3.061   6.524
 5141TIP3    H115380   6.678   2.984   6.555
 5141TIP3    H215381   6.547   3.058   6.572
 5142TIP3   OH215382   4.287   6.046   1.991
 5142TIP3    H115383   4.247   5.961   2.009
 5142TIP3    H215384   4.222   6.094   1.940
 5143TIP3   OH215385   5.136   1.741   1.387
 5143TIP3    H115386   5.137   1.832   1.357
 5143TIP3    H215387   5.133   1.747   1.482
 5144TIP3   OH215388   5.755   3.458   6.686
 5144TIP3    H115389   5.686   3.507   6.732
 5144TIP3    H215390   5.837   3.492   6.724
 5145TIP3   OH215391   5.594   2.361   3.005
 5145TIP3    H115392   5.502   2.387   2.997
 5145TIP3    H215393   5.614   2.374   3.098
 5146TIP3   OH215394   3.785   0.707   0.362
 5146TIP3    H115395   3.808   0.787   0.316
 5146TIP3    H215396   3.868   0.662   0.375
 5147TIP3   OH215397   4.448   0.956   0.611
 5147TIP3    H115398   4.396   0.892   0.659
 5147TIP3    H215399   4.503   0.997   0.678
 5148TIP3   OH215400   0.606   2.939   0.704
 5148TIP3    H115401   0.600   2.863   0.763
 5148TIP3    H215402   0.576   2.905   0.620
 5149TIP3   OH215403   6.526   3.568   2.117
 5149TIP3    H115404   6.563   3.611   2.194
 5149TIP3    H215405   6.467   3.502   2.153
 5150TIP3   OH215406   5.059   7.134   4.472
 5150TIP3    H115407   5.104   7.052   4.451
 5150TIP3    H215408   5.014   7.158   4.391
 5151TIP3   OH215409   6.923   1.520   2.044
 5151TIP3    H115410   6.958   1.443   1.998
 5151TIP3    H215411   6.989   1.540   2.111
 5152TIP3   OH215412   7.664   5.707   3.063
 5152TIP3    H115413   7.614   5.640   3.109
 5152TIP3    H215414   7.709   5.659   2.993
 5153TIP3   OH215415   2.800   7.284   5.756
 5153TIP3    H115416   2.822   7.217   5.692
 5153TIP3    H215417   2.719   7.322   5.725
 5154TIP3   OH215418   2.388   0.516   1.907
 5154TIP3    H115419   2.388   0.431   1.950
 5154TIP3    H215420   2.346   0.500   1.822
 5155TIP3   OH215421   1.602   6.636   5.037
 5155TIP3    H115422   1.671   6.570   5.036
 5155TIP3    H215423   1.586   6.654   4.944
 5156TIP3   OH215424   8.145   7.206   4.472
 5156TIP3    H115425   8.199   7.168   4.541
 5156TIP3    H215426   8.055   7.193   4.502
 5157TIP3   OH215427   7.708   5.857   2.316
 5157TIP3    H115428   7.734   5.788   2.256
 5157TIP3    H215429   7.684   5.810   2.396
 5158TIP3   OH215430   1.246   6.643   3.887
 5158TIP3    H115431   1.191   6.598   3.823
 5158TIP3    H215432   1.188   6.705   3.931
 5159TIP3   OH215433   0.453   0.510   3.885
 5159TIP3    H115434   0.509   0.556   3.947
 5159TIP3    H215435   0.484   0.538   3.799
 5160TIP3   OH215436   0.312   0.845   1.478
 5160TIP3    H115437   0.398   0.839   1.435
 5160TIP3    H215438   0.251   0.868   1.408
 5161TIP3   OH215439   0.604   5.401   2.593
 5161TIP3    H115440   0.570   5.442   2.514
 5161TIP3    H215441   0.528   5.396   2.651
 5162TIP3   OH215442   1.415   2.844   6.027
 5162TIP3    H115443   1.356   2.916   6.005
 5162TIP3    H215444   1.465   2.877   6.102
 5163TIP3   OH215445   2.669   7.472   2.603
 5163TIP3    H115446   2.694   7.420   2.679
 5163TIP3    H215447   2.752   7.504   2.568
 5164TIP3   OH215448   3.288   6.276   2.340
 5164TIP3    H115449   3.306   6.183   2.329
 5164TIP3    H215450   3.302   6.292   2.433
 5165TIP3   OH215451   2.052   0.704   6.420
 5165TIP3    H115452   2.062   0.798   6.403
 5165TIP3    H215453   1.985   0.675   6.359
 5166TIP3   OH215454   2.833   0.957   1.546
 5166TIP3    H115455   2.846   1.003   1.463
 5166TIP3    H215456   2.811   0.867   1.520
 5167TIP3   OH215457   4.971   0.065   0.553
 5167TIP3    H115458   4.912  -0.004   0.523
 5167TIP3    H215459   4.961   0.135   0.489
 5168TIP3   OH215460   7.626   7.032   4.106
 5168TIP3    H115461   7.718   7.006   4.098
 5168TIP3    H215462   7.587   6.966   4.164
 5169TIP3   OH215463   4.045   0.328   1.339
 5169TIP3    H115464   3.996   0.264   1.287
 5169TIP3    H215465   4.082   0.277   1.411
 5170TIP3   OH215466   4.875   5.428   6.066
 5170TIP3    H115467   4.943   5.495   6.080
 5170TIP3    H215468   4.884   5.369   6.141
 5171TIP3   OH215469   6.187   4.711   3.607
 5171TIP3    H115470   6.238   4.792   3.607
 5171TIP3    H215471   6.211   4.669   3.524
 5172TIP3   OH215472   8.180   6.460   3.405
 5172TIP3    H115473   8.146   6.540   3.366
 5172TIP3    H215474   8.190   6.481   3.498
 5173TIP3   OH215475   6.090   0.188   4.205
 5173TIP3    H115476   6.086   0.179   4.301
 5173TIP3    H215477   6.175   0.150   4.182
 5174TIP3   OH215478   3.740   6.167   3.773
 5174TIP3    H115479   3.689   6.138   3.849
 5174TIP3    H215480   3.731   6.262   3.773
 5175TIP3   OH215481   3.088   5.377   2.872
 5175TIP3    H115482   3.160   5.363   2.933
 5175TIP3    H215483   3.025   5.307   2.892
 5176TIP3   OH215484   6.554   0.273   4.948
 5176TIP3    H115485   6.602   0.339   4.898
 5176TIP3    H215486   6.472   0.263   4.901
 5177TIP3   OH215487   3.340   7.457   3.227
 5177TIP3    H115488   3.395   7.535   3.220
 5177TIP3    H215489   3.344   7.418   3.140
 5178TIP3   OH215490   1.328   5.972   3.572
 5178TIP3    H115491   1.376   6.040   3.619
 5178TIP3    H215492   1.325   5.899   3.633
 5179TIP3   OH215493   6.499   4.689   2.146
 5179TIP3    H115494   6.542   4.680   2.231
 5179TIP3    H215495   6.540   4.622   2.091
 5180TIP3   OH215496   6.551   2.224   4.145
 5180TIP3    H115497   6.544   2.146   4.199
 5180TIP3    H215498   6.476   2.278   4.171
 5181TIP3   OH215499   7.961   0.571   0.249
 5181TIP3    H115500   7.870   0.577   0.220
 5181TIP3    H215501   7.956   0.526   0.334
 5182TIP3   OH215502   6.634   2.922   1.402
 5182TIP3    H115503   6.694   2.863   1.358
 5182TIP3    H215504   6.548   2.900   1.367
 5183TIP3   OH215505   4.017   4.395   1.543
 5183TIP3    H115506   4.020   4.482   1.583
 5183TIP3    H215507   3.976   4.340   1.610
 5184TIP3   OH215508   0.247   1.446   5.894
 5184TIP3    H115509   0.334   1.485   5.890
 5184TIP3    H215510   0.188   1.519   5.915
 5185TIP3   OH215511   5.372   7.136   6.320
 5185TIP3    H115512   5.299   7.141   6.383
 5185TIP3    H215513   5.394   7.227   6.301
 5186TIP3   OH215514   4.991   3.003   3.792
 5186TIP3    H115515   4.999   2.958   3.876
 5186TIP3    H215516   5.036   2.945   3.730
 5187TIP3   OH215517   0.264   1.555   0.096
 5187TIP3    H115518   0.354   1.574   0.123
 5187TIP3    H215519   0.267   1.552   0.001
 5188TIP3   OH215520   6.418   5.492   4.850
 5188TIP3    H115521   6.509   5.521   4.848
 5188TIP3    H215522   6.410   5.433   4.775
 5189TIP3   OH215523   6.171   4.435   5.459
 5189TIP3    H115524   6.236   4.425   5.529
 5189TIP3    H215525   6.087   4.442   5.505
 5190TIP3   OH215526   7.403   5.235   4.704
 5190TIP3    H115527   7.333   5.301   4.707
 5190TIP3    H215528   7.435   5.240   4.614
 5191TIP3   OH215529   7.350   3.323   3.429
 5191TIP3    H115530   7.270   3.288   3.467
 5191TIP3    H215531   7.408   3.340   3.503
 5192TIP3   OH215532   0.414   6.273   4.312
 5192TIP3    H115533   0.484   6.254   4.250
 5192TIP3    H215534   0.338   6.226   4.276
 5193TIP3   OH215535   5.611   3.439   3.963
 5193TIP3    H115536   5.528   3.484   3.950
 5193TIP3    H215537   5.675   3.491   3.916
 5194TIP3   OH215538   1.162   2.007   3.316
 5194TIP3    H115539   1.124   1.949   3.251
 5194TIP3    H215540   1.190   2.084   3.267
 5195TIP3   OH215541   1.305   2.486   2.956
 5195TIP3    H115542   1.274   2.432   2.884
 5195TIP3    H215543   1.386   2.443   2.985
 5196TIP3   OH215544   7.229   0.546   4.029
 5196TIP3    H115545   7.295   0.595   4.077
 5196TIP3    H215546   7.177   0.503   4.097
 5197TIP3   OH215547   5.202   3.108   6.107
 5197TIP3    H115548   5.179   3.035   6.165
 5197TIP3    H215549   5.283   3.143   6.144
 5198TIP3   OH215550   3.684   5.390   2.108
 5198TIP3    H115551   3.689   5.294   2.108
 5198TIP3    H215552   3.775   5.418   2.117
 5199TIP3   OH215553   6.912   6.069   3.352
 5199TIP3    H115554   6.827   6.064   3.398
 5199TIP3    H215555   6.947   6.154   3.376
 5200TIP3   OH215556   3.037   1.187   1.925
 5200TIP3    H115557   3.017   1.095   1.941
 5200TIP3    H215558   3.122   1.186   1.881
 5201TIP3   OH215559   0.890   0.471   6.514
 5201TIP3    H115560   0.850   0.552   6.547
 5201TIP3    H215561   0.912   0.421   6.594
 5202TIP3   OH215562   6.163   7.593   3.398
 5202TIP3    H115563   6.088   7.534   3.399
 5202TIP3    H215564   6.163   7.629   3.309
 5203TIP3   OH215565   4.603   1.892   1.572
 5203TIP3    H115566   4.551   1.959   1.617
 5203TIP3    H215567   4.541   1.851   1.511
 5204TIP3   OH215568   4.152   5.616   5.145
 5204TIP3    H115569   4.231   5.621   5.199
 5204TIP3    H215570   4.165   5.536   5.093
 5205TIP3   OH215571   7.687   3.606   2.640
 5205TIP3    H115572   7.661   3.622   2.549
 5205TIP3    H215573   7.754   3.673   2.657
 5206TIP3   OH215574   0.816   2.218   4.006
 5206TIP3    H115575   0.733   2.183   4.039
 5206TIP3    H215576   0.828   2.300   4.054
 5207TIP3   OH215577   0.920   1.308   3.757
 5207TIP3    H115578   0.914   1.401   3.775
 5207TIP3    H215579   1.014   1.291   3.750
 5208TIP3   OH215580   0.051   7.004   4.038
 5208TIP3    H115581  -0.010   7.060   4.086
 5208TIP3    H215582   0.097   7.063   3.979
 5209TIP3   OH215583   5.655   3.766   0.331
 5209TIP3    H115584   5.748   3.777   0.347
 5209TIP3    H215585   5.613   3.790   0.415
 5210TIP3   OH215586   0.314   5.837   1.585
 5210TIP3    H115587   0.345   5.786   1.659
 5210TIP3    H215588   0.289   5.921   1.622
 5211TIP3   OH215589   1.770   1.172   0.444
 5211TIP3    H115590   1.701   1.225   0.483
 5211TIP3    H215591   1.841   1.235   0.426
 5212TIP3   OH215592   2.834   5.453   3.978
 5212TIP3    H115593   2.909   5.398   4.000
 5212TIP3    H215594   2.827   5.515   4.050
 5213TIP3   OH215595   2.636   1.918   4.821
 5213TIP3    H115596   2.724   1.953   4.838
 5213TIP3    H215597   2.632   1.837   4.872
 5214TIP3   OH215598   0.687   3.058   1.096
 5214TIP3    H115599   0.691   2.964   1.083
 5214TIP3    H215600   0.639   3.070   1.177
 5215TIP3   OH215601   5.344   0.644   5.533
 5215TIP3    H115602   5.354   0.598   5.617
 5215TIP3    H215603   5.318   0.733   5.558
 5216TIP3   OH215604   1.110   3.994   5.249
 5216TIP3    H115605   1.123   3.964   5.339
 5216TIP3    H215606   1.094   3.914   5.199
 5217TIP3   OH215607   5.477   7.221   5.712
 5217TIP3    H115608   5.384   7.207   5.693
 5217TIP3    H215609   5.479   7.255   5.801
 5218TIP3   OH215610   7.244   6.678   5.271
 5218TIP3    H115611   7.297   6.644   5.343
 5218TIP3    H215612   7.263   6.772   5.269
 5219TIP3   OH215613   5.834   2.161   6.730
 5219TIP3    H115614   5.899   2.195   6.669
 5219TIP3    H215615   5.832   2.226   6.801
 5220TIP3   OH215616   3.411   7.764   2.409
 5220TIP3    H115617   3.482   7.784   2.348
 5220TIP3    H215618   3.369   7.848   2.425
 5221TIP3   OH215619   4.080   1.439   3.795
 5221TIP3    H115620   4.016   1.509   3.810
 5221TIP3    H215621   4.036   1.378   3.736
 5222TIP3   OH215622   6.023   1.141   1.491
 5222TIP3    H115623   6.116   1.146   1.510
 5222TIP3    H215624   5.981   1.136   1.577
 5223TIP3   OH215625   3.397   4.493   5.103
 5223TIP3    H115626   3.358   4.418   5.059
 5223TIP3    H215627   3.445   4.455   5.177
 5224TIP3   OH215628   6.046   7.400   5.186
 5224TIP3    H115629   6.022   7.341   5.115
 5224TIP3    H215630   6.040   7.347   5.265
 5225TIP3   OH215631   6.047   3.851   4.519
 5225TIP3    H115632   6.013   3.787   4.457
 5225TIP3    H215633   6.065   3.800   4.599
 5226TIP3   OH215634   0.307   2.452   3.355
 5226TIP3    H115635   0.276   2.377   3.406
 5226TIP3    H215636   0.297   2.424   3.263
 5227TIP3   OH215637   2.671   0.381   2.154
 5227TIP3    H115638   2.694   0.437   2.079
 5227TIP3    H215639   2.576   0.373   2.150
 5228TIP3   OH215640   6.108   4.931   5.205
 5228TIP3    H115641   6.169   4.971   5.266
 5228TIP3    H215642   6.027   4.921   5.255
 5229TIP3   OH215643   7.782   3.512   3.757
 5229TIP3    H115644   7.823   3.583   3.806
 5229TIP3    H215645   7.742   3.456   3.824
 5230TIP3   OH215646   0.930   7.506   6.210
 5230TIP3    H115647   0.959   7.419   6.237
 5230TIP3    H215648   0.988   7.566   6.258
 5231TIP3   OH215649   4.464   0.938   3.770
 5231TIP3    H115650   4.408   0.876   3.817
 5231TIP3    H215651   4.403   0.990   3.718
 5232TIP3   OH215652   3.405   2.982   6.019
 5232TIP3    H115653   3.492   2.993   5.980
 5232TIP3    H215654   3.355   3.058   5.986
 5233TIP3   OH215655   3.331   3.615   3.045
 5233TIP3    H115656   3.369   3.703   3.038
 5233TIP3    H215657   3.384   3.561   2.986
 5234TIP3   OH215658   3.716   5.383   6.068
 5234TIP3    H115659   3.713   5.409   6.160
 5234TIP3    H215660   3.704   5.466   6.020
 5235TIP3   OH215661   5.023   6.027   4.877
 5235TIP3    H115662   5.017   6.069   4.962
 5235TIP3    H215663   5.112   6.047   4.846
 5236TIP3   OH215664   0.151   3.166   2.475
 5236TIP3    H115665   0.241   3.162   2.508
 5236TIP3    H215666   0.131   3.259   2.469
 5237TIP3   OH215667   6.411   4.491   0.016
 5237TIP3    H115668   6.333   4.452   0.057
 5237TIP3    H215669   6.389   4.583   0.006
 5238TIP3   OH215670   6.393   5.720   5.380
 5238TIP3    H115671   6.401   5.814   5.397
 5238TIP3    H215672   6.436   5.678   5.455
 5239TIP3   OH215673   5.822   6.205   5.133
 5239TIP3    H115674   5.832   6.164   5.219
 5239TIP3    H215675   5.776   6.287   5.150
 5240TIP3   OH215676   1.506   3.330   5.376
 5240TIP3    H115677   1.440   3.397   5.389
 5240TIP3    H215678   1.481   3.286   5.295
 5241TIP3   OH215679   6.032   1.641   1.195
 5241TIP3    H115680   5.942   1.674   1.187
 5241TIP3    H215681   6.023   1.558   1.240
 5242TIP3   OH215682   3.134   7.723   3.127
 5242TIP3    H115683   3.138   7.654   3.060
 5242TIP3    H215684   3.045   7.756   3.122
 5243TIP3   OH215685   3.777   6.903   4.372
 5243TIP3    H115686   3.820   6.938   4.294
 5243TIP3    H215687   3.684   6.924   4.359
 5244TIP3   OH215688   1.867   4.587   4.573
 5244TIP3    H115689   1.938   4.572   4.635
 5244TIP3    H215690   1.795   4.533   4.607
 5245TIP3   OH215691   4.678   5.165   1.561
 5245TIP3    H115692   4.592   5.132   1.534
 5245TIP3    H215693   4.738   5.093   1.544
 5246TIP3   OH215694   5.634   0.232   3.460
 5246TIP3    H115695   5.603   0.308   3.410
 5246TIP3    H215696   5.579   0.230   3.538
 5247TIP3   OH215697   5.704   1.003   5.495
 5247TIP3    H115698   5.666   1.004   5.583
 5247TIP3    H215699   5.722   1.095   5.475
 5248TIP3   OH215700   5.444   3.751   6.504
 5248TIP3    H115701   5.422   3.818   6.439
 5248TIP3    H215702   5.440   3.797   6.588
 5249TIP3   OH215703   3.111   4.165   4.475
 5249TIP3    H115704   3.112   4.226   4.402
 5249TIP3    H215705   3.057   4.208   4.542
 5250TIP3   OH215706   4.727   7.431   0.743
 5250TIP3    H115707   4.700   7.522   0.756
 5250TIP3    H215708   4.700   7.410   0.653
 5251TIP3   OH215709   6.712   7.727   0.287
 5251TIP3    H115710   6.690   7.728   0.381
 5251TIP3    H215711   6.794   7.775   0.281
 5252TIP3   OH215712   5.679   1.188   0.890
 5252TIP3    H115713   5.636   1.151   0.968
 5252TIP3    H215714   5.607   1.213   0.833
 5253TIP3   OH215715   6.086   3.146   6.665
 5253TIP3    H115716   6.082   3.158   6.760
 5253TIP3    H215717   6.088   3.236   6.630
 5254TIP3   OH215718   5.396   6.399   6.669
 5254TIP3    H115719   5.439   6.321   6.634
 5254TIP3    H215720   5.421   6.470   6.610
 5255TIP3   OH215721   6.980   2.933   1.619
 5255TIP3    H115722   6.952   2.845   1.591
 5255TIP3    H215723   6.898   2.982   1.628
 5256TIP3   OH215724   2.815   7.394   3.642
 5256TIP3    H115725   2.758   7.365   3.714
 5256TIP3    H215726   2.808   7.324   3.576
 5257TIP3   OH215727   6.187   7.583   5.033
 5257TIP3    H115728   6.152   7.519   5.095
 5257TIP3    H215729   6.224   7.531   4.963
 5258TIP3   OH215730   0.183   1.681   3.922
 5258TIP3    H115731   0.157   1.597   3.886
 5258TIP3    H215732   0.189   1.739   3.846
 5259TIP3   OH215733   0.155   6.008   4.029
 5259TIP3    H115734   0.139   6.085   4.083
 5259TIP3    H215735   0.172   5.937   4.092
 5260TIP3   OH215736   6.837   4.691   5.847
 5260TIP3    H115737   6.777   4.640   5.792
 5260TIP3    H215738   6.918   4.695   5.796
 5261TIP3   OH215739   1.005   3.885   3.313
 5261TIP3    H115740   1.034   3.800   3.346
 5261TIP3    H215741   1.038   3.948   3.377
 5262TIP3   OH215742   6.169   2.574   5.639
 5262TIP3    H115743   6.194   2.621   5.559
 5262TIP3    H215744   6.126   2.494   5.607
 5263TIP3   OH215745   4.126   7.789   1.671
 5263TIP3    H115746   4.035   7.799   1.641
 5263TIP3    H215747   4.155   7.706   1.633
 5264TIP3   OH215748   4.249   4.159   6.008
 5264TIP3    H115749   4.177   4.200   6.056
 5264TIP3    H215750   4.207   4.096   5.950
 5265TIP3   OH215751   4.070   5.633   0.947
 5265TIP3    H115752   4.094   5.706   1.003
 5265TIP3    H215753   4.015   5.578   1.002
 5266TIP3   OH215754   1.103   3.100   6.668
 5266TIP3    H115755   1.196   3.122   6.670
 5266TIP3    H215756   1.081   3.095   6.575
 5267TIP3   OH215757   1.141   2.225   5.332
 5267TIP3    H115758   1.074   2.160   5.314
 5267TIP3    H215759   1.198   2.223   5.254
 5268TIP3   OH215760   4.903   0.836   6.503
 5268TIP3    H115761   4.892   0.808   6.594
 5268TIP3    H215762   4.933   0.927   6.509
 5269TIP3   OH215763   4.550   4.470   3.930
 5269TIP3    H115764   4.538   4.561   3.901
 5269TIP3    H215765   4.514   4.417   3.859
 5270TIP3   OH215766   6.951   5.525   5.062
 5270TIP3    H115767   6.892   5.485   4.997
 5270TIP3    H215768   6.950   5.463   5.135
 5271TIP3   OH215769   7.742   3.335   1.735
 5271TIP3    H115770   7.779   3.335   1.647
 5271TIP3    H215771   7.662   3.283   1.728
 5272TIP3   OH215772   1.012   7.086   5.740
 5272TIP3    H115773   1.020   7.010   5.682
 5272TIP3    H215774   1.029   7.051   5.827
 5273TIP3   OH215775   4.807   0.442   5.478
 5273TIP3    H115776   4.793   0.406   5.391
 5273TIP3    H215777   4.751   0.389   5.535
 5274TIP3   OH215778   1.068   0.903   4.564
 5274TIP3    H115779   1.049   0.943   4.649
 5274TIP3    H215780   1.071   0.976   4.503
 5275TIP3   OH215781   5.607   7.664   5.190
 5275TIP3    H115782   5.666   7.690   5.260
 5275TIP3    H215783   5.656   7.679   5.109
 5276TIP3   OH215784   8.198   1.219   2.904
 5276TIP3    H115785   8.146   1.203   2.826
 5276TIP3    H215786   8.155   1.293   2.947
 5277TIP3   OH215787   4.125   0.516   2.297
 5277TIP3    H115788   4.050   0.574   2.305
 5277TIP3    H215789   4.154   0.500   2.387
 5278TIP3   OH215790   0.832   3.350   2.580
 5278TIP3    H115791   0.880   3.267   2.585
 5278TIP3    H215792   0.789   3.358   2.665
 5279TIP3   OH215793   2.675   1.318   3.510
 5279TIP3    H115794   2.670   1.224   3.493
 5279TIP3    H215795   2.733   1.325   3.586
 5280TIP3   OH215796   1.901   1.637   0.132
 5280TIP3    H115797   1.988   1.653   0.167
 5280TIP3    H215798   1.842   1.655   0.205
 5281TIP3   OH215799   7.859   6.243   1.037
 5281TIP3    H115800   7.821   6.324   1.070
 5281TIP3    H215801   7.881   6.262   0.946
 5282TIP3   OH215802   1.110   6.320   5.510
 5282TIP3    H115803   1.069   6.401   5.479
 5282TIP3    H215804   1.171   6.297   5.441
 5283TIP3   OH215805   4.376   4.165   3.448
 5283TIP3    H115806   4.325   4.095   3.407
 5283TIP3    H215807   4.394   4.226   3.376
 5284TIP3   OH215808   5.015   7.741   2.106
 5284TIP3    H115809   4.922   7.729   2.088
 5284TIP3    H215810   5.018   7.777   2.195
 5285TIP3   OH215811   6.196   0.754   1.253
 5285TIP3    H115812   6.136   0.732   1.181
 5285TIP3    H215813   6.171   0.695   1.324
 5286TIP3   OH215814   4.121   2.798   1.816
 5286TIP3    H115815   4.131   2.833   1.904
 5286TIP3    H215816   4.048   2.736   1.823
 5287TIP3   OH215817   6.362   0.284   6.548
 5287TIP3    H115818   6.280   0.235   6.534
 5287TIP3    H215819   6.334   0.364   6.592
 5288TIP3   OH215820   2.199   7.102   3.541
 5288TIP3    H115821   2.284   7.116   3.498
 5288TIP3    H215822   2.220   7.097   3.634
 5289TIP3   OH215823   7.670   6.989   4.426
 5289TIP3    H115824   7.730   6.915   4.434
 5289TIP3    H215825   7.603   6.973   4.493
 5290TIP3   OH215826   5.067   4.117   3.192
 5290TIP3    H115827   5.032   4.130   3.104
 5290TIP3    H215828   5.039   4.195   3.240
 5291TIP3   OH215829   6.750   7.170   3.991
 5291TIP3    H115830   6.730   7.132   4.076
 5291TIP3    H215831   6.678   7.141   3.934
 5292TIP3   OH215832   5.582   0.601   5.372
 5292TIP3    H115833   5.586   0.693   5.344
 5292TIP3    H215834   5.519   0.601   5.445
 5293TIP3   OH215835   7.014   7.622   5.396
 5293TIP3    H115836   6.982   7.630   5.486
 5293TIP3    H215837   6.990   7.533   5.370
 5294TIP3   OH215838   2.850   0.147   3.789
 5294TIP3    H115839   2.781   0.108   3.735
 5294TIP3    H215840   2.839   0.106   3.875
 5295TIP3   OH215841   5.429   6.464   4.120
 5295TIP3    H115842   5.365   6.469   4.049
 5295TIP3    H215843   5.430   6.552   4.158
 5296TIP3   OH215844   4.672   5.698   0.935
 5296TIP3    H115845   4.611   5.759   0.893
 5296TIP3    H215846   4.741   5.754   0.970
 5297TIP3   OH215847   1.817   6.317   4.317
 5297TIP3    H115848   1.852   6.406   4.314
 5297TIP3    H215849   1.770   6.312   4.400
 5298TIP3   OH215850   5.253   0.310   0.864
 5298TIP3    H115851   5.191   0.349   0.926
 5298TIP3    H215852   5.335   0.305   0.913
 5299TIP3   OH215853   7.282   6.259   1.343
 5299TIP3    H115854   7.212   6.198   1.368
 5299TIP3    H215855   7.269   6.335   1.399
 5300TIP3   OH215856   4.325   4.118   2.893
 5300TIP3    H115857   4.302   4.049   2.831
 5300TIP3    H215858   4.414   4.098   2.921
 5301TIP3   OH215859   1.312   2.767   1.096
 5301TIP3    H115860   1.292   2.858   1.117
 5301TIP3    H215861   1.299   2.719   1.178
 5302TIP3   OH215862   1.152   2.507   5.237
 5302TIP3    H115863   1.099   2.431   5.261
 5302TIP3    H215864   1.157   2.504   5.141
 5303TIP3   OH215865   6.599   2.077   3.582
 5303TIP3    H115866   6.567   2.109   3.666
 5303TIP3    H215867   6.694   2.075   3.592
 5304TIP3   OH215868   2.101   6.791   5.479
 5304TIP3    H115869   2.164   6.850   5.521
 5304TIP3    H215870   2.031   6.849   5.448
 5305TIP3   OH215871   3.879   7.243   0.454
 5305TIP3    H115872   3.860   7.166   0.508
 5305TIP3    H215873   3.906   7.310   0.517
 5306TIP3   OH215874   2.677   5.019   0.275
 5306TIP3    H115875   2.622   4.946   0.304
 5306TIP3    H215876   2.749   5.021   0.337
 5307TIP3   OH215877   3.482   5.947   5.602
 5307TIP3    H115878   3.416   5.911   5.662
 5307TIP3    H215879   3.434   5.964   5.521
 5308TIP3   OH215880   3.106   1.691   3.860
 5308TIP3    H115881   3.114   1.704   3.955
 5308TIP3    H215882   3.194   1.667   3.832
 5309TIP3   OH215883   3.648   6.831   2.265
 5309TIP3    H115884   3.587   6.775   2.216
 5309TIP3    H215885   3.724   6.774   2.282
 5310TIP3   OH215886   6.207   3.757   5.329
 5310TIP3    H115887   6.146   3.739   5.258
 5310TIP3    H215888   6.189   3.848   5.353
 5311TIP3   OH215889   7.739   5.703   3.552
 5311TIP3    H115890   7.760   5.667   3.466
 5311TIP3    H215891   7.773   5.639   3.614
 5312TIP3   OH215892   5.000   7.707   5.412
 5312TIP3    H115893   5.007   7.611   5.404
 5312TIP3    H215894   4.984   7.737   5.323
 5313TIP3   OH215895   8.087   0.526   4.580
 5313TIP3    H115896   8.004   0.542   4.535
 5313TIP3    H215897   8.087   0.432   4.598
 5314TIP3   OH215898   8.274   2.040   4.216
 5314TIP3    H115899   8.229   1.967   4.258
 5314TIP3    H215900   8.224   2.055   4.135
 5315TIP3   OH215901   0.408   1.391   2.183
 5315TIP3    H115902   0.348   1.454   2.224
 5315TIP3    H215903   0.351   1.332   2.134
 5316TIP3   OH215904   7.321   0.846   0.901
 5316TIP3    H115905   7.413   0.836   0.877
 5316TIP3    H215906   7.280   0.763   0.878
 5317TIP3   OH215907   6.072   7.567   2.808
 5317TIP3    H115908   6.057   7.476   2.833
 5317TIP3    H215909   6.096   7.563   2.715
 5318TIP3   OH215910   0.436   0.526   4.961
 5318TIP3    H115911   0.439   0.499   5.053
 5318TIP3    H215912   0.430   0.444   4.912
 5319TIP3   OH215913   3.191   4.310   1.646
 5319TIP3    H115914   3.165   4.222   1.673
 5319TIP3    H215915   3.110   4.349   1.612
 5320TIP3   OH215916   3.257   3.583   0.169
 5320TIP3    H115917   3.319   3.527   0.121
 5320TIP3    H215918   3.303   3.605   0.250
 5321TIP3   OH215919  -0.012   6.631   5.465
 5321TIP3    H115920   0.049   6.574   5.418
 5321TIP3    H215921   0.038   6.664   5.539
 5322TIP3   OH215922   1.049   0.163   2.388
 5322TIP3    H115923   1.070   0.100   2.457
 5322TIP3    H215924   1.124   0.159   2.328
 5323TIP3   OH215925   5.339   5.902   1.486
 5323TIP3    H115926   5.271   5.967   1.471
 5323TIP3    H215927   5.303   5.843   1.552
 5324TIP3   OH215928   4.139   2.930   5.859
 5324TIP3    H115929   4.207   2.954   5.922
 5324TIP3    H215930   4.114   3.013   5.818
 5325TIP3   OH215931   6.883   3.267   1.018
 5325TIP3    H115932   6.808   3.317   1.052
 5325TIP3    H215933   6.855   3.175   1.027
 5326TIP3   OH215934   2.979   3.839   6.771
 5326TIP3    H115935   2.994   3.894   6.694
 5326TIP3    H215936   3.012   3.752   6.745
 5327TIP3   OH215937   7.628   3.980   3.734
 5327TIP3    H115938   7.615   3.942   3.647
 5327TIP3    H215939   7.614   4.074   3.722
 5328TIP3   OH215940   0.762   3.527   1.323
 5328TIP3    H115941   0.789   3.489   1.406
 5328TIP3    H215942   0.751   3.453   1.264
 5329TIP3   OH215943   3.017   0.452   2.483
 5329TIP3    H115944   2.937   0.503   2.498
 5329TIP3    H215945   3.087   0.509   2.514
 5330TIP3   OH215946   4.542   5.299   6.047
 5330TIP3    H115947   4.523   5.389   6.021
 5330TIP3    H215948   4.565   5.255   5.965
 5331TIP3   OH215949   3.711   2.551   0.187
 5331TIP3    H115950   3.803   2.562   0.163
 5331TIP3    H215951   3.707   2.578   0.279
 5332TIP3   OH215952   3.293   5.966   4.782
 5332TIP3    H115953   3.294   5.876   4.814
 5332TIP3    H215954   3.315   5.959   4.689
 5333TIP3   OH215955   1.035   2.914   6.090
 5333TIP3    H115956   1.038   2.828   6.131
 5333TIP3    H215957   1.022   2.896   5.997
 5334TIP3   OH215958   8.020   4.546   2.994
 5334TIP3    H115959   7.966   4.470   3.015
 5334TIP3    H215960   8.095   4.537   3.053
 5335TIP3   OH215961   6.709   2.771   5.152
 5335TIP3    H115962   6.718   2.847   5.210
 5335TIP3    H215963   6.795   2.729   5.153
 5336TIP3   OH215964   0.221   3.889   1.310
 5336TIP3    H115965   0.137   3.863   1.347
 5336TIP3    H215966   0.199   3.947   1.237
 5337TIP3   OH215967   0.054   5.818   3.549
 5337TIP3    H115968   0.060   5.726   3.575
 5337TIP3    H215969   0.092   5.866   3.623
 5338TIP3   OH215970   5.852   5.762   4.833
 5338TIP3    H115971   5.929   5.789   4.883
 5338TIP3    H215972   5.780   5.766   4.897
 5339TIP3   OH215973   2.160   6.316   1.623
 5339TIP3    H115974   2.140   6.252   1.691
 5339TIP3    H215975   2.093   6.301   1.556
 5340TIP3   OH215976   3.856   6.701   6.719
 5340TIP3    H115977   3.791   6.739   6.659
 5340TIP3    H215978   3.940   6.715   6.675
 5341TIP3   OH215979   4.744   1.215   0.332
 5341TIP3    H115980   4.818   1.174   0.376
 5341TIP3    H215981   4.683   1.236   0.402
 5342TIP3   OH215982   5.058   6.600   1.767
 5342TIP3    H115983   5.081   6.631   1.679
 5342TIP3    H215984   5.036   6.508   1.755
 5343TIP3   OH215985   4.657   0.852   4.676
 5343TIP3    H115986   4.626   0.762   4.675
 5343TIP3    H215987   4.697   0.865   4.590
 5344TIP3   OH215988   2.097   6.075   2.547
 5344TIP3    H115989   2.162   6.047   2.483
 5344TIP3    H215990   2.092   6.003   2.610
 5345TIP3   OH215991   2.842   1.597   3.830
 5345TIP3    H115992   2.933   1.623   3.841
 5345TIP3    H215993   2.797   1.634   3.906
 5346TIP3   OH215994   4.957   2.552   5.032
 5346TIP3    H115995   4.921   2.571   4.946
 5346TIP3    H215996   4.890   2.498   5.075
 5347TIP3   OH215997   7.373   7.415   3.074
 5347TIP3    H115998   7.401   7.481   3.011
 5347TIP3    H215999   7.286   7.444   3.101
 5348TIP3   OH216000   1.802   6.385   5.755
 5348TIP3    H116001   1.885   6.425   5.783
 5348TIP3    H216002   1.746   6.460   5.733
 5349TIP3   OH216003   6.152   3.648   0.301
 5349TIP3    H116004   6.145   3.564   0.254
 5349TIP3    H216005   6.243   3.675   0.289
 5350TIP3   OH216006   6.299   0.059   4.077
 5350TIP3    H116007   6.341  -0.021   4.106
 5350TIP3    H216008   6.265   0.039   3.990
 5351TIP3   OH216009   2.052   3.377   3.409
 5351TIP3    H116010   2.137   3.335   3.393
 5351TIP3    H216011   2.049   3.450   3.347
 5352TIP3   OH216012   7.203   7.667   4.448
 5352TIP3    H116013   7.231   7.666   4.357
 5352TIP3    H216014   7.222   7.580   4.481
 5353TIP3   OH216015   0.093   0.888   4.568
 5353TIP3    H116016   0.158   0.838   4.518
 5353TIP3    H216017   0.047   0.823   4.619
 5354TIP3   OH216018   0.562   0.249   3.867
 5354TIP3    H116019   0.492   0.187   3.852
 5354TIP3    H216020   0.518   0.332   3.887
 5355TIP3   OH216021   4.357   2.715   1.586
 5355TIP3    H116022   4.317   2.677   1.507
 5355TIP3    H216023   4.334   2.808   1.582
 5356TIP3   OH216024   5.788   2.281   4.464
 5356TIP3    H116025   5.836   2.200   4.448
 5356TIP3    H216026   5.696   2.257   4.450
 5357TIP3   OH216027   1.871   3.484   0.452
 5357TIP3    H116028   1.965   3.469   0.446
 5357TIP3    H216029   1.832   3.410   0.407
 5358TIP3   OH216030   5.108   0.484   0.480
 5358TIP3    H116031   5.035   0.543   0.499
 5358TIP3    H216032   5.181   0.520   0.531
 5359TIP3   OH216033   6.516   0.946   0.827
 5359TIP3    H116034   6.503   0.859   0.865
 5359TIP3    H216035   6.604   0.971   0.854
 5360TIP3   OH216036   2.062   1.599   5.732
 5360TIP3    H116037   2.136   1.572   5.678
 5360TIP3    H216038   2.034   1.682   5.695
 5361TIP3   OH216039   3.943   1.710   6.609
 5361TIP3    H116040   3.856   1.680   6.635
 5361TIP3    H216041   3.969   1.650   6.539
 5362TIP3   OH216042   2.141   7.377   0.007
 5362TIP3    H116043   2.049   7.383   0.033
 5362TIP3    H216044   2.184   7.445   0.059
 5363TIP3   OH216045   5.445   2.389   5.646
 5363TIP3    H116046   5.528   2.425   5.678
 5363TIP3    H216047   5.465   2.297   5.628
 5364TIP3   OH216048   3.164   4.791   6.479
 5364TIP3    H116049   3.150   4.719   6.540
 5364TIP3    H216050   3.255   4.818   6.494
 5365TIP3   OH216051   4.938   4.252   5.738
 5365TIP3    H116052   4.965   4.165   5.709
 5365TIP3    H216053   4.848   4.240   5.769
 5366TIP3   OH216054   2.578   4.081   4.359
 5366TIP3    H116055   2.490   4.117   4.370
 5366TIP3    H216056   2.620   4.091   4.444
 5367TIP3   OH216057   5.080   3.862   6.040
 5367TIP3    H116058   5.062   3.870   6.134
 5367TIP3    H216059   5.095   3.952   6.010
 5368TIP3   OH216060   2.917   0.158   5.995
 5368TIP3    H116061   2.859   0.211   6.050
 5368TIP3    H216062   2.999   0.207   5.991
 5369TIP3   OH216063   3.050   4.714   0.209
 5369TIP3    H116064   3.036   4.626   0.173
 5369TIP3    H216065   3.014   4.710   0.297
 5370TIP3   OH216066   2.196   5.089   2.471
 5370TIP3    H116067   2.255   5.100   2.397
 5370TIP3    H216068   2.221   5.158   2.533
 5371TIP3   OH216069   0.778   7.346   1.961
 5371TIP3    H116070   0.762   7.392   2.043
 5371TIP3    H216071   0.820   7.411   1.905
 5372TIP3   OH216072   6.559   1.267   6.281
 5372TIP3    H116073   6.605   1.259   6.364
 5372TIP3    H216074   6.624   1.303   6.221
 5373TIP3   OH216075   0.121   5.214   3.356
 5373TIP3    H116076   0.134   5.136   3.302
 5373TIP3    H216077   0.039   5.251   3.325
 5374TIP3   OH216078   5.624   3.285   4.788
 5374TIP3    H116079   5.652   3.270   4.879
 5374TIP3    H216080   5.696   3.251   4.735
 5375TIP3   OH216081   2.602   3.034   1.726
 5375TIP3    H116082   2.603   3.019   1.821
 5375TIP3    H216083   2.682   2.992   1.695
 5376TIP3   OH216084   7.202   0.562   3.083
 5376TIP3    H116085   7.225   0.525   3.168
 5376TIP3    H216086   7.207   0.657   3.097
 5377TIP3   OH216087   4.131   2.977   0.047
 5377TIP3    H116088   4.148   3.039  -0.023
 5377TIP3    H216089   4.179   2.898   0.021
 5378TIP3   OH216090   3.018   7.375   0.129
 5378TIP3    H116091   3.051   7.286   0.120
 5378TIP3    H216092   3.069   7.427   0.067
 5379TIP3   OH216093   6.421   0.061   5.162
 5379TIP3    H116094   6.490   0.127   5.176
 5379TIP3    H216095   6.379   0.088   5.081
 5380TIP3   OH216096   0.267   3.949   3.443
 5380TIP3    H116097   0.274   3.877   3.505
 5380TIP3    H216098   0.240   3.909   3.361
 5381TIP3   OH216099   1.983   3.928   6.741
 5381TIP3    H116100   2.056   3.867   6.735
 5381TIP3    H216101   2.009   3.990   6.810
 5382TIP3   OH216102   1.507   6.750   1.713
 5382TIP3    H116103   1.569   6.679   1.696
 5382TIP3    H216104   1.449   6.750   1.636
 5383TIP3   OH216105   2.953   4.856   4.976
 5383TIP3    H116106   3.028   4.827   5.028
 5383TIP3    H216107   2.887   4.788   4.988
 5384TIP3   OH216108   5.932   6.681   6.736
 5384TIP3    H116109   5.939   6.762   6.786
 5384TIP3    H216110   5.846   6.686   6.694
 5385TIP3   OH216111   4.502   7.435   1.824
 5385TIP3    H116112   4.520   7.362   1.883
 5385TIP3    H216113   4.524   7.402   1.737
 5386TIP3   OH216114   4.700   3.871   6.178
 5386TIP3    H116115   4.664   3.811   6.243
 5386TIP3    H216116   4.775   3.911   6.221
 5387TIP3   OH216117   0.139   1.765   0.421
 5387TIP3    H116118   0.082   1.754   0.345
 5387TIP3    H216119   0.202   1.694   0.415
 5388TIP3   OH216120   6.003   2.004   1.966
 5388TIP3    H116121   5.985   1.952   1.887
 5388TIP3    H216122   6.098   2.011   1.969
 5389TIP3   OH216123   3.062   3.038   5.694
 5389TIP3    H116124   3.052   2.944   5.713
 5389TIP3    H216125   3.093   3.041   5.603
 5390TIP3   OH216126   7.186   3.525   6.313
 5390TIP3    H116127   7.245   3.459   6.277
 5390TIP3    H216128   7.182   3.593   6.246
 5391TIP3   OH216129   6.433   5.023   1.183
 5391TIP3    H116130   6.433   5.118   1.183
 5391TIP3    H216131   6.472   4.999   1.267
 5392TIP3   OH216132   6.038   3.059   5.770
 5392TIP3    H116133   5.999   2.972   5.758
 5392TIP3    H216134   6.099   3.068   5.696
 5393TIP3   OH216135   6.515   7.470   0.440
 5393TIP3    H116136   6.482   7.381   0.428
 5393TIP3    H216137   6.579   7.482   0.369
 5394TIP3   OH216138   3.943   3.955   5.464
 5394TIP3    H116139   3.957   3.959   5.369
 5394TIP3    H216140   3.849   3.972   5.475
 5395TIP3   OH216141   4.276   2.927   6.646
 5395TIP3    H116142   4.313   2.916   6.559
 5395TIP3    H216143   4.323   3.001   6.684
 5396TIP3   OH216144   7.519   5.637   5.161
 5396TIP3    H116145   7.423   5.639   5.159
 5396TIP3    H216146   7.544   5.619   5.070
 5397TIP3   OH216147   4.299   1.414   0.277
 5397TIP3    H116148   4.345   1.440   0.357
 5397TIP3    H216149   4.308   1.489   0.219
 5398TIP3   OH216150   2.918   1.292   6.156
 5398TIP3    H116151   2.892   1.383   6.171
 5398TIP3    H216152   3.004   1.285   6.197
 5399TIP3   OH216153   2.903   3.136   1.958
 5399TIP3    H116154   2.935   3.122   2.047
 5399TIP3    H216155   2.982   3.132   1.903
 5400TIP3   OH216156   7.495   2.782   2.734
 5400TIP3    H116157   7.520   2.855   2.791
 5400TIP3    H216158   7.574   2.729   2.725
 5401TIP3   OH216159   3.532   4.857   4.018
 5401TIP3    H116160   3.598   4.911   4.061
 5401TIP3    H216161   3.571   4.770   4.014
 5402TIP3   OH216162   7.139   6.960   1.791
 5402TIP3    H116163   7.213   6.959   1.852
 5402TIP3    H216164   7.117   6.868   1.778
 5403TIP3   OH216165   3.983   0.687   5.500
 5403TIP3    H116166   4.077   0.693   5.483
 5403TIP3    H216167   3.970   0.595   5.523
 5404TIP3   OH216168   6.548   5.198   0.467
 5404TIP3    H116169   6.577   5.111   0.494
 5404TIP3    H216170   6.623   5.254   0.484
 5405TIP3   OH216171   2.152   3.517   2.171
 5405TIP3    H116172   2.145   3.468   2.253
 5405TIP3    H216173   2.145   3.609   2.198
 5406TIP3   OH216174   4.187   4.507   6.625
 5406TIP3    H116175   4.235   4.454   6.689
 5406TIP3    H216176   4.112   4.541   6.673
 5407TIP3   OH216177   0.110   3.270   6.215
 5407TIP3    H116178   0.084   3.202   6.277
 5407TIP3    H216179   0.038   3.332   6.216
 5408TIP3   OH216180   3.966   5.183   6.341
 5408TIP3    H116181   4.030   5.235   6.390
 5408TIP3    H216182   3.883   5.227   6.358
 5409TIP3   OH216183   6.307   1.555   2.578
 5409TIP3    H116184   6.311   1.460   2.569
 5409TIP3    H216185   6.331   1.572   2.669
 5410TIP3   OH216186   5.330   1.038   4.936
 5410TIP3    H116187   5.408   0.995   4.970
 5410TIP3    H216188   5.335   1.026   4.841
 5411TIP3   OH216189   5.195   5.785   4.941
 5411TIP3    H116190   5.243   5.861   4.909
 5411TIP3    H216191   5.130   5.821   5.001
 5412TIP3   OH216192   3.473   0.358   0.402
 5412TIP3    H116193   3.469   0.379   0.308
 5412TIP3    H216194   3.477   0.444   0.445
 5413TIP3   OH216195   0.983   7.552   4.820
 5413TIP3    H116196   0.983   7.616   4.892
 5413TIP3    H216197   0.898   7.510   4.826
 5414TIP3   OH216198   3.426   2.739   0.868
 5414TIP3    H116199   3.331   2.745   0.857
 5414TIP3    H216200   3.449   2.653   0.834
 5415TIP3   OH216201   1.451   7.017   6.088
 5415TIP3    H116202   1.412   6.952   6.030
 5415TIP3    H216203   1.393   7.019   6.164
 5416TIP3   OH216204   4.340   4.288   3.217
 5416TIP3    H116205   4.309   4.378   3.229
 5416TIP3    H216206   4.269   4.244   3.170
 5417TIP3   OH216207   1.172   5.864   0.985
 5417TIP3    H116208   1.163   5.813   0.905
 5417TIP3    H216209   1.176   5.955   0.955
 5418TIP3   OH216210   5.863   0.759   4.690
 5418TIP3    H116211   5.916   0.768   4.769
 5418TIP3    H216212   5.823   0.845   4.678
 5419TIP3   OH216213   6.500   3.268   6.091
 5419TIP3    H116214   6.427   3.216   6.057
 5419TIP3    H216215   6.513   3.235   6.180
 5420TIP3   OH216216   2.192   2.662   0.906
 5420TIP3    H116217   2.255   2.734   0.902
 5420TIP3    H216218   2.110   2.700   0.876
 5421TIP3   OH216219   7.819   5.148   5.783
 5421TIP3    H116220   7.795   5.200   5.706
 5421TIP3    H216221   7.736   5.130   5.826
 5422TIP3   OH216222   4.323   6.432   1.956
 5422TIP3    H116223   4.349   6.362   1.896
 5422TIP3    H216224   4.240   6.402   1.993
 5423TIP3   OH216225   5.873   3.997   2.825
 5423TIP3    H116226   5.779   4.009   2.808
 5423TIP3    H216227   5.880   3.997   2.920
 5424TIP3   OH216228   2.179   2.189   0.960
 5424TIP3    H116229   2.105   2.141   0.922
 5424TIP3    H216230   2.197   2.259   0.898
 5425TIP3   OH216231   6.013   1.307   2.247
 5425TIP3    H116232   6.089   1.359   2.220
 5425TIP3    H216233   6.014   1.232   2.188
 5426TIP3   OH216234   7.102   1.262   2.740
 5426TIP3    H116235   7.074   1.336   2.795
 5426TIP3    H216236   7.020   1.224   2.709
 5427TIP3   OH216237   5.694   2.933   0.568
 5427TIP3    H116238   5.691   2.837   0.565
 5427TIP3    H216239   5.776   2.955   0.524
 5428TIP3   OH216240   5.180   2.987   5.852
 5428TIP3    H116241   5.141   3.058   5.800
 5428TIP3    H216242   5.166   3.014   5.943
 5429TIP3   OH216243   1.601   5.134   1.328
 5429TIP3    H116244   1.670   5.201   1.330
 5429TIP3    H216245   1.611   5.087   1.410
 5430TIP3   OH216246   6.949   0.367   5.015
 5430TIP3    H116247   6.922   0.383   4.925
 5430TIP3    H216248   6.869   0.338   5.060
 5431TIP3   OH216249   3.507   3.287   6.118
 5431TIP3    H116250   3.460   3.241   6.187
 5431TIP3    H216251   3.565   3.221   6.080
 5432TIP3   OH216252   4.337   3.470   2.915
 5432TIP3    H116253   4.428   3.498   2.904
 5432TIP3    H216254   4.295   3.543   2.960
 5433TIP3   OH216255   5.331   5.572   2.150
 5433TIP3    H116256   5.378   5.495   2.182
 5433TIP3    H216257   5.398   5.625   2.107
 5434TIP3   OH216258   7.068   6.516   0.854
 5434TIP3    H116259   7.149   6.465   0.850
 5434TIP3    H216260   7.095   6.600   0.892
 5435TIP3   OH216261   6.934   4.914   3.977
 5435TIP3    H116262   6.912   4.989   3.921
 5435TIP3    H216263   6.875   4.921   4.051
 5436TIP3   OH216264   7.463   5.123   3.146
 5436TIP3    H116265   7.479   5.036   3.183
 5436TIP3    H216266   7.449   5.106   3.053
 5437TIP3   OH216267   4.629   5.390   2.756
 5437TIP3    H116268   4.625   5.478   2.718
 5437TIP3    H216269   4.580   5.398   2.839
 5438TIP3   OH216270   6.906   4.664   4.796
 5438TIP3    H116271   6.913   4.629   4.707
 5438TIP3    H216272   6.812   4.670   4.812
 5439TIP3   OH216273   4.342   4.841   6.670
 5439TIP3    H116274   4.371   4.862   6.581
 5439TIP3    H216275   4.416   4.866   6.725
 5440TIP3   OH216276   2.956   1.971   1.939
 5440TIP3    H116277   3.043   1.969   1.979
 5440TIP3    H216278   2.895   1.968   2.013
 5441TIP3   OH216279   6.766   3.245   5.450
 5441TIP3    H116280   6.721   3.278   5.372
 5441TIP3    H216281   6.696   3.214   5.507
 5442TIP3   OH216282   1.033   6.480   1.194
 5442TIP3    H116283   0.981   6.434   1.128
 5442TIP3    H216284   0.990   6.458   1.277
 5443TIP3   OH216285   3.691   5.380   6.620
 5443TIP3    H116286   3.640   5.460   6.610
 5443TIP3    H216287   3.650   5.333   6.692
 5444TIP3   OH216288   0.854   5.344   3.068
 5444TIP3    H116289   0.881   5.386   3.150
 5444TIP3    H216290   0.783   5.400   3.036
 5445TIP3   OH216291   0.252   5.183   3.617
 5445TIP3    H116292   0.317   5.241   3.656
 5445TIP3    H216293   0.219   5.230   3.541
 5446TIP3   OH216294   8.107   2.491   6.429
 5446TIP3    H116295   8.089   2.398   6.438
 5446TIP3    H216296   8.197   2.501   6.462
 5447TIP3   OH216297   7.996   1.703   4.158
 5447TIP3    H116298   7.940   1.780   4.165
 5447TIP3    H216299   7.969   1.660   4.078
 5448TIP3   OH216300   0.862   6.126   4.428
 5448TIP3    H116301   0.788   6.108   4.370
 5448TIP3    H216302   0.846   6.072   4.505
 5449TIP3   OH216303   6.146   7.390   1.148
 5449TIP3    H116304   6.189   7.398   1.062
 5449TIP3    H216305   6.177   7.466   1.197
 5450TIP3   OH216306   0.861   4.585   5.034
 5450TIP3    H116307   0.917   4.510   5.015
 5450TIP3    H216308   0.782   4.548   5.072
 5451TIP3   OH216309   6.940   4.289   5.464
 5451TIP3    H116310   6.907   4.232   5.534
 5451TIP3    H216311   6.864   4.301   5.407
 5452TIP3   OH216312   0.780   2.487   5.039
 5452TIP3    H116313   0.686   2.494   5.058
 5452TIP3    H216314   0.822   2.538   5.108
 5453TIP3   OH216315   7.902   3.796   3.291
 5453TIP3    H116316   7.873   3.784   3.381
 5453TIP3    H216317   7.996   3.778   3.292
 5454TIP3   OH216318   6.644   0.607   5.410
 5454TIP3    H116319   6.696   0.550   5.353
 5454TIP3    H216320   6.562   0.560   5.424
 5455TIP3   OH216321   3.413   7.724   3.223
 5455TIP3    H116322   3.328   7.762   3.202
 5455TIP3    H216323   3.477   7.786   3.188
 5456TIP3   OH216324   3.060   6.503   6.573
 5456TIP3    H116325   2.987   6.503   6.635
 5456TIP3    H216326   3.021   6.528   6.489
 5457TIP3   OH216327   5.000   5.628   4.692
 5457TIP3    H116328   4.963   5.677   4.765
 5457TIP3    H216329   5.003   5.692   4.620
 5458TIP3   OH216330   7.151   0.093   4.388
 5458TIP3    H116331   7.108   0.016   4.351
 5458TIP3    H216332   7.162   0.153   4.315
 5459TIP3   OH216333   2.806   1.430   2.273
 5459TIP3    H116334   2.896   1.439   2.242
 5459TIP3    H216335   2.753   1.426   2.193
 5460TIP3   OH216336   4.559   7.440   4.858
 5460TIP3    H116337   4.641   7.483   4.832
 5460TIP3    H216338   4.582   7.348   4.868
 5461TIP3   OH216339   7.744   4.428   2.445
 5461TIP3    H116340   7.811   4.360   2.437
 5461TIP3    H216341   7.741   4.469   2.359
 5462TIP3   OH216342   0.723   6.000   2.798
 5462TIP3    H116343   0.627   6.008   2.792
 5462TIP3    H216344   0.744   5.926   2.740
 5463TIP3   OH216345   5.027   4.686   2.775
 5463TIP3    H116346   5.016   4.660   2.866
 5463TIP3    H216347   4.973   4.764   2.765
 5464TIP3   OH216348   1.146   0.947   3.069
 5464TIP3    H116349   1.196   0.886   3.124
 5464TIP3    H216350   1.211   1.008   3.036
 5465TIP3   OH216351   0.066   3.049   3.676
 5465TIP3    H116352   0.090   3.140   3.695
 5465TIP3    H216353   0.146   2.999   3.694
 5466TIP3   OH216354   8.060   4.691   4.147
 5466TIP3    H116355   8.132   4.655   4.198
 5466TIP3    H216356   8.010   4.615   4.117
 5467TIP3   OH216357   7.495   6.040   2.246
 5467TIP3    H116358   7.564   5.974   2.239
 5467TIP3    H216359   7.481   6.051   2.340
 5468TIP3   OH216360   7.633   0.900   5.708
 5468TIP3    H116361   7.556   0.939   5.751
 5468TIP3    H216362   7.707   0.928   5.762
 5469TIP3   OH216363   5.584   1.532   6.552
 5469TIP3    H116364   5.586   1.582   6.634
 5469TIP3    H216365   5.510   1.569   6.504
 5470TIP3   OH216366   5.677   3.992   2.522
 5470TIP3    H116367   5.647   3.918   2.574
 5470TIP3    H216368   5.681   4.065   2.583
 5471TIP3   OH216369   7.556   5.144   6.585
 5471TIP3    H116370   7.526   5.107   6.668
 5471TIP3    H216371   7.646   5.114   6.576
 5472TIP3   OH216372   1.058   2.582   4.572
 5472TIP3    H116373   1.021   2.501   4.608
 5472TIP3    H216374   0.992   2.649   4.593
 5473TIP3   OH216375   7.795   3.042   0.453
 5473TIP3    H116376   7.701   3.033   0.442
 5473TIP3    H216377   7.808   3.051   0.548
 5474TIP3   OH216378   5.779   0.730   3.243
 5474TIP3    H116379   5.780   0.659   3.179
 5474TIP3    H216380   5.716   0.793   3.209
 5475TIP3   OH216381   5.343   7.070   5.993
 5475TIP3    H116382   5.394   7.002   5.948
 5475TIP3    H216383   5.266   7.024   6.026
 5476TIP3   OH216384   1.418   6.930   5.340
 5476TIP3    H116385   1.341   6.874   5.331
 5476TIP3    H216386   1.493   6.872   5.324
 5477TIP3   OH216387   8.173   6.203   6.402
 5477TIP3    H116388   8.174   6.225   6.495
 5477TIP3    H216389   8.160   6.108   6.400
 5478TIP3   OH216390   0.684   3.728   3.768
 5478TIP3    H116391   0.759   3.779   3.738
 5478TIP3    H216392   0.634   3.788   3.822
 5479TIP3   OH216393   3.223   1.022   2.098
 5479TIP3    H116394   3.213   1.032   2.193
 5479TIP3    H216395   3.147   0.972   2.071
 5480TIP3   OH216396   6.683   4.826   1.602
 5480TIP3    H116397   6.773   4.835   1.632
 5480TIP3    H216398   6.665   4.732   1.609
 5481TIP3   OH216399   4.563   4.736   6.328
 5481TIP3    H116400   4.587   4.825   6.352
 5481TIP3    H216401   4.473   4.726   6.358
 5482TIP3   OH216402   1.367   6.259   6.294
 5482TIP3    H116403   1.441   6.302   6.337
 5482TIP3    H216404   1.340   6.190   6.354
 5483TIP3   OH216405   3.362   5.900   3.241
 5483TIP3    H116406   3.362   5.824   3.182
 5483TIP3    H216407   3.444   5.944   3.222
 5484TIP3   OH216408   1.822   1.567   5.291
 5484TIP3    H116409   1.912   1.593   5.311
 5484TIP3    H216410   1.819   1.565   5.195
 5485TIP3   OH216411   1.383   2.174   4.097
 5485TIP3    H116412   1.476   2.177   4.120
 5485TIP3    H216413   1.354   2.087   4.124
 5486TIP3   OH216414   3.900   6.980   1.886
 5486TIP3    H116415   3.827   6.936   1.928
 5486TIP3    H216416   3.867   7.006   1.800
 5487TIP3   OH216417   6.536   6.213   2.895
 5487TIP3    H116418   6.490   6.287   2.934
 5487TIP3    H216419   6.622   6.213   2.937
 5488TIP3   OH216420   3.730   6.521   5.752
 5488TIP3    H116421   3.686   6.530   5.667
 5488TIP3    H216422   3.702   6.598   5.801
 5489TIP3   OH216423   8.046   5.901   4.847
 5489TIP3    H116424   8.100   5.827   4.820
 5489TIP3    H216425   8.091   5.937   4.924
 5490TIP3   OH216426   8.159   1.158   0.136
 5490TIP3    H116427   8.157   1.162   0.041
 5490TIP3    H216428   8.249   1.133   0.157
 5491TIP3   OH216429   6.161   3.499   5.031
 5491TIP3    H116430   6.109   3.465   4.958
 5491TIP3    H216431   6.251   3.498   4.998
 5492TIP3   OH216432   0.705   2.204   4.929
 5492TIP3    H116433   0.620   2.224   4.968
 5492TIP3    H216434   0.761   2.278   4.953
 5493TIP3   OH216435   7.574   1.650   3.156
 5493TIP3    H116436   7.615   1.722   3.109
 5493TIP3    H216437   7.480   1.661   3.140
 5494TIP3   OH216438   8.138   6.758   1.995
 5494TIP3    H116439   8.180   6.674   2.013
 5494TIP3    H216440   8.145   6.806   2.077
 5495TIP3   OH216441   2.569   4.061   3.522
 5495TIP3    H116442   2.600   4.051   3.432
 5495TIP3    H216443   2.526   3.978   3.542
 5496TIP3   OH216444   1.759   6.409   3.060
 5496TIP3    H116445   1.836   6.416   3.116
 5496TIP3    H216446   1.764   6.484   3.001
 5497TIP3   OH216447   8.228   0.708   0.795
 5497TIP3    H116448   8.154   0.741   0.845
 5497TIP3    H216449   8.194   0.691   0.707
 5498TIP3   OH216450   1.619   6.487   2.691
 5498TIP3    H116451   1.708   6.512   2.664
 5498TIP3    H216452   1.633   6.408   2.744
 5499TIP3   OH216453   0.872   2.037   0.659
 5499TIP3    H116454   0.814   2.108   0.632
 5499TIP3    H216455   0.842   1.962   0.608
 5500TIP3   OH216456   7.468   4.876   3.252
 5500TIP3    H116457   7.526   4.822   3.306
 5500TIP3    H216458   7.447   4.821   3.176
 5501TIP3   OH216459   4.276   3.782   5.516
 5501TIP3    H116460   4.245   3.752   5.602
 5501TIP3    H216461   4.370   3.797   5.528
 5502TIP3   OH216462   6.218   2.711   5.885
 5502TIP3    H116463   6.160   2.671   5.948
 5502TIP3    H216464   6.183   2.685   5.800
 5503TIP3   OH216465   3.437   2.556   4.725
 5503TIP3    H116466   3.430   2.492   4.795
 5503TIP3    H216467   3.505   2.617   4.755
 5504TIP3   OH216468   4.241   3.675   3.096
 5504TIP3    H116469   4.181   3.654   3.167
 5504TIP3    H216470   4.186   3.716   3.029
 5505TIP3   OH216471   4.870   6.493   2.640
 5505TIP3    H116472   4.861   6.584   2.670
 5505TIP3    H216473   4.802   6.445   2.685
 5506TIP3   OH216474   7.432   3.485   5.509
 5506TIP3    H116475   7.407   3.520   5.594
 5506TIP3    H216476   7.422   3.558   5.448
 5507TIP3   OH216477   0.246   3.308   3.445
 5507TIP3    H116478   0.166   3.354   3.419
 5507TIP3    H216479   0.263   3.340   3.534
 5508TIP3   OH216480   7.369   2.426   3.513
 5508TIP3    H116481   7.423   2.485   3.461
 5508TIP3    H216482   7.281   2.435   3.477
 5509TIP3   OH216483   4.838   2.691   2.320
 5509TIP3    H116484   4.929   2.712   2.299
 5509TIP3    H216485   4.807   2.640   2.245
 5510TIP3   OH216486   8.052   0.547   6.434
 5510TIP3    H116487   8.043   0.453   6.449
 5510TIP3    H216488   8.016   0.560   6.346
 5511TIP3   OH216489   2.538   0.387   3.989
 5511TIP3    H116490   2.583   0.445   3.928
 5511TIP3    H216491   2.456   0.432   4.008
 5512TIP3   OH216492   1.158   5.685   0.683
 5512TIP3    H116493   1.079   5.639   0.657
 5512TIP3    H216494   1.207   5.696   0.601
 5513TIP3   OH216495   0.273   0.262   2.235
 5513TIP3    H116496   0.273   0.246   2.140
 5513TIP3    H216497   0.358   0.231   2.265
 5514TIP3   OH216498   2.134   6.821   3.683
 5514TIP3    H116499   2.181   6.828   3.600
 5514TIP3    H216500   2.099   6.732   3.683
 5515TIP3   OH216501   5.533   4.312   3.029
 5515TIP3    H116502   5.557   4.220   3.015
 5515TIP3    H216503   5.533   4.323   3.124
 5516TIP3   OH216504   0.543   3.717   6.000
 5516TIP3    H116505   0.552   3.725   5.905
 5516TIP3    H216506   0.495   3.636   6.013
 5517TIP3   OH216507   7.343   3.784   4.074
 5517TIP3    H116508   7.398   3.860   4.056
 5517TIP3    H216509   7.327   3.788   4.168
 5518TIP3   OH216510   7.104   3.531   4.181
 5518TIP3    H116511   7.010   3.549   4.189
 5518TIP3    H216512   7.109   3.452   4.128
 5519TIP3   OH216513   7.734   0.504   5.377
 5519TIP3    H116514   7.709   0.597   5.383
 5519TIP3    H216515   7.655   0.461   5.345
 5520TIP3   OH216516   6.465   6.861   0.344
 5520TIP3    H116517   6.491   6.846   0.435
 5520TIP3    H216518   6.372   6.884   0.349
 5521TIP3   OH216519   0.253   2.153   5.318
 5521TIP3    H116520   0.333   2.114   5.283
 5521TIP3    H216521   0.216   2.202   5.244
 5522TIP3   OH216522   0.239   0.948   2.303
 5522TIP3    H116523   0.239   0.884   2.232
 5522TIP3    H216524   0.184   0.909   2.371
 5523TIP3   OH216525   0.323   6.426   6.369
 5523TIP3    H116526   0.373   6.439   6.450
 5523TIP3    H216527   0.236   6.462   6.388
 5524TIP3   OH216528   1.312   1.141   6.352
 5524TIP3    H116529   1.393   1.119   6.306
 5524TIP3    H216530   1.248   1.158   6.282
 5525TIP3   OH216531   3.543   3.016   4.680
 5525TIP3    H116532   3.625   3.065   4.690
 5525TIP3    H216533   3.545   2.986   4.589
 5526TIP3   OH216534   2.944   1.830   2.822
 5526TIP3    H116535   3.016   1.892   2.813
 5526TIP3    H216536   2.867   1.880   2.795
 5527TIP3   OH216537   7.558   6.152   3.954
 5527TIP3    H116538   7.517   6.068   3.931
 5527TIP3    H216539   7.484   6.212   3.966
 5528TIP3   OH216540   7.052   4.286   0.510
 5528TIP3    H116541   6.967   4.290   0.554
 5528TIP3    H216542   7.041   4.218   0.444
 5529TIP3   OH216543   2.058   1.127   3.331
 5529TIP3    H116544   2.106   1.137   3.249
 5529TIP3    H216545   2.122   1.148   3.400
 5530TIP3   OH216546   4.793   2.683   5.597
 5530TIP3    H116547   4.816   2.603   5.644
 5530TIP3    H216548   4.752   2.653   5.516
 5531TIP3   OH216549   7.022   5.372   1.914
 5531TIP3    H116550   7.017   5.299   1.976
 5531TIP3    H216551   6.931   5.395   1.896
 5532TIP3   OH216552   5.654   1.878   1.838
 5532TIP3    H116553   5.560   1.875   1.817
 5532TIP3    H216554   5.674   1.972   1.844
 5533TIP3   OH216555   1.305   6.419   1.257
 5533TIP3    H116556   1.216   6.454   1.252
 5533TIP3    H216557   1.345   6.464   1.331
 5534TIP3   OH216558   3.121   6.434   4.243
 5534TIP3    H116559   3.090   6.520   4.214
 5534TIP3    H216560   3.052   6.373   4.216
 5535TIP3   OH216561   7.313   1.985   0.685
 5535TIP3    H116562   7.224   1.989   0.722
 5535TIP3    H216563   7.335   1.892   0.687
 5536TIP3   OH216564   0.077   5.779   5.092
 5536TIP3    H116565   0.159   5.807   5.133
 5536TIP3    H216566   0.014   5.781   5.164
 5537TIP3   OH216567   0.769   1.289   5.267
 5537TIP3    H116568   0.693   1.236   5.242
 5537TIP3    H216569   0.836   1.225   5.289
 5538TIP3   OH216570   7.728   5.962   1.578
 5538TIP3    H116571   7.743   5.895   1.511
 5538TIP3    H216572   7.757   5.921   1.659
 5539TIP3   OH216573   4.122   3.986   5.824
 5539TIP3    H116574   4.178   4.010   5.750
 5539TIP3    H216575   4.087   3.900   5.800
 5540TIP3   OH216576   7.555   4.979   5.541
 5540TIP3    H116577   7.497   5.045   5.503
 5540TIP3    H216578   7.635   4.984   5.489
 5541TIP3   OH216579   1.374   3.511   5.033
 5541TIP3    H116580   1.421   3.430   5.054
 5541TIP3    H216581   1.427   3.580   5.072
 5542TIP3   OH216582   7.258   2.413   5.266
 5542TIP3    H116583   7.294   2.467   5.336
 5542TIP3    H216584   7.283   2.460   5.186
 5543TIP3   OH216585   5.342   1.175   4.152
 5543TIP3    H116586   5.419   1.217   4.191
 5543TIP3    H216587   5.316   1.234   4.082
 5544TIP3   OH216588   4.116   7.768   1.305
 5544TIP3    H116589   4.073   7.847   1.338
 5544TIP3    H216590   4.205   7.773   1.339
 5545TIP3   OH216591   1.586   3.281   6.487
 5545TIP3    H116592   1.566   3.364   6.532
 5545TIP3    H216593   1.579   3.302   6.394
 5546TIP3   OH216594   5.534   3.687   5.198
 5546TIP3    H116595   5.440   3.690   5.215
 5546TIP3    H216596   5.573   3.682   5.286
 5547TIP3   OH216597   5.966   5.848   1.054
 5547TIP3    H116598   5.968   5.753   1.042
 5547TIP3    H216599   5.941   5.860   1.146
 5548TIP3   OH216600   6.719   2.355   3.386
 5548TIP3    H116601   6.814   2.350   3.380
 5548TIP3    H216602   6.689   2.351   3.295
 5549TIP3   OH216603   3.321   2.326   3.251
 5549TIP3    H116604   3.328   2.413   3.289
 5549TIP3    H216605   3.289   2.341   3.162
 5550TIP3   OH216606   1.993   0.795   3.099
 5550TIP3    H116607   1.999   0.701   3.113
 5550TIP3    H216608   2.000   0.806   3.004
 5551TIP3   OH216609   4.886   4.319   2.411
 5551TIP3    H116610   4.870   4.403   2.454
 5551TIP3    H216611   4.813   4.264   2.438
 5552TIP3   OH216612   2.338   0.131   5.646
 5552TIP3    H116613   2.361   0.216   5.685
 5552TIP3    H216614   2.392   0.124   5.568
 5553TIP3   OH216615   3.772   0.612   3.994
 5553TIP3    H116616   3.867   0.603   3.989
 5553TIP3    H216617   3.752   0.603   4.087
 5554TIP3   OH216618   3.688   2.425   3.486
 5554TIP3    H116619   3.683   2.350   3.427
 5554TIP3    H216620   3.695   2.387   3.573
 5555TIP3   OH216621   7.927   6.705   5.032
 5555TIP3    H116622   7.888   6.704   5.119
 5555TIP3    H216623   8.020   6.687   5.046
 5556TIP3   OH216624   0.353   1.231   4.123
 5556TIP3    H116625   0.262   1.250   4.146
 5556TIP3    H216626   0.353   1.139   4.099
 5557TIP3   OH216627   4.075   0.765   4.249
 5557TIP3    H116628   3.995   0.813   4.270
 5557TIP3    H216629   4.125   0.764   4.330
 5558TIP3   OH216630   6.591   3.018   5.010
 5558TIP3    H116631   6.642   2.988   4.935
 5558TIP3    H216632   6.551   2.938   5.045
 5559TIP3   OH216633   1.523   7.389   1.276
 5559TIP3    H116634   1.545   7.301   1.246
 5559TIP3    H216635   1.449   7.415   1.222
 5560TIP3   OH216636   7.188   4.638   5.289
 5560TIP3    H116637   7.187   4.542   5.289
 5560TIP3    H216638   7.176   4.662   5.197
 5561TIP3   OH216639   3.328   6.083   6.780
 5561TIP3    H116640   3.334   6.065   6.686
 5561TIP3    H216641   3.234   6.089   6.798
 5562TIP3   OH216642   1.297   4.501   3.627
 5562TIP3    H116643   1.290   4.596   3.625
 5562TIP3    H216644   1.300   4.479   3.720
 5563TIP3   OH216645   3.401   6.712   4.419
 5563TIP3    H116646   3.467   6.697   4.487
 5563TIP3    H216647   3.410   6.638   4.360
 5564TIP3   OH216648   0.725   2.141   5.957
 5564TIP3    H116649   0.744   2.205   5.888
 5564TIP3    H216650   0.802   2.141   6.013
 5565TIP3   OH216651   7.882   6.876   4.050
 5565TIP3    H116652   7.823   6.811   4.012
 5565TIP3    H216653   7.969   6.837   4.042
 5566TIP3   OH216654   2.228   7.526   5.055
 5566TIP3    H116655   2.173   7.448   5.066
 5566TIP3    H216656   2.190   7.591   5.113
 5567TIP3   OH216657   7.871   3.008   1.021
 5567TIP3    H116658   7.817   3.083   0.995
 5567TIP3    H216659   7.832   2.975   1.101
 5568TIP3   OH216660   7.149   2.411   0.542
 5568TIP3    H116661   7.110   2.454   0.465
 5568TIP3    H216662   7.238   2.388   0.514
 5569TIP3   OH216663   0.595   6.814   1.021
 5569TIP3    H116664   0.554   6.834   0.937
 5569TIP3    H216665   0.521   6.803   1.081
 5570TIP3   OH216666   1.013   5.495   5.982
 5570TIP3    H116667   0.988   5.535   6.066
 5570TIP3    H216668   1.108   5.482   5.989
 5571TIP3   OH216669   4.856   0.991   0.543
 5571TIP3    H116670   4.770   1.032   0.556
 5571TIP3    H216671   4.904   1.011   0.622
 5572TIP3   OH216672   6.061   7.074   0.953
 5572TIP3    H116673   6.101   7.061   1.038
 5572TIP3    H216674   5.982   7.020   0.955
 5573TIP3   OH216675   4.443   2.704   5.672
 5573TIP3    H116676   4.361   2.659   5.689
 5573TIP3    H216677   4.471   2.737   5.757
 5574TIP3   OH216678   2.436   2.037   5.356
 5574TIP3    H116679   2.373   2.092   5.309
 5574TIP3    H216680   2.391   1.954   5.368
 5575TIP3   OH216681   5.047   0.816   4.311
 5575TIP3    H116682   5.015   0.737   4.268
 5575TIP3    H216683   5.005   0.888   4.264
 5576TIP3   OH216684   3.361   7.755   6.758
 5576TIP3    H116685   3.403   7.809   6.690
 5576TIP3    H216686   3.286   7.807   6.787
 5577TIP3   OH216687   1.723   3.601   6.552
 5577TIP3    H116688   1.709   3.668   6.485
 5577TIP3    H216689   1.809   3.565   6.533
 5578TIP3   OH216690   7.878   3.656   4.394
 5578TIP3    H116691   7.965   3.676   4.358
 5578TIP3    H216692   7.887   3.568   4.430
 5579TIP3   OH216693   4.156   1.707   3.663
 5579TIP3    H116694   4.178   1.737   3.752
 5579TIP3    H216695   4.134   1.787   3.616
 5580TIP3   OH216696   1.150   0.607   0.832
 5580TIP3    H116697   1.124   0.697   0.850
 5580TIP3    H216698   1.114   0.557   0.906
 5581TIP3   OH216699   0.840   7.686   0.803
 5581TIP3    H116700   0.887   7.762   0.771
 5581TIP3    H216701   0.909   7.625   0.831
 5582TIP3   OH216702   5.432   1.215   0.759
 5582TIP3    H116703   5.370   1.288   0.761
 5582TIP3    H216704   5.389   1.146   0.809
 5583TIP3   OH216705   4.417   0.766   5.448
 5583TIP3    H116706   4.477   0.731   5.382
 5583TIP3    H216707   4.430   0.861   5.444
 5584TIP3   OH216708   2.388   1.500   3.815
 5584TIP3    H116709   2.369   1.463   3.901
 5584TIP3    H216710   2.476   1.537   3.824
 5585TIP3   OH216711   5.288   0.084   2.099
 5585TIP3    H116712   5.245  -0.001   2.102
 5585TIP3    H216713   5.381   0.064   2.110
 5586TIP3   OH216714   0.379   5.892   2.713
 5586TIP3    H116715   0.290   5.863   2.736
 5586TIP3    H216716   0.435   5.820   2.741
 5587TIP3   OH216717   5.822   4.738   5.065
 5587TIP3    H116718   5.831   4.739   5.161
 5587TIP3    H216719   5.741   4.689   5.050
 5588TIP3   OH216720   6.202   1.705   1.615
 5588TIP3    H116721   6.149   1.783   1.632
 5588TIP3    H216722   6.277   1.737   1.565
 5589TIP3   OH216723   3.300   1.823   3.096
 5589TIP3    H116724   3.270   1.857   3.181
 5589TIP3    H216725   3.285   1.729   3.101
 5590TIP3   OH216726   2.076   0.514   6.750
 5590TIP3    H116727   1.991   0.549   6.726
 5590TIP3    H216728   2.074   0.423   6.718
 5591TIP3   OH216729   6.479   3.849   0.048
 5591TIP3    H116730   6.421   3.887   0.114
 5591TIP3    H216731   6.558   3.903   0.051
 5592TIP3   OH216732   0.218   3.273   4.826
 5592TIP3    H116733   0.268   3.340   4.872
 5592TIP3    H216734   0.147   3.250   4.886
 5593TIP3   OH216735   2.312   4.406   5.608
 5593TIP3    H116736   2.223   4.377   5.590
 5593TIP3    H216737   2.360   4.390   5.527
 5594TIP3   OH216738   6.026   3.384   4.110
 5594TIP3    H116739   6.037   3.324   4.036
 5594TIP3    H216740   6.023   3.328   4.187
 5595TIP3   OH216741   2.210   3.880   1.065
 5595TIP3    H116742   2.288   3.922   1.029
 5595TIP3    H216743   2.228   3.787   1.061
 5596TIP3   OH216744   7.504   6.512   4.937
 5596TIP3    H116745   7.413   6.515   4.908
 5596TIP3    H216746   7.500   6.472   5.024
 5597TIP3   OH216747   1.657   7.550   3.287
 5597TIP3    H116748   1.698   7.635   3.271
 5597TIP3    H216749   1.729   7.488   3.286
 5598TIP3   OH216750   2.302   0.575   3.661
 5598TIP3    H116751   2.337   0.627   3.589
 5598TIP3    H216752   2.286   0.489   3.623
 5599TIP3   OH216753   1.900   6.147   6.387
 5599TIP3    H116754   1.913   6.169   6.480
 5599TIP3    H216755   1.913   6.053   6.383
 5600TIP3   OH216756   7.850   5.598   2.363
 5600TIP3    H116757   7.926   5.656   2.359
 5600TIP3    H216758   7.879   5.519   2.317
 5601TIP3   OH216759   3.762   2.892   6.150
 5601TIP3    H116760   3.686   2.877   6.094
 5601TIP3    H216761   3.815   2.812   6.140
 5602TIP3   OH216762   3.089   0.296   1.611
 5602TIP3    H116763   3.115   0.235   1.542
 5602TIP3    H216764   3.091   0.243   1.691
 5603TIP3   OH216765   5.240   1.142   1.184
 5603TIP3    H116766   5.263   1.126   1.093
 5603TIP3    H216767   5.144   1.133   1.186
 5604TIP3   OH216768   6.149   5.709   2.322
 5604TIP3    H116769   6.233   5.754   2.322
 5604TIP3    H216770   6.100   5.748   2.249
 5605TIP3   OH216771   3.481   1.444   0.510
 5605TIP3    H116772   3.483   1.445   0.606
 5605TIP3    H216773   3.390   1.423   0.488
 5606TIP3   OH216774   5.203   0.494   1.500
 5606TIP3    H116775   5.237   0.413   1.463
 5606TIP3    H216776   5.175   0.471   1.588
 5607TIP3   OH216777   4.634   5.639   5.231
 5607TIP3    H116778   4.652   5.726   5.195
 5607TIP3    H216779   4.712   5.588   5.208
 5608TIP3   OH216780   3.560   1.889   6.106
 5608TIP3    H116781   3.651   1.911   6.127
 5608TIP3    H216782   3.566   1.814   6.046
 5609TIP3   OH216783   0.961   6.255   1.915
 5609TIP3    H116784   0.918   6.187   1.863
 5609TIP3    H216785   1.018   6.206   1.975
 5610TIP3   OH216786   7.571   6.290   2.965
 5610TIP3    H116787   7.590   6.384   2.962
 5610TIP3    H216788   7.644   6.254   3.015
 5611TIP3   OH216789   2.078   6.850   5.862
 5611TIP3    H116790   2.107   6.768   5.903
 5611TIP3    H216791   1.991   6.831   5.829
 5612TIP3   OH216792   4.341   6.799   5.557
 5612TIP3    H116793   4.361   6.853   5.481
 5612TIP3    H216794   4.247   6.782   5.550
 5613TIP3   OH216795   7.266   1.286   4.307
 5613TIP3    H116796   7.298   1.333   4.230
 5613TIP3    H216797   7.336   1.294   4.371
 5614TIP3   OH216798   2.385   7.044   3.752
 5614TIP3    H116799   2.400   6.950   3.765
 5614TIP3    H216800   2.416   7.061   3.663
 5615TIP3   OH216801   7.579   1.928   2.033
 5615TIP3    H116802   7.630   1.861   1.986
 5615TIP3    H216803   7.495   1.930   1.987
 5616TIP3   OH216804   8.091   7.378   3.947
 5616TIP3    H116805   8.098   7.286   3.974
 5616TIP3    H216806   8.170   7.419   3.983
 5617TIP3   OH216807   3.516   4.985   3.793
 5617TIP3    H116808   3.557   4.932   3.725
 5617TIP3    H216809   3.536   4.940   3.875
 5618TIP3   OH216810   6.201   0.157   2.069
 5618TIP3    H116811   6.294   0.182   2.071
 5618TIP3    H216812   6.202   0.061   2.061
 5619TIP3   OH216813   7.849   6.332   4.398
 5619TIP3    H116814   7.829   6.403   4.337
 5619TIP3    H216815   7.846   6.253   4.345
 5620TIP3   OH216816   4.570   1.295   2.224
 5620TIP3    H116817   4.617   1.359   2.171
 5620TIP3    H216818   4.536   1.345   2.298
 5621TIP3   OH216819   1.307   4.840   2.922
 5621TIP3    H116820   1.297   4.895   2.845
 5621TIP3    H216821   1.297   4.750   2.888
 5622TIP3   OH216822   1.188   7.574   4.139
 5622TIP3    H116823   1.196   7.663   4.103
 5622TIP3    H216824   1.188   7.587   4.234
 5623TIP3   OH216825   2.352   7.224   5.613
 5623TIP3    H116826   2.422   7.259   5.668
 5623TIP3    H216827   2.355   7.130   5.629
 5624TIP3   OH216828   7.059   4.990   6.330
 5624TIP3    H116829   7.024   5.003   6.419
 5624TIP3    H216830   7.095   4.902   6.331
 5625TIP3   OH216831   0.416   0.015   5.513
 5625TIP3    H116832   0.483  -0.037   5.468
 5625TIP3    H216833   0.451   0.027   5.602
 5626TIP3   OH216834   7.423   5.117   3.563
 5626TIP3    H116835   7.514   5.130   3.534
 5626TIP3    H216836   7.402   5.196   3.613
 5627TIP3   OH216837   6.824   5.859   4.541
 5627TIP3    H116838   6.840   5.920   4.469
 5627TIP3    H216839   6.893   5.878   4.605
 5628TIP3   OH216840   5.056   2.669   1.193
 5628TIP3    H116841   5.119   2.610   1.151
 5628TIP3    H216842   5.057   2.747   1.139
 5629TIP3   OH216843   6.444   0.634   3.864
 5629TIP3    H116844   6.442   0.538   3.863
 5629TIP3    H216845   6.372   0.660   3.807
 5630TIP3   OH216846   3.165   2.634   5.469
 5630TIP3    H116847   3.190   2.692   5.397
 5630TIP3    H216848   3.247   2.596   5.500
 5631TIP3   OH216849   4.983   3.951   4.867
 5631TIP3    H116850   4.979   3.919   4.956
 5631TIP3    H216851   5.016   3.877   4.816
 5632TIP3   OH216852   4.108   2.338   5.596
 5632TIP3    H116853   4.169   2.275   5.558
 5632TIP3    H216854   4.133   2.342   5.689
 5633TIP3   OH216855   2.994   0.846   3.986
 5633TIP3    H116856   3.075   0.795   3.990
 5633TIP3    H216857   2.925   0.781   3.973
 5634TIP3   OH216858   0.397   5.735   4.940
 5634TIP3    H116859   0.447   5.665   4.898
 5634TIP3    H216860   0.442   5.815   4.913
 5635TIP3   OH216861   1.509   7.243   0.914
 5635TIP3    H116862   1.420   7.232   0.948
 5635TIP3    H216863   1.498   7.244   0.819
 5636TIP3   OH216864   2.683   0.511   5.544
 5636TIP3    H116865   2.675   0.416   5.536
 5636TIP3    H216866   2.629   0.534   5.620
 5637TIP3   OH216867   2.294   0.140   0.278
 5637TIP3    H116868   2.299   0.048   0.304
 5637TIP3    H216869   2.366   0.182   0.325
 5638TIP3   OH216870   0.562   2.332   5.465
 5638TIP3    H116871   0.609   2.265   5.415
 5638TIP3    H216872   0.594   2.322   5.555
 5639TIP3   OH216873   1.137   1.878   0.947
 5639TIP3    H116874   1.056   1.928   0.960
 5639TIP3    H216875   1.194   1.938   0.898
 5640TIP3   OH216876   1.962   0.776   4.064
 5640TIP3    H116877   1.887   0.722   4.039
 5640TIP3    H216878   2.036   0.736   4.018
 5641TIP3   OH216879   2.435   4.843   3.864
 5641TIP3    H116880   2.481   4.925   3.881
 5641TIP3    H216881   2.459   4.787   3.938
 5642TIP3   OH216882   3.745   4.125   2.297
 5642TIP3    H116883   3.673   4.066   2.273
 5642TIP3    H216884   3.701   4.206   2.322
 5643TIP3   OH216885   3.634   4.167   2.640
 5643TIP3    H116886   3.703   4.204   2.585
 5643TIP3    H216887   3.570   4.237   2.649
 5644TIP3   OH216888   2.290   7.570   3.890
 5644TIP3    H116889   2.213   7.520   3.920
 5644TIP3    H216890   2.286   7.652   3.939
 5645TIP3   OH216891   4.137   3.537   0.322
 5645TIP3    H116892   4.126   3.563   0.414
 5645TIP3    H216893   4.214   3.586   0.293
 5646TIP3   OH216894   1.774   1.032   6.152
 5646TIP3    H116895   1.814   1.013   6.237
 5646TIP3    H216896   1.780   0.950   6.104
 5647TIP3   OH216897   7.066   1.632   0.143
 5647TIP3    H116898   7.044   1.709   0.092
 5647TIP3    H216899   7.070   1.561   0.079
 5648TIP3   OH216900   4.786   7.205   5.721
 5648TIP3    H116901   4.880   7.190   5.730
 5648TIP3    H216902   4.762   7.257   5.797
 5649TIP3   OH216903   1.528   5.441   2.232
 5649TIP3    H116904   1.501   5.388   2.157
 5649TIP3    H216905   1.446   5.466   2.274
 5650TIP3   OH216906   5.707   7.346   0.364
 5650TIP3    H116907   5.727   7.257   0.333
 5650TIP3    H216908   5.622   7.337   0.407
 5651TIP3   OH216909   7.600   5.544   6.408
 5651TIP3    H116910   7.531   5.530   6.473
 5651TIP3    H216911   7.675   5.496   6.442
 5652TIP3   OH216912   0.671   1.181   6.106
 5652TIP3    H116913   0.752   1.225   6.082
 5652TIP3    H216914   0.602   1.238   6.072
 5653TIP3   OH216915   1.762   2.619   4.265
 5653TIP3    H116916   1.849   2.644   4.234
 5653TIP3    H216917   1.703   2.680   4.221
 5654TIP3   OH216918   3.297   2.073   2.659
 5654TIP3    H116919   3.260   2.042   2.741
 5654TIP3    H216920   3.379   2.025   2.649
 5655TIP3   OH216921   3.818   5.665   2.344
 5655TIP3    H116922   3.743   5.607   2.357
 5655TIP3    H216923   3.861   5.630   2.266
 5656TIP3   OH216924   5.954   1.174   6.195
 5656TIP3    H116925   5.959   1.146   6.286
 5656TIP3    H216926   5.978   1.096   6.145
 5657TIP3   OH216927   7.242   2.877   4.256
 5657TIP3    H116928   7.262   2.814   4.325
 5657TIP3    H216929   7.301   2.951   4.273
 5658TIP3   OH216930   2.369   6.897   2.492
 5658TIP3    H116931   2.318   6.885   2.413
 5658TIP3    H216932   2.445   6.840   2.481
 5659TIP3   OH216933   8.119   3.456   3.072
 5659TIP3    H116934   8.136   3.365   3.099
 5659TIP3    H216935   8.198   3.503   3.098
 5660TIP3   OH216936   0.556   4.402   3.014
 5660TIP3    H116937   0.486   4.338   3.002
 5660TIP3    H216938   0.634   4.358   2.980
 5661TIP3   OH216939   7.284   1.634   1.879
 5661TIP3    H116940   7.357   1.616   1.820
 5661TIP3    H216941   7.326   1.666   1.960
 5662TIP3   OH216942   2.292   1.853   6.475
 5662TIP3    H116943   2.281   1.935   6.427
 5662TIP3    H216944   2.336   1.795   6.413
 5663TIP3   OH216945   5.011   0.553   2.233
 5663TIP3    H116946   4.985   0.535   2.323
 5663TIP3    H216947   4.980   0.643   2.218
 5664TIP3   OH216948   6.913   7.387   5.034
 5664TIP3    H116949   6.896   7.381   4.940
 5664TIP3    H216950   6.987   7.329   5.050
 5665TIP3   OH216951   3.184   1.966   2.890
 5665TIP3    H116952   3.105   1.994   2.936
 5665TIP3    H216953   3.232   1.914   2.954
 5666TIP3   OH216954   8.023   0.729   1.895
 5666TIP3    H116955   7.948   0.755   1.842
 5666TIP3    H216956   8.099   0.749   1.839
 5667TIP3   OH216957   7.359   5.295   2.769
 5667TIP3    H116958   7.424   5.232   2.800
 5667TIP3    H216959   7.396   5.380   2.793
 5668TIP3   OH216960   6.307   1.464   0.299
 5668TIP3    H116961   6.269   1.474   0.386
 5668TIP3    H216962   6.287   1.546   0.254
 5669TIP3   OH216963   2.920   2.785   3.210
 5669TIP3    H116964   2.989   2.812   3.149
 5669TIP3    H216965   2.870   2.864   3.227
 5670TIP3   OH216966   6.079   5.901   4.867
 5670TIP3    H116967   6.075   5.965   4.796
 5670TIP3    H216968   6.123   5.946   4.938
 5671TIP3   OH216969   1.890   4.012   5.834
 5671TIP3    H116970   1.881   4.022   5.739
 5671TIP3    H216971   1.978   3.975   5.846
 5672TIP3   OH216972   1.856   4.203   3.500
 5672TIP3    H116973   1.845   4.169   3.589
 5672TIP3    H216974   1.776   4.177   3.454
 5673TIP3   OH216975   8.197   1.660   3.082
 5673TIP3    H116976   8.274   1.621   3.040
 5673TIP3    H216977   8.222   1.751   3.097
 5674TIP3   OH216978   0.365   4.625   0.719
 5674TIP3    H116979   0.413   4.692   0.767
 5674TIP3    H216980   0.318   4.673   0.651
 5675TIP3   OH216981   5.185   3.658   0.576
 5675TIP3    H116982   5.130   3.736   0.569
 5675TIP3    H216983   5.220   3.646   0.488
 5676TIP3   OH216984   3.139   7.215   4.826
 5676TIP3    H116985   3.147   7.121   4.810
 5676TIP3    H216986   3.076   7.245   4.760
 5677TIP3   OH216987   1.371   6.051   3.990
 5677TIP3    H116988   1.318   6.095   4.058
 5677TIP3    H216989   1.410   5.977   4.036
 5678TIP3   OH216990   0.773   3.335   4.838
 5678TIP3    H116991   0.849   3.392   4.849
 5678TIP3    H216992   0.754   3.304   4.926
 5679TIP3   OH216993   6.721   3.683   0.160
 5679TIP3    H116994   6.697   3.591   0.149
 5679TIP3    H216995   6.638   3.729   0.167
 5680TIP3   OH216996   4.112   2.340   4.083
 5680TIP3    H116997   4.032   2.369   4.127
 5680TIP3    H216998   4.161   2.294   4.152
 5681TIP3   OH216999   7.963   7.260   0.638
 5681TIP3    H117000   8.055   7.241   0.653
 5681TIP3    H217001   7.924   7.175   0.619
 5682TIP3   OH217002   2.187   1.256   1.954
 5682TIP3    H117003   2.273   1.251   1.913
 5682TIP3    H217004   2.159   1.165   1.962
 5683TIP3   OH217005   7.199   3.117   4.738
 5683TIP3    H117006   7.166   3.204   4.713
 5683TIP3    H217007   7.282   3.109   4.691
 5684TIP3   OH217008   1.149   7.507   3.217
 5684TIP3    H117009   1.163   7.447   3.290
 5684TIP3    H217010   1.113   7.452   3.147
 5685TIP3   OH217011   3.848   4.883   2.543
 5685TIP3    H117012   3.853   4.866   2.637
 5685TIP3    H217013   3.756   4.864   2.520
 5686TIP3   OH217014   1.022   5.163   1.127
 5686TIP3    H117015   1.084   5.156   1.054
 5686TIP3    H217016   1.003   5.257   1.134
 5687TIP3   OH217017   5.786   6.990   1.452
 5687TIP3    H117018   5.713   6.979   1.391
 5687TIP3    H217019   5.773   7.077   1.490
 5688TIP3   OH217020   0.209   6.407   3.511
 5688TIP3    H117021   0.200   6.502   3.518
 5688TIP3    H217022   0.125   6.378   3.475
 5689TIP3   OH217023   5.085   5.481   0.740
 5689TIP3    H117024   5.096   5.486   0.835
 5689TIP3    H217025   5.046   5.565   0.716
 5690TIP3   OH217026   5.025   7.453   6.539
 5690TIP3    H117027   4.964   7.525   6.551
 5690TIP3    H217028   4.973   7.374   6.553
 5691TIP3   OH217029   2.956   5.132   5.165
 5691TIP3    H117030   2.896   5.117   5.092
 5691TIP3    H217031   3.033   5.172   5.126
 5692TIP3   OH217032   8.034   0.898   2.828
 5692TIP3    H117033   7.958   0.952   2.852
 5692TIP3    H217034   8.016   0.869   2.739
 5693TIP3   OH217035   1.718   7.538   4.241
 5693TIP3    H117036   1.624   7.546   4.225
 5693TIP3    H217037   1.755   7.620   4.211
 5694TIP3   OH217038   0.962   6.934   1.686
 5694TIP3    H117039   0.998   6.880   1.757
 5694TIP3    H217040   0.907   6.998   1.731
 5695TIP3   OH217041   5.790   1.906   1.438
 5695TIP3    H117042   5.868   1.954   1.409
 5695TIP3    H217043   5.747   1.966   1.500
 5696TIP3   OH217044   1.680   1.942   1.292
 5696TIP3    H117045   1.731   1.968   1.216
 5696TIP3    H217046   1.698   2.009   1.357
 5697TIP3   OH217047   7.769   1.615   4.957
 5697TIP3    H117048   7.742   1.537   4.907
 5697TIP3    H217049   7.829   1.581   5.023
 5698TIP3   OH217050   2.006   0.149   3.013
 5698TIP3    H117051   2.006   0.231   2.963
 5698TIP3    H217052   2.023   0.081   2.949
 5699TIP3   OH217053   7.598   7.824   2.797
 5699TIP3    H117054   7.508   7.840   2.768
 5699TIP3    H217055   7.619   7.738   2.762
 5700TIP3   OH217056   3.571   2.712   2.583
 5700TIP3    H117057   3.554   2.622   2.611
 5700TIP3    H217058   3.498   2.763   2.621
 5701TIP3   OH217059   2.832   5.824   5.500
 5701TIP3    H117060   2.792   5.876   5.570
 5701TIP3    H217061   2.759   5.797   5.445
 5702TIP3   OH217062   5.507   5.428   0.755
 5702TIP3    H117063   5.595   5.429   0.717
 5702TIP3    H217064   5.500   5.512   0.801
 5703TIP3   OH217065   1.686   0.430   5.688
 5703TIP3    H117066   1.645   0.450   5.773
 5703TIP3    H217067   1.625   0.465   5.623
 5704TIP3   OH217068   2.841   0.954   4.635
 5704TIP3    H117069   2.933   0.938   4.613
 5704TIP3    H217070   2.812   0.872   4.675
 5705TIP3   OH217071   0.440   6.176   3.666
 5705TIP3    H117072   0.423   6.220   3.583
 5705TIP3    H217073   0.522   6.214   3.697
 5706TIP3   OH217074   0.807   5.010   0.980
 5706TIP3    H117075   0.897   5.033   1.003
 5706TIP3    H217076   0.770   4.971   1.059
 5707TIP3   OH217077   2.496   1.340   0.241
 5707TIP3    H117078   2.497   1.280   0.167
 5707TIP3    H217079   2.520   1.425   0.203
 5708TIP3   OH217080   0.937   7.690   2.442
 5708TIP3    H117081   0.892   7.774   2.431
 5708TIP3    H217082   1.029   7.710   2.427
 5709TIP3   OH217083   4.990   4.393   3.284
 5709TIP3    H117084   5.068   4.409   3.337
 5709TIP3    H217085   4.980   4.471   3.230
 5710TIP3   OH217086   0.552   6.967   2.691
 5710TIP3    H117087   0.470   6.935   2.655
 5710TIP3    H217088   0.608   6.889   2.698
 5711TIP3   OH217089   6.235   1.711   0.210
 5711TIP3    H117090   6.185   1.778   0.257
 5711TIP3    H217091   6.283   1.759   0.143
 5712TIP3   OH217092   4.777   6.971   2.683
 5712TIP3    H117093   4.707   7.023   2.642
 5712TIP3    H217094   4.858   7.005   2.644
 5713TIP3   OH217095   2.974   7.750   0.062
 5713TIP3    H117096   2.961   7.817  -0.005
 5713TIP3    H217097   3.034   7.687   0.021
 5714TIP3   OH217098   1.831   7.520   3.796
 5714TIP3    H117099   1.856   7.591   3.736
 5714TIP3    H217100   1.806   7.448   3.738
 5715TIP3   OH217101   7.018   7.481   6.061
 5715TIP3    H117102   6.967   7.456   5.984
 5715TIP3    H217103   7.082   7.544   6.027
 5716TIP3   OH217104   0.653   4.421   5.192
 5716TIP3    H117105   0.605   4.442   5.272
 5716TIP3    H217106   0.669   4.327   5.197
 5717TIP3   OH217107   5.665   2.629   0.767
 5717TIP3    H117108   5.680   2.540   0.736
 5717TIP3    H217109   5.589   2.659   0.717
 5718TIP3   OH217110   0.506   7.218   2.353
 5718TIP3    H117111   0.540   7.213   2.442
 5718TIP3    H217112   0.512   7.129   2.319
 5719TIP3   OH217113   1.429   7.211   4.780
 5719TIP3    H117114   1.444   7.228   4.873
 5719TIP3    H217115   1.469   7.125   4.765
 5720TIP3   OH217116   0.049   0.867   2.494
 5720TIP3    H117117  -0.016   0.835   2.556
 5720TIP3    H217118   0.008   0.943   2.453
 5721TIP3   OH217119   2.085   3.793   4.989
 5721TIP3    H117120   2.120   3.713   4.951
 5721TIP3    H217121   2.002   3.767   5.028
 5722TIP3   OH217122   0.936   4.551   1.685
 5722TIP3    H117123   0.861   4.514   1.733
 5722TIP3    H217124   0.898   4.621   1.632
 5723TIP3   OH217125   2.385   3.186   1.025
 5723TIP3    H117126   2.348   3.098   1.017
 5723TIP3    H217127   2.475   3.177   0.994
 5724TIP3   OH217128   2.293   3.551   3.697
 5724TIP3    H117129   2.356   3.486   3.668
 5724TIP3    H217130   2.322   3.577   3.784
 5725TIP3   OH217131   0.412   2.363   1.513
 5725TIP3    H117132   0.503   2.335   1.522
 5725TIP3    H217133   0.416   2.444   1.462
 5726TIP3   OH217134   1.265   3.211   0.280
 5726TIP3    H117135   1.242   3.156   0.204
 5726TIP3    H217136   1.190   3.269   0.290
 5727TIP3   OH217137   3.431   7.381   4.908
 5727TIP3    H117138   3.479   7.415   4.984
 5727TIP3    H217139   3.496   7.331   4.859
 5728TIP3   OH217140   3.469   0.294   6.458
 5728TIP3    H117141   3.425   0.211   6.474
 5728TIP3    H217142   3.558   0.270   6.434
 5729TIP3   OH217143   0.839   6.637   6.256
 5729TIP3    H117144   0.847   6.542   6.251
 5729TIP3    H217145   0.802   6.663   6.172
 5730TIP3   OH217146   7.374   4.275   3.997
 5730TIP3    H117147   7.422   4.312   3.923
 5730TIP3    H217148   7.443   4.251   4.060
 5731TIP3   OH217149   2.344   5.937   1.099
 5731TIP3    H117150   2.345   5.841   1.102
 5731TIP3    H217151   2.251   5.960   1.097
 5732TIP3   OH217152   1.093   3.832   5.922
 5732TIP3    H117153   1.077   3.825   6.016
 5732TIP3    H217154   1.159   3.901   5.914
 5733TIP3   OH217155   3.232   1.666   6.349
 5733TIP3    H117156   3.327   1.672   6.356
 5733TIP3    H217157   3.213   1.688   6.258
 5734TIP3   OH217158   2.772   7.214   1.554
 5734TIP3    H117159   2.809   7.127   1.566
 5734TIP3    H217160   2.818   7.250   1.478
 5735TIP3   OH217161   2.337   2.455   3.125
 5735TIP3    H117162   2.392   2.453   3.203
 5735TIP3    H217163   2.267   2.392   3.143
 5736TIP3   OH217164   1.284   0.780   0.390
 5736TIP3    H117165   1.265   0.700   0.340
 5736TIP3    H217166   1.286   0.751   0.481
 5737TIP3   OH217167   3.302   5.900   5.803
 5737TIP3    H117168   3.255   5.962   5.747
 5737TIP3    H217169   3.236   5.837   5.831
 5738TIP3   OH217170   1.646   2.019   2.651
 5738TIP3    H117171   1.610   1.965   2.722
 5738TIP3    H217172   1.627   1.969   2.572
 5739TIP3   OH217173   0.798   5.408   2.365
 5739TIP3    H117174   0.825   5.446   2.281
 5739TIP3    H217175   0.705   5.391   2.354
 5740TIP3   OH217176   5.586   7.341   2.442
 5740TIP3    H117177   5.664   7.393   2.425
 5740TIP3    H217178   5.618   7.268   2.497
 5741TIP3   OH217179   2.391   5.587   6.272
 5741TIP3    H117180   2.342   5.551   6.346
 5741TIP3    H217181   2.471   5.534   6.268
 5742TIP3   OH217182   5.466   5.776   3.201
 5742TIP3    H117183   5.508   5.709   3.254
 5742TIP3    H217184   5.440   5.731   3.121
 5743TIP3   OH217185   6.780   0.705   5.631
 5743TIP3    H117186   6.710   0.717   5.568
 5743TIP3    H217187   6.794   0.610   5.634
 5744TIP3   OH217188   6.337   7.719   3.053
 5744TIP3    H117189   6.301   7.632   3.070
 5744TIP3    H217190   6.275   7.779   3.094
 5745TIP3   OH217191   1.293   1.742   0.753
 5745TIP3    H117192   1.235   1.791   0.811
 5745TIP3    H217193   1.234   1.700   0.691
 5746TIP3   OH217194   5.440   6.757   0.671
 5746TIP3    H117195   5.420   6.688   0.733
 5746TIP3    H217196   5.531   6.780   0.689
 5747TIP3   OH217197   5.653   1.490   6.280
 5747TIP3    H117198   5.716   1.488   6.351
 5747TIP3    H217199   5.639   1.583   6.263
 5748TIP3   OH217200   3.099   6.279   0.103
 5748TIP3    H117201   3.178   6.263   0.155
 5748TIP3    H217202   3.055   6.351   0.149
 5749TIP3   OH217203   2.523   0.130   3.896
 5749TIP3    H117204   2.536   0.216   3.937
 5749TIP3    H217205   2.556   0.067   3.961
 5750TIP3   OH217206   0.699   2.641   4.254
 5750TIP3    H117207   0.784   2.599   4.248
 5750TIP3    H217208   0.716   2.722   4.303
 5751TIP3   OH217209   3.844   3.603   2.943
 5751TIP3    H117210   3.789   3.628   2.868
 5751TIP3    H217211   3.880   3.685   2.975
 5752TIP3   OH217212   3.736   3.821   0.554
 5752TIP3    H117213   3.773   3.894   0.505
 5752TIP3    H217214   3.705   3.760   0.487
 5753TIP3   OH217215   7.535   3.127   1.347
 5753TIP3    H117216   7.586   3.078   1.411
 5753TIP3    H217217   7.444   3.101   1.363
 5754TIP3   OH217218   4.126   5.454   2.355
 5754TIP3    H117219   4.138   5.367   2.392
 5754TIP3    H217220   4.067   5.499   2.416
 5755TIP3   OH217221   2.903   2.096   0.825
 5755TIP3    H117222   2.808   2.102   0.836
 5755TIP3    H217223   2.927   2.178   0.781
 5756TIP3   OH217224   3.223   1.300   0.077
 5756TIP3    H117225   3.287   1.230   0.061
 5756TIP3    H217226   3.194   1.325  -0.011
 5757TIP3   OH217227   4.944   5.371   6.519
 5757TIP3    H117228   5.024   5.422   6.532
 5757TIP3    H217229   4.883   5.432   6.477
 5758TIP3   OH217230   4.309   0.785   6.317
 5758TIP3    H117231   4.353   0.793   6.402
 5758TIP3    H217232   4.371   0.822   6.255
 5759TIP3   OH217233   1.757   4.824   0.321
 5759TIP3    H117234   1.811   4.870   0.258
 5759TIP3    H217235   1.675   4.874   0.324
 5760TIP3   OH217236   5.980   1.445   6.493
 5760TIP3    H117237   6.013   1.511   6.432
 5760TIP3    H217238   6.005   1.478   6.579
 5761TIP3   OH217239   1.578   7.240   0.617
 5761TIP3    H117240   1.537   7.309   0.564
 5761TIP3    H217241   1.647   7.285   0.665
 5762TIP3   OH217242   3.348   2.340   3.714
 5762TIP3    H117243   3.314   2.424   3.683
 5762TIP3    H217244   3.293   2.319   3.790
 5763TIP3   OH217245   7.300   2.833   0.434
 5763TIP3    H117246   7.241   2.868   0.367
 5763TIP3    H217247   7.356   2.772   0.387
 5764TIP3   OH217248   0.664   6.811   2.921
 5764TIP3    H117249   0.573   6.841   2.914
 5764TIP3    H217250   0.708   6.882   2.968
 5765TIP3   OH217251   3.990   4.949   3.219
 5765TIP3    H117252   3.971   4.866   3.262
 5765TIP3    H217253   4.017   4.925   3.130
 5766TIP3   OH217254   6.500   3.590   2.886
 5766TIP3    H117255   6.434   3.659   2.892
 5766TIP3    H217256   6.563   3.610   2.955
 5767TIP3   OH217257   3.165   4.406   4.113
 5767TIP3    H117258   3.154   4.413   4.018
 5767TIP3    H217259   3.150   4.494   4.146
 5768TIP3   OH217260   4.315   3.364   2.650
 5768TIP3    H117261   4.311   3.433   2.583
 5768TIP3    H217262   4.298   3.409   2.732
 5769TIP3   OH217263   6.916   6.589   5.160
 5769TIP3    H117264   6.919   6.501   5.197
 5769TIP3    H217265   6.827   6.620   5.179
 5770TIP3   OH217266   5.611   1.226   0.133
 5770TIP3    H117267   5.634   1.271   0.214
 5770TIP3    H217268   5.682   1.248   0.072
 5771TIP3   OH217269   0.436   0.869   4.582
 5771TIP3    H117270   0.528   0.861   4.555
 5771TIP3    H217271   0.413   0.782   4.614
 5772TIP3   OH217272   3.886   6.233   4.302
 5772TIP3    H117273   3.924   6.224   4.214
 5772TIP3    H217274   3.951   6.282   4.351
 5773TIP3   OH217275   3.987   5.858   2.776
 5773TIP3    H117276   3.911   5.899   2.734
 5773TIP3    H217277   4.053   5.855   2.707
 5774TIP3   OH217278   1.938   3.962   2.511
 5774TIP3    H117279   1.871   3.978   2.445
 5774TIP3    H217280   2.012   4.017   2.484
 5775TIP3   OH217281   8.112   4.964   4.166
 5775TIP3    H117282   8.172   5.005   4.228
 5775TIP3    H217283   8.106   4.873   4.193
 5776TIP3   OH217284   2.306   3.234   4.318
 5776TIP3    H117285   2.312   3.234   4.222
 5776TIP3    H217286   2.396   3.223   4.348
 5777TIP3   OH217287   6.656   3.534   1.864
 5777TIP3    H117288   6.579   3.549   1.918
 5777TIP3    H217289   6.718   3.491   1.922
 5778TIP3   OH217290   3.561   3.457   4.639
 5778TIP3    H117291   3.617   3.381   4.621
 5778TIP3    H217292   3.612   3.532   4.609
 5779TIP3   OH217293   3.470   5.709   5.360
 5779TIP3    H117294   3.549   5.730   5.311
 5779TIP3    H217295   3.432   5.794   5.381
 5780TIP3   OH217296   2.952   6.449   6.067
 5780TIP3    H117297   2.984   6.426   5.980
 5780TIP3    H217298   3.023   6.498   6.107
 5781TIP3   OH217299   3.113   6.936   2.061
 5781TIP3    H117300   3.167   6.857   2.067
 5781TIP3    H217301   3.151   6.996   2.126
 5782TIP3   OH217302   4.277   1.086   6.730
 5782TIP3    H117303   4.246   1.005   6.772
 5782TIP3    H217304   4.324   1.056   6.652
 5783TIP3   OH217305   6.115   5.505   0.414
 5783TIP3    H117306   6.021   5.523   0.408
 5783TIP3    H217307   6.146   5.559   0.487
 5784TIP3   OH217308   0.549   3.649   0.230
 5784TIP3    H117309   0.578   3.726   0.181
 5784TIP3    H217310   0.622   3.587   0.221
 5785TIP3   OH217311   4.091   1.171   4.975
 5785TIP3    H117312   4.001   1.141   4.968
 5785TIP3    H217313   4.120   1.182   4.885
 5786TIP3   OH217314   3.042   0.309   3.138
 5786TIP3    H117315   3.124   0.293   3.092
 5786TIP3    H217316   3.054   0.266   3.223
 5787TIP3   OH217317   6.233   3.777   6.098
 5787TIP3    H117318   6.236   3.716   6.172
 5787TIP3    H217319   6.325   3.787   6.072
 5788TIP3   OH217320   2.409   6.043   0.798
 5788TIP3    H117321   2.379   6.062   0.887
 5788TIP3    H217322   2.389   5.950   0.786
 5789TIP3   OH217323   5.861   6.727   3.223
 5789TIP3    H117324   5.842   6.812   3.263
 5789TIP3    H217325   5.809   6.725   3.143
 5790TIP3   OH217326   5.001   2.119   2.851
 5790TIP3    H117327   5.080   2.147   2.806
 5790TIP3    H217328   4.984   2.031   2.818
 5791TIP3   OH217329   6.421   0.090   0.529
 5791TIP3    H117330   6.447   0.108   0.439
 5791TIP3    H217331   6.476   0.147   0.582
 5792TIP3   OH217332   5.354   1.007   5.249
 5792TIP3    H117333   5.354   1.026   5.155
 5792TIP3    H217334   5.360   1.092   5.291
 5793TIP3   OH217335   0.056   0.196   2.452
 5793TIP3    H117336   0.027   0.129   2.390
 5793TIP3    H217337   0.135   0.233   2.412
 5794TIP3   OH217338   6.451   1.852   6.403
 5794TIP3    H117339   6.480   1.804   6.325
 5794TIP3    H217340   6.369   1.809   6.428
 5795TIP3   OH217341   4.111   3.952   6.571
 5795TIP3    H117342   4.204   3.935   6.586
 5795TIP3    H217343   4.080   3.876   6.522
 5796TIP3   OH217344   0.859   5.417   1.338
 5796TIP3    H117345   0.873   5.416   1.243
 5796TIP3    H217346   0.802   5.492   1.352
 5797TIP3   OH217347   5.251   5.804   0.806
 5797TIP3    H117348   5.174   5.791   0.750
 5797TIP3    H217349   5.217   5.795   0.895
 5798TIP3   OH217350   4.835   6.823   3.943
 5798TIP3    H117351   4.837   6.764   3.868
 5798TIP3    H217352   4.770   6.786   4.002
 5799TIP3   OH217353   7.260   7.330   1.856
 5799TIP3    H117354   7.251   7.276   1.778
 5799TIP3    H217355   7.171   7.353   1.880
 5800TIP3   OH217356   2.768   1.816   5.139
 5800TIP3    H117357   2.714   1.773   5.073
 5800TIP3    H217358   2.785   1.748   5.204
 5801TIP3   OH217359   4.526   4.249   5.990
 5801TIP3    H117360   4.433   4.233   6.008
 5801TIP3    H217361   4.529   4.341   5.963
 5802TIP3   OH217362   3.368   0.386   1.545
 5802TIP3    H117363   3.296   0.336   1.584
 5802TIP3    H217364   3.446   0.358   1.592
 5803TIP3   OH217365   6.961   2.316   4.586
 5803TIP3    H117366   6.899   2.372   4.632
 5803TIP3    H217367   6.906   2.258   4.533
 5804TIP3   OH217368   7.430   4.486   1.799
 5804TIP3    H117369   7.350   4.505   1.849
 5804TIP3    H217370   7.468   4.410   1.842
 5805TIP3   OH217371   6.179   0.583   0.201
 5805TIP3    H117372   6.104   0.565   0.258
 5805TIP3    H217373   6.150   0.554   0.114
 5806TIP3   OH217374   8.028   3.293   3.500
 5806TIP3    H117375   8.002   3.266   3.411
 5806TIP3    H217376   7.947   3.290   3.551
 5807TIP3   OH217377   1.628   0.292   3.274
 5807TIP3    H117378   1.582   0.221   3.317
 5807TIP3    H217379   1.560   0.347   3.235
 5808TIP3   OH217380   6.874   3.920   6.122
 5808TIP3    H117381   6.828   4.004   6.131
 5808TIP3    H217382   6.808   3.854   6.139
 5809TIP3   OH217383   0.570   3.495   2.455
 5809TIP3    H117384   0.605   3.443   2.527
 5809TIP3    H217385   0.572   3.436   2.380
 5810TIP3   OH217386   5.691   5.663   6.210
 5810TIP3    H117387   5.596   5.655   6.213
 5810TIP3    H217388   5.708   5.756   6.224
 5811TIP3   OH217389   1.349   4.783   2.079
 5811TIP3    H117390   1.287   4.714   2.056
 5811TIP3    H217391   1.296   4.849   2.124
 5812TIP3   OH217392   6.858   4.926   0.442
 5812TIP3    H117393   6.898   4.954   0.360
 5812TIP3    H217394   6.919   4.956   0.510
 5813TIP3   OH217395   4.412   5.288   3.236
 5813TIP3    H117396   4.363   5.356   3.284
 5813TIP3    H217397   4.346   5.223   3.213
 5814TIP3   OH217398   3.136   2.661   5.180
 5814TIP3    H117399   3.102   2.580   5.142
 5814TIP3    H217400   3.204   2.689   5.119
 5815TIP3   OH217401   2.255   5.864  -0.008
 5815TIP3    H117402   2.257   5.769  -0.001
 5815TIP3    H217403   2.324   5.894   0.051
 5816TIP3   OH217404   5.387   3.872   4.540
 5816TIP3    H117405   5.333   3.945   4.567
 5816TIP3    H217406   5.394   3.817   4.618
 5817TIP3   OH217407   4.322   5.955   1.664
 5817TIP3    H117408   4.232   5.989   1.660
 5817TIP3    H217409   4.312   5.861   1.648
 5818TIP3   OH217410   6.286   6.105   0.706
 5818TIP3    H117411   6.199   6.104   0.668
 5818TIP3    H217412   6.332   6.033   0.664
 5819TIP3   OH217413   8.269   2.292   3.474
 5819TIP3    H117414   8.230   2.216   3.430
 5819TIP3    H217415   8.360   2.267   3.489
 5820TIP3   OH217416   3.690   4.174   5.503
 5820TIP3    H117417   3.641   4.223   5.570
 5820TIP3    H217418   3.688   4.084   5.535
 5821TIP3   OH217419   5.265   7.791   3.197
 5821TIP3    H117420   5.317   7.869   3.180
 5821TIP3    H217421   5.328   7.726   3.229
 5822TIP3   OH217422   2.591   7.224   1.214
 5822TIP3    H117423   2.564   7.249   1.126
 5822TIP3    H217424   2.619   7.306   1.255
 5823TIP3   OH217425   2.195   1.811   1.817
 5823TIP3    H117426   2.208   1.898   1.778
 5823TIP3    H217427   2.164   1.756   1.745
 5824TIP3   OH217428   2.429   7.160   4.498
 5824TIP3    H117429   2.433   7.252   4.522
 5824TIP3    H217430   2.359   7.124   4.552
 5825TIP3   OH217431   7.566   1.902   5.895
 5825TIP3    H117432   7.478   1.924   5.865
 5825TIP3    H217433   7.613   1.986   5.895
 5826TIP3   OH217434   3.027   3.061   0.843
 5826TIP3    H117435   2.987   3.011   0.915
 5826TIP3    H217436   3.040   3.148   0.880
 5827TIP3   OH217437   1.133   7.692   0.811
 5827TIP3    H117438   1.187   7.617   0.837
 5827TIP3    H217439   1.195   7.764   0.800
 5828TIP3   OH217440   3.097   4.712   1.186
 5828TIP3    H117441   3.161   4.747   1.125
 5828TIP3    H217442   3.015   4.755   1.163
 5829TIP3   OH217443   6.262   2.692   6.429
 5829TIP3    H117444   6.203   2.619   6.448
 5829TIP3    H217445   6.220   2.768   6.470
 5830TIP3   OH217446   0.835   4.446   0.492
 5830TIP3    H117447   0.775   4.392   0.543
 5830TIP3    H217448   0.865   4.388   0.422
 5831TIP3   OH217449   0.354   6.813   5.914
 5831TIP3    H117450   0.409   6.753   5.863
 5831TIP3    H217451   0.368   6.787   6.005
 5832TIP3   OH217452   6.516   4.897   1.404
 5832TIP3    H117453   6.461   4.833   1.361
 5832TIP3    H217454   6.577   4.846   1.457
 5833TIP3   OH217455   4.330   1.440   4.598
 5833TIP3    H117456   4.383   1.483   4.531
 5833TIP3    H217457   4.257   1.401   4.550
 5834TIP3   OH217458   2.962   1.252   6.459
 5834TIP3    H117459   2.870   1.251   6.485
 5834TIP3    H217460   2.970   1.178   6.398
 5835TIP3   OH217461   1.578   3.108   1.485
 5835TIP3    H117462   1.621   3.071   1.562
 5835TIP3    H217463   1.494   3.140   1.517
 5836TIP3   OH217464   2.460   4.024   4.900
 5836TIP3    H117465   2.469   4.109   4.944
 5836TIP3    H217466   2.458   3.961   4.972
 5837TIP3   OH217467   2.194   4.875   0.657
 5837TIP3    H117468   2.105   4.881   0.690
 5837TIP3    H217469   2.249   4.901   0.731
 5838TIP3   OH217470   2.453   6.905   4.360
 5838TIP3    H117471   2.359   6.893   4.351
 5838TIP3    H217472   2.463   6.995   4.393
 5839TIP3   OH217473   0.953   0.774   2.376
 5839TIP3    H117474   1.010   0.847   2.351
 5839TIP3    H217475   0.872   0.791   2.329
 5840TIP3   OH217476   1.300   0.181   2.294
 5840TIP3    H117477   1.392   0.188   2.269
 5840TIP3    H217478   1.252   0.181   2.211
 5841TIP3   OH217479   7.331   5.805   1.964
 5841TIP3    H117480   7.286   5.747   2.025
 5841TIP3    H217481   7.329   5.890   2.007
 5842TIP3   OH217482   4.026   7.796   3.619
 5842TIP3    H117483   4.025   7.879   3.571
 5842TIP3    H217484   4.083   7.739   3.567
 5843TIP3   OH217485   2.594   7.116   4.721
 5843TIP3    H117486   2.601   7.208   4.749
 5843TIP3    H217487   2.580   7.121   4.627
 5844TIP3   OH217488   8.098   3.713   0.505
 5844TIP3    H117489   8.107   3.754   0.419
 5844TIP3    H217490   8.040   3.770   0.554
 5845TIP3   OH217491   0.385   5.611   1.760
 5845TIP3    H117492   0.312   5.616   1.822
 5845TIP3    H217493   0.453   5.667   1.799
 5846TIP3   OH217494   4.711   6.731   2.760
 5846TIP3    H117495   4.642   6.708   2.699
 5846TIP3    H217496   4.746   6.814   2.728
 5847TIP3   OH217497   7.355   5.067   0.799
 5847TIP3    H117498   7.317   5.081   0.713
 5847TIP3    H217499   7.396   5.151   0.821
 5848TIP3   OH217500   4.134   3.676   0.592
 5848TIP3    H117501   4.113   3.769   0.603
 5848TIP3    H217502   4.063   3.629   0.636
 5849TIP3   OH217503   1.757   1.761   3.152
 5849TIP3    H117504   1.702   1.731   3.225
 5849TIP3    H217505   1.846   1.740   3.179
 5850TIP3   OH217506   3.138   3.376   6.225
 5850TIP3    H117507   3.211   3.434   6.203
 5850TIP3    H217508   3.145   3.363   6.319
 5851TIP3   OH217509   7.088   1.005   0.903
 5851TIP3    H117510   7.128   1.089   0.925
 5851TIP3    H217511   7.163   0.948   0.883
 5852TIP3   OH217512   8.017   0.061   1.416
 5852TIP3    H117513   8.062  -0.023   1.422
 5852TIP3    H217514   7.952   0.059   1.487
 5853TIP3   OH217515   0.874   7.506   3.460
 5853TIP3    H117516   0.891   7.422   3.419
 5853TIP3    H217517   0.790   7.495   3.505
 5854TIP3   OH217518   0.246   1.791   5.106
 5854TIP3    H117519   0.160   1.754   5.085
 5854TIP3    H217520   0.300   1.715   5.128
 5855TIP3   OH217521   4.842   5.475   2.449
 5855TIP3    H117522   4.904   5.546   2.464
 5855TIP3    H217523   4.861   5.411   2.517
 5856TIP3   OH217524   4.217   3.558   5.104
 5856TIP3    H117525   4.310   3.571   5.087
 5856TIP3    H217526   4.209   3.561   5.199
 5857TIP3   OH217527   8.036   5.128   0.838
 5857TIP3    H117528   8.056   5.090   0.753
 5857TIP3    H217529   7.955   5.085   0.866
 5858TIP3   OH217530   2.547   6.015   6.663
 5858TIP3    H117531   2.549   6.057   6.577
 5858TIP3    H217532   2.585   6.080   6.722
 5859TIP3   OH217533   3.900   2.472   2.417
 5859TIP3    H117534   3.972   2.436   2.365
 5859TIP3    H217535   3.935   2.477   2.506
 5860TIP3   OH217536   6.417   4.809   1.010
 5860TIP3    H117537   6.434   4.887   1.062
 5860TIP3    H217538   6.336   4.772   1.047
 5861TIP3   OH217539   4.072   1.435   0.859
 5861TIP3    H117540   4.117   1.462   0.939
 5861TIP3    H217541   4.002   1.500   0.848
 5862TIP3   OH217542   7.096   1.495   3.084
 5862TIP3    H117543   7.101   1.402   3.065
 5862TIP3    H217544   7.017   1.505   3.137
 5863TIP3   OH217545   2.542   0.286   1.076
 5863TIP3    H117546   2.622   0.292   1.023
 5863TIP3    H217547   2.488   0.359   1.047
 5864TIP3   OH217548   7.803   1.599   5.372
 5864TIP3    H117549   7.846   1.660   5.432
 5864TIP3    H217550   7.863   1.525   5.366
 5865TIP3   OH217551   7.345   1.437   4.845
 5865TIP3    H117552   7.430   1.393   4.843
 5865TIP3    H217553   7.347   1.492   4.923
 5866TIP3   OH217554   3.084   6.562   4.549
 5866TIP3    H117555   3.113   6.569   4.458
 5866TIP3    H217556   3.008   6.620   4.556
 5867TIP3   OH217557   5.779   3.637   3.291
 5867TIP3    H117558   5.786   3.542   3.290
 5867TIP3    H217559   5.863   3.669   3.258
 5868TIP3   OH217560   0.615   4.138   6.334
 5868TIP3    H117561   0.584   4.082   6.262
 5868TIP3    H217562   0.646   4.218   6.291
 5869TIP3   OH217563   0.300   2.810   0.683
 5869TIP3    H117564   0.274   2.902   0.684
 5869TIP3    H217565   0.254   2.772   0.757
 5870TIP3   OH217566   0.274   5.805   4.296
 5870TIP3    H117567   0.298   5.741   4.363
 5870TIP3    H217568   0.255   5.885   4.344
 5871TIP3   OH217569   1.575   3.569   2.358
 5871TIP3    H117570   1.658   3.571   2.408
 5871TIP3    H217571   1.510   3.538   2.421
 5872TIP3   OH217572   1.450   5.217   5.378
 5872TIP3    H117573   1.389   5.289   5.360
 5872TIP3    H217574   1.531   5.242   5.335
 5873TIP3   OH217575   5.803   5.182   4.498
 5873TIP3    H117576   5.843   5.166   4.583
 5873TIP3    H217577   5.851   5.257   4.462
 5874TIP3   OH217578   6.991   7.664   1.848
 5874TIP3    H117579   6.954   7.716   1.777
 5874TIP3    H217580   7.085   7.685   1.846
 5875TIP3   OH217581   6.935   5.199   4.562
 5875TIP3    H117582   6.856   5.156   4.595
 5875TIP3    H217583   6.993   5.127   4.537
 5876TIP3   OH217584   1.782   6.441   6.649
 5876TIP3    H117585   1.772   6.365   6.707
 5876TIP3    H217586   1.696   6.483   6.649
 5877TIP3   OH217587   4.726   7.711   0.766
 5877TIP3    H117588   4.710   7.798   0.731
 5877TIP3    H217589   4.822   7.702   0.765
 5878TIP3   OH217590   0.136   6.562   4.888
 5878TIP3    H117591   0.173   6.517   4.812
 5878TIP3    H217592   0.041   6.553   4.878
 5879TIP3   OH217593   2.345   4.584   0.057
 5879TIP3    H117594   2.306   4.617  -0.025
 5879TIP3    H217595   2.412   4.649   0.079
 5880TIP3   OH217596   1.818   4.419   5.910
 5880TIP3    H117597   1.908   4.450   5.908
 5880TIP3    H217598   1.772   4.477   5.849
 5881TIP3   OH217599   6.843   5.119   5.592
 5881TIP3    H117600   6.938   5.106   5.598
 5881TIP3    H217601   6.812   5.046   5.538
 5882TIP3   OH217602   5.764   1.605   0.950
 5882TIP3    H117603   5.690   1.599   0.889
 5882TIP3    H217604   5.798   1.516   0.955
 5883TIP3   OH217605   7.262   7.069   4.312
 5883TIP3    H117606   7.331   7.135   4.326
 5883TIP3    H217607   7.181   7.120   4.307
 5884TIP3   OH217608   1.603   2.054   3.305
 5884TIP3    H117609   1.549   2.112   3.360
 5884TIP3    H217610   1.579   1.966   3.332
 5885TIP3   OH217611   2.323   2.857   0.362
 5885TIP3    H117612   2.349   2.779   0.409
 5885TIP3    H217613   2.269   2.907   0.424
 5886TIP3   OH217614   2.367   2.841   3.938
 5886TIP3    H117615   2.379   2.813   4.029
 5886TIP3    H217616   2.288   2.894   3.940
 5887TIP3   OH217617   3.459   3.694   1.615
 5887TIP3    H117618   3.485   3.698   1.523
 5887TIP3    H217619   3.384   3.754   1.621
 5888TIP3   OH217620   5.208   1.340   4.767
 5888TIP3    H117621   5.290   1.307   4.728
 5888TIP3    H217622   5.142   1.276   4.741
 5889TIP3   OH217623   1.566   4.283   2.869
 5889TIP3    H117624   1.581   4.376   2.884
 5889TIP3    H217625   1.539   4.278   2.777
 5890TIP3   OH217626   1.512   5.593   5.910
 5890TIP3    H117627   1.469   5.646   5.843
 5890TIP3    H217628   1.599   5.633   5.921
 5891TIP3   OH217629   4.263   0.418   2.511
 5891TIP3    H117630   4.329   0.454   2.570
 5891TIP3    H217631   4.268   0.324   2.523
 5892TIP3   OH217632   7.372   1.088   4.612
 5892TIP3    H117633   7.371   1.099   4.707
 5892TIP3    H217634   7.390   1.175   4.578
 5893TIP3   OH217635   2.666   2.961   1.978
 5893TIP3    H117636   2.679   2.928   2.067
 5893TIP3    H217637   2.748   3.005   1.956
 5894TIP3   OH217638   3.157   1.628   1.940
 5894TIP3    H117639   3.143   1.589   2.026
 5894TIP3    H217640   3.212   1.565   1.893
 5895TIP3   OH217641   7.558   7.201   1.285
 5895TIP3    H117642   7.561   7.226   1.377
 5895TIP3    H217643   7.634   7.143   1.273
 5896TIP3   OH217644   6.305   6.507   0.910
 5896TIP3    H117645   6.356   6.485   0.832
 5896TIP3    H217646   6.278   6.422   0.945
 5897TIP3   OH217647   3.795   6.532   1.947
 5897TIP3    H117648   3.805   6.466   1.877
 5897TIP3    H217649   3.851   6.604   1.919
 5898TIP3   OH217650   3.094   0.228   3.758
 5898TIP3    H117651   2.999   0.219   3.769
 5898TIP3    H217652   3.113   0.182   3.676
 5899TIP3   OH217653   0.344   7.422   2.477
 5899TIP3    H117654   0.384   7.346   2.435
 5899TIP3    H217655   0.413   7.489   2.475
 5900TIP3   OH217656   3.909   7.395   4.442
 5900TIP3    H117657   3.933   7.406   4.350
 5900TIP3    H217658   3.849   7.321   4.443
 5901TIP3   OH217659   6.935   3.326   3.353
 5901TIP3    H117660   7.009   3.268   3.373
 5901TIP3    H217661   6.875   3.272   3.303
 5902TIP3   OH217662   0.668   7.655   1.029
 5902TIP3    H117663   0.739   7.680   0.970
 5902TIP3    H217664   0.621   7.737   1.046
 5903TIP3   OH217665   3.224   0.664   5.075
 5903TIP3    H117666   3.217   0.757   5.098
 5903TIP3    H217667   3.306   0.658   5.026
 5904TIP3   OH217668   6.899   3.763   1.457
 5904TIP3    H117669   6.908   3.670   1.440
 5904TIP3    H217670   6.859   3.768   1.544
 5905TIP3   OH217671   0.013   3.282   0.532
 5905TIP3    H117672   0.040   3.246   0.448
 5905TIP3    H217673   0.027   3.376   0.523
 5906TIP3   OH217674   3.671   3.892   5.513
 5906TIP3    H117675   3.637   3.833   5.579
 5906TIP3    H217676   3.626   3.867   5.432
 5907TIP3   OH217677   1.262   2.201   3.135
 5907TIP3    H117678   1.339   2.192   3.079
 5907TIP3    H217679   1.189   2.205   3.074
 5908TIP3   OH217680   4.625   1.327   4.226
 5908TIP3    H117681   4.584   1.257   4.177
 5908TIP3    H217682   4.554   1.363   4.280
 5909TIP3   OH217683   4.451   5.910   1.112
 5909TIP3    H117684   4.444   5.918   1.207
 5909TIP3    H217685   4.512   5.979   1.087
 5910TIP3   OH217686   1.793   3.613   3.383
 5910TIP3    H117687   1.765   3.704   3.395
 5910TIP3    H217688   1.826   3.586   3.468
 5911TIP3   OH217689   5.243   6.804   2.899
 5911TIP3    H117690   5.293   6.766   2.828
 5911TIP3    H217691   5.154   6.771   2.886
 5912TIP3   OH217692   2.702   5.017   1.644
 5912TIP3    H117693   2.635   5.068   1.599
 5912TIP3    H217694   2.683   4.926   1.620
 5913TIP3   OH217695   2.974   6.015   5.365
 5913TIP3    H117696   2.910   6.081   5.394
 5913TIP3    H217697   2.958   5.941   5.423
 5914TIP3   OH217698   1.602   5.470   0.142
 5914TIP3    H117699   1.645   5.493   0.060
 5914TIP3    H217700   1.664   5.500   0.210
 5915TIP3   OH217701   5.307   6.843   0.418
 5915TIP3    H117702   5.340   6.808   0.501
 5915TIP3    H217703   5.214   6.858   0.434
 5916TIP3   OH217704   4.493   3.488   5.380
 5916TIP3    H117705   4.479   3.448   5.466
 5916TIP3    H217706   4.408   3.526   5.357
 5917TIP3   OH217707   5.644   0.293   2.087
 5917TIP3    H117708   5.609   0.298   2.176
 5917TIP3    H217709   5.669   0.383   2.066
 5918TIP3   OH217710   7.444   5.132   1.267
 5918TIP3    H117711   7.489   5.098   1.189
 5918TIP3    H217712   7.502   5.110   1.340
 5919TIP3   OH217713   8.180   4.722   2.849
 5919TIP3    H117714   8.158   4.776   2.924
 5919TIP3    H217715   8.124   4.645   2.856
 5920TIP3   OH217716   0.655   3.749   2.478
 5920TIP3    H117717   0.617   3.662   2.476
 5920TIP3    H217718   0.678   3.763   2.570
 5921TIP3   OH217719   6.468   0.612   0.107
 5921TIP3    H117720   6.402   0.580   0.168
 5921TIP3    H217721   6.548   0.564   0.131
 5922TIP3   OH217722   6.558   3.070   3.884
 5922TIP3    H117723   6.632   3.068   3.824
 5922TIP3    H217724   6.586   3.017   3.959
 5923TIP3   OH217725   7.578   5.497   1.764
 5923TIP3    H117726   7.597   5.574   1.817
 5923TIP3    H217727   7.664   5.464   1.738
 5924TIP3   OH217728   6.264   2.712   3.111
 5924TIP3    H117729   6.347   2.745   3.075
 5924TIP3    H217730   6.262   2.746   3.200
 5925TIP3   OH217731   1.776   7.322   5.133
 5925TIP3    H117732   1.760   7.273   5.214
 5925TIP3    H217733   1.870   7.316   5.119
 5926TIP3   OH217734   0.481   6.491   6.602
 5926TIP3    H117735   0.575   6.483   6.584
 5926TIP3    H217736   0.465   6.586   6.597
 5927TIP3   OH217737   7.991   0.404   5.419
 5927TIP3    H117738   7.991   0.325   5.366
 5927TIP3    H217739   7.906   0.444   5.402
 5928TIP3   OH217740   5.173   4.168   4.883
 5928TIP3    H117741   5.141   4.206   4.965
 5928TIP3    H217742   5.102   4.109   4.856
 5929TIP3   OH217743   5.596   3.097   3.327
 5929TIP3    H117744   5.504   3.103   3.301
 5929TIP3    H217745   5.594   3.051   3.411
 5930TIP3   OH217746   5.074   1.880   6.290
 5930TIP3    H117747   5.059   1.844   6.377
 5930TIP3    H217748   5.122   1.812   6.243
 5931TIP3   OH217749   7.357   3.409   6.070
 5931TIP3    H117750   7.437   3.445   6.109
 5931TIP3    H217751   7.364   3.429   5.977
 5932TIP3   OH217752   4.712   1.547   4.069
 5932TIP3    H117753   4.721   1.631   4.115
 5932TIP3    H217754   4.698   1.484   4.139
 5933TIP3   OH217755   0.999   1.608   2.004
 5933TIP3    H117756   0.992   1.516   2.029
 5933TIP3    H217757   1.093   1.625   2.003
 5934TIP3   OH217758   6.163   0.113   5.320
 5934TIP3    H117759   6.232   0.087   5.382
 5934TIP3    H217760   6.209   0.122   5.236
 5935TIP3   OH217761   3.117   0.813   5.731
 5935TIP3    H117762   3.144   0.722   5.735
 5935TIP3    H217763   3.194   0.862   5.758
 5936TIP3   OH217764   1.849   2.325   4.381
 5936TIP3    H117765   1.905   2.268   4.328
 5936TIP3    H217766   1.871   2.414   4.352
 5937TIP3   OH217767   3.834   0.207   3.734
 5937TIP3    H117768   3.771   0.271   3.700
 5937TIP3    H217769   3.795   0.122   3.715
 5938TIP3   OH217770   5.784   6.556   0.782
 5938TIP3    H117771   5.854   6.581   0.722
 5938TIP3    H217772   5.730   6.635   0.791
 5939TIP3   OH217773   3.907   0.757  -0.011
 5939TIP3    H117774   3.890   0.814   0.064
 5939TIP3    H217775   4.003   0.753  -0.017
 5940TIP3   OH217776   3.559   4.709   3.214
 5940TIP3    H117777   3.550   4.804   3.206
 5940TIP3    H217778   3.469   4.677   3.219
 5941TIP3   OH217779   3.175   0.539   5.835
 5941TIP3    H117780   3.264   0.521   5.803
 5941TIP3    H217781   3.166   0.481   5.911
 5942TIP3   OH217782   5.624   5.971   4.207
 5942TIP3    H117783   5.635   6.066   4.209
 5942TIP3    H217784   5.709   5.937   4.180
 5943TIP3   OH217785   3.736   4.761   5.065
 5943TIP3    H117786   3.792   4.683   5.072
 5943TIP3    H217787   3.738   4.799   5.153
 5944TIP3   OH217788   0.079   3.524   5.996
 5944TIP3    H117789  -0.008   3.552   5.967
 5944TIP3    H217790   0.075   3.428   5.991
 5945TIP3   OH217791   6.191   1.861   2.485
 5945TIP3    H117792   6.247   1.821   2.419
 5945TIP3    H217793   6.243   1.860   2.565
 5946TIP3   OH217794   3.489   4.981   0.573
 5946TIP3    H117795   3.492   4.998   0.479
 5946TIP3    H217796   3.402   5.011   0.600
 5947TIP3   OH217797   8.167   4.430   5.248
 5947TIP3    H117798   8.088   4.450   5.198
 5947TIP3    H217799   8.167   4.335   5.256
 5948TIP3   OH217800   3.418   3.238   2.957
 5948TIP3    H117801   3.335   3.258   3.000
 5948TIP3    H217802   3.485   3.269   3.019
 5949TIP3   OH217803   8.179   6.963   0.188
 5949TIP3    H117804   8.122   7.040   0.180
 5949TIP3    H217805   8.188   6.930   0.099
 5950TIP3   OH217806   1.621   1.636   1.961
 5950TIP3    H117807   1.605   1.716   1.912
 5950TIP3    H217808   1.695   1.657   2.019
 5951TIP3   OH217809   1.737   2.086   3.016
 5951TIP3    H117810   1.728   2.017   2.951
 5951TIP3    H217811   1.683   2.058   3.089
 5952TIP3   OH217812   3.218   4.840   2.921
 5952TIP3    H117813   3.180   4.764   2.877
 5952TIP3    H217814   3.312   4.824   2.919
 5953TIP3   OH217815   7.149   0.475   2.594
 5953TIP3    H117816   7.137   0.523   2.677
 5953TIP3    H217817   7.099   0.394   2.606
 5954TIP3   OH217818   6.272   7.445   4.805
 5954TIP3    H117819   6.349   7.465   4.752
 5954TIP3    H217820   6.282   7.353   4.829
 5955TIP3   OH217821   0.064   5.206   2.085
 5955TIP3    H117822   0.082   5.288   2.040
 5955TIP3    H217823   0.025   5.150   2.018
 5956TIP3   OH217824   4.807   5.968   5.348
 5956TIP3    H117825   4.745   5.932   5.412
 5956TIP3    H217826   4.845   6.044   5.392
 5957TIP3   OH217827   3.332   1.158   5.260
 5957TIP3    H117828   3.361   1.241   5.298
 5957TIP3    H217829   3.329   1.175   5.166
 5958TIP3   OH217830   5.279   6.945   5.601
 5958TIP3    H117831   5.246   7.023   5.646
 5958TIP3    H217832   5.232   6.943   5.518
 5959TIP3   OH217833   4.327   7.254   0.182
 5959TIP3    H117834   4.283   7.174   0.152
 5959TIP3    H217835   4.409   7.256   0.134
 5960TIP3   OH217836   6.729   1.005   2.786
 5960TIP3    H117837   6.734   0.915   2.820
 5960TIP3    H217838   6.643   1.036   2.815
 5961TIP3   OH217839   2.608   6.544   3.865
 5961TIP3    H117840   2.655   6.468   3.830
 5961TIP3    H217841   2.574   6.514   3.950
 5962TIP3   OH217842   5.652   0.054   3.267
 5962TIP3    H117843   5.560   0.034   3.279
 5962TIP3    H217844   5.671   0.121   3.332
 5963TIP3   OH217845   2.235   1.333   1.364
 5963TIP3    H117846   2.276   1.407   1.410
 5963TIP3    H217847   2.286   1.323   1.284
 5964TIP3   OH217848   1.798   7.222   2.934
 5964TIP3    H117849   1.789   7.147   2.993
 5964TIP3    H217850   1.845   7.187   2.858
 5965TIP3   OH217851   1.336   6.696   6.255
 5965TIP3    H117852   1.256   6.748   6.257
 5965TIP3    H217853   1.341   6.656   6.342
 5966TIP3   OH217854   0.935   7.072   3.910
 5966TIP3    H117855   0.841   7.085   3.925
 5966TIP3    H217856   0.947   6.977   3.919
 5967TIP3   OH217857   3.955   5.237   1.178
 5967TIP3    H117858   3.893   5.229   1.106
 5967TIP3    H217859   3.919   5.181   1.247
 5968TIP3   OH217860   2.473   3.505   2.972
 5968TIP3    H117861   2.485   3.583   2.917
 5968TIP3    H217862   2.380   3.484   2.963
 5969TIP3   OH217863   2.339   4.768   2.687
 5969TIP3    H117864   2.411   4.737   2.743
 5969TIP3    H217865   2.380   4.832   2.629
 5970TIP3   OH217866   7.889   5.513   5.721
 5970TIP3    H117867   7.984   5.529   5.721
 5970TIP3    H217868   7.869   5.489   5.812
 5971TIP3   OH217869   3.027   4.473   4.512
 5971TIP3    H117870   3.121   4.456   4.514
 5971TIP3    H217871   3.019   4.565   4.535
 5972TIP3   OH217872   6.053   7.019   0.387
 5972TIP3    H117873   6.113   6.949   0.415
 5972TIP3    H217874   6.084   7.042   0.299
 5973TIP3   OH217875   1.282   3.944   6.259
 5973TIP3    H117876   1.201   3.952   6.309
 5973TIP3    H217877   1.275   3.859   6.215
 5974TIP3   OH217878   5.486   2.083   2.337
 5974TIP3    H117879   5.544   2.152   2.371
 5974TIP3    H217880   5.478   2.022   2.409
 5975TIP3   OH217881   4.040   6.088   1.264
 5975TIP3    H117882   4.043   6.017   1.200
 5975TIP3    H217883   4.127   6.087   1.304
 5976TIP3   OH217884   6.412   5.488   5.886
 5976TIP3    H117885   6.454   5.486   5.800
 5976TIP3    H217886   6.321   5.512   5.867
 5977TIP3   OH217887   0.782   2.219   2.922
 5977TIP3    H117888   0.747   2.228   3.010
 5977TIP3    H217889   0.724   2.156   2.879
 5978TIP3   OH217890   3.534   0.286   1.734
 5978TIP3    H117891   3.467   0.334   1.783
 5978TIP3    H217892   3.525   0.195   1.765
 5979TIP3   OH217893   1.636   1.679   4.842
 5979TIP3    H117894   1.639   1.598   4.791
 5979TIP3    H217895   1.544   1.691   4.864
 5980TIP3   OH217896   7.365   3.853   2.741
 5980TIP3    H117897   7.390   3.767   2.707
 5980TIP3    H217898   7.312   3.834   2.818
 5981TIP3   OH217899   6.042   3.163   3.520
 5981TIP3    H117900   6.063   3.243   3.568
 5981TIP3    H217901   5.965   3.127   3.564
 5982TIP3   OH217902   6.906   4.767  -0.010
 5982TIP3    H117903   6.921   4.674  -0.027
 5982TIP3    H217904   6.825   4.769   0.041
 5983TIP3   OH217905   6.596   7.556   3.985
 5983TIP3    H117906   6.684   7.519   3.990
 5983TIP3    H217907   6.610   7.650   3.970
 5984TIP3   OH217908   5.952   1.871   6.181
 5984TIP3    H117909   5.896   1.877   6.103
 5984TIP3    H217910   6.041   1.875   6.147
 5985TIP3   OH217911   5.177   2.569   3.784
 5985TIP3    H117912   5.160   2.497   3.846
 5985TIP3    H217913   5.090   2.605   3.766
 5986TIP3   OH217914   7.348   6.048   6.689
 5986TIP3    H117915   7.328   6.057   6.782
 5986TIP3    H217916   7.273   6.088   6.644
 5987TIP3   OH217917   6.116   5.055   2.121
 5987TIP3    H117918   6.209   5.034   2.113
 5987TIP3    H217919   6.078   5.023   2.039
 5988TIP3   OH217920   0.295   2.895   3.678
 5988TIP3    H117921   0.389   2.917   3.677
 5988TIP3    H217922   0.279   2.851   3.595
 5989TIP3   OH217923   1.182   0.466   3.199
 5989TIP3    H117924   1.087   0.479   3.203
 5989TIP3    H217925   1.195   0.402   3.129
 5990TIP3   OH217926   5.509   1.907   0.364
 5990TIP3    H117927   5.546   1.994   0.352
 5990TIP3    H217928   5.493   1.901   0.458
 5991TIP3   OH217929   7.400   3.196   4.582
 5991TIP3    H117930   7.340   3.248   4.529
 5991TIP3    H217931   7.487   3.225   4.553
 5992TIP3   OH217932   7.895   3.642   2.332
 5992TIP3    H117933   7.901   3.637   2.237
 5992TIP3    H217934   7.809   3.604   2.352
 5993TIP3   OH217935   2.021   3.706   0.537
 5993TIP3    H117936   2.048   3.618   0.511
 5993TIP3    H217937   2.043   3.760   0.461
 5994TIP3   OH217938   2.861   5.470   1.626
 5994TIP3    H117939   2.872   5.510   1.712
 5994TIP3    H217940   2.877   5.377   1.639
 5995TIP3   OH217941   0.801   3.295   0.583
 5995TIP3    H117942   0.759   3.250   0.657
 5995TIP3    H217943   0.803   3.387   0.610
 5996TIP3   OH217944   6.417   0.604   0.883
 5996TIP3    H117945   6.452   0.652   0.958
 5996TIP3    H217946   6.322   0.601   0.898
 5997TIP3   OH217947   3.049   5.440   4.830
 5997TIP3    H117948   3.014   5.530   4.830
 5997TIP3    H217949   2.985   5.390   4.779
 5998TIP3   OH217950   0.429   4.155   2.614
 5998TIP3    H117951   0.429   4.092   2.686
 5998TIP3    H217952   0.461   4.104   2.539
 5999TIP3   OH217953   7.987   0.806   0.896
 5999TIP3    H117954   7.961   0.798   0.987
 5999TIP3    H217955   7.968   0.897   0.873
 6000TIP3   OH217956   4.673   4.845   2.011
 6000TIP3    H117957   4.664   4.895   1.930
 6000TIP3    H217958   4.596   4.870   2.063
 6001TIP3   OH217959   4.697   7.458   2.779
 6001TIP3    H117960   4.616   7.430   2.737
 6001TIP3    H217961   4.765   7.436   2.717
 6002TIP3   OH217962   7.925   3.648   1.445
 6002TIP3    H117963   7.945   3.578   1.384
 6002TIP3    H217964   7.941   3.729   1.396
 6003TIP3   OH217965   2.063   5.546   4.314
 6003TIP3    H117966   2.062   5.450   4.313
 6003TIP3    H217967   1.981   5.571   4.355
 6004TIP3   OH217968   7.067   0.958   3.727
 6004TIP3    H117969   7.161   0.976   3.731
 6004TIP3    H217970   7.037   0.968   3.818
 6005TIP3   OH217971   0.234   5.111   1.391
 6005TIP3    H117972   0.183   5.177   1.344
 6005TIP3    H217973   0.168   5.054   1.432
 6006TIP3   OH217974   2.743   3.102   0.672
 6006TIP3    H117975   2.828   3.120   0.631
 6006TIP3    H217976   2.707   3.189   0.690
 6007TIP3   OH217977   3.872   5.400   2.705
 6007TIP3    H117978   3.822   5.414   2.785
 6007TIP3    H217979   3.889   5.306   2.704
 6008TIP3   OH217980   4.162   7.561   1.543
 6008TIP3    H117981   4.186   7.482   1.592
 6008TIP3    H217982   4.246   7.597   1.514
 6009TIP3   OH217983   4.120   4.857   3.711
 6009TIP3    H117984   4.072   4.793   3.658
 6009TIP3    H217985   4.130   4.933   3.654
 6010TIP3   OH217986   2.935   1.830   4.564
 6010TIP3    H117987   2.928   1.736   4.548
 6010TIP3    H217988   3.013   1.839   4.619
 6011TIP3   OH217989   1.686   0.836   3.796
 6011TIP3    H117990   1.740   0.773   3.749
 6011TIP3    H217991   1.600   0.830   3.755
 6012TIP3   OH217992   6.943   4.046   6.752
 6012TIP3    H117993   7.011   3.980   6.741
 6012TIP3    H217994   6.882   4.029   6.679
 6013TIP3   OH217995   5.773   7.255   2.771
 6013TIP3    H117996   5.765   7.350   2.775
 6013TIP3    H217997   5.771   7.226   2.862
 6014TIP3   OH217998   7.370   3.084   0.791
 6014TIP3    H117999   7.287   3.104   0.834
 6014TIP3    H218000   7.428   3.156   0.816
 6015TIP3   OH218001   0.548   1.429   4.557
 6015TIP3    H118002   0.507   1.516   4.550
 6015TIP3    H218003   0.515   1.382   4.480
 6016TIP3   OH218004   0.990   4.594   0.679
 6016TIP3    H118005   0.928   4.585   0.751
 6016TIP3    H218006   0.955   4.537   0.610
 6017TIP3   OH218007   6.429   3.002   4.253
 6017TIP3    H118008   6.374   3.080   4.264
 6017TIP3    H218009   6.509   3.035   4.212
 6018TIP3   OH218010   4.381   0.445   1.901
 6018TIP3    H118011   4.381   0.366   1.846
 6018TIP3    H218012   4.344   0.416   1.984
 6019TIP3   OH218013   3.291   5.682   5.155
 6019TIP3    H118014   3.362   5.683   5.219
 6019TIP3    H218015   3.212   5.689   5.208
 6020TIP3   OH218016   1.997   0.963   4.286
 6020TIP3    H118017   1.978   0.926   4.199
 6020TIP3    H218018   2.046   0.894   4.331
 6021TIP3   OH218019   8.126   6.575   5.779
 6021TIP3    H118020   8.164   6.662   5.794
 6021TIP3    H218021   8.062   6.564   5.850
 6022TIP3   OH218022   4.212   5.372   1.700
 6022TIP3    H118023   4.272   5.445   1.712
 6022TIP3    H218024   4.262   5.295   1.727
 6023TIP3   OH218025   0.140   7.146   0.047
 6023TIP3    H118026   0.064   7.180   0.094
 6023TIP3    H218027   0.167   7.219  -0.010
 6024TIP3   OH218028   6.338   3.218   3.764
 6024TIP3    H118029   6.428   3.201   3.790
 6024TIP3    H218030   6.316   3.146   3.704
 6025TIP3   OH218031   1.336   4.381   6.301
 6025TIP3    H118032   1.366   4.318   6.236
 6025TIP3    H218033   1.322   4.462   6.251
 6026TIP3   OH218034   2.963   6.311   4.541
 6026TIP3    H118035   3.014   6.392   4.540
 6026TIP3    H218036   3.014   6.250   4.488
 6027TIP3   OH218037   3.711   3.791   2.450
 6027TIP3    H118038   3.669   3.867   2.412
 6027TIP3    H218039   3.680   3.717   2.398
 6028TIP3   OH218040   0.720   4.312   0.272
 6028TIP3    H118041   0.753   4.377   0.211
 6028TIP3    H218042   0.775   4.235   0.257
 6029TIP3   OH218043   6.583   6.185   4.551
 6029TIP3    H118044   6.530   6.265   4.549
 6029TIP3    H218045   6.662   6.209   4.599
 6030TIP3   OH218046   3.283   4.718   2.001
 6030TIP3    H118047   3.322   4.705   1.914
 6030TIP3    H218048   3.353   4.699   2.062
 6031TIP3   OH218049   7.638   3.560   1.554
 6031TIP3    H118050   7.728   3.543   1.581
 6031TIP3    H218051   7.627   3.508   1.474
 6032TIP3   OH218052   3.066   5.751   5.855
 6032TIP3    H118053   3.025   5.680   5.806
 6032TIP3    H218054   2.998   5.818   5.861
 6033TIP3   OH218055   2.419   1.563   1.417
 6033TIP3    H118056   2.363   1.640   1.427
 6033TIP3    H218057   2.419   1.546   1.322
 6034TIP3   OH218058   6.216   0.100   3.807
 6034TIP3    H118059   6.229   0.151   3.727
 6034TIP3    H218060   6.274   0.025   3.798
 6035TIP3   OH218061   6.537   5.760   6.159
 6035TIP3    H118062   6.480   5.750   6.235
 6035TIP3    H218063   6.606   5.820   6.189
 6036TIP3   OH218064   7.048   3.064   2.054
 6036TIP3    H118065   7.014   3.107   2.132
 6036TIP3    H218066   7.139   3.043   2.077
 6037TIP3   OH218067   4.686   3.739   5.295
 6037TIP3    H118068   4.768   3.702   5.326
 6037TIP3    H218069   4.633   3.663   5.269
 6038TIP3   OH218070   3.469   2.352   1.205
 6038TIP3    H118071   3.512   2.430   1.168
 6038TIP3    H218072   3.541   2.290   1.220
 6039TIP3   OH218073   6.915   3.483   0.418
 6039TIP3    H118074   6.958   3.503   0.335
 6039TIP3    H218075   6.860   3.559   0.436
 6040TIP3   OH218076   7.932   2.928   0.065
 6040TIP3    H118077   8.023   2.900   0.051
 6040TIP3    H218078   7.890   2.917  -0.020
 6041TIP3   OH218079   1.294   3.016   0.778
 6041TIP3    H118080   1.291   3.032   0.684
 6041TIP3    H218081   1.203   2.995   0.802
 6042TIP3   OH218082   0.715   3.036   3.166
 6042TIP3    H118083   0.628   3.003   3.185
 6042TIP3    H218084   0.773   2.962   3.185
 6043TIP3   OH218085   7.150   5.896   2.827
 6043TIP3    H118086   7.117   5.942   2.750
 6043TIP3    H218087   7.213   5.956   2.867
 6044TIP3   OH218088   0.474   2.130   6.641
 6044TIP3    H118089   0.404   2.085   6.595
 6044TIP3    H218090   0.467   2.221   6.614
 6045TIP3   OH218091   1.211   4.365   2.012
 6045TIP3    H118092   1.215   4.443   2.068
 6045TIP3    H218093   1.119   4.358   1.987
 6046TIP3   OH218094   4.984   5.762   4.444
 6046TIP3    H118095   4.890   5.775   4.458
 6046TIP3    H218096   4.990   5.727   4.355
 6047TIP3   OH218097   3.679   7.192   5.089
 6047TIP3    H118098   3.645   7.210   5.001
 6047TIP3    H218099   3.760   7.242   5.094
 6048TIP3   OH218100   3.331   0.648   6.142
 6048TIP3    H118101   3.285   0.708   6.084
 6048TIP3    H218102   3.267   0.580   6.163
 6049TIP3   OH218103   2.045   6.996   3.868
 6049TIP3    H118104   1.982   7.045   3.815
 6049TIP3    H218105   2.087   6.937   3.806
 6050TIP3   OH218106   4.677   1.142   5.837
 6050TIP3    H118107   4.641   1.111   5.754
 6050TIP3    H218108   4.618   1.212   5.865
 6051TIP3   OH218109   6.474   6.306   6.722
 6051TIP3    H118110   6.568   6.327   6.722
 6051TIP3    H218111   6.448   6.310   6.814
 6052TIP3   OH218112   7.788   0.541   1.142
 6052TIP3    H118113   7.881   0.559   1.156
 6052TIP3    H218114   7.774   0.562   1.050
 6053TIP3   OH218115   5.141   5.718   6.675
 6053TIP3    H118116   5.055   5.756   6.657
 6053TIP3    H218117   5.150   5.646   6.613
 6054TIP3   OH218118   0.192   0.181   5.385
 6054TIP3    H118119   0.272   0.129   5.390
 6054TIP3    H218120   0.164   0.193   5.476
 6055TIP3   OH218121   3.857   3.528   5.970
 6055TIP3    H118122   3.910   3.451   5.950
 6055TIP3    H218123   3.807   3.544   5.890
 6056TIP3   OH218124   4.205   4.971   1.187
 6056TIP3    H118125   4.239   4.882   1.182
 6056TIP3    H218126   4.132   4.972   1.124
 6057TIP3   OH218127   2.624   7.724   0.226
 6057TIP3    H118128   2.647   7.641   0.185
 6057TIP3    H218129   2.649   7.790   0.162
 6058TIP3   OH218130   2.418   2.491   1.205
 6058TIP3    H118131   2.487   2.557   1.207
 6058TIP3    H218132   2.342   2.533   1.245
 6059TIP3   OH218133   6.629   2.681   0.654
 6059TIP3    H118134   6.591   2.763   0.687
 6059TIP3    H218135   6.591   2.670   0.567
 6060TIP3   OH218136   5.526   7.742   0.394
 6060TIP3    H118137   5.606   7.778   0.355
 6060TIP3    H218138   5.457   7.803   0.369
 6061TIP3   OH218139   6.922   7.646   6.713
 6061TIP3    H118140   6.908   7.660   6.806
 6061TIP3    H218141   6.888   7.558   6.696
 6062TIP3   OH218142   7.807   2.734   6.239
 6062TIP3    H118143   7.874   2.731   6.171
 6062TIP3    H218144   7.800   2.826   6.262
 6063TIP3   OH218145   0.267   1.415   3.457
 6063TIP3    H118146   0.332   1.416   3.528
 6063TIP3    H218147   0.187   1.381   3.499
 6064TIP3   OH218148   6.089   1.216   3.778
 6064TIP3    H118149   6.103   1.309   3.762
 6064TIP3    H218150   6.109   1.173   3.695
 6065TIP3   OH218151   3.602   2.882   6.501
 6065TIP3    H118152   3.597   2.887   6.596
 6065TIP3    H218153   3.634   2.968   6.474
 6066TIP3   OH218154   8.094   2.220   5.379
 6066TIP3    H118155   8.170   2.262   5.340
 6066TIP3    H218156   8.021   2.245   5.323
 6067TIP3   OH218157   3.882   3.380   0.351
 6067TIP3    H118158   3.963   3.412   0.392
 6067TIP3    H218159   3.836   3.335   0.422
 6068TIP3   OH218160   2.689   0.291   1.830
 6068TIP3    H118161   2.677   0.249   1.915
 6068TIP3    H218162   2.772   0.338   1.837
 6069TIP3   OH218163   0.353   6.855   5.270
 6069TIP3    H118164   0.412   6.921   5.233
 6069TIP3    H218165   0.404   6.815   5.340
 6070TIP3   OH218166   4.860   3.355   6.031
 6070TIP3    H118167   4.813   3.294   6.089
 6070TIP3    H218168   4.849   3.441   6.073
 6071TIP3   OH218169   7.901   2.421   0.470
 6071TIP3    H118170   7.884   2.397   0.561
 6071TIP3    H218171   7.856   2.505   0.459
 6072TIP3   OH218172   4.828   4.310   1.160
 6072TIP3    H118173   4.741   4.314   1.200
 6072TIP3    H218174   4.869   4.232   1.199
 6073TIP3   OH218175   3.694   7.155   5.444
 6073TIP3    H118176   3.655   7.215   5.382
 6073TIP3    H218177   3.704   7.073   5.395
 6074TIP3   OH218178   2.994   3.328   6.704
 6074TIP3    H118179   2.913   3.280   6.691
 6074TIP3    H218180   3.064   3.264   6.688
 6075TIP3   OH218181   2.825   1.692   6.401
 6075TIP3    H118182   2.863   1.689   6.489
 6075TIP3    H218183   2.882   1.752   6.353
 6076TIP3   OH218184   1.437   3.154   2.784
 6076TIP3    H118185   1.420   3.144   2.878
 6076TIP3    H218186   1.359   3.197   2.751
 6077TIP3   OH218187   0.775   4.567   4.634
 6077TIP3    H118188   0.718   4.627   4.681
 6077TIP3    H218189   0.863   4.587   4.667
 6078TIP3   OH218190   2.380   2.561   5.150
 6078TIP3    H118191   2.436   2.494   5.188
 6078TIP3    H218192   2.301   2.561   5.204
 6079TIP3   OH218193   7.896   5.708   6.236
 6079TIP3    H118194   7.933   5.642   6.294
 6079TIP3    H218195   7.952   5.706   6.158
 6080TIP3   OH218196   1.510   6.843   0.945
 6080TIP3    H118197   1.524   6.897   0.868
 6080TIP3    H218198   1.465   6.900   1.007
 6081TIP3   OH218199   4.050   6.840   5.336
 6081TIP3    H118200   4.069   6.850   5.243
 6081TIP3    H218201   4.087   6.918   5.376
 6082TIP3   OH218202   1.117   7.281   5.384
 6082TIP3    H118203   1.143   7.207   5.329
 6082TIP3    H218204   1.120   7.356   5.325
 6083TIP3   OH218205   3.949   6.124   5.417
 6083TIP3    H118206   3.895   6.203   5.410
 6083TIP3    H218207   4.005   6.139   5.493
 6084TIP3   OH218208   7.341   5.206   5.964
 6084TIP3    H118209   7.271   5.270   5.946
 6084TIP3    H218210   7.294   5.125   5.984
 6085TIP3   OH218211   6.250   0.844   3.227
 6085TIP3    H118212   6.165   0.867   3.264
 6085TIP3    H218213   6.247   0.875   3.137
 6086TIP3   OH218214   2.728   7.384   4.688
 6086TIP3    H118215   2.789   7.437   4.637
 6086TIP3    H218216   2.756   7.395   4.778
 6087TIP3   OH218217   2.226   6.708   0.139
 6087TIP3    H118218   2.222   6.772   0.210
 6087TIP3    H218219   2.286   6.747   0.075
 6088TIP3   OH218220   6.686   5.358   2.648
 6088TIP3    H118221   6.723   5.299   2.714
 6088TIP3    H218222   6.640   5.300   2.588
 6089TIP3   OH218223   2.977   1.106   5.104
 6089TIP3    H118224   2.962   1.166   5.177
 6089TIP3    H218225   2.930   1.144   5.031
 6090TIP3   OH218226   7.921   4.437   5.089
 6090TIP3    H118227   7.836   4.394   5.097
 6090TIP3    H218228   7.928   4.458   4.995
 6091TIP3   OH218229   6.452   4.178   4.485
 6091TIP3    H118230   6.448   4.251   4.546
 6091TIP3    H218231   6.390   4.201   4.416
 6092TIP3   OH218232   7.574   2.579   6.200
 6092TIP3    H118233   7.639   2.649   6.193
 6092TIP3    H218234   7.610   2.520   6.266
 6093TIP3   OH218235   5.986   5.313   0.903
 6093TIP3    H118236   5.960   5.222   0.891
 6093TIP3    H218237   6.080   5.309   0.920
 6094TIP3   OH218238   6.157   6.445   5.670
 6094TIP3    H118239   6.067   6.473   5.654
 6094TIP3    H218240   6.210   6.520   5.643
 6095TIP3   OH218241   7.685   3.946   0.643
 6095TIP3    H118242   7.686   4.039   0.663
 6095TIP3    H218243   7.634   3.939   0.562
 6096TIP3   OH218244   7.971   6.571   4.744
 6096TIP3    H118245   7.898   6.577   4.806
 6096TIP3    H218246   8.039   6.524   4.792
 6097TIP3   OH218247   2.429   5.925   3.984
 6097TIP3    H118248   2.477   5.879   4.052
 6097TIP3    H218249   2.381   5.857   3.937
 6098TIP3   OH218250   1.245   7.186   2.760
 6098TIP3    H118251   1.337   7.209   2.772
 6098TIP3    H218252   1.246   7.092   2.743
 6099TIP3   OH218253  -0.032   7.396   5.312
 6099TIP3    H118254   0.011   7.381   5.228
 6099TIP3    H218255   0.027   7.457   5.358
 6100TIP3   OH218256   7.295   5.520   4.361
 6100TIP3    H118257   7.315   5.610   4.387
 6100TIP3    H218258   7.227   5.493   4.423
 6101TIP3   OH218259   1.702   0.019   1.529
 6101TIP3    H118260   1.772  -0.022   1.580
 6101TIP3    H218261   1.717   0.113   1.541
 6102TIP3   OH218262   2.802   0.984   2.592
 6102TIP3    H118263   2.762   1.018   2.511
 6102TIP3    H218264   2.807   1.061   2.649
 6103TIP3   OH218265   5.877   3.636   1.635
 6103TIP3    H118266   5.802   3.605   1.685
 6103TIP3    H218267   5.926   3.556   1.613
 6104TIP3   OH218268   0.200   0.043   0.256
 6104TIP3    H118269   0.195   0.137   0.242
 6104TIP3    H218270   0.246   0.010   0.179
 6105TIP3   OH218271   6.923   3.554   0.861
 6105TIP3    H118272   6.915   3.603   0.943
 6105TIP3    H218273   7.006   3.507   0.870
 6106TIP3   OH218274   3.049   6.242   2.784
 6106TIP3    H118275   3.111   6.171   2.799
 6106TIP3    H218276   3.050   6.292   2.865
 6107TIP3   OH218277   7.154   4.351   5.274
 6107TIP3    H118278   7.105   4.321   5.351
 6107TIP3    H218279   7.089   4.357   5.205
 6108TIP3   OH218280   1.348   1.474   2.584
 6108TIP3    H118281   1.349   1.416   2.508
 6108TIP3    H218282   1.349   1.414   2.659
 6109TIP3   OH218283   2.814   4.825   5.542
 6109TIP3    H118284   2.731   4.867   5.520
 6109TIP3    H218285   2.797   4.732   5.528
 6110TIP3   OH218286   5.602   2.443   4.614
 6110TIP3    H118287   5.532   2.465   4.676
 6110TIP3    H218288   5.563   2.377   4.557
 6111TIP3   OH218289   3.195   5.320   1.030
 6111TIP3    H118290   3.148   5.255   1.083
 6111TIP3    H218291   3.174   5.404   1.071
 6112TIP3   OH218292   4.659   5.316   4.322
 6112TIP3    H118293   4.643   5.249   4.388
 6112TIP3    H218294   4.732   5.367   4.357
 6113TIP3   OH218295   0.848   6.591   5.863
 6113TIP3    H118296   0.792   6.579   5.939
 6113TIP3    H218297   0.806   6.660   5.812
 6114TIP3   OH218298   2.282   7.815   0.083
 6114TIP3    H118299   2.266   7.722   0.101
 6114TIP3    H218300   2.295   7.854   0.170
 6115TIP3   OH218301   4.012   4.747   1.977
 6115TIP3    H118302   4.095   4.773   2.016
 6115TIP3    H218303   3.991   4.818   1.915
 6116TIP3   OH218304   2.204   3.004   4.603
 6116TIP3    H118305   2.151   3.016   4.524
 6116TIP3    H218306   2.153   2.942   4.656
 6117TIP3   OH218307   1.169   0.196   1.006
 6117TIP3    H118308   1.222   0.120   1.026
 6117TIP3    H218309   1.196   0.221   0.917
 6118TIP3   OH218310   4.128   0.233   5.065
 6118TIP3    H118311   4.196   0.166   5.062
 6118TIP3    H218312   4.048   0.187   5.037
 6119TIP3   OH218313   4.705   4.152   0.350
 6119TIP3    H118314   4.682   4.156   0.257
 6119TIP3    H218315   4.790   4.196   0.356
 6120TIP3   OH218316   1.522   1.092   4.091
 6120TIP3    H118317   1.574   1.011   4.097
 6120TIP3    H218318   1.468   1.092   4.170
 6121TIP3   OH218319   6.870   1.798   2.056
 6121TIP3    H118320   6.964   1.815   2.053
 6121TIP3    H218321   6.863   1.704   2.041
 6122TIP3   OH218322   7.085   4.152   3.564
 6122TIP3    H118323   7.054   4.233   3.523
 6122TIP3    H218324   7.006   4.098   3.573
 6123TIP3   OH218325   8.199   0.832   3.068
 6123TIP3    H118326   8.163   0.849   2.982
 6123TIP3    H218327   8.135   0.775   3.111
 6124TIP3   OH218328   5.778   6.909   0.995
 6124TIP3    H118329   5.763   7.002   1.006
 6124TIP3    H218330   5.843   6.886   1.061
 6125TIP3   OH218331   1.199   6.465   6.137
 6125TIP3    H118332   1.275   6.419   6.172
 6125TIP3    H218333   1.219   6.558   6.152
 6126TIP3   OH218334   4.702   1.448   0.114
 6126TIP3    H118335   4.787   1.482   0.087
 6126TIP3    H218336   4.722   1.377   0.175
 6127TIP3   OH218337   4.872   7.421   2.562
 6127TIP3    H118338   4.850   7.430   2.469
 6127TIP3    H218339   4.967   7.419   2.564
 6128TIP3   OH218340   3.500   3.390   1.537
 6128TIP3    H118341   3.477   3.478   1.566
 6128TIP3    H218342   3.425   3.361   1.485
 6129TIP3   OH218343   7.976   3.935   2.344
 6129TIP3    H118344   8.053   3.945   2.401
 6129TIP3    H218345   7.962   3.841   2.340
 6130TIP3   OH218346   6.921   6.434   1.683
 6130TIP3    H118347   6.931   6.459   1.591
 6130TIP3    H218348   6.977   6.356   1.692
 6131TIP3   OH218349   1.129   1.607   2.863
 6131TIP3    H118350   1.120   1.624   2.769
 6131TIP3    H218351   1.050   1.644   2.902
 6132TIP3   OH218352   3.121   4.329   4.808
 6132TIP3    H118353   3.178   4.258   4.837
 6132TIP3    H218354   3.152   4.350   4.720
 6133TIP3   OH218355   4.169   0.322   0.641
 6133TIP3    H118356   4.155   0.310   0.547
 6133TIP3    H218357   4.259   0.294   0.656
 6134TIP3   OH218358   6.346   2.639   1.807
 6134TIP3    H118359   6.342   2.648   1.711
 6134TIP3    H218360   6.430   2.596   1.823
 6135TIP3   OH218361   5.806   6.619   3.634
 6135TIP3    H118362   5.898   6.602   3.657
 6135TIP3    H218363   5.788   6.558   3.563
 6136TIP3   OH218364   6.845   1.621   6.569
 6136TIP3    H118365   6.897   1.677   6.626
 6136TIP3    H218366   6.826   1.543   6.622
 6137TIP3   OH218367   5.639   5.438   2.954
 6137TIP3    H118368   5.730   5.461   2.935
 6137TIP3    H218369   5.644   5.349   2.987
 6138TIP3   OH218370   1.053   4.797   6.243
 6138TIP3    H118371   1.096   4.712   6.256
 6138TIP3    H218372   1.124   4.854   6.213
 6139TIP3   OH218373   3.840   3.859   5.936
 6139TIP3    H118374   3.905   3.837   6.002
 6139TIP3    H218375   3.870   3.815   5.857
 6140TIP3   OH218376   6.720   3.744   1.673
 6140TIP3    H118377   6.727   3.665   1.726
 6140TIP3    H218378   6.703   3.814   1.737
 6141TIP3   OH218379   2.067   2.840   2.226
 6141TIP3    H118380   2.105   2.916   2.181
 6141TIP3    H218381   2.118   2.766   2.194
 6142TIP3   OH218382   5.336   7.079   2.941
 6142TIP3    H118383   5.321   6.985   2.930
 6142TIP3    H218384   5.287   7.119   2.869
 6143TIP3   OH218385   5.149   2.279   0.889
 6143TIP3    H118386   5.243   2.269   0.875
 6143TIP3    H218387   5.115   2.190   0.890
 6144TIP3   OH218388   0.440   2.826   2.597
 6144TIP3    H118389   0.359   2.807   2.644
 6144TIP3    H218390   0.437   2.770   2.520
 6145TIP3   OH218391   1.852   7.818   6.280
 6145TIP3    H118392   1.797   7.809   6.202
 6145TIP3    H218393   1.888   7.731   6.295
 6146TIP3   OH218394   4.099   1.154   4.704
 6146TIP3    H118395   4.067   1.069   4.675
 6146TIP3    H218396   4.180   1.168   4.654
 6147TIP3   OH218397   0.105   0.905   1.209
 6147TIP3    H118398   0.089   0.838   1.142
 6147TIP3    H218399   0.023   0.953   1.215
 6148TIP3   OH218400   5.559   4.844   6.391
 6148TIP3    H118401   5.478   4.828   6.439
 6148TIP3    H218402   5.619   4.879   6.457
 6149TIP3   OH218403   5.850   3.115   2.229
 6149TIP3    H118404   5.847   3.023   2.202
 6149TIP3    H218405   5.924   3.152   2.180
 6150TIP3   OH218406   6.056   3.878   2.228
 6150TIP3    H118407   6.013   3.920   2.153
 6150TIP3    H218408   6.000   3.898   2.303
 6151TIP3   OH218409   0.569   2.482   3.466
 6151TIP3    H118410   0.585   2.528   3.548
 6151TIP3    H218411   0.473   2.477   3.460
 6152TIP3   OH218412   1.093   3.932   0.430
 6152TIP3    H118413   1.162   3.991   0.400
 6152TIP3    H218414   1.107   3.851   0.380
 6153TIP3   OH218415   3.216   6.808   3.336
 6153TIP3    H118416   3.239   6.788   3.426
 6153TIP3    H218417   3.252   6.896   3.321
 6154TIP3   OH218418   2.381   0.037   1.604
 6154TIP3    H118419   2.475   0.038   1.588
 6154TIP3    H218420   2.347   0.108   1.549
 6155TIP3   OH218421   5.952   2.469   0.566
 6155TIP3    H118422   6.014   2.541   0.556
 6155TIP3    H218423   5.950   2.427   0.481
 6156TIP3   OH218424   7.107   5.892   0.440
 6156TIP3    H118425   7.090   5.799   0.430
 6156TIP3    H218426   7.021   5.931   0.457
 6157TIP3   OH218427   6.137   5.633   5.212
 6157TIP3    H118428   6.173   5.655   5.126
 6157TIP3    H218429   6.201   5.669   5.274
 6158TIP3   OH218430   6.655   6.618   5.586
 6158TIP3    H118431   6.709   6.659   5.519
 6158TIP3    H218432   6.673   6.668   5.666
 6159TIP3   OH218433   5.697   3.287   0.491
 6159TIP3    H118434   5.646   3.291   0.410
 6159TIP3    H218435   5.644   3.233   0.550
 6160TIP3   OH218436   0.208   4.263   3.167
 6160TIP3    H118437   0.235   4.227   3.082
 6160TIP3    H218438   0.124   4.220   3.185
 6161TIP3   OH218439   7.292   2.346   3.759
 6161TIP3    H118440   7.211   2.397   3.766
 6161TIP3    H218441   7.322   2.359   3.670
 6162TIP3   OH218442   6.369   5.844   0.603
 6162TIP3    H118443   6.290   5.803   0.640
 6162TIP3    H218444   6.416   5.772   0.562
 6163TIP3   OH218445   4.368   1.139   4.318
 6163TIP3    H118446   4.333   1.078   4.253
 6163TIP3    H218447   4.314   1.217   4.310
 6164TIP3   OH218448   1.420   0.336   1.518
 6164TIP3    H118449   1.402   0.314   1.426
 6164TIP3    H218450   1.470   0.418   1.513
 6165TIP3   OH218451   4.608   1.867   5.123
 6165TIP3    H118452   4.701   1.852   5.104
 6165TIP3    H218453   4.604   1.959   5.149
 6166TIP3   OH218454   1.834   4.828   4.180
 6166TIP3    H118455   1.820   4.751   4.235
 6166TIP3    H218456   1.921   4.860   4.205
 6167TIP3   OH218457   4.542   5.419   1.137
 6167TIP3    H118458   4.479   5.405   1.067
 6167TIP3    H218459   4.529   5.510   1.164
 6168TIP3   OH218460   6.401   3.842   2.803
 6168TIP3    H118461   6.315   3.881   2.788
 6168TIP3    H218462   6.462   3.904   2.764
 6169TIP3   OH218463   1.165   2.290   2.457
 6169TIP3    H118464   1.104   2.220   2.436
 6169TIP3    H218465   1.252   2.252   2.441
 6170TIP3   OH218466   6.394   4.740   0.391
 6170TIP3    H118467   6.397   4.661   0.446
 6170TIP3    H218468   6.452   4.802   0.435
 6171TIP3   OH218469   3.837   1.946   4.709
 6171TIP3    H118470   3.803   2.034   4.727
 6171TIP3    H218471   3.933   1.957   4.713
 6172TIP3   OH218472   4.725   5.147   5.269
 6172TIP3    H118473   4.656   5.093   5.230
 6172TIP3    H218474   4.679   5.202   5.332
 6173TIP3   OH218475   4.755   4.116   6.670
 6173TIP3    H118476   4.798   4.140   6.752
 6173TIP3    H218477   4.735   4.200   6.628
 6174TIP3   OH218478   3.654   3.503   0.683
 6174TIP3    H118479   3.566   3.534   0.704
 6174TIP3    H218480   3.645   3.464   0.596
 6175TIP3   OH218481   0.847   7.455   1.711
 6175TIP3    H118482   0.854   7.546   1.683
 6175TIP3    H218483   0.888   7.405   1.641
 6176TIP3   OH218484   2.602   0.478   3.480
 6176TIP3    H118485   2.561   0.565   3.480
 6176TIP3    H218486   2.694   0.495   3.501
 6177TIP3   OH218487   2.807   5.882   2.676
 6177TIP3    H118488   2.880   5.880   2.613
 6177TIP3    H218489   2.729   5.895   2.622
 6178TIP3   OH218490   1.766   3.237   4.259
 6178TIP3    H118491   1.742   3.309   4.316
 6178TIP3    H218492   1.843   3.268   4.212
 6179TIP3   OH218493   5.929   4.096   1.299
 6179TIP3    H118494   5.988   4.155   1.251
 6179TIP3    H218495   5.857   4.081   1.238
 6180TIP3   OH218496   3.147   3.818   2.516
 6180TIP3    H118497   3.096   3.851   2.443
 6180TIP3    H218498   3.187   3.897   2.555
 6181TIP3   OH218499   0.612   5.202   0.614
 6181TIP3    H118500   0.530   5.248   0.597
 6181TIP3    H218501   0.596   5.154   0.695
 6182TIP3   OH218502   2.673   3.845   5.285
 6182TIP3    H118503   2.630   3.797   5.355
 6182TIP3    H218504   2.604   3.858   5.219
 6183TIP3   OH218505   5.629   3.759   2.641
 6183TIP3    H118506   5.584   3.776   2.724
 6183TIP3    H218507   5.677   3.678   2.656
 6184TIP3   OH218508   4.778   1.206   2.464
 6184TIP3    H118509   4.793   1.296   2.435
 6184TIP3    H218510   4.836   1.154   2.409
 6185TIP3   OH218511   5.503   2.619   6.044
 6185TIP3    H118512   5.528   2.626   6.136
 6185TIP3    H218513   5.435   2.685   6.032
 6186TIP3   OH218514   3.897   3.938   3.492
 6186TIP3    H118515   3.984   3.950   3.454
 6186TIP3    H218516   3.912   3.880   3.568
 6187TIP3   OH218517   7.096   1.587   2.230
 6187TIP3    H118518   7.111   1.551   2.317
 6187TIP3    H218519   7.171   1.646   2.216
 6188TIP3   OH218520   0.432   2.677   1.662
 6188TIP3    H118521   0.463   2.754   1.710
 6188TIP3    H218522   0.353   2.650   1.709
 6189TIP3   OH218523   6.519   4.215   3.580
 6189TIP3    H118524   6.469   4.158   3.522
 6189TIP3    H218525   6.458   4.284   3.606
 6190TIP3   OH218526   3.259   3.358   2.010
 6190TIP3    H118527   3.350   3.380   1.991
 6190TIP3    H218528   3.220   3.440   2.041
 6191TIP3   OH218529   2.087   4.093   6.505
 6191TIP3    H118530   2.085   4.165   6.568
 6191TIP3    H218531   1.997   4.059   6.505
 6192TIP3   OH218532   0.655   2.788   3.922
 6192TIP3    H118533   0.654   2.865   3.979
 6192TIP3    H218534   0.736   2.742   3.946
 6193TIP3   OH218535   5.839   5.976   4.445
 6193TIP3    H118536   5.918   5.944   4.403
 6193TIP3    H218537   5.776   5.905   4.436
 6194TIP3   OH218538   4.308   2.541   0.996
 6194TIP3    H118539   4.242   2.609   1.009
 6194TIP3    H218540   4.307   2.490   1.077
 6195TIP3   OH218541   6.469   1.048   6.114
 6195TIP3    H118542   6.559   1.016   6.107
 6195TIP3    H218543   6.477   1.132   6.159
 6196TIP3   OH218544   7.860   0.551   2.425
 6196TIP3    H118545   7.867   0.605   2.347
 6196TIP3    H218546   7.777   0.504   2.414
 6197TIP3   OH218547   1.129   1.477   0.388
 6197TIP3    H118548   1.203   1.416   0.387
 6197TIP3    H218549   1.108   1.491   0.296
 6198TIP3   OH218550   6.081   2.977   4.833
 6198TIP3    H118551   5.986   2.968   4.829
 6198TIP3    H218552   6.113   2.891   4.858
 6199TIP3   OH218553   3.997   3.004   4.977
 6199TIP3    H118554   4.008   2.946   4.902
 6199TIP3    H218555   4.073   3.063   4.973
 6200TIP3   OH218556   2.843   2.250   4.737
 6200TIP3    H118557   2.902   2.322   4.759
 6200TIP3    H218558   2.810   2.219   4.821
 6201TIP3   OH218559   4.904   1.292   6.335
 6201TIP3    H118560   4.902   1.340   6.418
 6201TIP3    H218561   4.895   1.360   6.268
 6202TIP3   OH218562   5.031   4.234   4.585
 6202TIP3    H118563   5.044   4.326   4.561
 6202TIP3    H218564   4.974   4.238   4.662
 6203TIP3   OH218565   2.079   0.991   2.266
 6203TIP3    H118566   2.112   1.001   2.355
 6203TIP3    H218567   2.012   1.060   2.257
 6204TIP3   OH218568   3.282   4.439   6.700
 6204TIP3    H118569   3.265   4.420   6.793
 6204TIP3    H218570   3.359   4.496   6.701
 6205TIP3   OH218571   7.608   5.719   1.982
 6205TIP3    H118572   7.523   5.757   1.963
 6205TIP3    H218573   7.589   5.633   2.021
 6206TIP3   OH218574   1.023   1.585   5.219
 6206TIP3    H118575   0.959   1.555   5.155
 6206TIP3    H218576   1.009   1.680   5.225
 6207TIP3   OH218577   1.794   7.401   0.711
 6207TIP3    H118578   1.870   7.434   0.758
 6207TIP3    H218579   1.831   7.358   0.633
 6208TIP3   OH218580   5.817   6.974   5.962
 6208TIP3    H118581   5.812   6.972   5.867
 6208TIP3    H218582   5.752   7.039   5.988
 6209TIP3   OH218583   2.102   5.422   3.860
 6209TIP3    H118584   2.040   5.487   3.893
 6209TIP3    H218585   2.053   5.340   3.861
 6210TIP3   OH218586   4.004   2.817   5.588
 6210TIP3    H118587   3.965   2.808   5.501
 6210TIP3    H218588   3.929   2.817   5.648
 6211TIP3   OH218589   0.316   4.119   1.586
 6211TIP3    H118590   0.363   4.042   1.553
 6211TIP3    H218591   0.348   4.191   1.531
 6212TIP3   OH218592   2.840   2.635   1.608
 6212TIP3    H118593   2.861   2.560   1.665
 6212TIP3    H218594   2.914   2.694   1.619
 6213TIP3   OH218595   8.276   2.475   0.889
 6213TIP3    H118596   8.224   2.530   0.948
 6213TIP3    H218597   8.214   2.444   0.824
 6214TIP3   OH218598   5.609   5.415   2.233
 6214TIP3    H118599   5.615   5.401   2.138
 6214TIP3    H218600   5.673   5.482   2.252
 6215TIP3   OH218601   3.116   6.660   5.876
 6215TIP3    H118602   3.205   6.676   5.842
 6215TIP3    H218603   3.128   6.649   5.970
 6216TIP3   OH218604   4.806   0.439   1.034
 6216TIP3    H118605   4.847   0.483   0.960
 6216TIP3    H218606   4.776   0.355   1.000
 6217TIP3   OH218607   1.412   7.677   4.646
 6217TIP3    H118608   1.459   7.687   4.563
 6217TIP3    H218609   1.321   7.663   4.621
 6218TIP3   OH218610   8.031   6.789   0.563
 6218TIP3    H118611   7.982   6.708   0.546
 6218TIP3    H218612   7.987   6.855   0.509
 6219TIP3   OH218613   4.821   3.740   0.316
 6219TIP3    H118614   4.830   3.813   0.376
 6219TIP3    H218615   4.732   3.748   0.281
 6220TIP3   OH218616   1.538   4.225   5.874
 6220TIP3    H118617   1.533   4.233   5.779
 6220TIP3    H218618   1.632   4.223   5.893
 6221TIP3   OH218619   7.015   5.069   5.102
 6221TIP3    H118620   7.036   5.157   5.132
 6221TIP3    H218621   7.046   5.012   5.172
 6222TIP3   OH218622   8.265   2.699   4.956
 6222TIP3    H118623   8.344   2.742   4.923
 6222TIP3    H218624   8.278   2.606   4.936
 6223TIP3   OH218625   0.616   2.041   2.787
 6223TIP3    H118626   0.686   2.036   2.721
 6223TIP3    H218627   0.557   1.969   2.765
 6224TIP3   OH218628   2.037   7.561   0.649
 6224TIP3    H118629   2.028   7.648   0.689
 6224TIP3    H218630   1.989   7.569   0.566
 6225TIP3   OH218631   1.876   3.809   3.833
 6225TIP3    H118632   1.811   3.857   3.782
 6225TIP3    H218633   1.959   3.825   3.786
 6226TIP3   OH218634   1.021   0.251   0.261
 6226TIP3    H118635   0.937   0.258   0.307
 6226TIP3    H218636   0.997   0.239   0.169
 6227TIP3   OH218637   3.891   5.752   5.855
 6227TIP3    H118638   3.976   5.757   5.899
 6227TIP3    H218639   3.909   5.775   5.764
 6228TIP3   OH218640   4.825   6.139   6.404
 6228TIP3    H118641   4.851   6.226   6.373
 6228TIP3    H218642   4.765   6.157   6.477
 6229TIP3   OH218643   5.955   3.571   6.507
 6229TIP3    H118644   5.987   3.586   6.418
 6229TIP3    H218645   5.861   3.592   6.503
 6230TIP3   OH218646   7.869   5.611   4.040
 6230TIP3    H118647   7.912   5.614   4.125
 6230TIP3    H218648   7.775   5.616   4.061
 6231TIP3   OH218649   0.958   0.942   1.206
 6231TIP3    H118650   0.903   0.896   1.143
 6231TIP3    H218651   0.981   1.024   1.163
 6232TIP3   OH218652   0.111   6.887   5.150
 6232TIP3    H118653   0.196   6.866   5.189
 6232TIP3    H218654   0.070   6.947   5.212
 6233TIP3   OH218655   0.637   3.969   0.289
 6233TIP3    H118656   0.558   4.007   0.328
 6233TIP3    H218657   0.610   3.941   0.202
 6234TIP3   OH218658   7.774   4.253   4.379
 6234TIP3    H118659   7.784   4.308   4.457
 6234TIP3    H218660   7.816   4.302   4.309
 6235TIP3   OH218661   7.090   2.331   5.972
 6235TIP3    H118662   7.172   2.307   5.929
 6235TIP3    H218663   7.032   2.356   5.901
 6236TIP3   OH218664   1.634   2.431   0.917
 6236TIP3    H118665   1.603   2.372   0.849
 6236TIP3    H218666   1.554   2.469   0.954
 6237TIP3   OH218667   2.835   7.787   1.901
 6237TIP3    H118668   2.844   7.763   1.809
 6237TIP3    H218669   2.780   7.866   1.900
 6238TIP3   OH218670   4.064   5.164   5.548
 6238TIP3    H118671   3.988   5.182   5.604
 6238TIP3    H218672   4.031   5.172   5.459
 6239TIP3   OH218673   4.191   7.726   4.489
 6239TIP3    H118674   4.211   7.635   4.511
 6239TIP3    H218675   4.148   7.760   4.568
 6240TIP3   OH218676   5.791   7.351   3.721
 6240TIP3    H118677   5.808   7.338   3.814
 6240TIP3    H218678   5.874   7.385   3.686
 6241TIP3   OH218679   4.458   2.211   4.538
 6241TIP3    H118680   4.367   2.241   4.538
 6241TIP3    H218681   4.508   2.289   4.512
 6242TIP3   OH218682   4.445   2.226   4.973
 6242TIP3    H118683   4.467   2.224   5.066
 6242TIP3    H218684   4.490   2.150   4.936
 6243TIP3   OH218685   5.750   3.618   3.762
 6243TIP3    H118686   5.771   3.676   3.689
 6243TIP3    H218687   5.768   3.530   3.728
 6244TIP3   OH218688   1.329   7.517   1.125
 6244TIP3    H118689   1.372   7.581   1.069
 6244TIP3    H218690   1.270   7.470   1.066
 6245TIP3   OH218691   3.896   7.556   5.756
 6245TIP3    H118692   3.853   7.482   5.714
 6245TIP3    H218693   3.849   7.633   5.724
 6246TIP3   OH218694   1.910   0.503   3.471
 6246TIP3    H118695   1.956   0.572   3.519
 6246TIP3    H218696   1.943   0.422   3.508
 6247TIP3   OH218697   3.780   2.883   2.752
 6247TIP3    H118698   3.702   2.883   2.807
 6247TIP3    H218699   3.813   2.972   2.756
 6248TIP3   OH218700   6.143   1.318   0.102
 6248TIP3    H118701   6.125   1.240   0.155
 6248TIP3    H218702   6.213   1.364   0.148
 6249TIP3   OH218703   5.031   6.281   1.513
 6249TIP3    H118704   5.005   6.291   1.604
 6249TIP3    H218705   4.967   6.332   1.464
 6250TIP3   OH218706   0.707   2.983   4.087
 6250TIP3    H118707   0.690   2.979   4.181
 6250TIP3    H218708   0.800   2.964   4.079
 6251TIP3   OH218709   5.221   0.278   5.132
 6251TIP3    H118710   5.256   0.328   5.206
 6251TIP3    H218711   5.127   0.273   5.148
 6252TIP3   OH218712   6.862   2.737   6.211
 6252TIP3    H118713   6.937   2.680   6.196
 6252TIP3    H218714   6.786   2.685   6.184
 6253TIP3   OH218715   1.100   2.596   5.720
 6253TIP3    H118716   1.100   2.517   5.666
 6253TIP3    H218717   1.190   2.603   5.752
 6254TIP3   OH218718   1.461   7.750   3.011
 6254TIP3    H118719   1.441   7.657   3.016
 6254TIP3    H218720   1.405   7.783   2.941
 6255TIP3   OH218721   2.390   7.448   0.698
 6255TIP3    H118722   2.326   7.396   0.650
 6255TIP3    H218723   2.337   7.511   0.748
 6256TIP3   OH218724   1.929   2.781   1.208
 6256TIP3    H118725   1.862   2.767   1.140
 6256TIP3    H218726   1.988   2.846   1.170
 6257TIP3   OH218727   0.510   0.622   4.156
 6257TIP3    H118728   0.422   0.618   4.195
 6257TIP3    H218729   0.548   0.536   4.174
 6258TIP3   OH218730   2.913   7.074   0.914
 6258TIP3    H118731   2.913   7.021   0.994
 6258TIP3    H218732   2.994   7.051   0.869
 6259TIP3   OH218733   5.465   5.035   5.980
 6259TIP3    H118734   5.404   5.108   5.975
 6259TIP3    H218735   5.482   5.012   5.888
 6260TIP3   OH218736   4.286   0.418   3.828
 6260TIP3    H118737   4.211   0.376   3.785
 6260TIP3    H218738   4.326   0.348   3.880
 6261TIP3   OH218739   2.350   2.958   2.367
 6261TIP3    H118740   2.323   3.048   2.352
 6261TIP3    H218741   2.375   2.956   2.460
 6262TIP3   OH218742   7.920   1.115   1.328
 6262TIP3    H118743   7.999   1.112   1.382
 6262TIP3    H218744   7.895   1.023   1.318
 6263TIP3   OH218745   6.021   2.385   5.521
 6263TIP3    H118746   6.083   2.364   5.452
 6263TIP3    H218747   5.949   2.430   5.476
 6264TIP3   OH218748   8.293   4.376   3.614
 6264TIP3    H118749   8.202   4.347   3.613
 6264TIP3    H218750   8.343   4.299   3.588
 6265TIP3   OH218751   2.339   7.316   1.365
 6265TIP3    H118752   2.277   7.291   1.296
 6265TIP3    H218753   2.287   7.316   1.445
 6266TIP3   OH218754   5.975   1.171   2.473
 6266TIP3    H118755   5.987   1.240   2.408
 6266TIP3    H218756   6.058   1.123   2.472
 6267TIP3   OH218757   0.570   3.586   1.815
 6267TIP3    H118758   0.627   3.652   1.855
 6267TIP3    H218759   0.483   3.624   1.819
 6268TIP3   OH218760   2.599   7.760   1.241
 6268TIP3    H118761   2.685   7.731   1.271
 6268TIP3    H218762   2.595   7.853   1.262
 6269TIP3   OH218763   1.780   3.680   0.277
 6269TIP3    H118764   1.803   3.647   0.364
 6269TIP3    H218765   1.691   3.649   0.262
 6270TIP3   OH218766   1.129   0.083   2.635
 6270TIP3    H118767   1.088   0.126   2.710
 6270TIP3    H218768   1.223   0.089   2.652
 6271TIP3   OH218769   0.771   4.835   1.577
 6271TIP3    H118770   0.713   4.760   1.566
 6271TIP3    H218771   0.712   4.911   1.574
 6272TIP3   OH218772   2.562   7.470   5.349
 6272TIP3    H118773   2.649   7.488   5.385
 6272TIP3    H218774   2.577   7.457   5.256
 6273TIP3   OH218775   4.266   2.866   2.101
 6273TIP3    H118776   4.287   2.856   2.194
 6273TIP3    H218777   4.199   2.934   2.099
 6274TIP3   OH218778   7.396   5.738   2.731
 6274TIP3    H118779   7.361   5.769   2.815
 6274TIP3    H218780   7.322   5.746   2.670
 6275TIP3   OH218781   7.885   5.109   4.122
 6275TIP3    H118782   7.886   5.201   4.147
 6275TIP3    H218783   7.974   5.079   4.136
 6276TIP3   OH218784   1.773   1.624   1.281
 6276TIP3    H118785   1.814   1.572   1.212
 6276TIP3    H218786   1.769   1.712   1.245
 6277TIP3   OH218787   2.252   4.773   1.890
 6277TIP3    H118788   2.339   4.793   1.926
 6277TIP3    H218789   2.255   4.679   1.870
 6278TIP3   OH218790   2.382   2.076   4.469
 6278TIP3    H118791   2.457   2.134   4.482
 6278TIP3    H218792   2.380   2.023   4.549
 6279TIP3   OH218793   4.743   6.905   0.333
 6279TIP3    H118794   4.776   6.816   0.333
 6279TIP3    H218795   4.799   6.952   0.272
 6280TIP3   OH218796   8.105   4.595   1.748
 6280TIP3    H118797   8.110   4.520   1.689
 6280TIP3    H218798   8.025   4.640   1.722
 6281TIP3   OH218799   3.789   7.636   0.179
 6281TIP3    H118800   3.792   7.691   0.101
 6281TIP3    H218801   3.838   7.557   0.156
 6282TIP3   OH218802   2.055   2.852   4.755
 6282TIP3    H118803   1.962   2.871   4.766
 6282TIP3    H218804   2.062   2.758   4.771
 6283TIP3   OH218805   1.499   2.250   2.591
 6283TIP3    H118806   1.439   2.178   2.571
 6283TIP3    H218807   1.560   2.213   2.656
 6284TIP3   OH218808   2.513   1.352   1.561
 6284TIP3    H118809   2.494   1.433   1.514
 6284TIP3    H218810   2.604   1.332   1.538
 6285TIP3   OH218811   2.173   6.604   4.920
 6285TIP3    H118812   2.082   6.618   4.942
 6285TIP3    H218813   2.223   6.646   4.990
 6286TIP3   OH218814   5.881   7.054   2.327
 6286TIP3    H118815   5.959   6.999   2.337
 6286TIP3    H218816   5.860   7.082   2.416
 6287TIP3   OH218817   0.429   7.772   6.213
 6287TIP3    H118818   0.427   7.855   6.165
 6287TIP3    H218819   0.497   7.721   6.170
 6288TIP3   OH218820   0.784   1.019   1.410
 6288TIP3    H118821   0.844   0.983   1.475
 6288TIP3    H218822   0.840   1.043   1.336
 6289TIP3   OH218823   7.550   0.536   6.381
 6289TIP3    H118824   7.459   0.549   6.406
 6289TIP3    H218825   7.569   0.445   6.406
 6290TIP3   OH218826   8.274   0.017   1.000
 6290TIP3    H118827   8.301   0.099   0.959
 6290TIP3    H218828   8.300  -0.051   0.938
 6291TIP3   OH218829   7.936   1.142   3.974
 6291TIP3    H118830   7.932   1.118   4.067
 6291TIP3    H218831   8.030   1.143   3.954
 6292TIP3   OH218832   2.152   0.015   3.917
 6292TIP3    H118833   2.238   0.007   3.875
 6292TIP3    H218834   2.142   0.109   3.934
 6293TIP3   OH218835   3.461   4.286   1.662
 6293TIP3    H118836   3.499   4.219   1.718
 6293TIP3    H218837   3.367   4.282   1.680
 6294TIP3   OH218838   4.897   2.832   0.154
 6294TIP3    H118839   4.823   2.811   0.098
 6294TIP3    H218840   4.963   2.766   0.134
 6295TIP3   OH218841   7.462   5.876   4.205
 6295TIP3    H118842   7.447   5.910   4.116
 6295TIP3    H218843   7.513   5.797   4.191
 6296TIP3   OH218844   5.431   6.501   5.077
 6296TIP3    H118845   5.418   6.572   5.139
 6296TIP3    H218846   5.343   6.467   5.060
 6297TIP3   OH218847   3.143   6.693   0.704
 6297TIP3    H118848   3.216   6.754   0.689
 6297TIP3    H218849   3.122   6.704   0.797
 6298TIP3   OH218850   7.319   6.765   6.400
 6298TIP3    H118851   7.233   6.740   6.366
 6298TIP3    H218852   7.305   6.850   6.440
 6299TIP3   OH218853   5.032   3.323   0.435
 6299TIP3    H118854   5.100   3.266   0.399
 6299TIP3    H218855   5.012   3.384   0.363
 6300TIP3   OH218856   6.493   3.943   4.612
 6300TIP3    H118857   6.471   4.030   4.578
 6300TIP3    H218858   6.565   3.959   4.673
 6301TIP3   OH218859   5.438   3.246   0.584
 6301TIP3    H118860   5.427   3.171   0.642
 6301TIP3    H218861   5.367   3.306   0.608
 6302TIP3   OH218862   4.863   1.871   3.114
 6302TIP3    H118863   4.792   1.927   3.083
 6302TIP3    H218864   4.916   1.928   3.171
 6303TIP3   OH218865   5.792   2.176   3.127
 6303TIP3    H118866   5.750   2.261   3.144
 6303TIP3    H218867   5.885   2.191   3.144
 6304TIP3   OH218868   3.815   4.068   2.019
 6304TIP3    H118869   3.802   4.107   2.106
 6304TIP3    H218870   3.788   3.977   2.029
 6305TIP3   OH218871   6.809   1.845   0.356
 6305TIP3    H118872   6.879   1.878   0.413
 6305TIP3    H218873   6.834   1.755   0.336
 6306TIP3   OH218874   0.655   0.289   6.398
 6306TIP3    H118875   0.688   0.346   6.328
 6306TIP3    H218876   0.734   0.249   6.435
 6307TIP3   OH218877   2.393   3.068   0.654
 6307TIP3    H118878   2.424   3.049   0.565
 6307TIP3    H218879   2.449   3.139   0.684
 6308TIP3   OH218880   5.175   1.074   0.206
 6308TIP3    H118881   5.234   1.149   0.196
 6308TIP3    H218882   5.133   1.065   0.120
 6309TIP3   OH218883   2.778   0.424   6.590
 6309TIP3    H118884   2.729   0.353   6.632
 6309TIP3    H218885   2.869   0.405   6.610
 6310TIP3   OH218886   4.611   2.283   6.790
 6310TIP3    H118887   4.580   2.279   6.699
 6310TIP3    H218888   4.698   2.243   6.787
 6311TIP3   OH218889   4.831   4.246   4.747
 6311TIP3    H118890   4.812   4.280   4.835
 6311TIP3    H218891   4.763   4.180   4.732
 6312TIP3   OH218892   5.544   2.873   4.174
 6312TIP3    H118893   5.462   2.855   4.128
 6312TIP3    H218894   5.604   2.804   4.144
 6313TIP3   OH218895   1.728   2.584   0.374
 6313TIP3    H118896   1.708   2.664   0.424
 6313TIP3    H218897   1.667   2.519   0.409
 6314TIP3   OH218898   7.377   3.896   6.514
 6314TIP3    H118899   7.303   3.867   6.567
 6314TIP3    H218900   7.434   3.942   6.575
 6315TIP3   OH218901   1.652   3.023   1.742
 6315TIP3    H118902   1.681   2.932   1.752
 6315TIP3    H218903   1.673   3.064   1.827
 6316TIP3   OH218904   0.413   5.579   3.595
 6316TIP3    H118905   0.413   5.664   3.639
 6316TIP3    H218906   0.385   5.517   3.662
 6317TIP3   OH218907   5.444   3.999   4.875
 6317TIP3    H118908   5.522   3.978   4.927
 6317TIP3    H218909   5.390   4.051   4.934
 6318TIP3   OH218910   4.411   6.250   1.762
 6318TIP3    H118911   4.412   6.158   1.734
 6318TIP3    H218912   4.468   6.295   1.700
 6319TIP3   OH218913   1.048   2.498   6.615
 6319TIP3    H118914   1.044   2.475   6.522
 6319TIP3    H218915   1.083   2.419   6.658
 6320TIP3   OH218916   8.005   7.535   0.506
 6320TIP3    H118917   8.035   7.453   0.466
 6320TIP3    H218918   8.047   7.536   0.592
 6321TIP3   OH218919   1.481   3.264   3.490
 6321TIP3    H118920   1.386   3.250   3.490
 6321TIP3    H218921   1.497   3.316   3.412
 6322TIP3   OH218922   6.827   5.938   0.507
 6322TIP3    H118923   6.747   5.969   0.465
 6322TIP3    H218924   6.819   5.843   0.507
 6323TIP3   OH218925   1.374   7.129   1.585
 6323TIP3    H118926   1.370   7.042   1.545
 6323TIP3    H218927   1.302   7.177   1.544
 6324TIP3   OH218928   3.125   2.521   4.505
 6324TIP3    H118929   3.175   2.602   4.520
 6324TIP3    H218930   3.044   2.551   4.465
 6325TIP3   OH218931   0.058   2.472   4.752
 6325TIP3    H118932   0.132   2.516   4.793
 6325TIP3    H218933   0.083   2.380   4.750
 6326TIP3   OH218934   6.307   5.408   0.213
 6326TIP3    H118935   6.250   5.469   0.261
 6326TIP3    H218936   6.247   5.349   0.168
 6327TIP3   OH218937   2.195   7.316   1.599
 6327TIP3    H118938   2.247   7.262   1.658
 6327TIP3    H218939   2.162   7.387   1.653
 6328TIP3   OH218940   8.182   4.107   1.368
 6328TIP3    H118941   8.095   4.105   1.328
 6328TIP3    H218942   8.236   4.157   1.306
 6329TIP3   OH218943   1.624   4.210   6.402
 6329TIP3    H118944   1.597   4.179   6.488
 6329TIP3    H218945   1.543   4.212   6.350
 6330TIP3   OH218946   1.074   2.401   4.995
 6330TIP3    H118947   1.076   2.404   4.899
 6330TIP3    H218948   0.989   2.440   5.018
 6331TIP3   OH218949   4.497   1.537   4.383
 6331TIP3    H118950   4.464   1.589   4.310
 6331TIP3    H218951   4.529   1.602   4.446
 6332TIP3   OH218952   4.154   3.029   1.128
 6332TIP3    H118953   4.178   3.084   1.054
 6332TIP3    H218954   4.059   3.029   1.129
 6333TIP3   OH218955   3.704   5.379   2.948
 6333TIP3    H118956   3.695   5.449   3.013
 6333TIP3    H218957   3.722   5.300   2.999
 6334TIP3   OH218958   6.110   7.219   1.994
 6334TIP3    H118959   6.038   7.247   2.050
 6334TIP3    H218960   6.109   7.281   1.920
 6335TIP3   OH218961   4.164   6.442   5.127
 6335TIP3    H118962   4.129   6.424   5.214
 6335TIP3    H218963   4.096   6.411   5.067
 6336TIP3   OH218964   1.670   0.941   2.629
 6336TIP3    H118965   1.594   0.892   2.661
 6336TIP3    H218966   1.731   0.874   2.599
 6337TIP3   OH218967   3.617   6.937   1.954
 6337TIP3    H118968   3.594   6.845   1.971
 6337TIP3    H218969   3.562   6.987   2.014
 6338TIP3   OH218970   4.466   2.438   1.465
 6338TIP3    H118971   4.408   2.495   1.414
 6338TIP3    H218972   4.544   2.427   1.409
 6339TIP3   OH218973   7.580   2.954   4.511
 6339TIP3    H118974   7.516   2.900   4.557
 6339TIP3    H218975   7.531   2.994   4.440
 6340TIP3   OH218976   8.285   7.380   1.387
 6340TIP3    H118977   8.324   7.467   1.382
 6340TIP3    H218978   8.220   7.380   1.316
 6341TIP3   OH218979   1.523   2.509   3.691
 6341TIP3    H118980   1.565   2.531   3.608
 6341TIP3    H218981   1.493   2.593   3.726
 6342TIP3   OH218982   3.487   5.635   1.118
 6342TIP3    H118983   3.461   5.560   1.170
 6342TIP3    H218984   3.437   5.629   1.037
 6343TIP3   OH218985   3.844   0.604   1.160
 6343TIP3    H118986   3.868   0.549   1.235
 6343TIP3    H218987   3.752   0.626   1.176
 6344TIP3   OH218988   6.983   5.612   0.341
 6344TIP3    H118989   6.921   5.612   0.414
 6344TIP3    H218990   6.949   5.546   0.281
 6345TIP3   OH218991   7.202   0.317   6.718
 6345TIP3    H118992   7.174   0.401   6.754
 6345TIP3    H218993   7.280   0.337   6.666
 6346TIP3   OH218994   4.480   0.873   0.302
 6346TIP3    H118995   4.512   0.832   0.222
 6346TIP3    H218996   4.476   0.966   0.282
 6347TIP3   OH218997   3.379   4.131   5.492
 6347TIP3    H118998   3.423   4.046   5.490
 6347TIP3    H218999   3.338   4.135   5.578
 6348TIP3   OH219000   0.180   0.049   0.709
 6348TIP3    H119001   0.244   0.044   0.639
 6348TIP3    H219002   0.219  -0.002   0.781
 6349TIP3   OH219003   0.265   4.467   3.590
 6349TIP3    H119004   0.177   4.460   3.627
 6349TIP3    H219005   0.314   4.519   3.653
 6350TIP3   OH219006   1.242   3.580   5.855
 6350TIP3    H119007   1.306   3.547   5.918
 6350TIP3    H219008   1.180   3.631   5.907
 6351TIP3   OH219009   4.290   2.285   0.752
 6351TIP3    H119010   4.346   2.248   0.683
 6351TIP3    H219011   4.215   2.321   0.706
 6352TIP3   OH219012   3.552   5.178   1.135
 6352TIP3    H119013   3.498   5.255   1.152
 6352TIP3    H219014   3.498   5.104   1.163
 6353TIP3   OH219015   5.943   0.841   6.100
 6353TIP3    H119016   5.892   0.871   6.175
 6353TIP3    H219017   6.034   0.844   6.130
 6354TIP3   OH219018   7.154   4.368   5.645
 6354TIP3    H119019   7.139   4.463   5.649
 6354TIP3    H219020   7.088   4.336   5.583
 6355TIP3   OH219021   1.796   3.365   5.319
 6355TIP3    H119022   1.797   3.459   5.341
 6355TIP3    H219023   1.704   3.340   5.322
 6356TIP3   OH219024   5.672   4.891   6.128
 6356TIP3    H119025   5.609   4.953   6.091
 6356TIP3    H219026   5.640   4.873   6.217
 6357TIP3   OH219027   2.880   4.986   0.508
 6357TIP3    H119028   2.838   4.976   0.594
 6357TIP3    H219029   2.914   5.076   0.508
 6358TIP3   OH219030   3.727   5.916   0.493
 6358TIP3    H119031   3.700   5.852   0.560
 6358TIP3    H219032   3.792   5.970   0.538
 6359TIP3   OH219033   5.003   0.885   4.673
 6359TIP3    H119034   4.970   0.796   4.660
 6359TIP3    H219035   5.059   0.901   4.597
 6360TIP3   OH219036   2.699   2.583   3.055
 6360TIP3    H119037   2.684   2.558   3.146
 6360TIP3    H219038   2.672   2.674   3.050
 6361TIP3   OH219039   6.603   6.563   0.732
 6361TIP3    H119040   6.599   6.592   0.823
 6361TIP3    H219041   6.530   6.502   0.723
 6362TIP3   OH219042   7.388   7.109   0.063
 6362TIP3    H119043   7.445   7.039   0.030
 6362TIP3    H219044   7.449   7.176   0.093
 6363TIP3   OH219045   6.966   1.046   0.061
 6363TIP3    H119046   6.898   0.979   0.051
 6363TIP3    H219047   6.966   1.066   0.155
 6364TIP3   OH219048   1.216   0.741   5.206
 6364TIP3    H119049   1.216   0.832   5.176
 6364TIP3    H219050   1.152   0.740   5.277
 6365TIP3   OH219051   6.502   5.598   0.166
 6365TIP3    H119052   6.456   5.516   0.185
 6365TIP3    H219053   6.592   5.582   0.191
 6366TIP3   OH219054   5.070   7.557   3.813
 6366TIP3    H119055   5.108   7.535   3.728
 6366TIP3    H219056   4.987   7.601   3.792
 6367TIP3   OH219057   4.841   3.634   5.504
 6367TIP3    H119058   4.779   3.573   5.545
 6367TIP3    H219059   4.874   3.687   5.577
 6368TIP3   OH219060   5.075   5.214   5.417
 6368TIP3    H119061   5.031   5.172   5.491
 6368TIP3    H219062   5.120   5.289   5.455
 6369TIP3   OH219063   4.148   6.117   3.477
 6369TIP3    H119064   4.067   6.120   3.529
 6369TIP3    H219065   4.215   6.092   3.540
 6370TIP3   OH219066   2.523   6.488   4.485
 6370TIP3    H119067   2.551   6.572   4.522
 6370TIP3    H219068   2.493   6.437   4.559
 6371TIP3   OH219069   3.084   7.726   0.314
 6371TIP3    H119070   3.159   7.700   0.259
 6371TIP3    H219071   3.011   7.734   0.253
 6372TIP3   OH219072   1.425   7.578   2.761
 6372TIP3    H119073   1.506   7.534   2.788
 6372TIP3    H219074   1.447   7.616   2.676
 6373TIP3   OH219075   4.729   0.889   1.832
 6373TIP3    H119076   4.679   0.967   1.806
 6373TIP3    H219077   4.664   0.830   1.868
 6374TIP3   OH219078   5.078   0.305   3.436
 6374TIP3    H119079   5.161   0.309   3.388
 6374TIP3    H219080   5.018   0.360   3.384
 6375TIP3   OH219081   1.977   1.363   0.779
 6375TIP3    H119082   1.894   1.372   0.827
 6375TIP3    H219083   1.973   1.276   0.740
 6376TIP3   OH219084   8.247   1.490   6.505
 6376TIP3    H119085   8.228   1.407   6.549
 6376TIP3    H219086   8.259   1.466   6.413
 6377TIP3   OH219087   5.974   0.918   3.290
 6377TIP3    H119088   5.915   0.992   3.306
 6377TIP3    H219089   5.916   0.846   3.266
 6378TIP3   OH219090   1.191   7.601   1.361
 6378TIP3    H119091   1.241   7.561   1.289
 6378TIP3    H219092   1.132   7.531   1.391
 6379TIP3   OH219093   0.680   5.872   2.378
 6379TIP3    H119094   0.649   5.957   2.347
 6379TIP3    H219095   0.661   5.812   2.306
 6380TIP3   OH219096   3.144   1.451   3.058
 6380TIP3    H119097   3.098   1.496   3.129
 6380TIP3    H219098   3.085   1.458   2.983
 6381TIP3   OH219099   4.766   3.511   1.182
 6381TIP3    H119100   4.759   3.483   1.091
 6381TIP3    H219101   4.791   3.432   1.229
 6382TIP3   OH219102   3.327   2.988   4.815
 6382TIP3    H119103   3.279   3.070   4.799
 6382TIP3    H219104   3.405   2.996   4.760
 6383TIP3   OH219105   2.072   2.595   4.829
 6383TIP3    H119106   2.049   2.569   4.740
 6383TIP3    H219107   2.163   2.564   4.839
 6384TIP3   OH219108   6.301   3.825   5.647
 6384TIP3    H119109   6.303   3.897   5.709
 6384TIP3    H219110   6.352   3.856   5.572
 6385TIP3   OH219111   2.678   1.216   0.483
 6385TIP3    H119112   2.703   1.221   0.391
 6385TIP3    H219113   2.671   1.122   0.500
 6386TIP3   OH219114   8.098   6.225   2.200
 6386TIP3    H119115   8.057   6.168   2.264
 6386TIP3    H219116   8.068   6.313   2.223
 6387TIP3   OH219117   0.912   7.201   6.021
 6387TIP3    H119118   0.966   7.122   6.008
 6387TIP3    H219119   0.932   7.228   6.110
 6388TIP3   OH219120   6.859   0.915   1.575
 6388TIP3    H119121   6.777   0.915   1.527
 6388TIP3    H219122   6.927   0.918   1.508
 6389TIP3   OH219123   5.726   5.548   1.516
 6389TIP3    H119124   5.642   5.503   1.517
 6389TIP3    H219125   5.704   5.641   1.517
 6390TIP3   OH219126   5.855   3.038   1.846
 6390TIP3    H119127   5.853   3.075   1.758
 6390TIP3    H219128   5.859   3.114   1.904
 6391TIP3   OH219129   7.612   7.626   1.304
 6391TIP3    H119130   7.529   7.647   1.346
 6391TIP3    H219131   7.624   7.695   1.239
 6392TIP3   OH219132   4.002   7.119   2.087
 6392TIP3    H119133   3.988   7.067   2.008
 6392TIP3    H219134   3.979   7.208   2.062
 6393TIP3   OH219135   5.524   0.220   4.634
 6393TIP3    H119136   5.556   0.171   4.710
 6393TIP3    H219137   5.516   0.155   4.565
 6394TIP3   OH219138   6.236   2.234   0.613
 6394TIP3    H119139   6.259   2.196   0.528
 6394TIP3    H219140   6.234   2.329   0.597
 6395TIP3   OH219141   3.541   6.206   2.136
 6395TIP3    H119142   3.542   6.192   2.231
 6395TIP3    H219143   3.588   6.289   2.124
 6396TIP3   OH219144   7.789   2.136   5.406
 6396TIP3    H119145   7.814   2.205   5.345
 6396TIP3    H219146   7.845   2.062   5.382
 6397TIP3   OH219147   7.190   2.627   0.770
 6397TIP3    H119148   7.231   2.541   0.770
 6397TIP3    H219149   7.243   2.679   0.709
 6398TIP3   OH219150   4.192   2.041   1.378
 6398TIP3    H119151   4.193   1.952   1.343
 6398TIP3    H219152   4.158   2.032   1.467
 6399TIP3   OH219153   4.557   7.611   2.078
 6399TIP3    H119154   4.618   7.537   2.071
 6399TIP3    H219155   4.475   7.577   2.042
 6400TIP3   OH219156   0.719   6.946   4.578
 6400TIP3    H119157   0.801   6.909   4.544
 6400TIP3    H219158   0.734   7.040   4.579
 6401TIP3   OH219159   0.380   0.451   0.919
 6401TIP3    H119160   0.430   0.520   0.875
 6401TIP3    H219161   0.290   0.463   0.887
 6402TIP3   OH219162   4.919   3.383   3.857
 6402TIP3    H119163   4.932   3.393   3.763
 6402TIP3    H219164   4.934   3.471   3.892
 6403TIP3   OH219165   5.860   1.169   1.722
 6403TIP3    H119166   5.916   1.211   1.787
 6403TIP3    H219167   5.816   1.242   1.677
 6404TIP3   OH219168   5.254   5.355   4.342
 6404TIP3    H119169   5.299   5.439   4.327
 6404TIP3    H219170   5.319   5.301   4.388
 6405TIP3   OH219171   7.385   3.664   0.659
 6405TIP3    H119172   7.328   3.587   0.667
 6405TIP3    H219173   7.325   3.736   0.642
 6406TIP3   OH219174   1.298   0.459   3.439
 6406TIP3    H119175   1.254   0.534   3.478
 6406TIP3    H219176   1.262   0.453   3.351
 6407TIP3   OH219177   6.398   7.279   5.773
 6407TIP3    H119178   6.427   7.357   5.726
 6407TIP3    H219179   6.315   7.305   5.814
 6408TIP3   OH219180   4.383   6.105   3.237
 6408TIP3    H119181   4.368   6.172   3.170
 6408TIP3    H219182   4.340   6.140   3.316
 6409TIP3   OH219183   0.064   3.807   5.160
 6409TIP3    H119184   0.069   3.768   5.247
 6409TIP3    H219185   0.029   3.895   5.176
 6410TIP3   OH219186   3.829   1.040   6.697
 6410TIP3    H119187   3.886   1.019   6.771
 6410TIP3    H219188   3.750   1.077   6.737
 6411TIP3   OH219189   5.264   2.874   1.228
 6411TIP3    H119190   5.337   2.934   1.212
 6411TIP3    H219191   5.209   2.883   1.150
 6412TIP3   OH219192   2.620   4.525   0.251
 6412TIP3    H119193   2.643   4.542   0.160
 6412TIP3    H219194   2.703   4.515   0.297
 6413TIP3   OH219195   2.467   3.931   6.655
 6413TIP3    H119196   2.389   3.907   6.704
 6413TIP3    H219197   2.434   3.956   6.569
 6414TIP3   OH219198   2.470   4.495   6.250
 6414TIP3    H119199   2.445   4.531   6.335
 6414TIP3    H219200   2.400   4.435   6.227
 6415TIP3   OH219201   7.235   5.889   2.538
 6415TIP3    H119202   7.143   5.916   2.539
 6415TIP3    H219203   7.234   5.804   2.496
 6416TIP3   OH219204   3.412   5.663   3.099
 6416TIP3    H119205   3.407   5.684   3.006
 6416TIP3    H219206   3.336   5.608   3.116
 6417TIP3   OH219207   3.814   2.434   2.120
 6417TIP3    H119208   3.881   2.382   2.164
 6417TIP3    H219209   3.779   2.491   2.188
 6418TIP3   OH219210   6.858   2.998   1.146
 6418TIP3    H119211   6.809   2.934   1.094
 6418TIP3    H219212   6.921   2.944   1.195
 6419TIP3   OH219213   1.101   3.983   3.898
 6419TIP3    H119214   1.023   3.953   3.851
 6419TIP3    H219215   1.110   4.075   3.873
 6420TIP3   OH219216   3.544   2.478   2.727
 6420TIP3    H119217   3.486   2.408   2.756
 6420TIP3    H219218   3.573   2.520   2.808
 6421TIP3   OH219219   2.441   2.904   4.502
 6421TIP3    H119220   2.358   2.903   4.550
 6421TIP3    H219221   2.482   2.986   4.529
 6422TIP3   OH219222   3.035   0.936   6.190
 6422TIP3    H119223   3.021   0.905   6.100
 6422TIP3    H219224   3.105   1.001   6.182
 6423TIP3   OH219225   6.734   3.667   3.047
 6423TIP3    H119226   6.806   3.728   3.031
 6423TIP3    H219227   6.694   3.697   3.129
 6424TIP3   OH219228   1.591   7.427   1.651
 6424TIP3    H119229   1.621   7.366   1.584
 6424TIP3    H219230   1.571   7.371   1.727
 6425TIP3   OH219231   7.395   4.741   3.946
 6425TIP3    H119232   7.480   4.729   3.904
 6425TIP3    H219233   7.345   4.663   3.923
 6426TIP3   OH219234   7.008   7.044   4.700
 6426TIP3    H119235   6.954   7.009   4.770
 6426TIP3    H219236   7.097   7.016   4.722
 6427TIP3   OH219237   5.526   0.235   1.852
 6427TIP3    H119238   5.590   0.256   1.784
 6427TIP3    H219239   5.568   0.261   1.934
 6428TIP3   OH219240   4.752   1.467   2.062
 6428TIP3    H119241   4.781   1.500   2.147
 6428TIP3    H219242   4.831   1.465   2.008
 6429TIP3   OH219243   0.173   2.787   2.719
 6429TIP3    H119244   0.123   2.710   2.694
 6429TIP3    H219245   0.109   2.858   2.718
 6430TIP3   OH219246   1.101   5.837   0.112
 6430TIP3    H119247   1.050   5.793   0.044
 6430TIP3    H219248   1.188   5.800   0.104
 6431TIP3   OH219249   2.447   6.826   2.977
 6431TIP3    H119250   2.400   6.802   3.057
 6431TIP3    H219251   2.417   6.914   2.957
 6432TIP3   OH219252   3.813   0.705   4.550
 6432TIP3    H119253   3.829   0.661   4.466
 6432TIP3    H219254   3.858   0.651   4.615
 6433TIP3   OH219255   6.199   3.817   6.644
 6433TIP3    H119256   6.222   3.752   6.579
 6433TIP3    H219257   6.245   3.790   6.724
 6434TIP3   OH219258   1.650   0.015   0.866
 6434TIP3    H119259   1.627  -0.020   0.952
 6434TIP3    H219260   1.743   0.040   0.874
 6435TIP3   OH219261   8.013   0.608   3.046
 6435TIP3    H119262   8.054   0.550   2.982
 6435TIP3    H219263   7.951   0.552   3.093
 6436TIP3   OH219264   1.823   6.777   0.762
 6436TIP3    H119265   1.799   6.771   0.855
 6436TIP3    H219266   1.884   6.703   0.749
 6437TIP3   OH219267   5.390   2.354   6.042
 6437TIP3    H119268   5.463   2.334   6.100
 6437TIP3    H219269   5.400   2.448   6.023
 6438TIP3   OH219270   8.214   7.814   0.465
 6438TIP3    H119271   8.156   7.740   0.484
 6438TIP3    H219272   8.279   7.813   0.536
 6439TIP3   OH219273   0.610   6.174   0.993
 6439TIP3    H119274   0.612   6.130   0.908
 6439TIP3    H219275   0.554   6.250   0.979
 6440TIP3   OH219276   3.819   2.970   0.473
 6440TIP3    H119277   3.803   3.055   0.515
 6440TIP3    H219278   3.886   2.988   0.407
 6441TIP3   OH219279   0.048   1.310   4.718
 6441TIP3    H119280   0.101   1.363   4.779
 6441TIP3    H219281   0.038   1.226   4.762
 6442TIP3   OH219282   3.434   2.745   1.346
 6442TIP3    H119283   3.491   2.687   1.295
 6442TIP3    H219284   3.351   2.743   1.299
 6443TIP3   OH219285   0.102   1.594   1.274
 6443TIP3    H119286   0.138   1.507   1.293
 6443TIP3    H219287   0.162   1.631   1.209
 6444TIP3   OH219288   2.367   3.996   6.414
 6444TIP3    H119289   2.299   4.055   6.445
 6444TIP3    H219290   2.390   4.028   6.327
 6445TIP3   OH219291   6.445   3.435   4.124
 6445TIP3    H119292   6.480   3.511   4.170
 6445TIP3    H219293   6.515   3.369   4.131
 6446TIP3   OH219294   7.893   4.990   1.204
 6446TIP3    H119295   7.921   5.058   1.266
 6446TIP3    H219296   7.854   4.923   1.260
 6447TIP3   OH219297   6.594   6.159   5.959
 6447TIP3    H119298   6.544   6.230   5.921
 6447TIP3    H219299   6.603   6.182   6.051
 6448TIP3   OH219300   6.326   6.876   0.031
 6448TIP3    H119301   6.234   6.863   0.007
 6448TIP3    H219302   6.350   6.797   0.079
 6449TIP3   OH219303   5.074   5.206   1.337
 6449TIP3    H119304   5.038   5.172   1.255
 6449TIP3    H219305   5.130   5.136   1.370
 6450TIP3   OH219306   3.613   5.207   4.223
 6450TIP3    H119307   3.695   5.234   4.182
 6450TIP3    H219308   3.546   5.257   4.176
 6451TIP3   OH219309   7.026   4.880   0.714
 6451TIP3    H119310   6.934   4.856   0.730
 6451TIP3    H219311   7.067   4.874   0.800
 6452TIP3   OH219312   4.814   3.783   2.764
 6452TIP3    H119313   4.800   3.772   2.858
 6452TIP3    H219314   4.894   3.734   2.746
 6453TIP3   OH219315   3.042   5.440   6.177
 6453TIP3    H119316   3.039   5.400   6.090
 6453TIP3    H219317   3.134   5.463   6.189
 6454TIP3   OH219318   7.970   7.462   4.587
 6454TIP3    H119319   8.010   7.444   4.501
 6454TIP3    H219320   7.880   7.432   4.578
 6455TIP3   OH219321   6.828   3.346   2.731
 6455TIP3    H119322   6.856   3.358   2.822
 6455TIP3    H219323   6.867   3.262   2.705
 6456TIP3   OH219324   6.465   2.062   2.566
 6456TIP3    H119325   6.465   2.020   2.652
 6456TIP3    H219326   6.427   2.148   2.582
 6457TIP3   OH219327   1.721   5.450   0.531
 6457TIP3    H119328   1.745   5.488   0.615
 6457TIP3    H219329   1.793   5.392   0.509
 6458TIP3   OH219330   4.167   5.455   3.342
 6458TIP3    H119331   4.204   5.542   3.353
 6458TIP3    H219332   4.095   5.450   3.404
 6459TIP3   OH219333   6.707   5.025   4.248
 6459TIP3    H119334   6.674   4.946   4.205
 6459TIP3    H219335   6.757   4.992   4.323
 6460TIP3   OH219336   4.021   0.329   3.132
 6460TIP3    H119337   4.067   0.328   3.047
 6460TIP3    H219338   4.027   0.420   3.162
 6461TIP3   OH219339   4.419   4.117   1.871
 6461TIP3    H119340   4.460   4.085   1.951
 6461TIP3    H219341   4.427   4.045   1.809
 6462TIP3   OH219342   7.795   5.463   1.429
 6462TIP3    H119343   7.804   5.495   1.339
 6462TIP3    H219344   7.703   5.438   1.435
 6463TIP3   OH219345   7.452   1.011   6.678
 6463TIP3    H119346   7.410   0.926   6.663
 6463TIP3    H219347   7.390   1.061   6.730
 6464TIP3   OH219348   7.517   0.315   5.829
 6464TIP3    H119349   7.547   0.406   5.826
 6464TIP3    H219350   7.595   0.266   5.855
 6465TIP3   OH219351   7.935   1.719   0.270
 6465TIP3    H119352   8.006   1.673   0.314
 6465TIP3    H219353   7.883   1.756   0.341
 6466TIP3   OH219354   5.142   7.372   3.139
 6466TIP3    H119355   5.108   7.365   3.228
 6466TIP3    H219356   5.226   7.326   3.143
 6467TIP3   OH219357   3.871   2.788   0.671
 6467TIP3    H119358   3.862   2.859   0.607
 6467TIP3    H219359   3.933   2.727   0.630
 6468TIP3   OH219360   1.169   6.040   0.759
 6468TIP3    H119361   1.209   5.968   0.709
 6468TIP3    H219362   1.077   6.037   0.735
 6469TIP3   OH219363   8.117   5.961   1.446
 6469TIP3    H119364   8.062   5.886   1.468
 6469TIP3    H219365   8.207   5.930   1.459
 6470TIP3   OH219366   4.816   0.022   3.783
 6470TIP3    H119367   4.855  -0.052   3.828
 6470TIP3    H219368   4.888   0.084   3.772
 6471TIP3   OH219369   4.363   3.541   4.645
 6471TIP3    H119370   4.408   3.493   4.575
 6471TIP3    H219371   4.327   3.618   4.601
 6472TIP3   OH219372   3.409   7.806   0.462
 6472TIP3    H119373   3.413   7.721   0.417
 6472TIP3    H219374   3.495   7.817   0.502
 6473TIP3   OH219375   2.149   5.322   4.815
 6473TIP3    H119376   2.062   5.311   4.854
 6473TIP3    H219377   2.132   5.346   4.724
 6474TIP3   OH219378   4.957   1.446   4.039
 6474TIP3    H119379   4.866   1.466   4.019
 6474TIP3    H219380   5.006   1.523   4.012
 6475TIP3   OH219381   4.799   3.696   5.992
 6475TIP3    H119382   4.789   3.749   6.071
 6475TIP3    H219383   4.799   3.760   5.921
 6476TIP3   OH219384   6.910   4.413   1.822
 6476TIP3    H119385   6.896   4.320   1.803
 6476TIP3    H219386   6.945   4.414   1.911
 6477TIP3   OH219387   3.134   3.280   3.032
 6477TIP3    H119388   3.149   3.373   3.045
 6477TIP3    H219389   3.090   3.273   2.947
 6478TIP3   OH219390   4.717   7.398   1.256
 6478TIP3    H119391   4.622   7.408   1.244
 6478TIP3    H219392   4.754   7.433   1.175
 6479TIP3   OH219393   0.359   7.631   3.763
 6479TIP3    H119394   0.422   7.685   3.716
 6479TIP3    H219395   0.286   7.690   3.782
 6480TIP3   OH219396   1.056   4.525   6.284
 6480TIP3    H119397   1.018   4.527   6.372
 6480TIP3    H219398   0.994   4.473   6.232
 6481TIP3   OH219399   6.820   6.190   6.420
 6481TIP3    H119400   6.782   6.127   6.481
 6481TIP3    H219401   6.911   6.161   6.409
 6482TIP3   OH219402   0.976   5.593   2.201
 6482TIP3    H119403   0.890   5.632   2.184
 6482TIP3    H219404   0.995   5.616   2.292
 6483TIP3   OH219405   3.235   4.189   6.565
 6483TIP3    H119406   3.267   4.203   6.476
 6483TIP3    H219407   3.257   4.270   6.611
 6484TIP3   OH219408   7.424   0.939   2.527
 6484TIP3    H119409   7.374   1.013   2.560
 6484TIP3    H219410   7.367   0.863   2.543
 6485TIP3   OH219411   2.034   2.518   5.547
 6485TIP3    H119412   2.111   2.559   5.588
 6485TIP3    H219413   1.963   2.533   5.609
 6486TIP3   OH219414   0.964   2.229   1.708
 6486TIP3    H119415   1.039   2.279   1.740
 6486TIP3    H219416   0.946   2.165   1.778
 6487TIP3   OH219417   0.639   2.618   3.677
 6487TIP3    H119418   0.617   2.710   3.685
 6487TIP3    H219419   0.648   2.587   3.767
 6488TIP3   OH219420   1.037   6.718   1.817
 6488TIP3    H119421   1.024   6.625   1.796
 6488TIP3    H219422   1.121   6.721   1.862
 6489TIP3   OH219423   1.706   3.625   5.414
 6489TIP3    H119424   1.620   3.634   5.373
 6489TIP3    H219425   1.688   3.593   5.502
 6490TIP3   OH219426   6.429   2.708   2.314
 6490TIP3    H119427   6.372   2.760   2.257
 6490TIP3    H219428   6.493   2.670   2.254
 6491TIP3   OH219429   5.730   7.372   4.205
 6491TIP3    H119430   5.696   7.287   4.233
 6491TIP3    H219431   5.807   7.387   4.259
 6492TIP3   OH219432   0.136   1.019   6.571
 6492TIP3    H119433   0.212   1.000   6.515
 6492TIP3    H219434   0.061   1.010   6.512
 6493TIP3   OH219435   6.169   7.641   1.558
 6493TIP3    H119436   6.184   7.651   1.464
 6493TIP3    H219437   6.141   7.728   1.587
 6494TIP3   OH219438   5.076   1.109   6.443
 6494TIP3    H119439   5.116   1.127   6.528
 6494TIP3    H219440   5.013   1.180   6.430
 6495TIP3   OH219441   0.639   5.193   1.697
 6495TIP3    H119442   0.607   5.261   1.638
 6495TIP3    H219443   0.731   5.183   1.674
 6496TIP3   OH219444   7.847   7.825   5.389
 6496TIP3    H119445   7.764   7.778   5.380
 6496TIP3    H219446   7.873   7.844   5.299
 6497TIP3   OH219447   6.862   4.758   5.454
 6497TIP3    H119448   6.805   4.834   5.442
 6497TIP3    H219449   6.871   4.721   5.366
 6498TIP3   OH219450   6.637   7.344   2.931
 6498TIP3    H119451   6.621   7.303   3.016
 6498TIP3    H219452   6.621   7.437   2.946
 6499TIP3   OH219453   8.247   2.287   1.815
 6499TIP3    H119454   8.200   2.370   1.811
 6499TIP3    H219455   8.327   2.302   1.764
 6500TIP3   OH219456   1.892   3.642   5.183
 6500TIP3    H119457   1.830   3.628   5.254
 6500TIP3    H219458   1.875   3.571   5.121
 6501TIP3   OH219459   2.308   3.583   0.040
 6501TIP3    H119460   2.287   3.556  -0.050
 6501TIP3    H219461   2.398   3.553   0.053
 6502TIP3   OH219462   1.819   3.861   0.070
 6502TIP3    H119463   1.839   3.809   0.148
 6502TIP3    H219464   1.730   3.837   0.046
 6503TIP3   OH219465   1.236   4.685   0.006
 6503TIP3    H119466   1.154   4.709   0.049
 6503TIP3    H219467   1.289   4.765   0.010
 6504TIP3   OH219468   3.494   0.675   2.615
 6504TIP3    H119469   3.426   0.738   2.637
 6504TIP3    H219470   3.573   0.728   2.606
 6505TIP3   OH219471   0.843   3.525   5.740
 6505TIP3    H119472   0.782   3.534   5.813
 6505TIP3    H219473   0.795   3.475   5.674
 6506TIP3   OH219474   3.919   3.373   6.327
 6506TIP3    H119475   4.008   3.347   6.300
 6506TIP3    H219476   3.866   3.294   6.312
 6507TIP3   OH219477   0.146   6.319   5.144
 6507TIP3    H119478   0.102   6.369   5.213
 6507TIP3    H219479   0.217   6.377   5.114
 6508TIP3   OH219480   3.371   6.695   5.115
 6508TIP3    H119481   3.395   6.682   5.023
 6508TIP3    H219482   3.324   6.779   5.115
 6509TIP3   OH219483   0.894   4.958   1.861
 6509TIP3    H119484   0.921   4.885   1.805
 6509TIP3    H219485   0.846   5.017   1.802
 6510TIP3   OH219486   5.300   0.527   0.677
 6510TIP3    H119487   5.336   0.608   0.714
 6510TIP3    H219488   5.306   0.463   0.748
 6511TIP3   OH219489   3.930   2.206   1.071
 6511TIP3    H119490   4.017   2.181   1.038
 6511TIP3    H219491   3.923   2.163   1.156
 6512TIP3   OH219492   6.036   6.898   1.477
 6512TIP3    H119493   6.079   6.965   1.529
 6512TIP3    H219494   5.944   6.926   1.473
 6513TIP3   OH219495   6.799   7.263   0.445
 6513TIP3    H119496   6.795   7.175   0.406
 6513TIP3    H219497   6.761   7.320   0.379
 6514TIP3   OH219498   6.238   6.042   1.272
 6514TIP3    H119499   6.316   6.095   1.287
 6514TIP3    H219500   6.272   5.957   1.245
 6515TIP3   OH219501   6.462   0.101   4.526
 6515TIP3    H119502   6.491   0.190   4.544
 6515TIP3    H219503   6.434   0.103   4.434
 6516TIP3   OH219504   7.898   6.519   3.144
 6516TIP3    H119505   7.840   6.594   3.153
 6516TIP3    H219506   7.979   6.546   3.187
 6517TIP3   OH219507   5.922   0.658   0.325
 6517TIP3    H119508   5.904   0.565   0.337
 6517TIP3    H219509   5.848   0.690   0.274
 6518TIP3   OH219510   2.151   3.467   4.443
 6518TIP3    H119511   2.205   3.404   4.394
 6518TIP3    H219512   2.094   3.505   4.376
 6519TIP3   OH219513   1.981   5.977   5.729
 6519TIP3    H119514   1.896   5.934   5.725
 6519TIP3    H219515   2.038   5.913   5.772
 6520TIP3   OH219516   3.018   1.117   2.770
 6520TIP3    H119517   3.106   1.113   2.807
 6520TIP3    H219518   3.032   1.145   2.679
 6521TIP3   OH219519   7.857   6.310   0.031
 6521TIP3    H119520   7.871   6.361  -0.048
 6521TIP3    H219521   7.942   6.271   0.050
 6522TIP3   OH219522   0.181   3.822   0.525
 6522TIP3    H119523   0.269   3.844   0.555
 6522TIP3    H219524   0.189   3.814   0.430
 6523TIP3   OH219525   3.689   1.652   6.671
 6523TIP3    H119526   3.677   1.640   6.765
 6523TIP3    H219527   3.606   1.622   6.632
 6524TIP3   OH219528   0.937   2.858   1.719
 6524TIP3    H119529   0.871   2.926   1.713
 6524TIP3    H219530   0.916   2.797   1.648
 6525TIP3   OH219531   5.660   1.216   4.202
 6525TIP3    H119532   5.724   1.145   4.201
 6525TIP3    H219533   5.633   1.225   4.111
 6526TIP3   OH219534   6.042   6.730   4.952
 6526TIP3    H119535   6.041   6.665   5.023
 6526TIP3    H219536   5.964   6.710   4.901
 6527TIP3   OH219537   0.218   0.804   3.973
 6527TIP3    H119538   0.131   0.787   3.939
 6527TIP3    H219539   0.259   0.860   3.907
 6528TIP3   OH219540   3.179   0.757   3.438
 6528TIP3    H119541   3.189   0.735   3.345
 6528TIP3    H219542   3.116   0.693   3.471
 6529TIP3   OH219543   3.246   3.397   5.644
 6529TIP3    H119544   3.190   3.371   5.571
 6529TIP3    H219545   3.188   3.441   5.705
 6530TIP3   OH219546   6.122   4.078   4.814
 6530TIP3    H119547   6.165   4.071   4.729
 6530TIP3    H219548   6.043   4.129   4.797
 6531TIP3   OH219549   1.807   6.659   2.590
 6531TIP3    H119550   1.726   6.699   2.558
 6531TIP3    H219551   1.874   6.724   2.573
 6532TIP3   OH219552   5.023   1.210   4.590
 6532TIP3    H119553   5.009   1.255   4.507
 6532TIP3    H219554   4.940   1.166   4.608
 6533TIP3   OH219555   0.805   5.616   4.297
 6533TIP3    H119556   0.860   5.556   4.247
 6533TIP3    H219557   0.758   5.560   4.359
 6534TIP3   OH219558   8.164   4.909   5.312
 6534TIP3    H119559   8.239   4.969   5.316
 6534TIP3    H219560   8.185   4.849   5.241
 6535TIP3   OH219561   5.257   3.070   1.825
 6535TIP3    H119562   5.181   3.057   1.767
 6535TIP3    H219563   5.299   3.149   1.791
 6536TIP3   OH219564   1.917   6.982   5.401
 6536TIP3    H119565   1.918   6.940   5.315
 6536TIP3    H219566   1.873   7.066   5.387
 6537TIP3   OH219567   5.824   5.723   5.655
 6537TIP3    H119568   5.769   5.781   5.707
 6537TIP3    H219569   5.897   5.778   5.625
 6538TIP3   OH219570   1.298   3.700   0.274
 6538TIP3    H119571   1.245   3.620   0.270
 6538TIP3    H219572   1.379   3.673   0.316
 6539TIP3   OH219573   0.670   6.178   3.077
 6539TIP3    H119574   0.598   6.116   3.089
 6539TIP3    H219575   0.744   6.138   3.121
 6540TIP3   OH219576   7.870   0.428   3.625
 6540TIP3    H119577   7.894   0.478   3.703
 6540TIP3    H219578   7.777   0.408   3.637
 6541TIP3   OH219579   4.559   2.091   0.303
 6541TIP3    H119580   4.646   2.132   0.307
 6541TIP3    H219581   4.576   1.998   0.315
 6542TIP3   OH219582   0.461   1.443   2.817
 6542TIP3    H119583   0.388   1.381   2.814
 6542TIP3    H219584   0.537   1.389   2.838
 6543TIP3   OH219585   5.886   5.017   3.376
 6543TIP3    H119586   5.829   5.029   3.452
 6543TIP3    H219587   5.884   4.923   3.360
 6544TIP3   OH219588   6.045   0.603   2.703
 6544TIP3    H119589   6.114   0.577   2.642
 6544TIP3    H219590   5.974   0.634   2.647
 6545TIP3   OH219591   8.166   1.699   1.149
 6545TIP3    H119592   8.243   1.664   1.193
 6545TIP3    H219593   8.196   1.783   1.113
 6546TIP3   OH219594   0.221   3.573   1.608
 6546TIP3    H119595   0.137   3.621   1.610
 6546TIP3    H219596   0.274   3.615   1.675
 6547TIP3   OH219597   6.347   2.270   3.269
 6547TIP3    H119598   6.350   2.311   3.355
 6547TIP3    H219599   6.301   2.334   3.213
 6548TIP3   OH219600   2.992   4.005   4.174
 6548TIP3    H119601   2.988   3.932   4.235
 6548TIP3    H219602   2.973   4.082   4.229
 6549TIP3   OH219603   0.247   7.689   4.382
 6549TIP3    H119604   0.245   7.644   4.466
 6549TIP3    H219605   0.180   7.645   4.329
 6550TIP3   OH219606   0.203   3.498   6.484
 6550TIP3    H119607   0.128   3.445   6.510
 6550TIP3    H219608   0.169   3.558   6.418
 6551TIP3   OH219609   0.770   5.871   5.338
 6551TIP3    H119610   0.779   5.781   5.308
 6551TIP3    H219611   0.695   5.870   5.397
 6552TIP3   OH219612   1.159   5.994   3.127
 6552TIP3    H119613   1.158   5.899   3.141
 6552TIP3    H219614   1.136   6.003   3.034
 6553TIP3   OH219615   7.295   2.034   0.120
 6553TIP3    H119616   7.267   2.001   0.205
 6553TIP3    H219617   7.390   2.033   0.124
 6554TIP3   OH219618   6.309   5.256   2.921
 6554TIP3    H119619   6.286   5.177   2.970
 6554TIP3    H219620   6.267   5.327   2.969
 6555TIP3   OH219621   5.726   0.604   4.942
 6555TIP3    H119622   5.750   0.636   4.856
 6555TIP3    H219623   5.634   0.629   4.953
 6556TIP3   OH219624   3.366   2.193   3.985
 6556TIP3    H119625   3.352   2.100   3.972
 6556TIP3    H219626   3.284   2.234   3.956
 6557TIP3   OH219627   1.710   4.840   0.822
 6557TIP3    H119628   1.698   4.879   0.736
 6557TIP3    H219629   1.702   4.914   0.883
 6558TIP3   OH219630   5.578   5.979   0.238
 6558TIP3    H119631   5.668   6.008   0.225
 6558TIP3    H219632   5.581   5.925   0.317
 6559TIP3   OH219633   6.137   6.702   3.570
 6559TIP3    H119634   6.119   6.676   3.661
 6559TIP3    H219635   6.221   6.748   3.574
 6560TIP3   OH219636   3.679   6.294   6.706
 6560TIP3    H119637   3.655   6.220   6.650
 6560TIP3    H219638   3.641   6.371   6.663
 6561TIP3   OH219639   7.755   0.723   1.842
 6561TIP3    H119640   7.695   0.741   1.914
 6561TIP3    H219641   7.792   0.637   1.864
 6562TIP3   OH219642   2.954   5.655   0.874
 6562TIP3    H119643   2.890   5.706   0.924
 6562TIP3    H219644   2.972   5.708   0.797
 6563TIP3   OH219645   3.987   6.260   3.167
 6563TIP3    H119646   3.895   6.242   3.144
 6563TIP3    H219647   4.036   6.233   3.090
 6564TIP3   OH219648   7.741   1.348   4.877
 6564TIP3    H119649   7.717   1.295   4.953
 6564TIP3    H219650   7.833   1.326   4.861
 6565TIP3   OH219651   6.183   5.419   3.586
 6565TIP3    H119652   6.140   5.335   3.603
 6565TIP3    H219653   6.181   5.463   3.671
 6566TIP3   OH219654   6.070   1.415   1.342
 6566TIP3    H119655   6.077   1.320   1.351
 6566TIP3    H219656   6.078   1.448   1.432
 6567TIP3   OH219657   4.676   1.125   6.268
 6567TIP3    H119658   4.726   1.048   6.242
 6567TIP3    H219659   4.742   1.193   6.283
 6568TIP3   OH219660   1.797   2.793   1.686
 6568TIP3    H119661   1.877   2.757   1.724
 6568TIP3    H219662   1.828   2.844   1.611
 6569TIP3   OH219663   4.234   1.569   6.189
 6569TIP3    H119664   4.167   1.606   6.247
 6569TIP3    H219665   4.186   1.542   6.111
 6570TIP3   OH219666   3.005   1.946   5.853
 6570TIP3    H119667   2.949   1.917   5.782
 6570TIP3    H219668   3.012   2.041   5.840
 6571TIP3   OH219669   2.672   0.422   3.209
 6571TIP3    H119670   2.605   0.433   3.277
 6571TIP3    H219671   2.751   0.459   3.248
 6572TIP3   OH219672   2.942   7.597   6.160
 6572TIP3    H119673   2.914   7.688   6.152
 6572TIP3    H219674   2.940   7.580   6.254
 6573TIP3   OH219675   7.513   0.852   3.497
 6573TIP3    H119676   7.520   0.922   3.432
 6573TIP3    H219677   7.595   0.858   3.547
 6574TIP3   OH219678   0.205   5.846   4.793
 6574TIP3    H119679   0.119   5.817   4.823
 6574TIP3    H219680   0.266   5.785   4.836
 6575TIP3   OH219681   2.640   4.803   2.281
 6575TIP3    H119682   2.601   4.845   2.358
 6575TIP3    H219683   2.726   4.844   2.271
 6576TIP3   OH219684   5.708   5.053   0.140
 6576TIP3    H119685   5.741   4.999   0.211
 6576TIP3    H219686   5.646   5.113   0.181
 6577TIP3   OH219687   2.265   0.735   6.757
 6577TIP3    H119688   2.203   0.807   6.750
 6577TIP3    H219689   2.216   0.658   6.728
 6578TIP3   OH219690   6.603   4.633   1.259
 6578TIP3    H119691   6.529   4.622   1.318
 6578TIP3    H219692   6.563   4.652   1.174
 6579TIP3   OH219693   0.984   7.449   1.169
 6579TIP3    H119694   0.968   7.355   1.174
 6579TIP3    H219695   0.944   7.476   1.086
 6580TIP3   OH219696   1.195   3.250   4.447
 6580TIP3    H119697   1.175   3.164   4.412
 6580TIP3    H219698   1.110   3.289   4.467
 6581TIP3   OH219699   3.621   0.502   2.795
 6581TIP3    H119700   3.637   0.586   2.839
 6581TIP3    H219701   3.566   0.525   2.721
 6582TIP3   OH219702   1.851   1.648   5.033
 6582TIP3    H119703   1.780   1.649   4.968
 6582TIP3    H219704   1.894   1.733   5.022
 6583TIP3   OH219705   4.110   5.073   3.533
 6583TIP3    H119706   4.199   5.098   3.507
 6583TIP3    H219707   4.075   5.152   3.574
 6584TIP3   OH219708   3.671   1.634   0.411
 6584TIP3    H119709   3.636   1.552   0.446
 6584TIP3    H219710   3.616   1.653   0.335
 6585TIP3   OH219711   1.073   4.387   3.316
 6585TIP3    H119712   1.015   4.321   3.355
 6585TIP3    H219713   1.036   4.403   3.229
 6586TIP3   OH219714   0.679   1.159   1.653
 6586TIP3    H119715   0.721   1.087   1.606
 6586TIP3    H219716   0.602   1.180   1.600
 6587TIP3   OH219717   2.955   7.185   4.619
 6587TIP3    H119718   2.895   7.121   4.657
 6587TIP3    H219719   2.909   7.216   4.541
 6588TIP3   OH219720   4.590   6.911   3.216
 6588TIP3    H119721   4.575   6.889   3.307
 6588TIP3    H219722   4.622   7.002   3.218
 6589TIP3   OH219723   2.437   4.062   6.147
 6589TIP3    H119724   2.407   4.147   6.115
 6589TIP3    H219725   2.478   4.021   6.072
 6590TIP3   OH219726   0.520   4.436   1.070
 6590TIP3    H119727   0.577   4.394   1.005
 6590TIP3    H219728   0.565   4.517   1.092
 6591TIP3   OH219729   6.778   7.353   4.456
 6591TIP3    H119730   6.777   7.448   4.469
 6591TIP3    H219731   6.858   7.324   4.500
 6592TIP3   OH219732   8.072   2.416   1.182
 6592TIP3    H119733   8.073   2.356   1.108
 6592TIP3    H219734   8.067   2.503   1.142
 6593TIP3   OH219735   3.952   6.975   2.316
 6593TIP3    H119736   3.956   6.880   2.312
 6593TIP3    H219737   3.923   7.003   2.230
 6594TIP3   OH219738   3.307   3.658   2.345
 6594TIP3    H119739   3.241   3.693   2.405
 6594TIP3    H219740   3.298   3.711   2.265
 6595TIP3   OH219741   0.747  -0.033   2.475
 6595TIP3    H119742   0.762  -0.023   2.569
 6595TIP3    H219743   0.752   0.057   2.441
 6596TIP3   OH219744   7.555   7.311   0.213
 6596TIP3    H119745   7.565   7.328   0.119
 6596TIP3    H219746   7.621   7.367   0.254
 6597TIP3   OH219747   4.169   1.469   3.480
 6597TIP3    H119748   4.251   1.492   3.436
 6597TIP3    H219749   4.168   1.524   3.559
 6598TIP3   OH219750   3.729   5.362   0.055
 6598TIP3    H119751   3.776   5.352   0.138
 6598TIP3    H219752   3.751   5.283   0.005
 6599TIP3   OH219753   7.685   5.028   1.433
 6599TIP3    H119754   7.702   5.054   1.524
 6599TIP3    H219755   7.641   4.944   1.441
 6600TIP3   OH219756   2.562   4.546   4.813
 6600TIP3    H119757   2.567   4.465   4.762
 6600TIP3    H219758   2.644   4.591   4.793
 6601TIP3   OH219759   1.380   3.124   6.649
 6601TIP3    H119760   1.399   3.211   6.615
 6601TIP3    H219761   1.379   3.068   6.572
 6602TIP3   OH219762   1.516   5.066   6.159
 6602TIP3    H119763   1.612   5.058   6.164
 6602TIP3    H219764   1.492   5.020   6.078
 6603TIP3   OH219765   3.487   6.498   4.576
 6603TIP3    H119766   3.429   6.430   4.542
 6603TIP3    H219767   3.572   6.453   4.585
 6604TIP3   OH219768   4.315   0.172   2.676
 6604TIP3    H119769   4.275   0.087   2.663
 6604TIP3    H219770   4.409   0.154   2.683
 6605TIP3   OH219771   5.143   7.066   1.888
 6605TIP3    H119772   5.087   7.119   1.832
 6605TIP3    H219773   5.189   7.129   1.943
 6606TIP3   OH219774   8.046   6.307   6.007
 6606TIP3    H119775   7.958   6.334   6.034
 6606TIP3    H219776   8.090   6.390   5.985
 6607TIP3   OH219777   0.567   7.207   1.018
 6607TIP3    H119778   0.619   7.273   1.063
 6607TIP3    H219779   0.628   7.134   1.003
 6608TIP3   OH219780   4.992   3.857   4.203
 6608TIP3    H119781   4.992   3.834   4.111
 6608TIP3    H219782   5.082   3.884   4.222
 6609TIP3   OH219783   0.054   0.199   5.617
 6609TIP3    H119784   0.090   0.242   5.695
 6609TIP3    H219785  -0.041   0.210   5.625
 6610TIP3   OH219786   7.171   5.448   0.084
 6610TIP3    H119787   7.224   5.526   0.103
 6610TIP3    H219788   7.087   5.466   0.126
 6611TIP3   OH219789   0.436   6.230   0.347
 6611TIP3    H119790   0.476   6.297   0.403
 6611TIP3    H219791   0.352   6.211   0.389
 6612TIP3   OH219792   1.469   5.271   4.038
 6612TIP3    H119793   1.397   5.223   3.997
 6612TIP3    H219794   1.429   5.351   4.072
 6613TIP3   OH219795   6.028   7.847   2.799
 6613TIP3    H119796   5.932   7.853   2.807
 6613TIP3    H219797   6.046   7.753   2.806
 6614TIP3   OH219798   7.588   7.157   0.493
 6614TIP3    H119799   7.650   7.197   0.432
 6614TIP3    H219800   7.576   7.222   0.562
 6615TIP3   OH219801   5.497   7.295   0.907
 6615TIP3    H119802   5.453   7.215   0.879
 6615TIP3    H219803   5.487   7.355   0.832
 6616TIP3   OH219804   4.349   5.643   4.391
 6616TIP3    H119805   4.437   5.665   4.359
 6616TIP3    H219806   4.357   5.645   4.486
 6617TIP3   OH219807   3.052   6.688   4.115
 6617TIP3    H119808   3.095   6.743   4.050
 6617TIP3    H219809   3.003   6.624   4.064
 6618TIP3   OH219810   4.281   4.260   5.701
 6618TIP3    H119811   4.269   4.336   5.759
 6618TIP3    H219812   4.196   4.249   5.658
 6619TIP3   OH219813   8.159   1.817   1.874
 6619TIP3    H119814   8.196   1.832   1.961
 6619TIP3    H219815   8.099   1.743   1.886
 6620TIP3   OH219816   4.886   4.668   6.138
 6620TIP3    H119817   4.966   4.635   6.178
 6620TIP3    H219818   4.893   4.642   6.046
 6621TIP3   OH219819   6.283   7.501   4.391
 6621TIP3    H119820   6.199   7.533   4.423
 6621TIP3    H219821   6.338   7.580   4.386
 6622TIP3   OH219822   4.544   6.830   6.468
 6622TIP3    H119823   4.492   6.798   6.394
 6622TIP3    H219824   4.534   6.925   6.465
 6623TIP3   OH219825   2.466   4.995   4.161
 6623TIP3    H119826   2.385   5.042   4.137
 6623TIP3    H219827   2.443   4.903   4.154
 6624TIP3   OH219828   7.216   4.949   5.828
 6624TIP3    H119829   7.167   4.987   5.902
 6624TIP3    H219830   7.169   4.979   5.750
 6625TIP3   OH219831   1.967   6.582   3.940
 6625TIP3    H119832   2.020   6.575   4.019
 6625TIP3    H219833   2.029   6.601   3.870
 6626TIP3   OH219834   6.535   5.315   1.113
 6626TIP3    H119835   6.591   5.362   1.052
 6626TIP3    H219836   6.574   5.332   1.199
 6627TIP3   OH219837   8.036   5.162   3.383
 6627TIP3    H119838   8.086   5.222   3.329
 6627TIP3    H219839   7.950   5.156   3.340
 6628TIP3   OH219840   7.793   6.757   0.328
 6628TIP3    H119841   7.788   6.716   0.242
 6628TIP3    H219842   7.767   6.688   0.389
 6629TIP3   OH219843   5.486   7.498   2.844
 6629TIP3    H119844   5.454   7.424   2.895
 6629TIP3    H219845   5.581   7.493   2.851
 6630TIP3   OH219846   1.858   5.380   4.905
 6630TIP3    H119847   1.788   5.316   4.915
 6630TIP3    H219848   1.819   5.452   4.856
 6631TIP3   OH219849   2.654   3.159   0.957
 6631TIP3    H119850   2.693   3.138   0.872
 6631TIP3    H219851   2.695   3.242   0.982
 6632TIP3   OH219852   1.087   6.141   1.354
 6632TIP3    H119853   1.148   6.067   1.352
 6632TIP3    H219854   1.137   6.212   1.395
 6633TIP3   OH219855   0.568   2.117   4.060
 6633TIP3    H119856   0.519   2.167   3.995
 6633TIP3    H219857   0.539   2.153   4.144
 6634TIP3   OH219858   0.299   0.415   2.625
 6634TIP3    H119859   0.341   0.462   2.552
 6634TIP3    H219860   0.330   0.325   2.615
 6635TIP3   OH219861   0.190   1.679   1.524
 6635TIP3    H119862   0.139   1.611   1.568
 6635TIP3    H219863   0.153   1.683   1.435
 6636TIP3   OH219864   6.262   6.191   0.011
 6636TIP3    H119865   6.246   6.174   0.104
 6636TIP3    H219866   6.229   6.280  -0.003
 6637TIP3   OH219867   5.738   3.966   6.467
 6637TIP3    H119868   5.712   4.058   6.459
 6637TIP3    H219869   5.682   3.920   6.406
 6638TIP3   OH219870   2.846   2.374   3.993
 6638TIP3    H119871   2.784   2.432   4.036
 6638TIP3    H219872   2.928   2.424   3.991
 6639TIP3   OH219873   8.181   2.903   4.708
 6639TIP3    H119874   8.147   2.915   4.797
 6639TIP3    H219875   8.106   2.921   4.651
 6640TIP3   OH219876   7.323   1.306   1.956
 6640TIP3    H119877   7.260   1.309   2.028
 6640TIP3    H219878   7.269   1.313   1.877
 6641TIP3   OH219879   3.433   6.324   6.441
 6641TIP3    H119880   3.448   6.399   6.497
 6641TIP3    H219881   3.472   6.347   6.357
 6642TIP3   OH219882   3.476   5.476   1.720
 6642TIP3    H119883   3.565   5.463   1.687
 6642TIP3    H219884   3.487   5.534   1.796
 6643TIP3   OH219885   6.271   5.789   2.740
 6643TIP3    H119886   6.181   5.807   2.765
 6643TIP3    H219887   6.323   5.837   2.805
 6644TIP3   OH219888   5.869   4.325   2.711
 6644TIP3    H119889   5.781   4.364   2.709
 6644TIP3    H219890   5.883   4.293   2.623
 6645TIP3   OH219891   5.996   0.394   0.360
 6645TIP3    H119892   5.997   0.306   0.323
 6645TIP3    H219893   6.057   0.390   0.433
 6646TIP3   OH219894   0.402   6.394   1.742
 6646TIP3    H119895   0.437   6.482   1.753
 6646TIP3    H219896   0.476   6.336   1.760
 6647TIP3   OH219897   4.197   7.017   6.444
 6647TIP3    H119898   4.157   6.955   6.383
 6647TIP3    H219899   4.155   7.101   6.425
 6648TIP3   OH219900   5.370   6.221   5.271
 6648TIP3    H119901   5.343   6.216   5.363
 6648TIP3    H219902   5.419   6.302   5.265
 6649TIP3   OH219903   3.555   1.110   1.527
 6649TIP3    H119904   3.649   1.093   1.535
 6649TIP3    H219905   3.528   1.139   1.614
 6650TIP3   OH219906   3.766   1.852   0.284
 6650TIP3    H119907   3.726   1.766   0.296
 6650TIP3    H219908   3.705   1.900   0.228
 6651TIP3   OH219909   5.032   4.074   2.051
 6651TIP3    H119910   5.047   3.980   2.059
 6651TIP3    H219911   5.038   4.107   2.141
 6652TIP3   OH219912   5.026   6.671   0.313
 6652TIP3    H119913   5.046   6.753   0.358
 6652TIP3    H219914   4.959   6.695   0.249
 6653TIP3   OH219915   4.989   7.509   6.155
 6653TIP3    H119916   4.962   7.420   6.133
 6653TIP3    H219917   4.926   7.537   6.222
 6654TIP3   OH219918   2.685   4.241   3.025
 6654TIP3    H119919   2.591   4.247   3.010
 6654TIP3    H219920   2.721   4.213   2.941
 6655TIP3   OH219921   5.847   0.831   0.540
 6655TIP3    H119922   5.837   0.842   0.446
 6655TIP3    H219923   5.931   0.871   0.560
 6656TIP3   OH219924   3.293   0.981   4.084
 6656TIP3    H119925   3.287   0.902   4.030
 6656TIP3    H219926   3.270   1.053   4.026
 6657TIP3   OH219927   3.642   6.922   5.149
 6657TIP3    H119928   3.579   6.882   5.088
 6657TIP3    H219929   3.631   7.016   5.137
 6658TIP3   OH219930   2.136   1.409   3.629
 6658TIP3    H119931   2.120   1.452   3.545
 6658TIP3    H219932   2.221   1.442   3.658
 6659TIP3   OH219933   4.763   3.298   0.152
 6659TIP3    H119934   4.741   3.364   0.087
 6659TIP3    H219935   4.803   3.227   0.102
 6660TIP3   OH219936   4.573   1.145   4.501
 6660TIP3    H119937   4.494   1.155   4.448
 6660TIP3    H219938   4.619   1.071   4.462
 6661TIP3   OH219939   4.421   7.207   5.524
 6661TIP3    H119940   4.490   7.193   5.589
 6661TIP3    H219941   4.350   7.249   5.572
 6662TIP3   OH219942   1.759   5.532   4.676
 6662TIP3    H119943   1.790   5.443   4.658
 6662TIP3    H219944   1.673   5.536   4.635
 6663TIP3   OH219945   2.379   4.014   5.684
 6663TIP3    H119946   2.410   4.092   5.731
 6663TIP3    H219947   2.458   3.978   5.643
 6664TIP3   OH219948   2.923   1.808   3.109
 6664TIP3    H119949   2.948   1.727   3.154
 6664TIP3    H219950   2.932   1.787   3.016
 6665TIP3   OH219951   1.139   4.705   3.230
 6665TIP3    H119952   1.224   4.693   3.188
 6665TIP3    H219953   1.079   4.651   3.179
 6666TIP3   OH219954   0.402   4.157   2.962
 6666TIP3    H119955   0.454   4.087   3.001
 6666TIP3    H219956   0.329   4.113   2.920
 6667TIP3   OH219957   3.409   1.429   5.155
 6667TIP3    H119958   3.492   1.382   5.170
 6667TIP3    H219959   3.421   1.472   5.071
 6668TIP3   OH219960   7.598   4.456   1.011
 6668TIP3    H119961   7.519   4.419   0.973
 6668TIP3    H219962   7.634   4.513   0.943
 6669TIP3   OH219963   3.617   6.575   0.471
 6669TIP3    H119964   3.541   6.632   0.459
 6669TIP3    H219965   3.611   6.544   0.561
 6670TIP3   OH219966   6.520   3.687   1.469
 6670TIP3    H119967   6.535   3.599   1.434
 6670TIP3    H219968   6.600   3.708   1.518
 6671TIP3   OH219969   3.285   4.500   4.627
 6671TIP3    H119970   3.307   4.551   4.704
 6671TIP3    H219971   3.340   4.422   4.633
 6672TIP3   OH219972   3.825   2.167   2.363
 6672TIP3    H119973   3.751   2.226   2.376
 6672TIP3    H219974   3.793   2.100   2.304
 6673TIP3   OH219975   4.331   3.777   0.979
 6673TIP3    H119976   4.398   3.718   1.013
 6673TIP3    H219977   4.259   3.770   1.041
 6674TIP3   OH219978   5.637   2.141   2.823
 6674TIP3    H119979   5.636   2.159   2.729
 6674TIP3    H219980   5.615   2.224   2.864
 6675TIP3   OH219981   7.759   4.445   4.050
 6675TIP3    H119982   7.852   4.427   4.057
 6675TIP3    H219983   7.745   4.466   3.957
 6676TIP3   OH219984   0.425   4.638   5.697
 6676TIP3    H119985   0.468   4.565   5.741
 6676TIP3    H219986   0.483   4.660   5.624
 6677TIP3   OH219987   6.141   7.510   5.624
 6677TIP3    H119988   6.128   7.531   5.532
 6677TIP3    H219989   6.236   7.519   5.638
 6678TIP3   OH219990   1.020   4.233   0.185
 6678TIP3    H119991   0.966   4.175   0.239
 6678TIP3    H219992   1.094   4.255   0.241
 6679TIP3   OH219993   4.951   2.440   0.870
 6679TIP3    H119994   4.923   2.412   0.783
 6679TIP3    H219995   5.028   2.387   0.889
 6680TIP3   OH219996   0.602   3.906   1.216
 6680TIP3    H119997   0.690   3.932   1.189
 6680TIP3    H219998   0.545   3.941   1.149
 6681TIP3   OH219999   0.510   3.114   6.214
 6681TIP3    H120000   0.557   3.049   6.161
 6681TIP3    H220001   0.433   3.136   6.162
 6682TIP3   OH220002   2.239   5.510   3.634
 6682TIP3    H120003   2.187   5.481   3.709
 6682TIP3    H220004   2.174   5.531   3.566
 6683TIP3   OH220005   7.793   5.377   6.527
 6683TIP3    H120006   7.782   5.282   6.517
 6683TIP3    H220007   7.872   5.397   6.477
 6684TIP3   OH220008   0.170   1.136   3.754
 6684TIP3    H120009   0.124   1.219   3.741
 6684TIP3    H220010   0.103   1.076   3.788
 6685TIP3   OH220011   7.344   5.383   1.883
 6685TIP3    H120012   7.430   5.412   1.853
 6685TIP3    H220013   7.282   5.431   1.827
 6686TIP3   OH220014   8.029   7.201   6.515
 6686TIP3    H120015   7.974   7.174   6.441
 6686TIP3    H220016   8.118   7.202   6.479
 6687TIP3   OH220017   3.666   4.022   2.917
 6687TIP3    H120018   3.619   3.958   2.971
 6687TIP3    H220019   3.655   4.105   2.964
 6688TIP3   OH220020   1.430   2.966   5.263
 6688TIP3    H120021   1.452   2.999   5.176
 6688TIP3    H220022   1.344   2.924   5.251
 6689TIP3   OH220023   8.196   2.288   0.065
 6689TIP3    H120024   8.273   2.249   0.023
 6689TIP3    H220025   8.203   2.261   0.156
 6690TIP3   OH220026   2.446   6.151   3.411
 6690TIP3    H120027   2.449   6.058   3.390
 6690TIP3    H220028   2.372   6.160   3.472
 6691TIP3   OH220029   6.307   4.194   4.261
 6691TIP3    H120030   6.347   4.237   4.186
 6691TIP3    H220031   6.214   4.211   4.253
 6692TIP3   OH220032   6.446   4.274   0.829
 6692TIP3    H120033   6.535   4.271   0.864
 6692TIP3    H220034   6.454   4.243   0.739
 6693TIP3   OH220035   0.196   7.696   0.695
 6693TIP3    H120036   0.205   7.701   0.600
 6693TIP3    H220037   0.285   7.705   0.729
 6694TIP3   OH220038   3.494   0.821   4.992
 6694TIP3    H120039   3.582   0.809   4.956
 6694TIP3    H220040   3.497   0.783   5.079
 6695TIP3   OH220041   5.645   6.561   4.339
 6695TIP3    H120042   5.606   6.623   4.278
 6695TIP3    H220043   5.658   6.481   4.288
 6696TIP3   OH220044   5.900   6.929   4.281
 6696TIP3    H120045   5.967   6.894   4.223
 6696TIP3    H220046   5.891   6.864   4.351
 6697TIP3   OH220047   4.506   1.277   6.798
 6697TIP3    H120048   4.467   1.241   6.718
 6697TIP3    H220049   4.482   1.369   6.798
 6698TIP3   OH220050   4.992   5.142   6.678
 6698TIP3    H120051   4.973   5.057   6.639
 6698TIP3    H220052   4.963   5.206   6.613
 6699TIP3   OH220053   6.296   4.350   5.696
 6699TIP3    H120054   6.221   4.344   5.755
 6699TIP3    H220055   6.350   4.274   5.718
 6700TIP3   OH220056   8.280   6.995   0.843
 6700TIP3    H120057   8.281   7.078   0.892
 6700TIP3    H220058   8.199   6.953   0.870
 6701TIP3   OH220059   5.762   6.749   1.556
 6701TIP3    H120060   5.779   6.839   1.530
 6701TIP3    H220061   5.703   6.757   1.632
 6702TIP3   OH220062   7.841   2.771   5.625
 6702TIP3    H120063   7.859   2.733   5.539
 6702TIP3    H220064   7.755   2.738   5.649
 6703TIP3   OH220065   2.537   4.709   5.727
 6703TIP3    H120066   2.595   4.646   5.685
 6703TIP3    H220067   2.532   4.680   5.819
 6704TIP3   OH220068   2.322   7.479   3.029
 6704TIP3    H120069   2.337   7.420   2.956
 6704TIP3    H220070   2.327   7.424   3.107
 6705TIP3   OH220071   2.786   0.759   0.471
 6705TIP3    H120072   2.742   0.759   0.386
 6705TIP3    H220073   2.835   0.677   0.472
 6706TIP3   OH220074   2.492   6.637   5.538
 6706TIP3    H120075   2.468   6.703   5.603
 6706TIP3    H220076   2.478   6.680   5.453
 6707TIP3   OH220077   7.534   3.577   0.460
 6707TIP3    H120078   7.483   3.637   0.516
 6707TIP3    H220079   7.479   3.500   0.451
 6708TIP3   OH220080   1.011   3.463   6.235
 6708TIP3    H120081   0.976   3.396   6.176
 6708TIP3    H220082   1.070   3.415   6.293
 6709TIP3   OH220083   3.537   6.781   0.216
 6709TIP3    H120084   3.592   6.704   0.228
 6709TIP3    H220085   3.554   6.835   0.293
 6710TIP3   OH220086   7.730   5.800   0.463
 6710TIP3    H120087   7.807   5.835   0.419
 6710TIP3    H220088   7.741   5.827   0.554
 6711TIP3   OH220089   5.562   1.116   5.732
 6711TIP3    H120090   5.525   1.114   5.820
 6711TIP3    H220091   5.521   1.192   5.691
 6712TIP3   OH220092   0.045   1.806   6.286
 6712TIP3    H120093   0.082   1.768   6.366
 6712TIP3    H220094   0.012   1.891   6.314
 6713TIP3   OH220095   1.169   7.750   2.297
 6713TIP3    H120096   1.204   7.838   2.290
 6713TIP3    H220097   1.229   7.696   2.246
 6714TIP3   OH220098   7.825   3.393   3.150
 6714TIP3    H120099   7.777   3.444   3.086
 6714TIP3    H220100   7.896   3.351   3.100
 6715TIP3   OH220101   4.532   5.034   1.880
 6715TIP3    H120102   4.442   5.056   1.903
 6715TIP3    H220103   4.585   5.075   1.949
 6716TIP3   OH220104   5.261   7.285   4.621
 6716TIP3    H120105   5.227   7.269   4.709
 6716TIP3    H220106   5.184   7.277   4.564
 6717TIP3   OH220107   2.874   5.858   4.297
 6717TIP3    H120108   2.820   5.931   4.268
 6717TIP3    H220109   2.961   5.878   4.263
 6718TIP3   OH220110   4.191   0.277   5.674
 6718TIP3    H120111   4.217   0.355   5.626
 6718TIP3    H220112   4.270   0.248   5.719
 6719TIP3   OH220113   0.365   2.692   2.869
 6719TIP3    H120114   0.286   2.719   2.822
 6719TIP3    H220115   0.332   2.651   2.949
 6720TIP3   OH220116   2.386   6.041   4.339
 6720TIP3    H120117   2.352   6.130   4.345
 6720TIP3    H220118   2.407   6.017   4.429
 6721TIP3   OH220119   5.117   7.323   0.731
 6721TIP3    H120120   5.182   7.391   0.753
 6721TIP3    H220121   5.074   7.302   0.814
 6722TIP3   OH220122   8.013   5.270   2.070
 6722TIP3    H120123   8.017   5.251   1.976
 6722TIP3    H220124   8.029   5.185   2.112
 6723TIP3   OH220125   2.138   7.587   2.303
 6723TIP3    H120126   2.173   7.612   2.388
 6723TIP3    H220127   2.188   7.510   2.278
 6724TIP3   OH220128   6.056   0.515   4.307
 6724TIP3    H120129   6.058   0.601   4.349
 6724TIP3    H220130   6.099   0.529   4.222
 6725TIP3   OH220131   1.529   3.622   0.400
 6725TIP3    H120132   1.581   3.542   0.385
 6725TIP3    H220133   1.506   3.618   0.493
 6726TIP3   OH220134   5.082   6.223   1.050
 6726TIP3    H120135   5.108   6.133   1.066
 6726TIP3    H220136   4.989   6.226   1.074
 6727TIP3   OH220137   0.299   6.411   3.153
 6727TIP3    H120138   0.251   6.336   3.116
 6727TIP3    H220139   0.338   6.377   3.233
 6728TIP3   OH220140   7.230   5.517   5.011
 6728TIP3    H120141   7.241   5.531   5.105
 6728TIP3    H220142   7.136   5.527   4.997
 6729TIP3   OH220143   1.877   2.053   2.025
 6729TIP3    H120144   1.835   1.967   2.023
 6729TIP3    H220145   1.865   2.084   2.114
 6730TIP3   OH220146   7.315   6.412   2.896
 6730TIP3    H120147   7.333   6.324   2.929
 6730TIP3    H220148   7.398   6.459   2.905
 6731TIP3   OH220149   6.767   5.084   1.292
 6731TIP3    H120150   6.695   5.068   1.353
 6731TIP3    H220151   6.840   5.034   1.329
 6732TIP3   OH220152   0.958   0.417   1.329
 6732TIP3    H120153   0.877   0.376   1.296
 6732TIP3    H220154   0.978   0.368   1.409
 6733TIP3   OH220155   3.910   0.015   4.061
 6733TIP3    H120156   3.835  -0.011   4.008
 6733TIP3    H220157   3.914   0.110   4.052
 6734TIP3   OH220158   5.103   5.228   2.546
 6734TIP3    H120159   5.175   5.271   2.593
 6734TIP3    H220160   5.030   5.229   2.609
 6735TIP3   OH220161   1.228   5.295   6.131
 6735TIP3    H120162   1.290   5.288   6.203
 6735TIP3    H220163   1.254   5.225   6.070
 6736TIP3   OH220164   5.497   4.720   2.545
 6736TIP3    H120165   5.535   4.807   2.536
 6736TIP3    H220166   5.403   4.734   2.532
 6737TIP3   OH220167   4.550   3.076   4.754
 6737TIP3    H120168   4.630   3.110   4.795
 6737TIP3    H220169   4.480   3.097   4.817
 6738TIP3   OH220170   3.125   6.025   1.759
 6738TIP3    H120171   3.140   5.994   1.669
 6738TIP3    H220172   3.157   5.953   1.814
 6739TIP3   OH220173   4.046   7.241   2.377
 6739TIP3    H120174   4.115   7.264   2.315
 6739TIP3    H220175   4.030   7.148   2.361
 6740TIP3   OH220176   0.662   3.895   2.140
 6740TIP3    H120177   0.741   3.850   2.170
 6740TIP3    H220178   0.649   3.965   2.204
 6741TIP3   OH220179   7.948   4.435   0.663
 6741TIP3    H120180   7.854   4.422   0.677
 6741TIP3    H220181   7.980   4.467   0.747
 6742TIP3   OH220182   1.864   1.791   4.662
 6742TIP3    H120183   1.805   1.760   4.730
 6742TIP3    H220184   1.881   1.714   4.608
 6743TIP3   OH220185   2.492   4.906   2.482
 6743TIP3    H120186   2.452   4.958   2.413
 6743TIP3    H220187   2.504   4.967   2.554
 6744TIP3   OH220188   7.306   0.015   5.585
 6744TIP3    H120189   7.395  -0.007   5.613
 6744TIP3    H220190   7.304   0.111   5.582
 6745TIP3   OH220191   4.537   0.585   4.718
 6745TIP3    H120192   4.515   0.506   4.768
 6745TIP3    H220193   4.517   0.563   4.627
 6746TIP3   OH220194   2.388   6.243   2.766
 6746TIP3    H120195   2.476   6.214   2.743
 6746TIP3    H220196   2.334   6.219   2.690
 6747TIP3   OH220197   0.036   4.735   1.828
 6747TIP3    H120198  -0.020   4.658   1.837
 6747TIP3    H220199   0.108   4.720   1.888
 6748TIP3   OH220200   1.231   1.379   0.015
 6748TIP3    H120201   1.267   1.467   0.011
 6748TIP3    H220202   1.304   1.324   0.042
 6749TIP3   OH220203   2.159   6.316   4.018
 6749TIP3    H120204   2.074   6.301   4.058
 6749TIP3    H220205   2.170   6.243   3.957
 6750TIP3   OH220206   4.481   2.514   3.369
 6750TIP3    H120207   4.492   2.553   3.282
 6750TIP3    H220208   4.408   2.562   3.408
 6751TIP3   OH220209   8.113   4.190   5.142
 6751TIP3    H120210   8.032   4.166   5.187
 6751TIP3    H220211   8.173   4.117   5.160
 6752TIP3   OH220212   0.586   4.723   3.077
 6752TIP3    H120213   0.590   4.740   2.983
 6752TIP3    H220214   0.537   4.640   3.084
 6753TIP3   OH220215   1.504   1.692   0.579
 6753TIP3    H120216   1.500   1.781   0.545
 6753TIP3    H220217   1.447   1.692   0.656
 6754TIP3   OH220218   0.996   3.994   6.252
 6754TIP3    H120219   0.932   3.943   6.202
 6754TIP3    H220220   0.949   4.020   6.331
 6755TIP3   OH220221   3.190   4.052   4.810
 6755TIP3    H120222   3.240   3.983   4.854
 6755TIP3    H220223   3.163   4.012   4.727
 6756TIP3   OH220224   3.640   4.535   1.802
 6756TIP3    H120225   3.625   4.451   1.845
 6756TIP3    H220226   3.734   4.538   1.786
 6757TIP3   OH220227   6.512   1.786   3.114
 6757TIP3    H120228   6.528   1.816   3.204
 6757TIP3    H220229   6.492   1.693   3.123
 6758TIP3   OH220230   4.015   0.552   6.297
 6758TIP3    H120231   4.048   0.472   6.339
 6758TIP3    H220232   3.976   0.602   6.369
 6759TIP3   OH220233   4.698   2.105   2.717
 6759TIP3    H120234   4.774   2.048   2.726
 6759TIP3    H220235   4.623   2.049   2.736
 6760TIP3   OH220236   7.302   7.031   6.585
 6760TIP3    H120237   7.375   7.085   6.555
 6760TIP3    H220238   7.342   6.966   6.642
 6761TIP3   OH220239   3.358   3.400   3.563
 6761TIP3    H120240   3.275   3.428   3.600
 6761TIP3    H220241   3.351   3.304   3.559
 6762TIP3   OH220242   2.042   4.402   5.091
 6762TIP3    H120243   2.133   4.412   5.062
 6762TIP3    H220244   2.026   4.308   5.088
 6763TIP3   OH220245   6.690   3.569   3.363
 6763TIP3    H120246   6.625   3.579   3.432
 6763TIP3    H220247   6.772   3.597   3.402
 6764TIP3   OH220248   5.046   2.048   3.213
 6764TIP3    H120249   5.136   2.079   3.223
 6764TIP3    H220250   4.999   2.122   3.175
 6765TIP3   OH220251   8.063   2.497   5.005
 6765TIP3    H120252   8.073   2.501   4.910
 6765TIP3    H220253   8.065   2.588   5.034
 6766TIP3   OH220254   7.119   2.547   3.410
 6766TIP3    H120255   7.119   2.608   3.484
 6766TIP3    H220256   7.038   2.566   3.363
 6767TIP3   OH220257   2.061   4.748   0.896
 6767TIP3    H120258   2.143   4.793   0.913
 6767TIP3    H220259   2.004   4.815   0.859
 6768TIP3   OH220260   4.063   5.731   4.513
 6768TIP3    H120261   4.076   5.681   4.432
 6768TIP3    H220262   4.098   5.817   4.494
 6769TIP3   OH220263   7.249   2.809   4.854
 6769TIP3    H120264   7.189   2.746   4.815
 6769TIP3    H220265   7.193   2.881   4.884
 6770TIP3   OH220266   3.277   6.298   5.344
 6770TIP3    H120267   3.260   6.228   5.281
 6770TIP3    H220268   3.214   6.367   5.321
 6771TIP3   OH220269   5.855   4.488   6.294
 6771TIP3    H120270   5.770   4.507   6.255
 6771TIP3    H220271   5.856   4.392   6.302
 6772TIP3   OH220272   0.452   3.912   1.463
 6772TIP3    H120273   0.502   3.924   1.383
 6772TIP3    H220274   0.365   3.884   1.433
 6773TIP3   OH220275   3.078   6.664   4.912
 6773TIP3    H120276   3.086   6.621   4.997
 6773TIP3    H220277   3.156   6.637   4.863
 6774TIP3   OH220278   7.565   6.825   5.322
 6774TIP3    H120279   7.589   6.806   5.231
 6774TIP3    H220280   7.557   6.740   5.363
 6775TIP3   OH220281   5.049   6.566   5.622
 6775TIP3    H120282   5.065   6.544   5.530
 6775TIP3    H220283   5.118   6.520   5.670
 6776TIP3   OH220284   4.086   1.676   2.403
 6776TIP3    H120285   4.181   1.672   2.395
 6776TIP3    H220286   4.067   1.768   2.421
 6777TIP3   OH220287   3.667   4.965   4.646
 6777TIP3    H120288   3.707   5.052   4.636
 6777TIP3    H220289   3.740   4.904   4.644
 6778TIP3   OH220290   6.694   2.068   0.631
 6778TIP3    H120291   6.721   2.114   0.552
 6778TIP3    H220292   6.679   2.137   0.695
 6779TIP3   OH220293   5.743   5.716   4.325
 6779TIP3    H120294   5.668   5.668   4.361
 6779TIP3    H220295   5.724   5.721   4.231
 6780TIP3   OH220296   1.665   0.596   3.336
 6780TIP3    H120297   1.661   0.567   3.245
 6780TIP3    H220298   1.750   0.564   3.367
 6781TIP3   OH220299   7.446   6.645   3.778
 6781TIP3    H120300   7.368   6.660   3.832
 6781TIP3    H220301   7.491   6.573   3.822
 6782TIP3   OH220302   4.310   7.027   3.264
 6782TIP3    H120303   4.383   6.994   3.317
 6782TIP3    H220304   4.319   6.982   3.180
 6783TIP3   OH220305   8.206   4.230   6.179
 6783TIP3    H120306   8.116   4.261   6.192
 6783TIP3    H220307   8.212   4.152   6.234
 6784TIP3   OH220308   0.534   6.305   0.603
 6784TIP3    H120309   0.523   6.399   0.618
 6784TIP3    H220310   0.446   6.268   0.615
 6785TIP3   OH220311   5.583   5.258   0.297
 6785TIP3    H120312   5.489   5.251   0.308
 6785TIP3    H220313   5.616   5.274   0.386
 6786TIP3   OH220314   6.563   1.395   6.719
 6786TIP3    H120315   6.534   1.324   6.775
 6786TIP3    H220316   6.483   1.445   6.699
 6787TIP3   OH220317   2.418   0.089   4.406
 6787TIP3    H120318   2.511   0.103   4.386
 6787TIP3    H220319   2.408   0.118   4.496
 6788TIP3   OH220320   5.625   6.158   0.590
 6788TIP3    H120321   5.588   6.097   0.654
 6788TIP3    H220322   5.694   6.204   0.638
 6789TIP3   OH220323   0.780   3.311   1.159
 6789TIP3    H120324   0.719   3.254   1.114
 6789TIP3    H220325   0.852   3.254   1.185
 6790TIP3   OH220326   7.774   5.621   2.813
 6790TIP3    H120327   7.842   5.563   2.778
 6790TIP3    H220328   7.800   5.709   2.785
 6791TIP3   OH220329   4.488   2.581   0.772
 6791TIP3    H120330   4.431   2.576   0.849
 6791TIP3    H220331   4.513   2.491   0.754
 6792TIP3   OH220332   1.962   7.241   6.677
 6792TIP3    H120333   2.019   7.227   6.753
 6792TIP3    H220334   1.955   7.154   6.637
 6793TIP3   OH220335   3.031   5.015   0.837
 6793TIP3    H120336   3.003   4.925   0.818
 6793TIP3    H220337   2.952   5.059   0.867
 6794TIP3   OH220338   5.554   6.159   6.652
 6794TIP3    H120339   5.646   6.147   6.630
 6794TIP3    H220340   5.521   6.071   6.667
 6795TIP3   OH220341   1.423   2.258   1.557
 6795TIP3    H120342   1.344   2.296   1.519
 6795TIP3    H220343   1.454   2.324   1.619
 6796TIP3   OH220344   4.661   2.827   3.349
 6796TIP3    H120345   4.574   2.827   3.389
 6796TIP3    H220346   4.647   2.865   3.262
 6797TIP3   OH220347   1.504   5.772   5.225
 6797TIP3    H120348   1.571   5.706   5.240
 6797TIP3    H220349   1.551   5.855   5.232
 6798TIP3   OH220350   0.409   7.633   6.637
 6798TIP3    H120351   0.388   7.711   6.586
 6798TIP3    H220352   0.497   7.648   6.670
 6799TIP3   OH220353   0.264   1.016   0.729
 6799TIP3    H120354   0.324   1.056   0.792
 6799TIP3    H220355   0.176   1.036   0.763
 6800TIP3   OH220356   2.869   5.297   4.296
 6800TIP3    H120357   2.895   5.293   4.204
 6800TIP3    H220358   2.907   5.219   4.336
 6801TIP3   OH220359   3.588   7.442   6.724
 6801TIP3    H120360   3.556   7.356   6.696
 6801TIP3    H220361   3.509   7.496   6.732
 6802TIP3   OH220362   1.945   4.688   5.334
 6802TIP3    H120363   2.008   4.683   5.406
 6802TIP3    H220364   1.912   4.599   5.323
 6803TIP3   OH220365   5.660   2.965   2.824
 6803TIP3    H120366   5.565   2.968   2.809
 6803TIP3    H220367   5.699   2.988   2.740
 6804TIP3   OH220368   4.424   2.543   5.103
 6804TIP3    H120369   4.464   2.615   5.056
 6804TIP3    H220370   4.338   2.531   5.062
 6805TIP3   OH220371   0.908   6.750   1.034
 6805TIP3    H120372   0.937   6.668   0.994
 6805TIP3    H220373   0.816   6.735   1.055
 6806TIP3   OH220374   7.844   4.792   5.680
 6806TIP3    H120375   7.753   4.776   5.703
 6806TIP3    H220376   7.840   4.834   5.594
 6807TIP3   OH220377   6.351   1.841   5.462
 6807TIP3    H120378   6.291   1.913   5.439
 6807TIP3    H220379   6.362   1.848   5.556
 6808TIP3   OH220380   2.468   1.619   5.285
 6808TIP3    H120381   2.563   1.630   5.272
 6808TIP3    H220382   2.449   1.667   5.365
 6809TIP3   OH220383   2.028   7.053   2.230
 6809TIP3    H120384   2.098   7.092   2.176
 6809TIP3    H220385   2.031   7.103   2.312
 6810TIP3   OH220386   7.753   5.048   0.851
 6810TIP3    H120387   7.732   4.995   0.774
 6810TIP3    H220388   7.752   5.138   0.818
 6811TIP3   OH220389   7.947   7.626   5.786
 6811TIP3    H120390   7.878   7.672   5.737
 6811TIP3    H220391   8.012   7.694   5.804
 6812TIP3   OH220392   1.239   0.283   2.984
 6812TIP3    H120393   1.217   0.341   2.911
 6812TIP3    H220394   1.333   0.265   2.974
 6813TIP3   OH220395   5.926   1.139   0.717
 6813TIP3    H120396   5.911   1.203   0.647
 6813TIP3    H220397   5.843   1.138   0.766
 6814TIP3   OH220398   3.360   2.815   4.021
 6814TIP3    H120399   3.344   2.909   4.029
 6814TIP3    H220400   3.432   2.797   4.081
 6815TIP3   OH220401   4.444   6.043   2.914
 6815TIP3    H120402   4.377   6.063   2.979
 6815TIP3    H220403   4.451   6.123   2.861
 6816TIP3   OH220404   2.853   6.636   1.473
 6816TIP3    H120405   2.947   6.627   1.492
 6816TIP3    H220406   2.827   6.716   1.520
 6817TIP3   OH220407   5.314   3.624   6.206
 6817TIP3    H120408   5.250   3.575   6.154
 6817TIP3    H220409   5.356   3.683   6.144
 6818TIP3   OH220410   4.432   0.323   4.519
 6818TIP3    H120411   4.351   0.374   4.518
 6818TIP3    H220412   4.439   0.288   4.431
 6819TIP3   OH220413   0.930   3.145   0.398
 6819TIP3    H120414   0.970   3.227   0.369
 6819TIP3    H220415   0.861   3.173   0.459
 6820TIP3   OH220416   4.606   5.554   1.615
 6820TIP3    H120417   4.654   5.496   1.556
 6820TIP3    H220418   4.567   5.496   1.680
 6821TIP3   OH220419   3.662   1.438   1.498
 6821TIP3    H120420   3.702   1.392   1.424
 6821TIP3    H220421   3.717   1.416   1.573
 6822TIP3   OH220422   1.633   4.497   4.686
 6822TIP3    H120423   1.597   4.584   4.667
 6822TIP3    H220424   1.654   4.499   4.779
 6823TIP3   OH220425   2.696   6.504   5.177
 6823TIP3    H120426   2.728   6.512   5.266
 6823TIP3    H220427   2.619   6.448   5.184
 6824TIP3   OH220428   5.513   7.725   1.548
 6824TIP3    H120429   5.514   7.738   1.453
 6824TIP3    H220430   5.572   7.651   1.563
 6825TIP3   OH220431   2.806   6.241   3.011
 6825TIP3    H120432   2.872   6.303   3.042
 6825TIP3    H220433   2.741   6.239   3.081
 6826TIP3   OH220434   3.833   2.378   4.180
 6826TIP3    H120435   3.746   2.390   4.218
 6826TIP3    H220436   3.893   2.382   4.255
 6827TIP3   OH220437   5.441   4.168   1.046
 6827TIP3    H120438   5.365   4.223   1.067
 6827TIP3    H220439   5.407   4.079   1.047
 6828TIP3   OH220440   3.247   0.742   3.963
 6828TIP3    H120441   3.329   0.696   3.977
 6828TIP3    H220442   3.259   0.790   3.881
 6829TIP3   OH220443   5.750   0.661   1.838
 6829TIP3    H120444   5.802   0.613   1.774
 6829TIP3    H220445   5.696   0.720   1.786
 6830TIP3   OH220446   6.387   4.363   4.041
 6830TIP3    H120447   6.458   4.307   4.007
 6830TIP3    H220448   6.342   4.395   3.963
 6831TIP3   OH220449   4.848   4.779   1.768
 6831TIP3    H120450   4.802   4.716   1.825
 6831TIP3    H220451   4.907   4.826   1.827
 6832TIP3   OH220452   2.676   0.797   5.226
 6832TIP3    H120453   2.756   0.795   5.279
 6832TIP3    H220454   2.695   0.858   5.155
 6833TIP3   OH220455   0.607   7.292   6.029
 6833TIP3    H120456   0.513   7.284   6.014
 6833TIP3    H220457   0.615   7.337   6.113
 6834TIP3   OH220458   7.473   3.854   5.686
 6834TIP3    H120459   7.472   3.784   5.751
 6834TIP3    H220460   7.382   3.884   5.682
 6835TIP3   OH220461   7.036   1.319   6.775
 6835TIP3    H120462   6.955   1.368   6.765
 6835TIP3    H220463   7.091   1.348   6.702
 6836TIP3   OH220464   0.366   5.344   4.567
 6836TIP3    H120465   0.310   5.271   4.540
 6836TIP3    H220466   0.444   5.302   4.602
 6837TIP3   OH220467   4.266   4.329   3.781
 6837TIP3    H120468   4.263   4.321   3.876
 6837TIP3    H220469   4.202   4.266   3.749
 6838TIP3   OH220470   5.181   2.766   4.519
 6838TIP3    H120471   5.269   2.796   4.499
 6838TIP3    H220472   5.123   2.822   4.467
 6839TIP3   OH220473   4.725   7.429   5.546
 6839TIP3    H120474   4.811   7.455   5.516
 6839TIP3    H220475   4.741   7.377   5.625
 6840TIP3   OH220476   1.565   3.406   3.025
 6840TIP3    H120477   1.635   3.437   2.966
 6840TIP3    H220478   1.484   3.424   2.976
 6841TIP3   OH220479   0.383   5.223   3.309
 6841TIP3    H120480   0.363   5.152   3.248
 6841TIP3    H220481   0.299   5.245   3.349
 6842TIP3   OH220482   4.332   6.702   1.824
 6842TIP3    H120483   4.402   6.684   1.887
 6842TIP3    H220484   4.265   6.636   1.843
 6843TIP3   OH220485   1.939   2.103   0.823
 6843TIP3    H120486   1.862   2.122   0.877
 6843TIP3    H220487   1.929   2.160   0.747
 6844TIP3   OH220488   5.957   6.877   3.768
 6844TIP3    H120489   5.872   6.881   3.724
 6844TIP3    H220490   5.962   6.788   3.802
 6845TIP3   OH220491   7.684   4.626   0.523
 6845TIP3    H120492   7.619   4.696   0.531
 6845TIP3    H220493   7.633   4.549   0.496
 6846TIP3   OH220494   1.198   3.278   1.812
 6846TIP3    H120495   1.267   3.245   1.869
 6846TIP3    H220496   1.244   3.331   1.747
 6847TIP3   OH220497   4.132   1.653   1.770
 6847TIP3    H120498   4.040   1.658   1.794
 6847TIP3    H220499   4.138   1.701   1.688
 6848TIP3   OH220500   2.615   7.540   5.664
 6848TIP3    H120501   2.545   7.566   5.605
 6848TIP3    H220502   2.653   7.623   5.695
 6849TIP3   OH220503   6.613   2.582   2.028
 6849TIP3    H120504   6.574   2.506   2.071
 6849TIP3    H220505   6.594   2.570   1.935
 6850TIP3   OH220506   6.252   3.708   3.060
 6850TIP3    H120507   6.291   3.780   3.010
 6850TIP3    H220508   6.200   3.660   2.996
 6851TIP3   OH220509   1.248   7.590   4.398
 6851TIP3    H120510   1.309   7.525   4.432
 6851TIP3    H220511   1.211   7.631   4.476
 6852TIP3   OH220512   7.755   3.502   0.322
 6852TIP3    H120513   7.816   3.575   0.319
 6852TIP3    H220514   7.679   3.536   0.369
 6853TIP3   OH220515   5.298   1.322   5.059
 6853TIP3    H120516   5.287   1.228   5.045
 6853TIP3    H220517   5.269   1.362   4.977
 6854TIP3   OH220518   7.541   6.366   1.872
 6854TIP3    H120519   7.532   6.324   1.957
 6854TIP3    H220520   7.621   6.330   1.835
 6855TIP3   OH220521   4.552   6.237   5.374
 6855TIP3    H120522   4.561   6.301   5.445
 6855TIP3    H220523   4.512   6.287   5.302
 6856TIP3   OH220524   3.446   3.497   2.823
 6856TIP3    H120525   3.471   3.525   2.736
 6856TIP3    H220526   3.512   3.432   2.848
 6857TIP3   OH220527   7.016   3.806   3.298
 6857TIP3    H120528   7.079   3.820   3.228
 6857TIP3    H220529   7.056   3.739   3.354
 6858TIP3   OH220530   1.133   2.346   4.266
 6858TIP3    H120531   1.126   2.266   4.214
 6858TIP3    H220532   1.180   2.319   4.345
 6859TIP3   OH220533   7.473   4.041   6.294
 6859TIP3    H120534   7.440   4.022   6.206
 6859TIP3    H220535   7.425   3.980   6.351
 6860TIP3   OH220536   7.666   5.778   4.787
 6860TIP3    H120537   7.700   5.834   4.857
 6860TIP3    H220538   7.623   5.706   4.832
 6861TIP3   OH220539   4.194   3.984   2.472
 6861TIP3    H120540   4.126   4.027   2.525
 6861TIP3    H220541   4.155   3.976   2.385
 6862TIP3   OH220542   4.221   3.794   4.923
 6862TIP3    H120543   4.301   3.841   4.947
 6862TIP3    H220544   4.197   3.746   5.002
 6863TIP3   OH220545   2.746   4.562   5.651
 6863TIP3    H120546   2.803   4.563   5.728
 6863TIP3    H220547   2.798   4.517   5.584
 6864TIP3   OH220548   2.227   5.629   1.725
 6864TIP3    H120549   2.246   5.668   1.810
 6864TIP3    H220550   2.285   5.675   1.664
 6865TIP3   OH220551   3.360   6.223   6.088
 6865TIP3    H120552   3.275   6.255   6.056
 6865TIP3    H220553   3.417   6.300   6.085
 6866TIP3   OH220554   1.341   6.319   0.044
 6866TIP3    H120555   1.248   6.301   0.027
 6866TIP3    H220556   1.376   6.235   0.074
 6867TIP3   OH220557   7.562   5.472   6.013
 6867TIP3    H120558   7.543   5.411   6.084
 6867TIP3    H220559   7.594   5.551   6.057
 6868TIP3   OH220560   7.962   3.583   2.886
 6868TIP3    H120561   8.021   3.541   2.948
 6868TIP3    H220562   7.917   3.511   2.842
 6869TIP3   OH220563   2.855   4.601   4.927
 6869TIP3    H120564   2.841   4.585   4.833
 6869TIP3    H220565   2.915   4.532   4.954
 6870TIP3   OH220566   4.547   6.202   1.447
 6870TIP3    H120567   4.611   6.231   1.381
 6870TIP3    H220568   4.513   6.283   1.485
 6871TIP3   OH220569   1.864   6.618   4.303
 6871TIP3    H120570   1.777   6.653   4.284
 6871TIP3    H220571   1.924   6.685   4.269
 6872TIP3   OH220572   5.143   6.869   6.366
 6872TIP3    H120573   5.065   6.893   6.416
 6872TIP3    H220574   5.208   6.848   6.433
 6873TIP3   OH220575   6.137   1.578   5.045
 6873TIP3    H120576   6.183   1.500   5.074
 6873TIP3    H220577   6.155   1.643   5.112
 6874TIP3   OH220578   5.191   0.723   0.358
 6874TIP3    H120579   5.103   0.759   0.357
 6874TIP3    H220580   5.178   0.628   0.355
 6875TIP3   OH220581   6.325   5.885   3.650
 6875TIP3    H120582   6.274   5.955   3.608
 6875TIP3    H220583   6.352   5.922   3.734
 6876TIP3   OH220584   5.502   2.953   1.695
 6876TIP3    H120585   5.466   3.029   1.741
 6876TIP3    H220586   5.429   2.921   1.641
 6877TIP3   OH220587   2.374   4.464   0.354
 6877TIP3    H120588   2.455   4.506   0.324
 6877TIP3    H220589   2.339   4.523   0.420
 6878TIP3   OH220590   2.596   7.764   0.866
 6878TIP3    H120591   2.509   7.751   0.829
 6878TIP3    H220592   2.583   7.828   0.936
 6879TIP3   OH220593   7.515   3.859   3.094
 6879TIP3    H120594   7.527   3.952   3.078
 6879TIP3    H220595   7.601   3.820   3.076
 6880TIP3   OH220596   3.904   6.206   1.469
 6880TIP3    H120597   3.937   6.164   1.389
 6880TIP3    H220598   3.833   6.263   1.439
 6881TIP3   OH220599   7.558   5.549   4.901
 6881TIP3    H120600   7.558   5.461   4.938
 6881TIP3    H220601   7.497   5.544   4.828
 6882TIP3   OH220602   2.026   2.782   2.500
 6882TIP3    H120603   2.068   2.696   2.497
 6882TIP3    H220604   2.035   2.816   2.411
 6883TIP3   OH220605   0.853   2.792   3.204
 6883TIP3    H120606   0.897   2.718   3.161
 6883TIP3    H220607   0.788   2.751   3.261
 6884TIP3   OH220608   1.441   2.092   2.087
 6884TIP3    H120609   1.418   2.076   1.995
 6884TIP3    H220610   1.365   2.061   2.136
 6885TIP3   OH220611   4.630   2.895   0.607
 6885TIP3    H120612   4.676   2.880   0.525
 6885TIP3    H220613   4.687   2.954   0.656
 6886TIP3   OH220614   4.289   2.607   5.957
 6886TIP3    H120615   4.240   2.650   5.887
 6886TIP3    H220616   4.381   2.624   5.937
 6887TIP3   OH220617   2.649   3.803   1.717
 6887TIP3    H120618   2.708   3.745   1.669
 6887TIP3    H220619   2.659   3.777   1.809
 6888TIP3   OH220620   6.598   6.671   3.140
 6888TIP3    H120621   6.675   6.644   3.190
 6888TIP3    H220622   6.539   6.709   3.205
 6889TIP3   OH220623   6.211   6.532   0.307
 6889TIP3    H120624   6.278   6.580   0.259
 6889TIP3    H220625   6.142   6.516   0.243
 6890TIP3   OH220626   3.962   0.637   3.685
 6890TIP3    H120627   3.892   0.694   3.717
 6890TIP3    H220628   3.943   0.552   3.724
 6891TIP3   OH220629   6.222   5.606   4.418
 6891TIP3    H120630   6.263   5.522   4.396
 6891TIP3    H220631   6.172   5.629   4.339
 6892TIP3   OH220632   1.400   0.093   1.729
 6892TIP3    H120633   1.419   0.171   1.676
 6892TIP3    H220634   1.473   0.088   1.791
 6893TIP3   OH220635   2.274   7.557   4.741
 6893TIP3    H120636   2.195   7.540   4.689
 6893TIP3    H220637   2.260   7.644   4.778
 6894TIP3   OH220638   6.038   0.144   0.239
 6894TIP3    H120639   6.016   0.075   0.301
 6894TIP3    H220640   6.127   0.124   0.210
 6895TIP3   OH220641   6.691   5.429   1.312
 6895TIP3    H120642   6.778   5.403   1.281
 6895TIP3    H220643   6.689   5.524   1.299
 6896TIP3   OH220644   2.008   6.285   0.480
 6896TIP3    H120645   2.048   6.228   0.545
 6896TIP3    H220646   2.075   6.352   0.462
 6897TIP3   OH220647   6.017   4.450   6.621
 6897TIP3    H120648   6.097   4.477   6.666
 6897TIP3    H220649   5.969   4.532   6.607
 6898TIP3   OH220650   2.231   1.722   3.754
 6898TIP3    H120651   2.295   1.651   3.764
 6898TIP3    H220652   2.188   1.727   3.839
 6899TIP3   OH220653   6.668   7.673   1.508
 6899TIP3    H120654   6.674   7.684   1.413
 6899TIP3    H220655   6.610   7.744   1.536
 6900TIP3   OH220656   7.658   5.132   1.100
 6900TIP3    H120657   7.735   5.133   1.157
 6900TIP3    H220658   7.683   5.077   1.026
 6901TIP3   OH220659   2.536   0.117   0.682
 6901TIP3    H120660   2.599   0.109   0.753
 6901TIP3    H220661   2.586   0.159   0.611
 6902TIP3   OH220662   6.263   4.319   4.599
 6902TIP3    H120663   6.228   4.407   4.615
 6902TIP3    H220664   6.187   4.269   4.567
 6903TIP3   OH220665   4.206   7.446   1.150
 6903TIP3    H120666   4.120   7.486   1.139
 6903TIP3    H220667   4.208   7.376   1.084
 6904TIP3   OH220668   1.691   4.472   0.708
 6904TIP3    H120669   1.632   4.524   0.762
 6904TIP3    H220670   1.755   4.436   0.770
 6905TIP3   OH220671   8.261   3.416   0.214
 6905TIP3    H120672   8.285   3.446   0.302
 6905TIP3    H220673   8.165   3.422   0.212
 6906TIP3   OH220674   1.899   0.075   0.773
 6906TIP3    H120675   1.972   0.025   0.809
 6906TIP3    H220676   1.940   0.140   0.716
 6907TIP3   OH220677   3.904   7.725   1.514
 6907TIP3    H120678   3.863   7.760   1.435
 6907TIP3    H220679   3.988   7.690   1.484
 6908TIP3   OH220680   2.847   6.686   4.549
 6908TIP3    H120681   2.754   6.700   4.563
 6908TIP3    H220682   2.867   6.734   4.468
 6909TIP3   OH220683   5.077   5.587   5.763
 6909TIP3    H120684   5.067   5.496   5.794
 6909TIP3    H220685   5.051   5.640   5.838
 6910TIP3   OH220686   5.290   1.150   3.585
 6910TIP3    H120687   5.279   1.060   3.616
 6910TIP3    H220688   5.383   1.168   3.598
 6911TIP3   OH220689   0.441   5.032   1.556
 6911TIP3    H120690   0.464   5.108   1.610
 6911TIP3    H220691   0.373   5.064   1.498
 6912TIP3   OH220692   6.704   0.764   0.527
 6912TIP3    H120693   6.696   0.709   0.605
 6912TIP3    H220694   6.766   0.832   0.552
 6913TIP3   OH220695   2.466   5.096   1.938
 6913TIP3    H120696   2.445   5.009   1.973
 6913TIP3    H220697   2.558   5.109   1.958
 6914TIP3   OH220698   5.168   6.130   2.728
 6914TIP3    H120699   5.193   6.219   2.701
 6914TIP3    H220700   5.106   6.143   2.800
 6915TIP3   OH220701   6.506   4.001   5.023
 6915TIP3    H120702   6.578   4.021   4.963
 6915TIP3    H220703   6.439   4.067   5.003
 6916TIP3   OH220704   8.165   1.067   1.111
 6916TIP3    H120705   8.203   1.152   1.092
 6916TIP3    H220706   8.082   1.087   1.155
 6917TIP3   OH220707   2.704   0.593   2.342
 6917TIP3    H120708   2.627   0.650   2.349
 6917TIP3    H220709   2.668   0.508   2.317
 6918TIP3   OH220710   1.685   6.231   2.189
 6918TIP3    H120711   1.737   6.242   2.268
 6918TIP3    H220712   1.742   6.180   2.130
 6919TIP3   OH220713   1.254   1.266   6.775
 6919TIP3    H120714   1.219   1.320   6.705
 6919TIP3    H220715   1.181   1.208   6.799
 6920TIP3   OH220716   3.073   6.961   3.869
 6920TIP3    H120717   3.015   6.887   3.853
 6920TIP3    H220718   3.146   6.924   3.920
 6921TIP3   OH220719   4.032   2.910   3.661
 6921TIP3    H120720   3.968   2.885   3.728
 6921TIP3    H220721   4.033   2.837   3.600
 6922TIP3   OH220722   2.077   6.754   6.655
 6922TIP3    H120723   2.149   6.816   6.649
 6922TIP3    H220724   2.110   6.673   6.616
 6923TIP3   OH220725   0.802   7.469   2.874
 6923TIP3    H120726   0.759   7.554   2.861
 6923TIP3    H220727   0.732   7.405   2.862
 6924TIP3   OH220728   7.831   0.508   2.726
 6924TIP3    H120729   7.811   0.554   2.644
 6924TIP3    H220730   7.792   0.563   2.794
 6925TIP3   OH220731   7.280   7.531   2.194
 6925TIP3    H120732   7.373   7.516   2.214
 6925TIP3    H220733   7.241   7.444   2.200
 6926TIP3   OH220734   2.028   2.935   6.661
 6926TIP3    H120735   1.995   2.913   6.574
 6926TIP3    H220736   2.118   2.965   6.645
 6927TIP3   OH220737   4.889   4.641   5.115
 6927TIP3    H120738   4.907   4.735   5.113
 6927TIP3    H220739   4.948   4.606   5.182
 6928TIP3   OH220740   3.595   4.230   5.764
 6928TIP3    H120741   3.522   4.288   5.785
 6928TIP3    H220742   3.554   4.146   5.743
 6929TIP3   OH220743   7.658   4.157   0.810
 6929TIP3    H120744   7.748   4.139   0.838
 6929TIP3    H220745   7.668   4.226   0.744
 6930TIP3   OH220746   2.341   1.223   3.770
 6930TIP3    H120747   2.363   1.173   3.849
 6930TIP3    H220748   2.422   1.225   3.719
 6931TIP3   OH220749   2.100   7.641   1.865
 6931TIP3    H120750   2.043   7.630   1.941
 6931TIP3    H220751   2.170   7.577   1.878
 6932TIP3   OH220752   6.281   1.112   4.090
 6932TIP3    H120753   6.192   1.099   4.057
 6932TIP3    H220754   6.272   1.182   4.155
 6933TIP3   OH220755   7.890   6.959   0.755
 6933TIP3    H120756   7.938   6.959   0.673
 6933TIP3    H220757   7.944   6.907   0.815
 6934TIP3   OH220758   1.577   3.149   0.262
 6934TIP3    H120759   1.550   3.096   0.187
 6934TIP3    H220760   1.511   3.219   0.265
 6935TIP3   OH220761   6.638   6.495   4.315
 6935TIP3    H120762   6.575   6.503   4.387
 6935TIP3    H220763   6.613   6.413   4.271
 6936TIP3   OH220764   5.387   5.203   2.862
 6936TIP3    H120765   5.357   5.275   2.807
 6936TIP3    H220766   5.430   5.142   2.802
 6937TIP3   OH220767   4.122   5.863   6.019
 6937TIP3    H120768   4.126   5.950   5.981
 6937TIP3    H220769   4.213   5.834   6.025
 6938TIP3   OH220770   1.341   4.104   5.623
 6938TIP3    H120771   1.411   4.042   5.643
 6938TIP3    H220772   1.270   4.049   5.588
 6939TIP3   OH220773   0.179   7.089   4.822
 6939TIP3    H120774   0.231   7.168   4.841
 6939TIP3    H220775   0.244   7.023   4.797
 6940TIP3   OH220776   2.157   0.376   4.726
 6940TIP3    H120777   2.063   0.376   4.743
 6940TIP3    H220778   2.181   0.284   4.724
 6941TIP3   OH220779   4.215   4.918   6.271
 6941TIP3    H120780   4.284   4.906   6.337
 6941TIP3    H220781   4.238   4.999   6.227
 6942TIP3   OH220782   5.082   4.809   4.226
 6942TIP3    H120783   5.069   4.898   4.195
 6942TIP3    H220784   5.164   4.812   4.276
 6943TIP3   OH220785   1.650   0.256   4.899
 6943TIP3    H120786   1.562   0.291   4.883
 6943TIP3    H220787   1.690   0.319   4.959
 6944TIP3   OH220788   4.350   6.469   3.662
 6944TIP3    H120789   4.432   6.512   3.639
 6944TIP3    H220790   4.376   6.394   3.715
 6945TIP3   OH220791   6.882   5.274   1.569
 6945TIP3    H120792   6.835   5.354   1.591
 6945TIP3    H220793   6.923   5.293   1.484
 6946TIP3   OH220794   0.826   7.846   1.856
 6946TIP3    H120795   0.825   7.786   1.781
 6946TIP3    H220796   0.880   7.800   1.921
 6947TIP3   OH220797   4.278   1.954   5.199
 6947TIP3    H120798   4.282   1.894   5.274
 6947TIP3    H220799   4.206   1.920   5.145
 6948TIP3   OH220800   7.866   4.050   3.578
 6948TIP3    H120801   7.951   4.045   3.535
 6948TIP3    H220802   7.810   3.991   3.527
 6949TIP3   OH220803   4.563   2.907   3.982
 6949TIP3    H120804   4.546   2.999   3.961
 6949TIP3    H220805   4.526   2.895   4.070
 6950TIP3   OH220806   2.154   4.374   0.158
 6950TIP3    H120807   2.229   4.430   0.175
 6950TIP3    H220808   2.171   4.294   0.206
 6951TIP3   OH220809   7.751   7.512   5.259
 6951TIP3    H120810   7.822   7.544   5.205
 6951TIP3    H220811   7.692   7.587   5.269
 6952TIP3   OH220812   3.871   0.126   4.741
 6952TIP3    H120813   3.948   0.154   4.790
 6952TIP3    H220814   3.796   0.158   4.792
 6953TIP3   OH220815   4.058   6.024   2.985
 6953TIP3    H120816   4.029   5.940   2.950
 6953TIP3    H220817   4.052   6.084   2.911
 6954TIP3   OH220818   6.573   5.409   0.769
 6954TIP3    H120819   6.499   5.466   0.790
 6954TIP3    H220820   6.587   5.423   0.676
 6955TIP3   OH220821   4.431   4.378   1.100
 6955TIP3    H120822   4.346   4.383   1.143
 6955TIP3    H220823   4.486   4.328   1.161
 6956TIP3   OH220824   4.417   4.147   6.264
 6956TIP3    H120825   4.461   4.150   6.179
 6956TIP3    H220826   4.367   4.066   6.262
 6957TIP3   OH220827   2.665   4.679   5.116
 6957TIP3    H120828   2.721   4.641   5.184
 6957TIP3    H220829   2.713   4.664   5.035
 6958TIP3   OH220830   2.386   3.723   1.741
 6958TIP3    H120831   2.477   3.747   1.724
 6958TIP3    H220832   2.335   3.794   1.703
 6959TIP3   OH220833   5.744   7.502   2.217
 6959TIP3    H120834   5.793   7.558   2.158
 6959TIP3    H220835   5.789   7.511   2.302
 6960TIP3   OH220836   0.056   5.026   2.867
 6960TIP3    H120837   0.118   4.964   2.904
 6960TIP3    H220838  -0.027   5.005   2.909
 6961TIP3   OH220839   3.895   2.590   0.866
 6961TIP3    H120840   3.962   2.621   0.928
 6961TIP3    H220841   3.879   2.664   0.809
 6962TIP3   OH220842   4.139   4.630   5.656
 6962TIP3    H120843   4.109   4.720   5.672
 6962TIP3    H220844   4.068   4.589   5.607
 6963TIP3   OH220845   5.326   3.972   0.294
 6963TIP3    H120846   5.372   4.051   0.267
 6963TIP3    H220847   5.259   4.004   0.355
 6964TIP3   OH220848   5.441   3.337   6.656
 6964TIP3    H120849   5.459   3.383   6.574
 6964TIP3    H220850   5.458   3.402   6.724
 6965TIP3   OH220851   6.351   5.485   2.034
 6965TIP3    H120852   6.281   5.421   2.046
 6965TIP3    H220853   6.386   5.466   1.947
 6966TIP3   OH220854   0.306   2.508   4.851
 6966TIP3    H120855   0.320   2.603   4.860
 6966TIP3    H220856   0.378   2.478   4.796
 6967TIP3   OH220857   4.261   0.408   5.962
 6967TIP3    H120858   4.281   0.473   6.029
 6967TIP3    H220859   4.222   0.335   6.011
 6968TIP3   OH220860   2.916   6.225   3.392
 6968TIP3    H120861   2.847   6.231   3.458
 6968TIP3    H220862   2.897   6.296   3.331
 6969TIP3   OH220863   5.144   7.032   0.953
 6969TIP3    H120864   5.141   7.125   0.972
 6969TIP3    H220865   5.237   7.014   0.937
 6970TIP3   OH220866   0.178   6.103   6.319
 6970TIP3    H120867   0.249   6.156   6.283
 6970TIP3    H220868   0.138   6.060   6.244
 6971TIP3   OH220869   7.945   5.074   5.146
 6971TIP3    H120870   7.903   5.152   5.110
 6971TIP3    H220871   7.989   5.105   5.225
 6972TIP3   OH220872   1.675   1.616   6.230
 6972TIP3    H120873   1.656   1.539   6.177
 6972TIP3    H220874   1.590   1.641   6.267
 6973TIP3   OH220875   5.462   5.635   0.185
 6973TIP3    H120876   5.390   5.661   0.243
 6973TIP3    H220877   5.540   5.638   0.241
 6974TIP3   OH220878   2.938   4.202   2.210
 6974TIP3    H120879   2.869   4.247   2.160
 6974TIP3    H220880   2.893   4.163   2.284
 6975TIP3   OH220881   8.253   6.577   1.345
 6975TIP3    H120882   8.197   6.499   1.346
 6975TIP3    H220883   8.223   6.626   1.268
 6976TIP3   OH220884   4.420   0.959   1.944
 6976TIP3    H120885   4.347   1.018   1.964
 6976TIP3    H220886   4.494   0.994   1.995
 6977TIP3   OH220887   7.002   3.646   5.446
 6977TIP3    H120888   7.011   3.563   5.493
 6977TIP3    H220889   6.924   3.634   5.392
 6978TIP3   OH220890   7.143   7.274   2.136
 6978TIP3    H120891   7.196   7.200   2.105
 6978TIP3    H220892   7.104   7.310   2.057
 6979TIP3   OH220893   3.548   5.613   1.975
 6979TIP3    H120894   3.563   5.685   2.036
 6979TIP3    H220895   3.552   5.534   2.029
 6980TIP3   OH220896   3.106   0.130   5.767
 6980TIP3    H120897   3.103   0.078   5.686
 6980TIP3    H220898   3.186   0.182   5.758
 6981TIP3   OH220899   5.105   7.241   5.237
 6981TIP3    H120900   5.184   7.196   5.267
 6981TIP3    H220901   5.037   7.173   5.237
 6982TIP3   OH220902   4.297   3.247   3.060
 6982TIP3    H120903   4.267   3.179   3.000
 6982TIP3    H220904   4.292   3.328   3.009
 6983TIP3   OH220905   2.537   7.406   5.931
 6983TIP3    H120906   2.617   7.379   5.976
 6983TIP3    H220907   2.567   7.435   5.844
 6984TIP3   OH220908   2.597   5.256   3.029
 6984TIP3    H120909   2.602   5.351   3.044
 6984TIP3    H220910   2.526   5.226   3.086
 6985TIP3   OH220911   6.700   0.076   3.232
 6985TIP3    H120912   6.672   0.160   3.196
 6985TIP3    H220913   6.629   0.050   3.290
 6986TIP3   OH220914   5.124   5.826   3.311
 6986TIP3    H120915   5.163   5.914   3.305
 6986TIP3    H220916   5.150   5.782   3.230
 6987TIP3   OH220917   7.793   2.422   1.537
 6987TIP3    H120918   7.876   2.411   1.491
 6987TIP3    H220919   7.805   2.502   1.590
 6988TIP3   OH220920   7.432   6.009   0.937
 6988TIP3    H120921   7.376   5.947   0.891
 6988TIP3    H220922   7.395   6.015   1.025
 6989TIP3   OH220923   1.514   1.829   3.950
 6989TIP3    H120924   1.450   1.882   3.998
 6989TIP3    H220925   1.529   1.753   4.007
 6990TIP3   OH220926   1.127   1.644   2.575
 6990TIP3    H120927   1.124   1.671   2.483
 6990TIP3    H220928   1.215   1.606   2.585
 6991TIP3   OH220929   4.054   3.792   6.068
 6991TIP3    H120930   4.083   3.701   6.076
 6991TIP3    H220931   4.125   3.836   6.021
 6992TIP3   OH220932   2.795   1.015   6.299
 6992TIP3    H120933   2.781   0.943   6.360
 6992TIP3    H220934   2.889   1.013   6.280
 6993TIP3   OH220935   3.831   0.179   5.986
 6993TIP3    H120936   3.795   0.102   6.029
 6993TIP3    H220937   3.765   0.247   5.998
 6994TIP3   OH220938   2.657   3.685   3.801
 6994TIP3    H120939   2.580   3.682   3.858
 6994TIP3    H220940   2.732   3.681   3.861
 6995TIP3   OH220941   0.423   2.410   2.167
 6995TIP3    H120942   0.514   2.430   2.146
 6995TIP3    H220943   0.421   2.315   2.178
 6996TIP3   OH220944   8.216   5.652   0.841
 6996TIP3    H120945   8.171   5.647   0.926
 6996TIP3    H220946   8.201   5.567   0.801
 6997TIP3   OH220947   6.664   1.070   1.225
 6997TIP3    H120948   6.752   1.107   1.232
 6997TIP3    H220949   6.648   1.064   1.130
 6998TIP3   OH220950   3.734   4.263   3.183
 6998TIP3    H120951   3.791   4.334   3.211
 6998TIP3    H220952   3.705   4.289   3.095
 6999TIP3   OH220953   1.606   0.890   5.773
 6999TIP3    H120954   1.671   0.866   5.707
 6999TIP3    H220955   1.633   0.977   5.802
 7000TIP3   OH220956   4.271   6.835   0.459
 7000TIP3    H120957   4.353   6.865   0.498
 7000TIP3    H220958   4.203   6.872   0.515
 7001TIP3   OH220959   8.138   2.733   1.437
 7001TIP3    H120960   8.053   2.699   1.408
 7001TIP3    H220961   8.194   2.656   1.442
 7002TIP3   OH220962   2.058   0.612   0.464
 7002TIP3    H120963   2.094   0.645   0.382
 7002TIP3    H220964   2.133   0.610   0.524
 7003TIP3   OH220965   4.922   2.289   3.053
 7003TIP3    H120966   4.937   2.230   2.979
 7003TIP3    H220967   4.831   2.318   3.042
 7004TIP3   OH220968   1.568   3.923   1.773
 7004TIP3    H120969   1.573   3.995   1.836
 7004TIP3    H220970   1.644   3.935   1.716
 7005TIP3   OH220971   5.950   1.505   3.217
 7005TIP3    H120972   6.022   1.496   3.155
 7005TIP3    H220973   5.903   1.583   3.188
 7006TIP3   OH220974   2.786   3.173   6.550
 7006TIP3    H120975   2.736   3.110   6.602
 7006TIP3    H220976   2.819   3.123   6.476
 7007TIP3   OH220977   2.151   2.653   5.825
 7007TIP3    H120978   2.207   2.729   5.842
 7007TIP3    H220979   2.211   2.580   5.819
 7008TIP3   OH220980   4.887   4.076   0.048
 7008TIP3    H120981   4.798   4.074   0.082
 7008TIP3    H220982   4.888   4.011  -0.022
 7009TIP3   OH220983   4.314   4.627   0.818
 7009TIP3    H120984   4.390   4.569   0.813
 7009TIP3    H220985   4.349   4.710   0.851
 7010TIP3   OH220986   4.691   3.031   3.711
 7010TIP3    H120987   4.654   3.093   3.775
 7010TIP3    H220988   4.784   3.026   3.734
 7011TIP3   OH220989   2.138   0.668   3.862
 7011TIP3    H120990   2.187   0.642   3.784
 7011TIP3    H220991   2.052   0.694   3.829
 7012TIP3   OH220992   7.886   1.215   4.629
 7012TIP3    H120993   7.966   1.268   4.630
 7012TIP3    H220994   7.915   1.127   4.607
 7013TIP3   OH220995   0.328   6.105   2.535
 7013TIP3    H120996   0.356   6.051   2.609
 7013TIP3    H220997   0.392   6.176   2.532
 7014TIP3   OH220998   2.006   1.026   5.745
 7014TIP3    H120999   2.031   1.044   5.654
 7014TIP3    H221000   1.994   1.113   5.784
 7015TIP3   OH221001   0.206   7.109   6.658
 7015TIP3    H121002   0.289   7.153   6.672
 7015TIP3    H221003   0.140   7.178   6.665
 7016TIP3   OH221004   7.108   3.812   0.632
 7016TIP3    H121005   7.026   3.766   0.616
 7016TIP3    H221006   7.104   3.836   0.725
 7017TIP3   OH221007   3.102   2.328   6.038
 7017TIP3    H121008   3.075   2.348   5.948
 7017TIP3    H221009   3.198   2.327   6.034
 7018TIP3   OH221010   6.854   4.236   0.665
 7018TIP3    H121011   6.835   4.143   0.648
 7018TIP3    H221012   6.770   4.274   0.689
 7019TIP3   OH221013   7.929   0.546   0.781
 7019TIP3    H121014   7.977   0.627   0.798
 7019TIP3    H221015   7.880   0.563   0.701
 7020TIP3   OH221016   8.131   2.857   1.161
 7020TIP3    H121017   8.197   2.795   1.194
 7020TIP3    H221018   8.048   2.810   1.169
 7021TIP3   OH221019   5.660   6.952   4.850
 7021TIP3    H121020   5.712   6.913   4.920
 7021TIP3    H221021   5.612   6.879   4.811
 7022TIP3   OH221022   2.305   6.411   5.793
 7022TIP3    H121023   2.307   6.449   5.705
 7022TIP3    H221024   2.260   6.327   5.781
 7023TIP3   OH221025   3.246   2.134   0.378
 7023TIP3    H121026   3.229   2.228   0.384
 7023TIP3    H221027   3.160   2.093   0.382
 7024TIP3   OH221028   7.337   4.460   2.960
 7024TIP3    H121029   7.270   4.408   2.916
 7024TIP3    H221030   7.410   4.399   2.972
 7025TIP3   OH221031   7.087   6.521   3.733
 7025TIP3    H121032   7.075   6.446   3.792
 7025TIP3    H221033   7.131   6.587   3.787
 7026TIP3   OH221034   1.632   1.555   2.981
 7026TIP3    H121035   1.691   1.631   2.983
 7026TIP3    H221036   1.556   1.582   3.032
 7027TIP3   OH221037   4.557   2.097   3.483
 7027TIP3    H121038   4.626   2.058   3.428
 7027TIP3    H221039   4.588   2.084   3.573
 7028TIP3   OH221040   0.239   4.518   1.764
 7028TIP3    H121041   0.263   4.561   1.846
 7028TIP3    H221042   0.233   4.425   1.786
 7029TIP3   OH221043   5.945   4.953   2.675
 7029TIP3    H121044   5.995   4.985   2.601
 7029TIP3    H221045   5.864   5.005   2.674
 7030TIP3   OH221046   2.345   5.165   0.140
 7030TIP3    H121047   2.410   5.154   0.209
 7030TIP3    H221048   2.393   5.203   0.067
 7031TIP3   OH221049   2.194   0.416   0.814
 7031TIP3    H121050   2.208   0.481   0.745
 7031TIP3    H221051   2.265   0.353   0.803
 7032TIP3   OH221052   6.428   0.434   5.446
 7032TIP3    H121053   6.433   0.403   5.356
 7032TIP3    H221054   6.348   0.394   5.481
 7033TIP3   OH221055   6.117   2.974   2.375
 7033TIP3    H121056   6.103   3.057   2.421
 7033TIP3    H221057   6.086   2.991   2.286
 7034TIP3   OH221058   6.640   5.807   0.840
 7034TIP3    H121059   6.647   5.750   0.763
 7034TIP3    H221060   6.725   5.850   0.845
 7035TIP3   OH221061   6.960   5.865   0.189
 7035TIP3    H121062   6.977   5.777   0.223
 7035TIP3    H221063   7.046   5.906   0.183
 7036TIP3   OH221064   0.699   0.801   5.576
 7036TIP3    H121065   0.783   0.754   5.580
 7036TIP3    H221066   0.709   0.874   5.638
 7037TIP3   OH221067   5.296   5.668   2.620
 7037TIP3    H121068   5.261   5.738   2.675
 7037TIP3    H221069   5.391   5.679   2.625
 7038TIP3   OH221070   5.344   0.570   5.980
 7038TIP3    H121071   5.305   0.611   5.903
 7038TIP3    H221072   5.283   0.500   6.004
 7039TIP3   OH221073   7.239   4.232   2.572
 7039TIP3    H121074   7.311   4.172   2.552
 7039TIP3    H221075   7.203   4.257   2.487
 7040TIP3   OH221076   4.430   4.172   6.536
 7040TIP3    H121077   4.390   4.091   6.569
 7040TIP3    H221078   4.443   4.156   6.443
 7041TIP3   OH221079   2.591   1.561   6.444
 7041TIP3    H121080   2.669   1.603   6.409
 7041TIP3    H221081   2.520   1.591   6.388
 7042TIP3   OH221082   3.475   0.975   2.181
 7042TIP3    H121083   3.387   0.992   2.147
 7042TIP3    H221084   3.461   0.937   2.267
 7043TIP3   OH221085   3.767   7.285   2.313
 7043TIP3    H121086   3.783   7.322   2.226
 7043TIP3    H221087   3.852   7.291   2.357
 7044TIP3   OH221088   5.878   5.121   4.059
 7044TIP3    H121089   5.865   5.051   3.995
 7044TIP3    H221090   5.906   5.075   4.138
 7045TIP3   OH221091   5.675   3.498   1.788
 7045TIP3    H121092   5.672   3.549   1.869
 7045TIP3    H221093   5.601   3.438   1.796
 7046TIP3   OH221094   7.679   0.983   2.426
 7046TIP3    H121095   7.724   0.934   2.494
 7046TIP3    H221096   7.588   0.990   2.456
 7047TIP3   OH221097   1.805   6.077   4.851
 7047TIP3    H121098   1.880   6.071   4.911
 7047TIP3    H221099   1.730   6.050   4.904
 7048TIP3   OH221100   2.591   5.502   0.207
 7048TIP3    H121101   2.679   5.496   0.245
 7048TIP3    H221102   2.587   5.428   0.146
 7049TIP3   OH221103   5.583   0.899   3.178
 7049TIP3    H121104   5.591   0.935   3.090
 7049TIP3    H221105   5.584   0.976   3.236
 7050TIP3   OH221106   3.643   7.564   2.319
 7050TIP3    H121107   3.718   7.620   2.339
 7050TIP3    H221108   3.666   7.479   2.358
 7051TIP3   OH221109   2.679   0.209   2.910
 7051TIP3    H121110   2.698   0.126   2.866
 7051TIP3    H221111   2.708   0.196   3.000
 7052TIP3   OH221112   6.301   3.826   3.656
 7052TIP3    H121113   6.281   3.791   3.743
 7052TIP3    H221114   6.279   3.919   3.662
 7053TIP3   OH221115   7.209   4.248   6.131
 7053TIP3    H121116   7.121   4.265   6.166
 7053TIP3    H221117   7.267   4.266   6.205
 7054TIP3   OH221118   6.385   6.467   1.818
 7054TIP3    H121119   6.449   6.403   1.850
 7054TIP3    H221120   6.438   6.542   1.789
 7055TIP3   OH221121   2.419   4.320   0.923
 7055TIP3    H121122   2.383   4.383   0.986
 7055TIP3    H221123   2.358   4.323   0.849
 7056TIP3   OH221124   2.973   5.798   3.923
 7056TIP3    H121125   3.055   5.846   3.930
 7056TIP3    H221126   2.995   5.709   3.950
 7057TIP3   OH221127   5.820   5.899   3.433
 7057TIP3    H121128   5.801   5.937   3.347
 7057TIP3    H221129   5.903   5.940   3.459
 7058TIP3   OH221130   2.766   3.452   1.038
 7058TIP3    H121131   2.755   3.547   1.038
 7058TIP3    H221132   2.765   3.427   1.130
 7059TIP3   OH221133   3.774   6.844   3.932
 7059TIP3    H121134   3.688   6.826   3.893
 7059TIP3    H221135   3.821   6.893   3.864
 7060TIP3   OH221136   6.171   0.080   0.967
 7060TIP3    H121137   6.246   0.139   0.974
 7060TIP3    H221138   6.129   0.104   0.884
 7061TIP3   OH221139   1.113   1.884   1.299
 7061TIP3    H121140   1.083   1.962   1.346
 7061TIP3    H221141   1.116   1.816   1.366
 7062TIP3   OH221142   7.844   5.084   4.742
 7062TIP3    H121143   7.767   5.110   4.793
 7062TIP3    H221144   7.814   5.013   4.686
 7063TIP3   OH221145   3.757   3.752   4.556
 7063TIP3    H121146   3.687   3.755   4.491
 7063TIP3    H221147   3.782   3.844   4.567
 7064TIP3   OH221148   6.674   1.580   2.890
 7064TIP3    H121149   6.761   1.618   2.883
 7064TIP3    H221150   6.652   1.553   2.801
 7065TIP3   OH221151   6.365   4.227   6.461
 7065TIP3    H121152   6.371   4.207   6.555
 7065TIP3    H221153   6.281   4.189   6.435
 7066TIP3   OH221154   2.991   2.438   5.482
 7066TIP3    H121155   3.051   2.369   5.512
 7066TIP3    H221156   3.044   2.517   5.478
 7067TIP3   OH221157   2.452   2.726   5.803
 7067TIP3    H121158   2.541   2.732   5.769
 7067TIP3    H221159   2.463   2.699   5.895
 7068TIP3   OH221160   3.145   6.252   6.491
 7068TIP3    H121161   3.240   6.236   6.487
 7068TIP3    H221162   3.137   6.340   6.527
 7069TIP3   OH221163   2.183   4.980   3.202
 7069TIP3    H121164   2.187   4.907   3.140
 7069TIP3    H221165   2.148   4.941   3.282
 7070TIP3   OH221166   0.117   2.671   0.515
 7070TIP3    H121167   0.165   2.702   0.438
 7070TIP3    H221168   0.178   2.683   0.587
 7071TIP3   OH221169   7.980   1.761   0.583
 7071TIP3    H121170   7.899   1.808   0.565
 7071TIP3    H221171   7.981   1.750   0.678
 7072TIP3   OH221172   3.461   0.048   5.660
 7072TIP3    H121173   3.546   0.090   5.670
 7072TIP3    H221174   3.470  -0.007   5.583
 7073TIP3   OH221175   8.268   1.809   0.800
 7073TIP3    H121176   8.259   1.721   0.764
 7073TIP3    H221177   8.200   1.814   0.867
 7074TIP3   OH221178   1.404   0.626   4.284
 7074TIP3    H121179   1.414   0.549   4.339
 7074TIP3    H221180   1.337   0.679   4.327
 7075TIP3   OH221181   3.388   0.583   3.624
 7075TIP3    H121182   3.353   0.525   3.691
 7075TIP3    H221183   3.313   0.604   3.568
 7076TIP3   OH221184   7.589   1.550   2.822
 7076TIP3    H121185   7.598   1.643   2.803
 7076TIP3    H221186   7.505   1.525   2.783
 7077TIP3   OH221187   6.152   0.145   6.452
 7077TIP3    H121188   6.074   0.186   6.416
 7077TIP3    H221189   6.156   0.059   6.409
 7078TIP3   OH221190   7.273   1.896   3.637
 7078TIP3    H121191   7.185   1.887   3.600
 7078TIP3    H221192   7.319   1.955   3.578
 7079TIP3   OH221193   5.425   6.717   1.209
 7079TIP3    H121194   5.510   6.677   1.189
 7079TIP3    H221195   5.395   6.671   1.288
 7080TIP3   OH221196   4.783   1.153   0.067
 7080TIP3    H121197   4.869   1.112   0.079
 7080TIP3    H221198   4.751   1.166   0.157
 7081TIP3   OH221199   8.159   3.979   6.277
 7081TIP3    H121200   8.135   3.933   6.196
 7081TIP3    H221201   8.086   3.962   6.337
 7082TIP3   OH221202   5.250   1.917   0.261
 7082TIP3    H121203   5.335   1.893   0.297
 7082TIP3    H221204   5.238   2.008   0.288
 7083TIP3   OH221205   6.428   0.077   2.395
 7083TIP3    H121206   6.413   0.119   2.480
 7083TIP3    H221207   6.479   0.000   2.415
 7084TIP3   OH221208   6.467   5.935   6.729
 7084TIP3    H121209   6.467   5.989   6.650
 7084TIP3    H221210   6.398   5.870   6.713
 7085TIP3   OH221211   3.882   5.946   6.463
 7085TIP3    H121212   3.903   5.859   6.428
 7085TIP3    H221213   3.788   5.955   6.449
 7086TIP3   OH221214   1.632   6.859   1.280
 7086TIP3    H121215   1.713   6.854   1.330
 7086TIP3    H221216   1.607   6.768   1.265
 7087TIP3   OH221217   1.353   4.295   5.272
 7087TIP3    H121218   1.328   4.256   5.356
 7087TIP3    H221219   1.391   4.222   5.222
 7088TIP3   OH221220   4.867   3.696   0.899
 7088TIP3    H121221   4.914   3.650   0.829
 7088TIP3    H221222   4.777   3.703   0.867
 7089TIP3   OH221223   8.253   1.222   6.090
 7089TIP3    H121224   8.164   1.191   6.077
 7089TIP3    H221225   8.306   1.174   6.027
 7090TIP3   OH221226   0.678   7.118   1.454
 7090TIP3    H121227   0.639   7.130   1.540
 7090TIP3    H221228   0.688   7.024   1.444
 7091TIP3   OH221229   2.018   6.802   6.334
 7091TIP3    H121230   1.986   6.851   6.258
 7091TIP3    H221231   1.946   6.743   6.355
 7092TIP3   OH221232   8.147   5.995   4.558
 7092TIP3    H121233   8.091   5.955   4.492
 7092TIP3    H221234   8.111   5.964   4.642
 7093TIP3   OH221235   5.303   5.940   2.426
 7093TIP3    H121236   5.322   5.858   2.471
 7093TIP3    H221237   5.217   5.927   2.386
 7094TIP3   OH221238   0.418   1.158   2.987
 7094TIP3    H121239   0.464   1.152   3.071
 7094TIP3    H221240   0.453   1.086   2.935
 7095TIP3   OH221241   0.691   3.892   3.377
 7095TIP3    H121242   0.716   3.854   3.293
 7095TIP3    H221243   0.646   3.973   3.354
 7096TIP3   OH221244   3.891   0.810   5.243
 7096TIP3    H121245   3.933   0.765   5.170
 7096TIP3    H221246   3.910   0.755   5.319
 7097TIP3   OH221247   1.481   1.020   6.170
 7097TIP3    H121248   1.438   1.061   6.095
 7097TIP3    H221249   1.574   1.036   6.156
 7098TIP3   OH221250   5.189   7.158   2.672
 7098TIP3    H121251   5.188   7.251   2.652
 7098TIP3    H221252   5.110   7.123   2.630
 7099TIP3   OH221253   6.831   5.588   3.056
 7099TIP3    H121254   6.764   5.545   3.004
 7099TIP3    H221255   6.910   5.583   3.002
 7100TIP3   OH221256   5.644   3.733   1.947
 7100TIP3    H121257   5.737   3.750   1.934
 7100TIP3    H221258   5.633   3.727   2.042
 7101TIP3   OH221259   4.371   7.830   1.421
 7101TIP3    H121260   4.425   7.796   1.493
 7101TIP3    H221261   4.429   7.828   1.345
 7102TIP3   OH221262   1.313   3.735   1.460
 7102TIP3    H121263   1.388   3.762   1.408
 7102TIP3    H221264   1.349   3.717   1.547
 7103TIP3   OH221265   7.521   1.745   0.448
 7103TIP3    H121266   7.529   1.678   0.517
 7103TIP3    H221267   7.476   1.700   0.377
 7104TIP3   OH221268   0.448   2.097   5.871
 7104TIP3    H121269   0.533   2.102   5.916
 7104TIP3    H221270   0.430   2.187   5.844
 7105TIP3   OH221271   3.444   5.445   1.340
 7105TIP3    H121272   3.528   5.437   1.386
 7105TIP3    H221273   3.382   5.398   1.395
 7106TIP3   OH221274   3.366   4.605   1.746
 7106TIP3    H121275   3.344   4.619   1.654
 7106TIP3    H221276   3.453   4.565   1.745
 7107TIP3   OH221277   6.870   2.439   1.711
 7107TIP3    H121278   6.865   2.379   1.786
 7107TIP3    H221279   6.910   2.518   1.747
 7108TIP3   OH221280   3.276   1.406   3.319
 7108TIP3    H121281   3.275   1.501   3.329
 7108TIP3    H221282   3.243   1.391   3.231
 7109TIP3   OH221283   0.986   2.062   2.384
 7109TIP3    H121284   1.015   2.078   2.294
 7109TIP3    H221285   0.928   1.986   2.377
 7110TIP3   OH221286   1.324   0.940   1.594
 7110TIP3    H121287   1.395   0.999   1.616
 7110TIP3    H221288   1.365   0.854   1.586
 7111TIP3   OH221289   1.425   1.389   0.422
 7111TIP3    H121290   1.504   1.376   0.475
 7111TIP3    H221291   1.430   1.481   0.395
 7112TIP3   OH221292   2.217   6.081   4.864
 7112TIP3    H121293   2.144   6.045   4.915
 7112TIP3    H221294   2.221   6.173   4.889
 7113TIP3   OH221295   1.131   2.508   3.181
 7113TIP3    H121296   1.206   2.537   3.130
 7113TIP3    H221297   1.132   2.412   3.174
 7114TIP3   OH221298   3.110   0.059   4.876
 7114TIP3    H121299   3.157   0.047   4.793
 7114TIP3    H221300   3.149  -0.005   4.936
 7115TIP3   OH221301   6.973   3.034   2.933
 7115TIP3    H121302   7.061   3.051   2.966
 7115TIP3    H221303   6.978   3.053   2.840
 7116TIP3   OH221304   1.833   3.713   6.009
 7116TIP3    H121305   1.800   3.632   6.048
 7116TIP3    H221306   1.915   3.731   6.055
 7117TIP3   OH221307   3.598   2.196   6.209
 7117TIP3    H121308   3.653   2.274   6.219
 7117TIP3    H221309   3.659   2.124   6.199
 7118TIP3   OH221310   0.551   4.402   6.156
 7118TIP3    H121311   0.472   4.349   6.152
 7118TIP3    H221312   0.536   4.462   6.229
 7119TIP3   OH221313   2.525   4.640   2.890
 7119TIP3    H121314   2.469   4.669   2.962
 7119TIP3    H221315   2.613   4.637   2.927
 7120TIP3   OH221316   1.842   3.512   3.630
 7120TIP3    H121317   1.849   3.555   3.715
 7120TIP3    H221318   1.774   3.446   3.642
 7121TIP3   OH221319   7.763   6.568   5.388
 7121TIP3    H121320   7.702   6.533   5.453
 7121TIP3    H221321   7.827   6.498   5.376
 7122TIP3   OH221322   5.341   6.161   1.902
 7122TIP3    H121323   5.304   6.079   1.870
 7122TIP3    H221324   5.368   6.142   1.992
 7123TIP3   OH221325   4.373   1.052   5.388
 7123TIP3    H121326   4.448   1.064   5.330
 7123TIP3    H221327   4.302   1.025   5.331
 7124TIP3   OH221328   6.957   0.152   0.680
 7124TIP3    H121329   6.945   0.115   0.767
 7124TIP3    H221330   6.958   0.076   0.621
 7125TIP3   OH221331   8.051   7.621   6.585
 7125TIP3    H121332   8.132   7.607   6.537
 7125TIP3    H221333   8.047   7.716   6.598
 7126TIP3   OH221334   6.488   2.558   5.109
 7126TIP3    H121335   6.529   2.476   5.135
 7126TIP3    H221336   6.558   2.623   5.117
 7127TIP3   OH221337   5.887   7.681   0.535
 7127TIP3    H121338   5.970   7.634   0.531
 7127TIP3    H221339   5.872   7.711   0.445
 7128TIP3   OH221340   7.084   2.887   2.429
 7128TIP3    H121341   7.130   2.908   2.510
 7128TIP3    H221342   7.096   2.793   2.418
 7129TIP3   OH221343   6.419   5.287   1.401
 7129TIP3    H121344   6.489   5.333   1.355
 7129TIP3    H221345   6.341   5.340   1.385
 7130TIP3   OH221346   0.823   6.663   4.611
 7130TIP3    H121347   0.730   6.686   4.608
 7130TIP3    H221348   0.826   6.569   4.597
 7131TIP3   OH221349   5.680   0.035   2.539
 7131TIP3    H121350   5.745   0.063   2.603
 7131TIP3    H221351   5.729  -0.018   2.476
 7132TIP3   OH221352   7.665   1.409   5.198
 7132TIP3    H121353   7.696   1.492   5.235
 7132TIP3    H221354   7.736   1.347   5.215
 7133TIP3   OH221355   2.816   7.381   6.018
 7133TIP3    H121356   2.851   7.465   6.049
 7133TIP3    H221357   2.849   7.372   5.929
 7134TIP3   OH221358   3.855   4.715   5.357
 7134TIP3    H121359   3.937   4.711   5.307
 7134TIP3    H221360   3.878   4.762   5.437
 7135TIP3   OH221361   4.621   2.485   2.855
 7135TIP3    H121362   4.627   2.403   2.807
 7135TIP3    H221363   4.625   2.553   2.787
 7136TIP3   OH221364   4.935   0.472   4.438
 7136TIP3    H121365   4.870   0.416   4.480
 7136TIP3    H221366   4.898   0.492   4.352
 7137TIP3   OH221367   3.818   1.191   5.679
 7137TIP3    H121368   3.834   1.140   5.759
 7137TIP3    H221369   3.882   1.158   5.616
 7138TIP3   OH221370   3.919   4.381   0.675
 7138TIP3    H121371   3.959   4.466   0.695
 7138TIP3    H221372   3.869   4.360   0.754
 7139TIP3   OH221373   2.236   2.383   4.417
 7139TIP3    H121374   2.184   2.369   4.496
 7139TIP3    H221375   2.209   2.313   4.358
 7140TIP3   OH221376   6.958   1.501   5.215
 7140TIP3    H121377   7.037   1.555   5.211
 7140TIP3    H221378   6.950   1.478   5.308
 7141TIP3   OH221379   6.760   2.252   1.482
 7141TIP3    H121380   6.726   2.315   1.418
 7141TIP3    H221381   6.776   2.304   1.561
 7142TIP3   OH221382   3.821   1.903   5.855
 7142TIP3    H121383   3.797   1.849   5.780
 7142TIP3    H221384   3.910   1.876   5.877
 7143TIP3   OH221385   2.437   0.178   5.982
 7143TIP3    H121386   2.372   0.144   5.920
 7143TIP3    H221387   2.391   0.249   6.028
 7144TIP3   OH221388   1.074   5.006   3.192
 7144TIP3    H121389   1.062   5.056   3.273
 7144TIP3    H221390   1.086   4.915   3.222
 7145TIP3   OH221391   4.741   6.006   1.547
 7145TIP3    H121392   4.748   5.943   1.476
 7145TIP3    H221393   4.647   6.025   1.553
 7146TIP3   OH221394   0.297   6.165   0.609
 7146TIP3    H121395   0.339   6.080   0.621
 7146TIP3    H221396   0.224   6.164   0.671
 7147TIP3   OH221397   5.777   2.212   1.246
 7147TIP3    H121398   5.720   2.182   1.316
 7147TIP3    H221399   5.744   2.168   1.168
 7148TIP3   OH221400   5.887   5.227   6.070
 7148TIP3    H121401   5.837   5.307   6.052
 7148TIP3    H221402   5.968   5.258   6.110
 7149TIP3   OH221403   2.836   6.798   5.606
 7149TIP3    H121404   2.747   6.817   5.577
 7149TIP3    H221405   2.892   6.840   5.541
 7150TIP3   OH221406   7.140   2.364   0.936
 7150TIP3    H121407   7.071   2.378   0.871
 7150TIP3    H221408   7.102   2.300   0.997
 7151TIP3   OH221409   5.205   1.526   2.060
 7151TIP3    H121410   5.206   1.589   2.131
 7151TIP3    H221411   5.118   1.534   2.021
 7152TIP3   OH221412   6.776   6.910   4.863
 7152TIP3    H121413   6.706   6.846   4.868
 7152TIP3    H221414   6.789   6.940   4.953
 7153TIP3   OH221415   7.732   7.001   6.759
 7153TIP3    H121416   7.677   7.066   6.714
 7153TIP3    H221417   7.719   6.920   6.709
 7154TIP3   OH221418   6.667   4.260   5.950
 7154TIP3    H121419   6.750   4.301   5.928
 7154TIP3    H221420   6.628   4.318   6.016
 7155TIP3   OH221421   1.397   5.872   1.578
 7155TIP3    H121422   1.421   5.922   1.500
 7155TIP3    H221423   1.446   5.790   1.570
 7156TIP3   OH221424   7.094   4.204   3.299
 7156TIP3    H121425   7.023   4.156   3.341
 7156TIP3    H221426   7.051   4.280   3.259
 7157TIP3   OH221427   7.049   0.523   5.201
 7157TIP3    H121428   7.000   0.465   5.143
 7157TIP3    H221429   6.994   0.530   5.280
 7158TIP3   OH221430   4.618   0.784   4.137
 7158TIP3    H121431   4.541   0.732   4.162
 7158TIP3    H221432   4.630   0.765   4.044
 7159TIP3   OH221433   2.256   6.076   0.436
 7159TIP3    H121434   2.321   6.124   0.487
 7159TIP3    H221435   2.301   6.053   0.355
 7160TIP3   OH221436   5.666   1.815   1.092
 7160TIP3    H121437   5.657   1.780   1.180
 7160TIP3    H221438   5.703   1.743   1.041
 7161TIP3   OH221439   1.231   3.542   5.351
 7161TIP3    H121440   1.137   3.548   5.370
 7161TIP3    H221441   1.273   3.569   5.433
 7162TIP3   OH221442   7.840   3.137   4.441
 7162TIP3    H121443   7.754   3.178   4.455
 7162TIP3    H221444   7.852   3.140   4.346
 7163TIP3   OH221445   3.341   4.191   4.054
 7163TIP3    H121446   3.265   4.249   4.059
 7163TIP3    H221447   3.305   4.106   4.031
 7164TIP3   OH221448   6.048   2.240   1.153
 7164TIP3    H121449   6.017   2.206   1.069
 7164TIP3    H221450   5.974   2.228   1.213
 7165TIP3   OH221451   6.252   1.468   3.758
 7165TIP3    H121452   6.210   1.537   3.809
 7165TIP3    H221453   6.340   1.461   3.795
 7166TIP3   OH221454   3.885   6.497   6.488
 7166TIP3    H121455   3.807   6.499   6.544
 7166TIP3    H221456   3.850   6.485   6.400
 7167TIP3   OH221457   8.183   5.307   3.203
 7167TIP3    H121458   8.224   5.298   3.117
 7167TIP3    H221459   8.149   5.396   3.205
 7168TIP3   OH221460   7.475   6.427   4.380
 7168TIP3    H121461   7.414   6.398   4.448
 7168TIP3    H221462   7.492   6.348   4.329
 7169TIP3   OH221463   0.305   7.199   3.160
 7169TIP3    H121464   0.299   7.129   3.226
 7169TIP3    H221465   0.216   7.234   3.155
 7170TIP3   OH221466   4.075   3.924   0.518
 7170TIP3    H121467   4.077   4.019   0.510
 7170TIP3    H221468   4.021   3.895   0.444
 7171TIP3   OH221469   3.797   3.284   5.484
 7171TIP3    H121470   3.825   3.210   5.538
 7171TIP3    H221471   3.764   3.244   5.403
 7172TIP3   OH221472   0.974   2.152   6.058
 7172TIP3    H121473   1.036   2.212   6.017
 7172TIP3    H221474   1.011   2.134   6.144
 7173TIP3   OH221475   6.391   0.502   1.879
 7173TIP3    H121476   6.328   0.562   1.839
 7173TIP3    H221477   6.475   0.526   1.839
 7174TIP3   OH221478   0.595   0.542   5.599
 7174TIP3    H121479   0.500   0.556   5.592
 7174TIP3    H221480   0.634   0.627   5.577
 7175TIP3   OH221481   5.745   5.922   6.019
 7175TIP3    H121482   5.739   5.999   6.076
 7175TIP3    H221483   5.823   5.938   5.966
 7176TIP3   OH221484   4.629   7.163   2.550
 7176TIP3    H121485   4.616   7.218   2.627
 7176TIP3    H221486   4.541   7.145   2.518
 7177TIP3   OH221487   5.633   6.136   2.202
 7177TIP3    H121488   5.643   6.216   2.150
 7177TIP3    H221489   5.718   6.093   2.198
 7178TIP3   OH221490   1.934   2.316   0.640
 7178TIP3    H121491   2.007   2.322   0.579
 7178TIP3    H221492   1.932   2.400   0.685
 7179TIP3   OH221493   2.773   6.049   6.161
 7179TIP3    H121494   2.693   6.101   6.154
 7179TIP3    H221495   2.748   5.976   6.218
 7180TIP3   OH221496   2.087   5.979   1.394
 7180TIP3    H121497   2.073   6.011   1.305
 7180TIP3    H221498   2.182   5.973   1.402
 7181TIP3   OH221499   7.087   3.970   6.370
 7181TIP3    H121500   7.150   3.990   6.439
 7181TIP3    H221501   7.005   3.951   6.416
 7182TIP3   OH221502   3.416   1.881   1.389
 7182TIP3    H121503   3.480   1.913   1.452
 7182TIP3    H221504   3.399   1.790   1.416
 7183TIP3   OH221505   4.190   5.638   4.770
 7183TIP3    H121506   4.159   5.633   4.679
 7183TIP3    H221507   4.215   5.730   4.781
 7184TIP3   OH221508   2.463   0.433   4.823
 7184TIP3    H121509   2.445   0.373   4.751
 7184TIP3    H221510   2.559   0.441   4.825
 7185TIP3   OH221511   1.283   2.698   6.464
 7185TIP3    H121512   1.311   2.615   6.502
 7185TIP3    H221513   1.191   2.707   6.488
 7186TIP3   OH221514   5.955   5.059   1.591
 7186TIP3    H121515   5.894   5.132   1.587
 7186TIP3    H221516   5.900   4.981   1.594
 7187TIP3   OH221517   1.237   6.967   2.324
 7187TIP3    H121518   1.233   6.886   2.274
 7187TIP3    H221519   1.253   7.035   2.259
 7188TIP3   OH221520   4.820   7.448   2.303
 7188TIP3    H121521   4.791   7.441   2.212
 7188TIP3    H221522   4.916   7.452   2.297
 7189TIP3   OH221523   5.636   5.734   4.613
 7189TIP3    H121524   5.717   5.739   4.663
 7189TIP3    H221525   5.584   5.807   4.645
 7190TIP3   OH221526   0.132   6.178   6.617
 7190TIP3    H121527   0.151   6.165   6.524
 7190TIP3    H221528   0.146   6.091   6.656
 7191TIP3   OH221529   3.022   2.488   4.781
 7191TIP3    H121530   2.980   2.479   4.696
 7191TIP3    H221531   3.062   2.575   4.780
 7192TIP3   OH221532   4.042   4.691   0.108
 7192TIP3    H121533   4.014   4.615   0.160
 7192TIP3    H221534   4.109   4.733   0.162
 7193TIP3   OH221535   4.467   7.345   3.654
 7193TIP3    H121536   4.392   7.288   3.641
 7193TIP3    H221537   4.506   7.317   3.737
 7194TIP3   OH221538   5.238   5.077   5.638
 7194TIP3    H121539   5.227   5.127   5.719
 7194TIP3    H221540   5.163   5.019   5.634
 7195TIP3   OH221541   7.545   4.090   5.871
 7195TIP3    H121542   7.519   4.123   5.785
 7195TIP3    H221543   7.482   4.021   5.890
 7196TIP3   OH221544   0.731   2.419   3.853
 7196TIP3    H121545   0.823   2.445   3.850
 7196TIP3    H221546   0.733   2.323   3.860
 7197TIP3   OH221547   3.504   3.005   3.761
 7197TIP3    H121548   3.450   2.983   3.837
 7197TIP3    H221549   3.451   3.065   3.710
 7198TIP3   OH221550   5.251   0.637   1.907
 7198TIP3    H121551   5.288   0.701   1.847
 7198TIP3    H221552   5.282   0.664   1.993
 7199TIP3   OH221553   6.415   6.866   1.295
 7199TIP3    H121554   6.479   6.922   1.339
 7199TIP3    H221555   6.388   6.803   1.361
 7200TIP3   OH221556   4.901   1.200   1.090
 7200TIP3    H121557   4.885   1.196   1.185
 7200TIP3    H221558   4.879   1.113   1.058
 7201TIP3   OH221559   1.984   6.836   2.821
 7201TIP3    H121560   2.015   6.785   2.747
 7201TIP3    H221561   1.957   6.920   2.783
 7202TIP3   OH221562   4.977   7.448   4.947
 7202TIP3    H121563   4.926   7.404   5.014
 7202TIP3    H221564   4.912   7.486   4.888
 7203TIP3   OH221565   3.730   7.588   3.532
 7203TIP3    H121566   3.775   7.520   3.483
 7203TIP3    H221567   3.764   7.670   3.495
 7204TIP3   OH221568   8.078   1.193   3.641
 7204TIP3    H121569   8.006   1.214   3.582
 7204TIP3    H221570   8.067   1.254   3.715
 7205TIP3   OH221571   2.559   6.431   2.967
 7205TIP3    H121572   2.557   6.369   2.893
 7205TIP3    H221573   2.571   6.376   3.044
 7206TIP3   OH221574   3.695   7.288   0.999
 7206TIP3    H121575   3.660   7.282   1.088
 7206TIP3    H221576   3.720   7.380   0.990
 7207TIP3   OH221577   7.866   6.840   5.297
 7207TIP3    H121578   7.772   6.848   5.280
 7207TIP3    H221579   7.874   6.766   5.357
 7208TIP3   OH221580   1.684   3.192   1.214
 7208TIP3    H121581   1.747   3.263   1.224
 7208TIP3    H221582   1.647   3.180   1.301
 7209TIP3   OH221583   4.463   6.102   2.556
 7209TIP3    H121584   4.439   6.013   2.530
 7209TIP3    H221585   4.552   6.114   2.522
 7210TIP3   OH221586   0.291   1.935   6.597
 7210TIP3    H121587   0.265   1.919   6.687
 7210TIP3    H221588   0.282   1.850   6.554
 7211TIP3   OH221589   0.048   6.447   6.738
 7211TIP3    H121590   0.096   6.374   6.698
 7211TIP3    H221591   0.077   6.448   6.829
 7212TIP3   OH221592   5.902   4.332   3.471
 7212TIP3    H121593   5.968   4.302   3.534
 7212TIP3    H221594   5.931   4.419   3.445
 7213TIP3   OH221595   6.301   7.425   0.907
 7213TIP3    H121596   6.225   7.405   0.852
 7213TIP3    H221597   6.339   7.339   0.927
 7214TIP3   OH221598   1.115   3.692   3.716
 7214TIP3    H121599   1.169   3.770   3.698
 7214TIP3    H221600   1.122   3.640   3.636
 7215TIP3   OH221601   5.303   1.697   6.219
 7215TIP3    H121602   5.338   1.687   6.307
 7215TIP3    H221603   5.360   1.761   6.177
 7216TIP3   OH221604   2.498   0.701   0.833
 7216TIP3    H121605   2.567   0.679   0.895
 7216TIP3    H221606   2.526   0.660   0.751
 7217TIP3   OH221607   2.386   2.695   1.719
 7217TIP3    H121608   2.297   2.729   1.728
 7217TIP3    H221609   2.376   2.601   1.708
 7218TIP3   OH221610   5.914   5.594   4.527
 7218TIP3    H121611   5.879   5.662   4.468
 7218TIP3    H221612   5.937   5.522   4.469
 7219TIP3   OH221613   5.000   2.770   3.978
 7219TIP3    H121614   4.980   2.717   3.901
 7219TIP3    H221615   4.936   2.743   4.043
 7220TIP3   OH221616   2.680   0.087   1.562
 7220TIP3    H121617   2.721   0.129   1.486
 7220TIP3    H221618   2.685   0.153   1.631
 7221TIP3   OH221619   1.255   2.230   5.098
 7221TIP3    H121620   1.185   2.282   5.059
 7221TIP3    H221621   1.336   2.269   5.066
 7222TIP3   OH221622   1.412   5.207   4.373
 7222TIP3    H121623   1.352   5.146   4.330
 7222TIP3    H221624   1.367   5.234   4.452
 7223TIP3   OH221625   6.803   3.191   0.076
 7223TIP3    H121626   6.797   3.227  -0.012
 7223TIP3    H221627   6.834   3.102   0.064
 7224TIP3   OH221628   4.793   7.436   4.705
 7224TIP3    H121629   4.827   7.350   4.679
 7224TIP3    H221630   4.795   7.488   4.625
 7225TIP3   OH221631   0.475   1.637   5.422
 7225TIP3    H121632   0.444   1.547   5.407
 7225TIP3    H221633   0.401   1.692   5.394
 7226TIP3   OH221634   3.619   7.537   4.074
 7226TIP3    H121635   3.614   7.505   3.984
 7226TIP3    H221636   3.531   7.523   4.110
 7227TIP3   OH221637   0.619   4.785   2.806
 7227TIP3    H121638   0.530   4.761   2.780
 7227TIP3    H221639   0.616   4.880   2.818
 7228TIP3   OH221640   4.407   6.058   3.608
 7228TIP3    H121641   4.420   5.975   3.654
 7228TIP3    H221642   4.446   6.044   3.522
 7229TIP3   OH221643   7.684   5.702   5.533
 7229TIP3    H121644   7.777   5.693   5.513
 7229TIP3    H221645   7.681   5.713   5.628
 7230TIP3   OH221646   5.253   3.725   5.789
 7230TIP3    H121647   5.218   3.760   5.871
 7230TIP3    H221648   5.229   3.632   5.790
 7231TIP3   OH221649   2.153   5.635   2.607
 7231TIP3    H121650   2.141   5.658   2.699
 7231TIP3    H221651   2.216   5.564   2.608
 7232TIP3   OH221652   4.751   3.243   6.448
 7232TIP3    H121653   4.675   3.206   6.404
 7232TIP3    H221654   4.782   3.174   6.507
 7233TIP3   OH221655   4.961   1.448   3.280
 7233TIP3    H121656   4.909   1.374   3.248
 7233TIP3    H221657   5.016   1.411   3.349
 7234TIP3   OH221658   6.851   7.058   1.726
 7234TIP3    H121659   6.937   7.066   1.766
 7234TIP3    H221660   6.813   6.980   1.765
 7235TIP3   OH221661   5.034   3.248   4.322
 7235TIP3    H121662   5.095   3.191   4.277
 7235TIP3    H221663   4.960   3.257   4.263
 7236TIP3   OH221664   1.266   1.555   1.716
 7236TIP3    H121665   1.181   1.518   1.695
 7236TIP3    H221666   1.265   1.564   1.811
 7237TIP3   OH221667   6.741   0.975   6.121
 7237TIP3    H121668   6.816   0.918   6.138
 7237TIP3    H221669   6.779   1.062   6.110
 7238TIP3   OH221670   1.083   2.713   3.663
 7238TIP3    H121671   0.997   2.685   3.695
 7238TIP3    H221672   1.094   2.666   3.580
 7239TIP3   OH221673   2.782   2.864   2.210
 7239TIP3    H121674   2.739   2.807   2.275
 7239TIP3    H221675   2.875   2.852   2.225
 7240TIP3   OH221676   3.005   2.890   5.214
 7240TIP3    H121677   2.918   2.854   5.198
 7240TIP3    H221678   3.063   2.815   5.212
 7241TIP3   OH221679   4.224   2.409   6.357
 7241TIP3    H121680   4.169   2.336   6.330
 7241TIP3    H221681   4.188   2.435   6.443
 7242TIP3   OH221682   5.158   4.050   1.564
 7242TIP3    H121683   5.067   4.022   1.553
 7242TIP3    H221684   5.198   4.034   1.478
 7243TIP3   OH221685   5.165   6.083   0.572
 7243TIP3    H121686   5.157   6.134   0.491
 7243TIP3    H221687   5.093   6.113   0.627
 7244TIP3   OH221688   0.142   4.160   3.548
 7244TIP3    H121689   0.206   4.091   3.530
 7244TIP3    H221690   0.059   4.124   3.517
 7245TIP3   OH221691   5.914   4.882   1.339
 7245TIP3    H121692   6.010   4.873   1.344
 7245TIP3    H221693   5.893   4.865   1.248
 7246TIP3   OH221694   4.201   4.392   2.863
 7246TIP3    H121695   4.284   4.420   2.901
 7246TIP3    H221696   4.203   4.297   2.868
 7247TIP3   OH221697   3.549   7.059   2.987
 7247TIP3    H121698   3.524   6.984   2.933
 7247TIP3    H221699   3.471   7.076   3.041
 7248TIP3   OH221700   7.932   3.420   4.522
 7248TIP3    H121701   7.907   3.327   4.517
 7248TIP3    H221702   8.021   3.419   4.558
 7249TIP3   OH221703   5.684   5.037   5.616
 7249TIP3    H121704   5.752   5.009   5.554
 7249TIP3    H221705   5.733   5.060   5.695
 7250TIP3   OH221706   4.468   6.795   1.206
 7250TIP3    H121707   4.471   6.888   1.182
 7250TIP3    H221708   4.556   6.777   1.239
 7251TIP3   OH221709   7.496   0.457   0.714
 7251TIP3    H121710   7.518   0.425   0.627
 7251TIP3    H221711   7.407   0.427   0.729
 7252TIP3   OH221712   2.603   2.242   0.152
 7252TIP3    H121713   2.687   2.278   0.123
 7252TIP3    H221714   2.604   2.151   0.121
 7253TIP3   OH221715   3.864   3.953   3.202
 7253TIP3    H121716   3.812   4.029   3.174
 7253TIP3    H221717   3.867   3.960   3.297
 7254TIP3   OH221718   3.689   6.812   5.603
 7254TIP3    H121719   3.667   6.778   5.690
 7254TIP3    H221720   3.771   6.768   5.581
 7255TIP3   OH221721   4.259   1.075   6.057
 7255TIP3    H121722   4.214   0.992   6.075
 7255TIP3    H221723   4.288   1.067   5.966
 7256TIP3   OH221724   3.484   4.618   6.682
 7256TIP3    H121725   3.527   4.704   6.680
 7256TIP3    H221726   3.464   4.599   6.590
 7257TIP3   OH221727   4.225   5.468   6.259
 7257TIP3    H121728   4.300   5.525   6.276
 7257TIP3    H221729   4.201   5.433   6.344
 7258TIP3   OH221730   4.868   0.421   3.271
 7258TIP3    H121731   4.818   0.343   3.247
 7258TIP3    H221732   4.802   0.491   3.276
 7259TIP3   OH221733   0.222   1.459   1.040
 7259TIP3    H121734   0.203   1.553   1.049
 7259TIP3    H221735   0.241   1.447   0.947
 7260TIP3   OH221736   6.669   3.556   2.633
 7260TIP3    H121737   6.626   3.585   2.713
 7260TIP3    H221738   6.701   3.468   2.654
 7261TIP3   OH221739   2.240   3.988   5.415
 7261TIP3    H121740   2.249   3.977   5.510
 7261TIP3    H221741   2.310   4.049   5.391
 7262TIP3   OH221742   3.580   7.033   6.667
 7262TIP3    H121743   3.527   7.110   6.688
 7262TIP3    H221744   3.606   7.046   6.576
 7263TIP3   OH221745   0.162   5.754   2.207
 7263TIP3    H121746   0.154   5.827   2.268
 7263TIP3    H221747   0.135   5.790   2.123
 7264TIP3   OH221748   1.220   2.312   2.737
 7264TIP3    H121749   1.195   2.331   2.647
 7264TIP3    H221750   1.305   2.268   2.729
 7265TIP3   OH221751   1.245   6.048   5.907
 7265TIP3    H121752   1.321   6.099   5.936
 7265TIP3    H221753   1.191   6.110   5.860
 7266TIP3   OH221754   4.705   3.983   0.593
 7266TIP3    H121755   4.671   4.038   0.522
 7266TIP3    H221756   4.629   3.931   0.621
 7267TIP3   OH221757   3.985   1.937   2.143
 7267TIP3    H121758   4.030   1.918   2.061
 7267TIP3    H221759   3.893   1.949   2.118
 7268TIP3   OH221760   8.140   2.776   2.911
 7268TIP3    H121761   8.076   2.820   2.967
 7268TIP3    H221762   8.167   2.699   2.961
 7269TIP3   OH221763   7.700   2.494   5.783
 7269TIP3    H121764   7.787   2.457   5.797
 7269TIP3    H221765   7.686   2.489   5.688
 7270TIP3   OH221766   7.433   3.686   4.983
 7270TIP3    H121767   7.396   3.611   4.938
 7270TIP3    H221768   7.525   3.687   4.957
 7271TIP3   OH221769   3.064   1.077   3.163
 7271TIP3    H121770   3.133   1.122   3.113
 7271TIP3    H221771   3.104   1.057   3.247
 7272TIP3   OH221772   1.304   1.928   4.169
 7272TIP3    H121773   1.210   1.943   4.182
 7272TIP3    H221774   1.339   1.918   4.258
 7273TIP3   OH221775   5.613   3.477   4.249
 7273TIP3    H121776   5.572   3.560   4.222
 7273TIP3    H221777   5.648   3.441   4.167
 7274TIP3   OH221778   3.684   6.632   5.274
 7274TIP3    H121779   3.685   6.671   5.361
 7274TIP3    H221780   3.650   6.700   5.217
 7275TIP3   OH221781   1.205   2.330   1.349
 7275TIP3    H121782   1.180   2.333   1.257
 7275TIP3    H221783   1.168   2.410   1.386
 7276TIP3   OH221784   4.164   2.149   4.970
 7276TIP3    H121785   4.110   2.088   5.020
 7276TIP3    H221786   4.251   2.142   5.008
 7277TIP3   OH221787   4.166   1.189   1.314
 7277TIP3    H121788   4.136   1.148   1.234
 7277TIP3    H221789   4.152   1.124   1.383
 7278TIP3   OH221790   6.972   1.056   0.365
 7278TIP3    H121791   6.948   0.981   0.419
 7278TIP3    H221792   6.905   1.122   0.383
 7279TIP3   OH221793   2.026   1.879   5.065
 7279TIP3    H121794   2.045   1.819   5.137
 7279TIP3    H221795   1.967   1.944   5.104
 7280TIP3   OH221796   2.361   2.708   6.148
 7280TIP3    H121797   2.454   2.688   6.148
 7280TIP3    H221798   2.319   2.627   6.175
 7281TIP3   OH221799   4.065   7.201   3.506
 7281TIP3    H121800   4.093   7.190   3.416
 7281TIP3    H221801   3.990   7.261   3.501
 7282TIP3   OH221802   1.626   2.589   1.463
 7282TIP3    H121803   1.594   2.670   1.421
 7282TIP3    H221804   1.716   2.610   1.487
 7283TIP3   OH221805   6.376   5.207   5.988
 7283TIP3    H121806   6.339   5.289   5.954
 7283TIP3    H221807   6.300   5.157   6.017
 7284TIP3   OH221808   7.586   7.254   0.755
 7284TIP3    H121809   7.647   7.195   0.800
 7284TIP3    H221810   7.511   7.260   0.814
 7285TIP3   OH221811   4.103   3.520   4.752
 7285TIP3    H121812   4.197   3.523   4.734
 7285TIP3    H221813   4.063   3.511   4.665
 7286TIP3   OH221814   5.490   2.626   6.744
 7286TIP3    H121815   5.454   2.711   6.720
 7286TIP3    H221816   5.583   2.644   6.761
 7287TIP3   OH221817   3.705   0.154   3.048
 7287TIP3    H121818   3.668   0.067   3.036
 7287TIP3    H221819   3.787   0.138   3.095
 7288TIP3   OH221820   0.706   2.495   0.266
 7288TIP3    H121821   0.756   2.417   0.240
 7288TIP3    H221822   0.632   2.497   0.205
 7289TIP3   OH221823   6.653   5.944   3.025
 7289TIP3    H121824   6.731   5.967   2.975
 7289TIP3    H221825   6.681   5.872   3.081
 7290TIP3   OH221826   3.429   6.505   2.880
 7290TIP3    H121827   3.441   6.416   2.911
 7290TIP3    H221828   3.350   6.535   2.924
 7291TIP3   OH221829   7.947   5.916   4.387
 7291TIP3    H121830   7.860   5.911   4.426
 7291TIP3    H221831   7.953   6.005   4.351
 7292TIP3   OH221832   7.195   7.740   1.152
 7292TIP3    H121833   7.123   7.716   1.210
 7292TIP3    H221834   7.272   7.701   1.192
 7293TIP3   OH221835   5.394   3.821   1.489
 7293TIP3    H121836   5.301   3.804   1.477
 7293TIP3    H221837   5.404   3.832   1.584
 7294TIP3   OH221838   4.264   5.173   0.152
 7294TIP3    H121839   4.280   5.111   0.081
 7294TIP3    H221840   4.179   5.212   0.131
 7295TIP3   OH221841   1.878   6.884   2.393
 7295TIP3    H121842   1.837   6.970   2.403
 7295TIP3    H221843   1.953   6.900   2.335
 7296TIP3   OH221844   6.382   6.448   3.302
 7296TIP3    H121845   6.380   6.444   3.398
 7296TIP3    H221846   6.466   6.410   3.278
 7297TIP3   OH221847   2.210   3.252   4.746
 7297TIP3    H121848   2.185   3.176   4.693
 7297TIP3    H221849   2.292   3.283   4.707
 7298TIP3   OH221850   0.471   0.322   4.274
 7298TIP3    H121851   0.408   0.386   4.306
 7298TIP3    H221852   0.555   0.351   4.308
 7299TIP3   OH221853   1.504   5.208   3.718
 7299TIP3    H121854   1.488   5.254   3.801
 7299TIP3    H221855   1.424   5.223   3.667
 7300TIP3   OH221856   1.731   2.835   6.106
 7300TIP3    H121857   1.776   2.838   6.021
 7300TIP3    H221858   1.756   2.750   6.143
 7301TIP3   OH221859   4.467   6.527   0.007
 7301TIP3    H121860   4.441   6.573  -0.073
 7301TIP3    H221861   4.460   6.592   0.076
 7302TIP3   OH221862   5.811   3.438   5.528
 7302TIP3    H121863   5.902   3.426   5.555
 7302TIP3    H221864   5.760   3.391   5.594
 7303TIP3   OH221865   2.020   4.577   5.806
 7303TIP3    H121866   2.012   4.588   5.711
 7303TIP3    H221867   2.105   4.614   5.828
 7304TIP3   OH221868   7.094   3.772   2.036
 7304TIP3    H121869   7.009   3.744   2.071
 7304TIP3    H221870   7.072   3.844   1.977
 7305TIP3   OH221871   2.641   6.434   1.440
 7305TIP3    H121872   2.702   6.484   1.386
 7305TIP3    H221873   2.603   6.499   1.499
 7306TIP3   OH221874   1.745   5.909   3.105
 7306TIP3    H121875   1.658   5.887   3.070
 7306TIP3    H221876   1.737   5.897   3.199
 7307TIP3   OH221877   5.687   7.127   0.678
 7307TIP3    H121878   5.704   7.063   0.746
 7307TIP3    H221879   5.751   7.107   0.609
 7308TIP3   OH221880   3.101   4.104   5.624
 7308TIP3    H121881   3.032   4.045   5.657
 7308TIP3    H221882   3.105   4.174   5.689
 7309TIP3   OH221883   6.764   6.084   0.196
 7309TIP3    H121884   6.691   6.026   0.219
 7309TIP3    H221885   6.837   6.025   0.180
 7310TIP3   OH221886   2.888   5.555   0.068
 7310TIP3    H121887   2.796   5.537   0.050
 7310TIP3    H221888   2.903   5.641   0.029
 7311TIP3   OH221889   5.554   2.455   1.058
 7311TIP3    H121890   5.650   2.458   1.063
 7311TIP3    H221891   5.526   2.457   1.150
 7312TIP3   OH221892   2.044   1.014   6.251
 7312TIP3    H121893   2.139   1.010   6.246
 7312TIP3    H221894   2.015   0.992   6.162
 7313TIP3   OH221895   1.326   2.953   1.510
 7313TIP3    H121896   1.330   2.913   1.597
 7313TIP3    H221897   1.374   2.892   1.453
 7314TIP3   OH221898   7.503   2.100   0.367
 7314TIP3    H121899   7.527   2.048   0.290
 7314TIP3    H221900   7.587   2.123   0.407
 7315TIP3   OH221901   0.633   2.917   1.788
 7315TIP3    H121902   0.630   2.976   1.712
 7315TIP3    H221903   0.688   2.963   1.852
 7316TIP3   OH221904   0.519   5.478   4.040
 7316TIP3    H121905   0.510   5.572   4.052
 7316TIP3    H221906   0.438   5.441   4.075
 7317TIP3   OH221907   3.057   6.062   6.764
 7317TIP3    H121908   3.029   5.971   6.754
 7317TIP3    H221909   3.016   6.109   6.691
 7318TIP3   OH221910   0.077   1.085   5.341
 7318TIP3    H121911  -0.012   1.120   5.334
 7318TIP3    H221912   0.110   1.084   5.251
 7319TIP3   OH221913   2.039   0.318   3.656
 7319TIP3    H121914   2.007   0.238   3.613
 7319TIP3    H221915   2.129   0.297   3.680
 7320TIP3   OH221916   3.284   5.469   0.461
 7320TIP3    H121917   3.357   5.407   0.451
 7320TIP3    H221918   3.218   5.422   0.511
 7321TIP3   OH221919   5.416   3.025   1.036
 7321TIP3    H121920   5.369   3.108   1.034
 7321TIP3    H221921   5.391   2.982   0.954
 7322TIP3   OH221922   4.988   6.604   0.730
 7322TIP3    H121923   5.025   6.692   0.718
 7322TIP3    H221924   5.055   6.545   0.694
 7323TIP3   OH221925   2.840   2.043   3.789
 7323TIP3    H121926   2.884   2.024   3.871
 7323TIP3    H221927   2.907   2.030   3.722
 7324TIP3   OH221928   7.728   5.918   3.219
 7324TIP3    H121929   7.702   5.853   3.155
 7324TIP3    H221930   7.659   5.916   3.286
 7325TIP3   OH221931   5.719   1.696   4.028
 7325TIP3    H121932   5.779   1.624   4.012
 7325TIP3    H221933   5.773   1.764   4.069
 7326TIP3   OH221934   4.777   1.807   1.026
 7326TIP3    H121935   4.737   1.778   1.108
 7326TIP3    H221936   4.735   1.753   0.959
 7327TIP3   OH221937   0.011   5.285   0.225
 7327TIP3    H121938   0.071   5.226   0.180
 7327TIP3    H221939  -0.076   5.261   0.191
 7328TIP3   OH221940   8.204   5.283   4.055
 7328TIP3    H121941   8.123   5.271   4.005
 7328TIP3    H221942   8.176   5.329   4.134
 7329TIP3   OH221943   4.102   2.753   1.031
 7329TIP3    H121944   4.067   2.732   1.118
 7329TIP3    H221945   4.125   2.846   1.036
 7330TIP3   OH221946   0.245   1.918   5.859
 7330TIP3    H121947   0.258   1.864   5.937
 7330TIP3    H221948   0.318   1.979   5.859
 7331TIP3   OH221949   3.548   0.604   0.542
 7331TIP3    H121950   3.614   0.673   0.542
 7331TIP3    H221951   3.565   0.554   0.622
 7332TIP3   OH221952   6.333   0.247   1.134
 7332TIP3    H121953   6.259   0.303   1.112
 7332TIP3    H221954   6.347   0.262   1.227
 7333TIP3   OH221955   6.841   3.930   2.786
 7333TIP3    H121956   6.870   4.021   2.785
 7333TIP3    H221957   6.746   3.935   2.792
 7334TIP3   OH221958   6.648   7.672   3.347
 7334TIP3    H121959   6.561   7.633   3.337
 7334TIP3    H221960   6.684   7.672   3.258
 7335TIP3   OH221961   5.470   5.467   5.334
 7335TIP3    H121962   5.496   5.381   5.300
 7335TIP3    H221963   5.464   5.455   5.429
 7336TIP3   OH221964   7.053   7.186   1.240
 7336TIP3    H121965   7.140   7.199   1.204
 7336TIP3    H221966   7.069   7.152   1.328
 7337TIP3   OH221967   6.953   0.737   6.502
 7337TIP3    H121968   6.876   0.793   6.514
 7337TIP3    H221969   6.923   0.650   6.526
 7338TIP3   OH221970   5.860   1.794   6.667
 7338TIP3    H121971   5.795   1.736   6.707
 7338TIP3    H221972   5.865   1.870   6.726
 7339TIP3   OH221973   8.011   3.593   4.924
 7339TIP3    H121974   7.963   3.618   4.845
 7339TIP3    H221975   7.981   3.505   4.945
 7340TIP3   OH221976   0.280   4.333   5.739
 7340TIP3    H121977   0.372   4.344   5.766
 7340TIP3    H221978   0.256   4.246   5.770
 7341TIP3   OH221979   0.909   6.611   0.214
 7341TIP3    H121980   0.903   6.577   0.303
 7341TIP3    H221981   1.001   6.637   0.204
 7342TIP3   OH221982   7.501   7.184   2.927
 7342TIP3    H121983   7.471   7.234   3.003
 7342TIP3    H221984   7.557   7.244   2.878
 7343TIP3   OH221985   0.767   0.226   1.264
 7343TIP3    H121986   0.819   0.187   1.194
 7343TIP3    H221987   0.682   0.243   1.223
 7344TIP3   OH221988   3.280   6.975   1.076
 7344TIP3    H121989   3.374   6.968   1.094
 7344TIP3    H221990   3.241   7.002   1.159
 7345TIP3   OH221991   4.439   2.111   6.255
 7345TIP3    H121992   4.454   2.205   6.265
 7345TIP3    H221993   4.513   2.081   6.202
 7346TIP3   OH221994   2.546   0.948   0.492
 7346TIP3    H121995   2.601   0.872   0.514
 7346TIP3    H221996   2.469   0.910   0.449
 7347TIP3   OH221997   2.886   6.117   1.420
 7347TIP3    H121998   2.901   6.059   1.495
 7347TIP3    H221999   2.908   6.063   1.344
 7348TIP3   OH222000   4.716   6.618   6.497
 7348TIP3    H122001   4.675   6.704   6.486
 7348TIP3    H222002   4.746   6.617   6.588
 7349TIP3   OH222003   3.822   5.920   6.074
 7349TIP3    H122004   3.911   5.899   6.104
 7349TIP3    H222005   3.813   5.874   5.991
 7350TIP3   OH222006   2.640   4.667   3.496
 7350TIP3    H122007   2.734   4.681   3.486
 7350TIP3    H222008   2.632   4.591   3.554
 7351TIP3   OH222009   7.521   4.751   1.455
 7351TIP3    H122010   7.435   4.789   1.435
 7351TIP3    H222011   7.536   4.688   1.385
 7352TIP3   OH222012   0.179   5.379   2.444
 7352TIP3    H122013   0.178   5.331   2.526
 7352TIP3    H222014   0.170   5.312   2.376
 7353TIP3   OH222015   4.557   1.286   4.986
 7353TIP3    H122016   4.519   1.289   4.898
 7353TIP3    H222017   4.488   1.249   5.041
 7354TIP3   OH222018   0.316   5.424   1.581
 7354TIP3    H122019   0.349   5.498   1.633
 7354TIP3    H222020   0.269   5.465   1.509
 7355TIP3   OH222021   5.413   0.035   2.607
 7355TIP3    H122022   5.505   0.036   2.580
 7355TIP3    H222023   5.372  -0.026   2.545
 7356TIP3   OH222024   6.798   0.279   4.623
 7356TIP3    H122025   6.784   0.190   4.655
 7356TIP3    H222026   6.741   0.286   4.547
 7357TIP3   OH222027   4.498   1.228   0.459
 7357TIP3    H122028   4.457   1.148   0.492
 7357TIP3    H222029   4.439   1.298   0.486
 7358TIP3   OH222030   2.727   7.382   2.856
 7358TIP3    H122031   2.739   7.472   2.886
 7358TIP3    H222032   2.650   7.351   2.904
 7359TIP3   OH222033   5.483   5.211   0.936
 7359TIP3    H122034   5.452   5.274   0.871
 7359TIP3    H222035   5.550   5.258   0.985
 7360TIP3   OH222036   2.573   2.332   6.441
 7360TIP3    H122037   2.581   2.286   6.524
 7360TIP3    H222038   2.664   2.346   6.412
 7361TIP3   OH222039   3.477   4.544   1.454
 7361TIP3    H122040   3.478   4.456   1.491
 7361TIP3    H222041   3.570   4.570   1.451
 7362TIP3   OH222042   2.844   5.495   5.910
 7362TIP3    H122043   2.787   5.529   5.841
 7362TIP3    H222044   2.836   5.400   5.902
 7363TIP3   OH222045   1.856   6.571   6.421
 7363TIP3    H122046   1.842   6.538   6.509
 7363TIP3    H222047   1.919   6.510   6.382
 7364TIP3   OH222048   2.811   7.455   2.245
 7364TIP3    H122049   2.780   7.374   2.205
 7364TIP3    H222050   2.899   7.433   2.276
 7365TIP3   OH222051   7.280   0.668   3.593
 7365TIP3    H122052   7.342   0.659   3.666
 7365TIP3    H222053   7.312   0.743   3.544
 7366TIP3   OH222054   2.931   3.905   5.707
 7366TIP3    H122055   2.956   3.817   5.679
 7366TIP3    H222056   2.941   3.903   5.803
 7367TIP3   OH222057   3.626   4.292   1.917
 7367TIP3    H122058   3.704   4.236   1.920
 7367TIP3    H222059   3.554   4.234   1.941
 7368TIP3   OH222060   1.266   1.965   5.080
 7368TIP3    H122061   1.274   1.947   5.174
 7368TIP3    H222062   1.254   2.060   5.075
 7369TIP3   OH222063   8.258   5.534   0.343
 7369TIP3    H122064   8.282   5.449   0.306
 7369TIP3    H222065   8.335   5.589   0.330
 7370TIP3   OH222066   6.680   1.880   5.887
 7370TIP3    H122067   6.765   1.900   5.928
 7370TIP3    H222068   6.659   1.959   5.837
 7371TIP3   OH222069   7.057   7.751   3.212
 7371TIP3    H122070   7.116   7.740   3.286
 7371TIP3    H222071   7.002   7.826   3.236
 7372TIP3   OH222072   3.023   4.520   6.594
 7372TIP3    H122073   3.054   4.508   6.504
 7372TIP3    H222074   3.094   4.485   6.648
 7373TIP3   OH222075   7.085   6.839   4.414
 7373TIP3    H122076   6.996   6.872   4.404
 7373TIP3    H222077   7.142   6.913   4.394
 7374TIP3   OH222078   5.748   2.925   1.584
 7374TIP3    H122079   5.794   2.852   1.624
 7374TIP3    H222080   5.668   2.936   1.636
 7375TIP3   OH222081   1.606   5.996  -0.016
 7375TIP3    H122082   1.524   6.008   0.033
 7375TIP3    H222083   1.624   5.903  -0.011
 7376TIP3   OH222084   0.138   0.550   4.906
 7376TIP3    H122085   0.100   0.464   4.889
 7376TIP3    H222086   0.205   0.535   4.972
 7377TIP3   OH222087   1.382   2.496   2.005
 7377TIP3    H122088   1.394   2.527   1.915
 7377TIP3    H222089   1.466   2.454   2.027
 7378TIP3   OH222090   0.814   5.394   5.792
 7378TIP3    H122091   0.851   5.468   5.840
 7378TIP3    H222092   0.888   5.356   5.746
 7379TIP3   OH222093   0.991   4.451   5.437
 7379TIP3    H122094   0.982   4.372   5.490
 7379TIP3    H222095   1.019   4.419   5.351
 7380TIP3   OH222096   6.829   2.939   6.018
 7380TIP3    H122097   6.774   2.911   5.945
 7380TIP3    H222098   6.817   2.872   6.085
 7381TIP3   OH222099   3.381   4.743   0.966
 7381TIP3    H122100   3.325   4.821   0.960
 7381TIP3    H222101   3.454   4.762   0.907
 7382TIP3   OH222102   1.573   7.623   3.870
 7382TIP3    H122103   1.509   7.557   3.845
 7382TIP3    H222104   1.657   7.576   3.872
 7383TIP3   OH222105   0.188   0.034   4.717
 7383TIP3    H122106   0.271   0.050   4.670
 7383TIP3    H222107   0.132  -0.008   4.652
 7384TIP3   OH222108   8.114   4.423   5.921
 7384TIP3    H122109   8.168   4.473   5.982
 7384TIP3    H222110   8.095   4.483   5.849
 7385TIP3   OH222111   5.640   0.179   5.658
 7385TIP3    H122112   5.606   0.244   5.719
 7385TIP3    H222113   5.616   0.211   5.571
 7386TIP3   OH222114   4.542   3.857   3.383
 7386TIP3    H122115   4.467   3.915   3.397
 7386TIP3    H222116   4.572   3.835   3.471
 7387TIP3   OH222117   7.027   5.454   2.218
 7387TIP3    H122118   6.950   5.474   2.164
 7387TIP3    H222119   6.993   5.451   2.308
 7388TIP3   OH222120   1.092   0.145   4.443
 7388TIP3    H122121   1.088   0.231   4.401
 7388TIP3    H222122   1.013   0.100   4.412
 7389TIP3   OH222123   4.233   0.067   1.145
 7389TIP3    H122124   4.225   0.160   1.124
 7389TIP3    H222125   4.214   0.022   1.063
 7390TIP3   OH222126   2.243   3.341   0.704
 7390TIP3    H122127   2.332   3.311   0.724
 7390TIP3    H222128   2.193   3.260   0.692
 7391TIP3   OH222129   5.332   1.463   5.918
 7391TIP3    H122130   5.285   1.456   6.001
 7391TIP3    H222131   5.424   1.471   5.943
 7392TIP3   OH222132   7.607   0.877   0.942
 7392TIP3    H122133   7.617   0.909   1.032
 7392TIP3    H222134   7.614   0.781   0.949
 7393TIP3   OH222135   6.106   7.077   4.883
 7393TIP3    H122136   6.143   6.989   4.868
 7393TIP3    H222137   6.019   7.073   4.845
 7394TIP3   OH222138   2.266   7.746   1.435
 7394TIP3    H122139   2.219   7.809   1.490
 7394TIP3    H222140   2.312   7.799   1.371
 7395TIP3   OH222141   3.179   2.972   2.915
 7395TIP3    H122142   3.136   3.038   2.860
 7395TIP3    H222143   3.148   2.991   3.003
 7396TIP3   OH222144   5.439   2.070   2.082
 7396TIP3    H122145   5.353   2.111   2.091
 7396TIP3    H222146   5.475   2.069   2.170
 7397TIP3   OH222147   7.079   6.681   6.289
 7397TIP3    H122148   7.108   6.604   6.338
 7397TIP3    H222149   7.050   6.646   6.205
 7398TIP3   OH222150   0.491   2.368   5.839
 7398TIP3    H122151   0.466   2.434   5.903
 7398TIP3    H222152   0.586   2.366   5.843
 7399TIP3   OH222153   0.826   2.730   4.665
 7399TIP3    H122154   0.827   2.645   4.621
 7399TIP3    H222155   0.733   2.751   4.674
 7400TIP3   OH222156   0.139   1.741   2.930
 7400TIP3    H122157   0.156   1.649   2.951
 7400TIP3    H222158   0.226   1.778   2.914
 7401TIP3   OH222159   5.418   1.991   6.111
 7401TIP3    H122160   5.324   2.008   6.106
 7401TIP3    H222161   5.444   1.977   6.020
 7402TIP3   OH222162   4.202   4.916   5.773
 7402TIP3    H122163   4.197   4.840   5.832
 7402TIP3    H222164   4.246   4.984   5.824
 7403TIP3   OH222165   1.130  -0.001   3.950
 7403TIP3    H122166   1.090   0.038   3.872
 7403TIP3    H222167   1.173   0.071   3.995
 7404TIP3   OH222168   2.194   1.021   1.359
 7404TIP3    H122169   2.264   1.021   1.424
 7404TIP3    H222170   2.114   1.012   1.410
 7405TIP3   OH222171   1.546   4.969   5.433
 7405TIP3    H122172   1.495   5.047   5.409
 7405TIP3    H222173   1.584   4.990   5.518
 7406TIP3   OH222174   1.187   6.894   0.118
 7406TIP3    H122175   1.121   6.901   0.187
 7406TIP3    H222176   1.202   6.800   0.110
 7407TIP3   OH222177   3.340   2.898   2.602
 7407TIP3    H122178   3.257   2.863   2.633
 7407TIP3    H222179   3.357   2.974   2.658
 7408TIP3   OH222180   7.081   2.819   1.235
 7408TIP3    H122181   7.086   2.757   1.161
 7408TIP3    H222182   7.163   2.805   1.282
 7409TIP3   OH222183   3.887   0.387   1.806
 7409TIP3    H122184   3.800   0.427   1.806
 7409TIP3    H222185   3.905   0.369   1.899
 7410TIP3   OH222186   7.721   6.931   6.446
 7410TIP3    H122187   7.812   6.916   6.424
 7410TIP3    H222188   7.704   7.021   6.418
 7411TIP3   OH222189   0.838   1.509   4.586
 7411TIP3    H122190   0.749   1.473   4.584
 7411TIP3    H222191   0.867   1.507   4.495
 7412TIP3   OH222192   1.868   2.062   5.229
 7412TIP3    H122193   1.780   2.033   5.204
 7412TIP3    H222194   1.858   2.100   5.316
 7413TIP3   OH222195   1.883   5.844   1.234
 7413TIP3    H122196   1.795   5.807   1.224
 7413TIP3    H222197   1.938   5.792   1.174
 7414TIP3   OH222198   7.884   3.985   0.889
 7414TIP3    H122199   7.956   3.948   0.941
 7414TIP3    H222200   7.825   3.911   0.875
 7415TIP3   OH222201   0.592   5.473   3.002
 7415TIP3    H122202   0.507   5.515   3.014
 7415TIP3    H222203   0.583   5.388   3.046
 7416TIP3   OH222204   4.055   2.799   1.533
 7416TIP3    H122205   4.122   2.856   1.496
 7416TIP3    H222206   4.086   2.780   1.622
 7417TIP3   OH222207   6.867   3.426   3.034
 7417TIP3    H122208   6.808   3.500   3.017
 7417TIP3    H222209   6.929   3.459   3.099
 7418TIP3   OH222210   1.119   1.124   1.058
 7418TIP3    H122211   1.180   1.173   1.003
 7418TIP3    H222212   1.168   1.107   1.139
 7419TIP3   OH222213   0.707   1.749   5.540
 7419TIP3    H122214   0.639   1.703   5.490
 7419TIP3    H222215   0.663   1.774   5.622
 7420TIP3   OH222216   7.291   6.577   5.941
 7420TIP3    H122217   7.218   6.630   5.909
 7420TIP3    H222218   7.324   6.531   5.864
 7421TIP3   OH222219   0.594   2.712   0.854
 7421TIP3    H122220   0.670   2.654   0.863
 7421TIP3    H222221   0.532   2.663   0.801
 7422TIP3   OH222222   6.092   7.806   3.577
 7422TIP3    H122223   6.030   7.857   3.526
 7422TIP3    H222224   6.141   7.756   3.511
 7423TIP3   OH222225   3.528   3.090   4.169
 7423TIP3    H122226   3.570   3.160   4.120
 7423TIP3    H222227   3.578   3.011   4.146
 7424TIP3   OH222228   1.094   0.801   1.431
 7424TIP3    H122229   1.120   0.866   1.497
 7424TIP3    H222230   1.042   0.851   1.368
 7425TIP3   OH222231   6.669   7.218   1.598
 7425TIP3    H122232   6.735   7.150   1.602
 7425TIP3    H222233   6.622   7.212   1.681
 7426TIP3   OH222234   6.238   5.554   6.641
 7426TIP3    H122235   6.295   5.494   6.595
 7426TIP3    H222236   6.269   5.553   6.732
 7427TIP3   OH222237   6.973   6.521   1.965
 7427TIP3    H122238   6.919   6.455   2.010
 7427TIP3    H222239   6.954   6.508   1.872
 7428TIP3   OH222240   8.061   7.121   2.128
 7428TIP3    H122241   8.034   7.099   2.039
 7428TIP3    H222242   8.071   7.036   2.171
 7429TIP3   OH222243   4.414   1.658   4.130
 7429TIP3    H122244   4.405   1.608   4.049
 7429TIP3    H222245   4.484   1.721   4.111
 7430TIP3   OH222246   2.018   2.603   3.206
 7430TIP3    H122247   2.036   2.623   3.114
 7430TIP3    H222248   2.026   2.508   3.213
 7431TIP3   OH222249   3.252   1.308   6.486
 7431TIP3    H122250   3.277   1.218   6.467
 7431TIP3    H222251   3.331   1.360   6.467
 7432TIP3   OH222252   5.906   1.762   3.096
 7432TIP3    H122253   5.837   1.795   3.038
 7432TIP3    H222254   5.988   1.781   3.049
 7433TIP3   OH222255   7.478   0.250   1.255
 7433TIP3    H122256   7.502   0.159   1.268
 7433TIP3    H222257   7.551   0.288   1.206
 7434TIP3   OH222258   5.017   6.607   1.145
 7434TIP3    H122259   4.997   6.698   1.123
 7434TIP3    H222260   5.106   6.610   1.182
 7435TIP3   OH222261   6.428   2.316   1.105
 7435TIP3    H122262   6.386   2.287   1.024
 7435TIP3    H222263   6.469   2.238   1.141
 7436TIP3   OH222264   1.769   6.671   2.935
 7436TIP3    H122265   1.689   6.720   2.955
 7436TIP3    H222266   1.820   6.729   2.879
 7437TIP3   OH222267   5.416   6.311   0.134
 7437TIP3    H122268   5.467   6.364   0.072
 7437TIP3    H222269   5.333   6.357   0.141
 7438TIP3   OH222270   1.104   4.035   2.457
 7438TIP3    H122271   1.094   4.056   2.549
 7438TIP3    H222272   1.056   4.104   2.411
 7439TIP3   OH222273   6.096   6.889   6.098
 7439TIP3    H122274   6.009   6.894   6.136
 7439TIP3    H222275   6.089   6.824   6.028
 7440TIP3   OH222276   0.520   0.955   2.112
 7440TIP3    H122277   0.505   0.986   2.023
 7440TIP3    H222278   0.445   0.900   2.132
 7441TIP3   OH222279   0.854   5.390   5.018
 7441TIP3    H122280   0.911   5.464   5.040
 7441TIP3    H222281   0.766   5.421   5.039
 7442TIP3   OH222282   5.871   5.546   2.843
 7442TIP3    H122283   5.963   5.528   2.825
 7442TIP3    H222284   5.825   5.517   2.764
 7443TIP3   OH222285   0.800   3.554   0.915
 7443TIP3    H122286   0.770   3.489   0.978
 7443TIP3    H222287   0.864   3.606   0.963
 7444TIP3   OH222288   2.728   5.099   4.989
 7444TIP3    H122289   2.688   5.184   5.006
 7444TIP3    H222290   2.675   5.061   4.918
 7445TIP3   OH222291   0.547   2.038   1.908
 7445TIP3    H122292   0.595   2.012   1.986
 7445TIP3    H222293   0.588   1.989   1.837
 7446TIP3   OH222294   2.707   3.478   2.533
 7446TIP3    H122295   2.676   3.486   2.442
 7446TIP3    H222296   2.628   3.486   2.586
 7447TIP3   OH222297   0.903   5.806   0.597
 7447TIP3    H122298   0.824   5.845   0.560
 7447TIP3    H222299   0.965   5.801   0.524
 7448TIP3   OH222300   4.421   4.108   1.476
 7448TIP3    H122301   4.427   4.015   1.457
 7448TIP3    H222302   4.445   4.115   1.569
 7449TIP3   OH222303   4.000   7.623   2.644
 7449TIP3    H122304   4.057   7.689   2.683
 7449TIP3    H222305   3.928   7.614   2.706
 7450TIP3   OH222306   2.702   3.729   6.598
 7450TIP3    H122307   2.665   3.717   6.510
 7450TIP3    H222308   2.686   3.645   6.642
 7451TIP3   OH222309   0.931   0.294   1.755
 7451TIP3    H122310   0.847   0.302   1.709
 7451TIP3    H222311   0.972   0.380   1.745
 7452TIP3   OH222312   0.227   2.249   4.505
 7452TIP3    H122313   0.280   2.194   4.562
 7452TIP3    H222314   0.289   2.306   4.460
 7453TIP3   OH222315   3.378   0.808   4.288
 7453TIP3    H122316   3.300   0.755   4.305
 7453TIP3    H222317   3.353   0.863   4.213
 7454TIP3   OH222318   7.046   0.636   3.477
 7454TIP3    H122319   7.115   0.638   3.544
 7454TIP3    H222320   7.066   0.710   3.420
 7455TIP3   OH222321   7.939   7.122   0.159
 7455TIP3    H122322   7.949   7.157   0.248
 7455TIP3    H222323   7.911   7.198   0.107
 7456TIP3   OH222324   4.336   7.092   5.878
 7456TIP3    H122325   4.241   7.082   5.884
 7456TIP3    H222326   4.366   7.011   5.835
 7457TIP3   OH222327   4.297   3.785   3.956
 7457TIP3    H122328   4.331   3.844   4.023
 7457TIP3    H222329   4.356   3.710   3.958
 7458TIP3   OH222330   1.320   4.324   0.828
 7458TIP3    H122331   1.274   4.265   0.768
 7458TIP3    H222332   1.405   4.283   0.841
 7459TIP3   OH222333   1.065   2.164   2.140
 7459TIP3    H122334   1.114   2.246   2.133
 7459TIP3    H222335   1.078   2.121   2.055
 7460TIP3   OH222336   4.550   6.419   5.590
 7460TIP3    H122337   4.475   6.451   5.640
 7460TIP3    H222338   4.624   6.472   5.620
 7461TIP3   OH222339   2.492   7.604   2.795
 7461TIP3    H122340   2.430   7.530   2.795
 7461TIP3    H222341   2.526   7.606   2.706
 7462TIP3   OH222342   0.731   0.754   2.564
 7462TIP3    H122343   0.801   0.768   2.501
 7462TIP3    H222344   0.773   0.709   2.638
 7463TIP3   OH222345   7.418   6.930   0.656
 7463TIP3    H122346   7.383   7.013   0.622
 7463TIP3    H222347   7.513   6.941   0.652
 7464TIP3   OH222348   3.924   1.204   4.453
 7464TIP3    H122349   3.926   1.109   4.467
 7464TIP3    H222350   3.902   1.240   4.539
 7465TIP3   OH222351   2.389   5.394   1.630
 7465TIP3    H122352   2.305   5.438   1.617
 7465TIP3    H222353   2.448   5.462   1.662
 7466TIP3   OH222354   4.749   2.146   1.515
 7466TIP3    H122355   4.756   2.193   1.598
 7466TIP3    H222356   4.677   2.084   1.528
 7467TIP3   OH222357   7.280   4.435   0.511
 7467TIP3    H122358   7.271   4.486   0.591
 7467TIP3    H222359   7.191   4.411   0.487
 7468TIP3   OH222360   3.580   2.949   1.206
 7468TIP3    H122361   3.521   2.981   1.139
 7468TIP3    H222362   3.534   2.876   1.247
 7469TIP3   OH222363   7.061   2.244   4.017
 7469TIP3    H122364   7.107   2.278   3.941
 7469TIP3    H222365   7.116   2.173   4.049
 7470TIP3   OH222366   3.574   0.941   3.966
 7470TIP3    H122367   3.618   0.923   3.883
 7470TIP3    H222368   3.531   0.859   3.990
 7471TIP3   OH222369   5.212   3.158   4.767
 7471TIP3    H122370   5.245   3.145   4.678
 7471TIP3    H222371   5.152   3.084   4.781
 7472TIP3   OH222372   3.693   7.308   1.279
 7472TIP3    H122373   3.687   7.402   1.260
 7472TIP3    H222374   3.604   7.283   1.303
 7473TIP3   OH222375   6.448   1.531   3.154
 7473TIP3    H122376   6.518   1.470   3.133
 7473TIP3    H222377   6.443   1.530   3.250
 7474TIP3   OH222378   7.505   6.723   2.561
 7474TIP3    H122379   7.454   6.790   2.517
 7474TIP3    H222380   7.440   6.665   2.601
 7475TIP3   OH222381   8.056   7.056   1.376
 7475TIP3    H122382   8.105   7.061   1.294
 7475TIP3    H222383   8.021   6.967   1.378
 7476TIP3   OH222384   1.590   2.128   6.355
 7476TIP3    H122385   1.659   2.163   6.412
 7476TIP3    H222386   1.575   2.197   6.291
 7477TIP3   OH222387   0.390   0.648   2.456
 7477TIP3    H122388   0.439   0.624   2.378
 7477TIP3    H222389   0.298   0.646   2.429
 7478TIP3   OH222390   5.652   6.440   2.285
 7478TIP3    H122391   5.556   6.446   2.288
 7478TIP3    H222392   5.681   6.464   2.373
 7479TIP3   OH222393   0.648   5.978   4.278
 7479TIP3    H122394   0.589   5.903   4.269
 7479TIP3    H222395   0.619   6.039   4.211
 7480TIP3   OH222396   8.234   5.642   1.343
 7480TIP3    H122397   8.241   5.557   1.388
 7480TIP3    H222398   8.286   5.702   1.396
 7481TIP3   OH222399   6.772   6.861   3.369
 7481TIP3    H122400   6.790   6.790   3.307
 7481TIP3    H222401   6.858   6.892   3.396
 7482TIP3   OH222402   4.522   0.024   0.464
 7482TIP3    H122403   4.505   0.101   0.411
 7482TIP3    H222404   4.529  -0.048   0.401
 7483TIP3   OH222405   4.383   2.813   3.384
 7483TIP3    H122406   4.341   2.846   3.304
 7483TIP3    H222407   4.359   2.877   3.451
 7484TIP3   OH222408   7.692   4.634   0.817
 7484TIP3    H122409   7.613   4.687   0.826
 7484TIP3    H222410   7.710   4.634   0.723
 7485TIP3   OH222411   4.076   7.047   4.034
 7485TIP3    H122412   3.985   7.045   4.064
 7485TIP3    H222413   4.083   6.974   3.973
 7486TIP3   OH222414   7.550   6.516   0.799
 7486TIP3    H122415   7.530   6.423   0.807
 7486TIP3    H222416   7.622   6.519   0.735
 7487TIP3   OH222417   3.267   3.891   1.600
 7487TIP3    H122418   3.248   3.879   1.507
 7487TIP3    H222419   3.205   3.958   1.629
 7488TIP3   OH222420   5.214   3.389   1.722
 7488TIP3    H122421   5.246   3.461   1.667
 7488TIP3    H222422   5.135   3.358   1.677
 7489TIP3   OH222423   2.748   1.481   2.528
 7489TIP3    H122424   2.799   1.558   2.553
 7489TIP3    H222425   2.770   1.466   2.436
 7490TIP3   OH222426   4.147   3.415   3.887
 7490TIP3    H122427   4.150   3.335   3.939
 7490TIP3    H222428   4.106   3.480   3.944
 7491TIP3   OH222429   2.137   3.920   5.826
 7491TIP3    H122430   2.217   3.957   5.788
 7491TIP3    H222431   2.147   3.826   5.815
 7492TIP3   OH222432   4.161   3.502   1.525
 7492TIP3    H122433   4.151   3.597   1.536
 7492TIP3    H222434   4.245   3.482   1.567
 7493TIP3   OH222435   6.142   3.873   1.349
 7493TIP3    H122436   6.233   3.897   1.365
 7493TIP3    H222437   6.146   3.779   1.331
 7494TIP3   OH222438   4.868   7.763   0.436
 7494TIP3    H122439   4.873   7.685   0.490
 7494TIP3    H222440   4.954   7.805   0.446
 7495TIP3   OH222441   0.273   5.164   4.911
 7495TIP3    H122442   0.216   5.170   4.987
 7495TIP3    H222443   0.362   5.158   4.947
 7496TIP3   OH222444   1.416   7.329   0.114
 7496TIP3    H122445   1.393   7.254   0.059
 7496TIP3    H222446   1.332   7.368   0.138
 7497TIP3   OH222447   7.296   6.976   2.638
 7497TIP3    H122448   7.248   6.923   2.574
 7497TIP3    H222449   7.336   7.046   2.586
 7498TIP3   OH222450   0.647   1.900   6.527
 7498TIP3    H122451   0.568   1.943   6.559
 7498TIP3    H222452   0.634   1.807   6.546
 7499TIP3   OH222453   2.124   5.257   2.957
 7499TIP3    H122454   2.195   5.250   3.022
 7499TIP3    H222455   2.138   5.183   2.899
 7500TIP3   OH222456   1.273   2.256   4.478
 7500TIP3    H122457   1.368   2.273   4.481
 7500TIP3    H222458   1.266   2.161   4.484
 7501TIP3   OH222459   0.647   0.110   5.858
 7501TIP3    H122460   0.622   0.108   5.951
 7501TIP3    H222461   0.566   0.090   5.811
 7502TIP3   OH222462   1.296   1.960   4.463
 7502TIP3    H122463   1.363   1.920   4.518
 7502TIP3    H222464   1.215   1.913   4.485
 7503TIP3   OH222465   6.442   6.024   3.862
 7503TIP3    H122466   6.517   6.072   3.898
 7503TIP3    H222467   6.397   5.988   3.940
 7504TIP3   OH222468   7.565   4.799   0.262
 7504TIP3    H122469   7.514   4.879   0.247
 7504TIP3    H222470   7.499   4.730   0.266
 7505TIP3   OH222471   3.199   6.646   2.966
 7505TIP3    H122472   3.167   6.634   3.055
 7505TIP3    H222473   3.144   6.588   2.913
 7506TIP3   OH222474   3.028   2.059   3.585
 7506TIP3    H122475   3.112   2.102   3.569
 7506TIP3    H222476   3.012   2.006   3.507
 7507TIP3   OH222477   5.351   3.544   3.986
 7507TIP3    H122478   5.345   3.630   4.027
 7507TIP3    H222479   5.267   3.502   4.006
 7508TIP3   OH222480   0.497   4.194   5.398
 7508TIP3    H122481   0.465   4.139   5.471
 7508TIP3    H222482   0.560   4.253   5.438
 7509TIP3   OH222483   3.412   4.711   5.507
 7509TIP3    H122484   3.450   4.685   5.591
 7509TIP3    H222485   3.380   4.800   5.522
 7510TIP3   OH222486   0.527   5.463   6.465
 7510TIP3    H122487   0.517   5.474   6.560
 7510TIP3    H222488   0.454   5.513   6.428
 7511TIP3   OH222489   2.420   1.088   1.537
 7511TIP3    H122490   2.453   1.175   1.562
 7511TIP3    H222491   2.363   1.062   1.609
 7512TIP3   OH222492   1.374   1.761   6.291
 7512TIP3    H122493   1.313   1.701   6.334
 7512TIP3    H222494   1.347   1.848   6.318
 7513TIP3   OH222495   5.060   3.928   4.545
 7513TIP3    H122496   5.024   4.017   4.543
 7513TIP3    H222497   5.135   3.934   4.603
 7514TIP3   OH222498   1.007   3.675   2.704
 7514TIP3    H122499   0.997   3.607   2.770
 7514TIP3    H222500   0.997   3.629   2.620
 7515TIP3   OH222501   5.702   0.057   6.191
 7515TIP3    H122502   5.793   0.044   6.217
 7515TIP3    H222503   5.696   0.151   6.173
 7516TIP3   OH222504   1.558   5.906   4.833
 7516TIP3    H122505   1.609   5.923   4.754
 7516TIP3    H222506   1.501   5.833   4.809
 7517TIP3   OH222507   2.839   4.666   1.400
 7517TIP3    H122508   2.909   4.715   1.357
 7517TIP3    H222509   2.880   4.583   1.424
 7518TIP3   OH222510   1.299   3.317   3.883
 7518TIP3    H122511   1.221   3.355   3.922
 7518TIP3    H222512   1.360   3.391   3.875
 7519TIP3   OH222513   6.704   7.223   5.263
 7519TIP3    H122514   6.719   7.269   5.180
 7519TIP3    H222515   6.622   7.260   5.296
 7520TIP3   OH222516   5.923   4.194   6.566
 7520TIP3    H122517   5.970   4.273   6.592
 7520TIP3    H222518   5.970   4.123   6.609
 7521TIP3   OH222519   5.066   4.545   4.108
 7521TIP3    H122520   5.065   4.624   4.161
 7521TIP3    H222521   4.974   4.531   4.084
 7522TIP3   OH222522   8.216   4.577   4.354
 7522TIP3    H122523   8.258   4.494   4.331
 7522TIP3    H222524   8.281   4.623   4.407
 7523TIP3   OH222525   5.793   2.796   1.978
 7523TIP3    H122526   5.735   2.732   1.936
 7523TIP3    H222527   5.809   2.862   1.910
 7524TIP3   OH222528   3.662   2.881   0.859
 7524TIP3    H122529   3.717   2.844   0.790
 7524TIP3    H222530   3.581   2.830   0.856
 7525TIP3   OH222531   4.171   4.664   2.725
 7525TIP3    H122532   4.083   4.629   2.712
 7525TIP3    H222533   4.197   4.635   2.812
 7526TIP3   OH222534   1.676   0.860   4.136
 7526TIP3    H122535   1.753   0.904   4.102
 7526TIP3    H222536   1.654   0.794   4.070
 7527TIP3   OH222537   3.473   3.653   4.828
 7527TIP3    H122538   3.564   3.666   4.856
 7527TIP3    H222539   3.479   3.589   4.756
 7528TIP3   OH222540   3.071   7.328   0.690
 7528TIP3    H122541   2.980   7.301   0.695
 7528TIP3    H222542   3.078   7.376   0.607
 7529TIP3   OH222543   7.111   2.185   4.767
 7529TIP3    H122544   7.061   2.218   4.692
 7529TIP3    H222545   7.166   2.258   4.793
 7530TIP3   OH222546   6.228   3.849   0.610
 7530TIP3    H122547   6.287   3.803   0.550
 7530TIP3    H222548   6.263   3.830   0.697
 7531TIP3   OH222549   4.743   3.020   4.443
 7531TIP3    H122550   4.672   3.000   4.382
 7531TIP3    H222551   4.727   3.110   4.470
 7532TIP3   OH222552   6.857   7.005   5.802
 7532TIP3    H122553   6.915   6.979   5.731
 7532TIP3    H222554   6.779   7.040   5.758
 7533TIP3   OH222555   7.881   3.196   4.707
 7533TIP3    H122556   7.798   3.239   4.685
 7533TIP3    H222557   7.872   3.108   4.672
 7534TIP3   OH222558   0.443   6.366   5.051
 7534TIP3    H122559   0.524   6.401   5.014
 7534TIP3    H222560   0.397   6.442   5.085
 7535TIP3   OH222561   0.323   7.267   2.860
 7535TIP3    H122562   0.266   7.215   2.803
 7535TIP3    H222563   0.286   7.256   2.947
 7536TIP3   OH222564   5.041   0.896   0.777
 7536TIP3    H122565   5.099   0.835   0.822
 7536TIP3    H222566   5.100   0.958   0.734
 7537TIP3   OH222567   5.966   0.364   3.125
 7537TIP3    H122568   5.970   0.304   3.199
 7537TIP3    H222569   6.058   0.380   3.102
 7538TIP3   OH222570   2.640   6.166   6.462
 7538TIP3    H122571   2.687   6.213   6.393
 7538TIP3    H222572   2.708   6.119   6.511
 7539TIP3   OH222573   7.542   2.673   0.335
 7539TIP3    H122574   7.522   2.711   0.249
 7539TIP3    H222575   7.638   2.675   0.340
 7540TIP3   OH222576   3.119   4.650   2.753
 7540TIP3    H122577   3.052   4.593   2.790
 7540TIP3    H222578   3.092   4.664   2.663
 7541TIP3   OH222579   0.493   7.598   2.079
 7541TIP3    H122580   0.460   7.511   2.057
 7541TIP3    H222581   0.426   7.635   2.136
 7542TIP3   OH222582   4.437   3.194   1.258
 7542TIP3    H122583   4.381   3.249   1.313
 7542TIP3    H222584   4.498   3.153   1.320
 7543TIP3   OH222585   3.897   2.123   4.031
 7543TIP3    H122586   3.886   2.213   4.063
 7543TIP3    H222587   3.810   2.097   4.003
 7544TIP3   OH222588   5.219   5.485   4.945
 7544TIP3    H122589   5.240   5.577   4.929
 7544TIP3    H222590   5.188   5.483   5.035
 7545TIP3   OH222591   3.425   3.593   3.377
 7545TIP3    H122592   3.411   3.668   3.435
 7545TIP3    H222593   3.409   3.517   3.433
 7546TIP3   OH222594   3.642   7.580   1.559
 7546TIP3    H122595   3.716   7.629   1.594
 7546TIP3    H222596   3.651   7.588   1.464
 7547TIP3   OH222597   8.186   3.201   3.169
 7547TIP3    H122598   8.098   3.171   3.191
 7547TIP3    H222599   8.223   3.129   3.118
 7548TIP3   OH222600   6.066   3.047   1.609
 7548TIP3    H122601   6.138   3.070   1.550
 7548TIP3    H222602   5.996   3.018   1.551
 7549TIP3   OH222603   8.285   3.331   6.577
 7549TIP3    H122604   8.297   3.323   6.671
 7549TIP3    H222605   8.200   3.374   6.567
 7550TIP3   OH222606   4.949   1.774   5.137
 7550TIP3    H122607   4.894   1.729   5.201
 7550TIP3    H222608   4.923   1.737   5.052
 7551TIP3   OH222609   0.166   4.093   5.091
 7551TIP3    H122610   0.157   4.031   5.019
 7551TIP3    H222611   0.232   4.054   5.149
 7552TIP3   OH222612   4.120   5.086   1.440
 7552TIP3    H122613   4.155   5.054   1.523
 7552TIP3    H222614   4.163   5.033   1.374
 7553TIP3   OH222615   7.787   0.868   0.275
 7553TIP3    H122616   7.794   0.963   0.278
 7553TIP3    H222617   7.810   0.845   0.185
 7554TIP3   OH222618   2.314   1.105   6.140
 7554TIP3    H122619   2.375   1.109   6.067
 7554TIP3    H222620   2.370   1.109   6.218
 7555TIP3   OH222621   7.689   4.332   6.579
 7555TIP3    H122622   7.689   4.259   6.518
 7555TIP3    H222623   7.769   4.381   6.558
 7556TIP3   OH222624   3.200   5.337   3.547
 7556TIP3    H122625   3.240   5.421   3.568
 7556TIP3    H222626   3.145   5.317   3.623
 7557TIP3   OH222627   2.473   1.903   1.830
 7557TIP3    H122628   2.424   1.982   1.852
 7557TIP3    H222629   2.430   1.834   1.880
 7558TIP3   OH222630   4.406   3.826   2.257
 7558TIP3    H122631   4.403   3.745   2.309
 7558TIP3    H222632   4.320   3.830   2.215
 7559TIP3   OH222633   3.139   4.257   2.942
 7559TIP3    H122634   3.112   4.250   3.033
 7559TIP3    H222635   3.201   4.186   2.929
 7560TIP3   OH222636   4.572   3.887   2.818
 7560TIP3    H122637   4.653   3.869   2.770
 7560TIP3    H222638   4.502   3.873   2.754
 7561TIP3   OH222639   2.385   0.827   0.297
 7561TIP3    H122640   2.435   0.776   0.233
 7561TIP3    H222641   2.348   0.900   0.246
 7562TIP3   OH222642   1.049   6.955   5.997
 7562TIP3    H122643   1.125   6.981   6.048
 7562TIP3    H222644   1.052   6.859   5.997
 7563TIP3   OH222645   4.949   3.422   4.517
 7563TIP3    H122646   4.949   3.506   4.472
 7563TIP3    H222647   4.973   3.359   4.449
 7564TIP3   OH222648   2.145   0.692   1.878
 7564TIP3    H122649   2.107   0.642   1.950
 7564TIP3    H222650   2.237   0.666   1.877
 7565TIP3   OH222651   3.882   3.705   5.210
 7565TIP3    H122652   3.905   3.798   5.221
 7565TIP3    H222653   3.908   3.684   5.121
 7566TIP3   OH222654   0.417   1.294   6.171
 7566TIP3    H122655   0.357   1.220   6.184
 7566TIP3    H222656   0.425   1.302   6.076
 7567TIP3   OH222657   4.435   7.761   3.750
 7567TIP3    H122658   4.438   7.730   3.660
 7567TIP3    H222659   4.400   7.687   3.800
 7568TIP3   OH222660   3.372   0.288   5.813
 7568TIP3    H122661   3.454   0.321   5.850
 7568TIP3    H222662   3.400   0.221   5.750
 7569TIP3   OH222663   7.370   3.887   3.429
 7569TIP3    H122664   7.353   3.821   3.362
 7569TIP3    H222665   7.285   3.900   3.472
 7570TIP3   OH222666   5.224   0.094   6.640
 7570TIP3    H122667   5.194   0.115   6.728
 7570TIP3    H222668   5.252   0.002   6.646
 7571TIP3   OH222669   4.245   5.416   4.016
 7571TIP3    H122670   4.242   5.381   3.927
 7571TIP3    H222671   4.157   5.452   4.030
 7572TIP3   OH222672   7.935   5.357   0.323
 7572TIP3    H122673   7.958   5.342   0.415
 7572TIP3    H222674   7.867   5.425   0.326
 7573TIP3   OH222675   4.735   5.957   2.480
 7573TIP3    H122676   4.750   5.911   2.398
 7573TIP3    H222677   4.822   5.989   2.505
 7574TIP3   OH222678   1.200   4.173   1.029
 7574TIP3    H122679   1.242   4.199   0.947
 7574TIP3    H222680   1.201   4.251   1.083
 7575TIP3   OH222681   1.236   4.012   1.348
 7575TIP3    H122682   1.258   3.929   1.389
 7575TIP3    H222683   1.311   4.032   1.292
 7576TIP3   OH222684   4.859   5.502   4.377
 7576TIP3    H122685   4.860   5.561   4.453
 7576TIP3    H222686   4.933   5.531   4.324
 7577TIP3   OH222687   7.822   0.151   6.250
 7577TIP3    H122688   7.752   0.089   6.231
 7577TIP3    H222689   7.896   0.097   6.279
 7578TIP3   OH222690   6.708   6.435   3.884
 7578TIP3    H122691   6.793   6.479   3.880
 7578TIP3    H222692   6.644   6.505   3.877
 7579TIP3   OH222693   7.012   7.218   4.291
 7579TIP3    H122694   6.917   7.224   4.283
 7579TIP3    H222695   7.031   7.250   4.379
 7580TIP3   OH222696   3.365   0.781   0.731
 7580TIP3    H122697   3.316   0.761   0.810
 7580TIP3    H222698   3.416   0.702   0.713
 7581TIP3   OH222699   3.751   3.279   4.557
 7581TIP3    H122700   3.771   3.220   4.484
 7581TIP3    H222701   3.785   3.235   4.634
 7582TIP3   OH222702   7.799   6.586   3.584
 7582TIP3    H122703   7.801   6.615   3.675
 7582TIP3    H222704   7.822   6.493   3.587
 7583TIP3   OH222705   4.274   5.302   3.773
 7583TIP3    H122706   4.332   5.245   3.721
 7583TIP3    H222707   4.296   5.391   3.744
 7584TIP3   OH222708   5.991   3.576   5.220
 7584TIP3    H122709   5.922   3.514   5.197
 7584TIP3    H222710   6.063   3.553   5.162
 7585TIP3   OH222711   3.566   4.273   1.150
 7585TIP3    H122712   3.548   4.252   1.242
 7585TIP3    H222713   3.555   4.368   1.144
 7586TIP3   OH222714   3.263   6.939   4.085
 7586TIP3    H122715   3.229   7.001   4.149
 7586TIP3    H222716   3.350   6.916   4.117
 7587TIP3   OH222717   4.908   1.382   5.329
 7587TIP3    H122718   4.874   1.377   5.239
 7587TIP3    H222719   4.862   1.456   5.368
 7588TIP3   OH222720   5.377   1.827   3.705
 7588TIP3    H122721   5.437   1.855   3.775
 7588TIP3    H222722   5.373   1.902   3.646
 7589TIP3   OH222723   3.051   2.417   6.734
 7589TIP3    H122724   3.059   2.407   6.640
 7589TIP3    H222725   2.973   2.472   6.746
 7590TIP3   OH222726   6.633   3.312   4.716
 7590TIP3    H122727   6.550   3.287   4.675
 7590TIP3    H222728   6.679   3.229   4.729
 7591TIP3   OH222729   6.575   6.089   5.033
 7591TIP3    H122730   6.524   6.008   5.030
 7591TIP3    H222731   6.658   6.066   4.991
 7592TIP3   OH222732   0.892   1.398   0.641
 7592TIP3    H122733   0.811   1.369   0.600
 7592TIP3    H222734   0.946   1.319   0.645
 7593TIP3   OH222735   7.468   4.286   6.738
 7593TIP3    H122736   7.489   4.304   6.830
 7593TIP3    H222737   7.547   4.309   6.690
 7594TIP3   OH222738   2.426   4.290   3.283
 7594TIP3    H122739   2.465   4.376   3.267
 7594TIP3    H222740   2.437   4.277   3.377
 7595TIP3   OH222741   1.788   6.125   0.990
 7595TIP3    H122742   1.861   6.184   0.971
 7595TIP3    H222743   1.710   6.178   0.974
 7596TIP3   OH222744   2.313   7.692   2.079
 7596TIP3    H122745   2.350   7.604   2.089
 7596TIP3    H222746   2.297   7.721   2.169
 7597TIP3   OH222747   1.927   4.135   0.539
 7597TIP3    H122748   1.968   4.184   0.467
 7597TIP3    H222749   1.879   4.064   0.495
 7598TIP3   OH222750   3.071   5.777   5.264
 7598TIP3    H122751   3.005   5.831   5.221
 7598TIP3    H222752   3.089   5.822   5.346
 7599TIP3   OH222753   0.960   5.731   5.843
 7599TIP3    H122754   0.957   5.641   5.874
 7599TIP3    H222755   1.053   5.754   5.846
 7600TIP3   OH222756   4.618   2.982   1.782
 7600TIP3    H122757   4.549   3.022   1.835
 7600TIP3    H222758   4.604   2.888   1.790
 7601TIP3   OH222759   8.176   2.138   2.051
 7601TIP3    H122760   8.213   2.163   1.966
 7601TIP3    H222761   8.100   2.194   2.062
 7602TIP3   OH222762   1.059   0.055   6.246
 7602TIP3    H122763   0.984  -0.002   6.229
 7602TIP3    H222764   1.064   0.061   6.341
 7603TIP3   OH222765   4.108   3.170   1.871
 7603TIP3    H122766   4.085   3.104   1.936
 7603TIP3    H222767   4.054   3.150   1.795
 7604TIP3   OH222768   6.201   4.346   3.389
 7604TIP3    H122769   6.238   4.435   3.393
 7604TIP3    H222770   6.176   4.328   3.479
 7605TIP3   OH222771   3.544   3.918   2.236
 7605TIP3    H122772   3.487   3.864   2.182
 7605TIP3    H222773   3.485   3.976   2.284
 7606TIP3   OH222774   6.984   3.123   2.649
 7606TIP3    H122775   6.988   3.052   2.585
 7606TIP3    H222776   7.075   3.141   2.671
 7607TIP3   OH222777   6.893   0.955   0.619
 7607TIP3    H122778   6.874   1.049   0.628
 7607TIP3    H222779   6.972   0.942   0.671
 7608TIP3   OH222780   7.151   5.444   1.687
 7608TIP3    H122781   7.173   5.382   1.618
 7608TIP3    H222782   7.106   5.392   1.754
 7609TIP3   OH222783   7.800   5.241   2.795
 7609TIP3    H122784   7.874   5.198   2.753
 7609TIP3    H222785   7.831   5.259   2.884
 7610TIP3   OH222786   3.086   2.339   2.739
 7610TIP3    H122787   3.028   2.265   2.720
 7610TIP3    H222788   3.128   2.357   2.655
 7611TIP3   OH222789   5.265   2.813   3.237
 7611TIP3    H122790   5.273   2.719   3.250
 7611TIP3    H222791   5.171   2.831   3.249
 7612TIP3   OH222792   5.999   6.038   0.674
 7612TIP3    H122793   5.965   6.028   0.585
 7612TIP3    H222794   5.951   6.112   0.710
 7613TIP3   OH222795   4.208   7.706   0.078
 7613TIP3    H122796   4.184   7.623   0.119
 7613TIP3    H222797   4.299   7.721   0.105
 7614TIP3   OH222798   1.742   0.298   6.663
 7614TIP3    H122799   1.692   0.218   6.644
 7614TIP3    H222800   1.776   0.326   6.578
 7615TIP3   OH222801   4.437   3.078   1.959
 7615TIP3    H122802   4.373   3.072   2.030
 7615TIP3    H222803   4.425   3.166   1.924
 7616TIP3   OH222804   2.680   0.886   6.088
 7616TIP3    H122805   2.704   0.802   6.127
 7616TIP3    H222806   2.696   0.950   6.158
 7617TIP3   OH222807   4.969   1.531   0.047
 7617TIP3    H122808   4.973   1.483  -0.035
 7617TIP3    H222809   4.945   1.620   0.022
 7618TIP3   OH222810   6.722   1.587   1.226
 7618TIP3    H122811   6.765   1.570   1.142
 7618TIP3    H222812   6.738   1.507   1.277
 7619TIP3   OH222813   6.853   7.802   2.062
 7619TIP3    H122814   6.892   7.749   2.132
 7619TIP3    H222815   6.911   7.788   1.987
 7620TIP3   OH222816   1.741   2.120   1.493
 7620TIP3    H122817   1.733   2.123   1.588
 7620TIP3    H222818   1.667   2.173   1.461
 7621TIP3   OH222819   0.634   4.725   4.797
 7621TIP3    H122820   0.542   4.746   4.778
 7621TIP3    H222821   0.635   4.701   4.890
 7622TIP3   OH222822   1.498   1.919   0.392
 7622TIP3    H122823   1.407   1.899   0.372
 7622TIP3    H222824   1.548   1.858   0.337
 7623TIP3   OH222825   4.646   5.067   2.935
 7623TIP3    H122826   4.734   5.032   2.917
 7623TIP3    H222827   4.650   5.097   3.026
 7624TIP3   OH222828   6.461   3.111   6.327
 7624TIP3    H122829   6.434   3.025   6.296
 7624TIP3    H222830   6.525   3.092   6.396
 7625TIP3   OH222831   8.278   3.670   3.571
 7625TIP3    H122832   8.213   3.607   3.601
 7625TIP3    H222833   8.362   3.625   3.582
 7626TIP3   OH222834   0.438   4.321   4.473
 7626TIP3    H122835   0.385   4.243   4.456
 7626TIP3    H222836   0.510   4.315   4.410
 7627TIP3   OH222837   0.978   6.514   0.874
 7627TIP3    H122838   1.069   6.524   0.844
 7627TIP3    H222839   0.943   6.444   0.819
 7628TIP3   OH222840   4.328   1.405   5.857
 7628TIP3    H122841   4.326   1.410   5.761
 7628TIP3    H222842   4.236   1.399   5.883
 7629TIP3   OH222843   0.828   2.283   1.197
 7629TIP3    H122844   0.775   2.235   1.134
 7629TIP3    H222845   0.881   2.216   1.239
 7630TIP3   OH222846   1.588   1.729   6.518
 7630TIP3    H122847   1.520   1.783   6.559
 7630TIP3    H222848   1.618   1.672   6.589
 7631TIP3   OH222849   6.607   4.421   0.588
 7631TIP3    H122850   6.580   4.394   0.500
 7631TIP3    H222851   6.660   4.499   0.573
 7632TIP3   OH222852   4.843   2.853   2.581
 7632TIP3    H122853   4.857   2.824   2.491
 7632TIP3    H222854   4.779   2.924   2.574
 7633TIP3   OH222855   4.634   2.326   1.248
 7633TIP3    H122856   4.694   2.390   1.211
 7633TIP3    H222857   4.685   2.245   1.253
 7634TIP3   OH222858   4.084   1.848   5.988
 7634TIP3    H122859   4.175   1.840   6.015
 7634TIP3    H222860   4.034   1.851   6.070
 7635TIP3   OH222861   2.741   1.205   4.677
 7635TIP3    H122862   2.760   1.112   4.685
 7635TIP3    H222863   2.719   1.218   4.585
 7636TIP3   OH222864   2.907   7.529   4.270
 7636TIP3    H122865   2.827   7.583   4.267
 7636TIP3    H222866   2.973   7.583   4.228
 7637TIP3   OH222867   0.695   7.417   1.125
 7637TIP3    H122868   0.740   7.446   1.204
 7637TIP3    H222869   0.680   7.497   1.075
 7638TIP3   OH222870   6.560   5.943   4.186
 7638TIP3    H122871   6.494   5.921   4.252
 7638TIP3    H222872   6.623   5.872   4.192
 7639TIP3   OH222873   3.730   2.434   6.284
 7639TIP3    H122874   3.823   2.422   6.264
 7639TIP3    H222875   3.729   2.494   6.359
 7640TIP3   OH222876   0.723   3.427   1.960
 7640TIP3    H122877   0.656   3.395   2.020
 7640TIP3    H222878   0.676   3.481   1.897
 7641TIP3   OH222879   7.178   3.890   6.724
 7641TIP3    H122880   7.131   3.807   6.731
 7641TIP3    H222881   7.230   3.896   6.804
 7642TIP3   OH222882   6.695   0.644   2.163
 7642TIP3    H122883   6.727   0.567   2.211
 7642TIP3    H222884   6.602   0.626   2.149
 7643TIP3   OH222885   8.143   2.895   3.432
 7643TIP3    H122886   8.204   2.849   3.490
 7643TIP3    H222887   8.123   2.976   3.479
 7644TIP3   OH222888   6.838   1.959   3.276
 7644TIP3    H122889   6.863   2.047   3.305
 7644TIP3    H222890   6.872   1.953   3.187
 7645TIP3   OH222891   7.126   3.910   0.882
 7645TIP3    H122892   7.054   3.956   0.926
 7645TIP3    H222893   7.204   3.961   0.903
 7646TIP3   OH222894   6.628   2.577   6.095
 7646TIP3    H122895   6.551   2.587   6.150
 7646TIP3    H222896   6.617   2.491   6.053
 7647TIP3   OH222897   4.228   2.779   5.062
 7647TIP3    H122898   4.138   2.757   5.038
 7647TIP3    H222899   4.280   2.757   4.985
 7648TIP3   OH222900   6.985   7.682   1.542
 7648TIP3    H122901   6.914   7.742   1.565
 7648TIP3    H222902   7.063   7.737   1.537
 7649TIP3   OH222903   3.034   1.162   0.626
 7649TIP3    H122904   2.980   1.242   0.622
 7649TIP3    H222905   3.070   1.152   0.538
 7650TIP3   OH222906   6.971   3.305   4.011
 7650TIP3    H122907   6.924   3.257   3.943
 7650TIP3    H222908   6.910   3.374   4.038
 7651TIP3   OH222909   4.353   7.738   5.373
 7651TIP3    H122910   4.366   7.686   5.293
 7651TIP3    H222911   4.343   7.828   5.342
 7652TIP3   OH222912   6.017   2.236   6.536
 7652TIP3    H122913   6.107   2.202   6.534
 7652TIP3    H222914   5.985   2.222   6.447
 7653TIP3   OH222915   4.454   3.118   6.608
 7653TIP3    H122916   4.438   3.212   6.600
 7653TIP3    H222917   4.548   3.108   6.594
 7654TIP3   OH222918   4.504   3.589   5.030
 7654TIP3    H122919   4.516   3.506   4.985
 7654TIP3    H222920   4.544   3.654   4.972
 7655TIP3   OH222921   5.859   3.261   5.846
 7655TIP3    H122922   5.923   3.197   5.816
 7655TIP3    H222923   5.795   3.210   5.895
 7656TIP3   OH222924   7.166   4.654   6.663
 7656TIP3    H122925   7.128   4.676   6.749
 7656TIP3    H222926   7.207   4.736   6.634
 7657TIP3   OH222927   0.667   0.507   0.898
 7657TIP3    H122928   0.644   0.547   0.982
 7657TIP3    H222929   0.649   0.574   0.833
 7658TIP3   OH222930   7.963   0.160   1.102
 7658TIP3    H122931   7.970   0.197   1.013
 7658TIP3    H222932   8.050   0.127   1.121
 7659TIP3   OH222933   0.923   2.637   2.128
 7659TIP3    H122934   0.937   2.724   2.167
 7659TIP3    H222935   0.922   2.654   2.034
 7660TIP3   OH222936   3.520   2.396   1.516
 7660TIP3    H122937   3.439   2.377   1.468
 7660TIP3    H222938   3.492   2.446   1.592
 7661TIP3   OH222939   6.501   4.970   6.120
 7661TIP3    H122940   6.447   4.998   6.046
 7661TIP3    H222941   6.553   5.046   6.143
 7662TIP3   OH222942   4.234   7.672   4.154
 7662TIP3    H122943   4.173   7.683   4.082
 7662TIP3    H222944   4.199   7.598   4.205
 7663TIP3   OH222945   6.483   7.541   5.723
 7663TIP3    H122946   6.512   7.613   5.667
 7663TIP3    H222947   6.510   7.566   5.811
 7664TIP3   OH222948   4.998   7.800   3.203
 7664TIP3    H122949   4.981   7.770   3.293
 7664TIP3    H222950   5.093   7.809   3.199
 7665TIP3   OH222951   6.101   6.130   6.052
 7665TIP3    H122952   6.038   6.171   5.993
 7665TIP3    H222953   6.186   6.161   6.021
 7666TIP3   OH222954   2.301   2.939   6.296
 7666TIP3    H122955   2.211   2.964   6.273
 7666TIP3    H222956   2.319   2.861   6.244
 7667TIP3   OH222957   8.269   0.621   5.808
 7667TIP3    H122958   8.225   0.611   5.724
 7667TIP3    H222959   8.362   0.622   5.787
 7668TIP3   OH222960   2.442   6.224   0.594
 7668TIP3    H122961   2.530   6.255   0.575
 7668TIP3    H222962   2.448   6.183   0.680
 7669TIP3   OH222963   0.150   4.445   6.673
 7669TIP3    H122964   0.123   4.414   6.759
 7669TIP3    H222965   0.083   4.509   6.648
 7670TIP3   OH222966   3.550   3.006   0.144
 7670TIP3    H122967   3.497   2.944   0.193
 7670TIP3    H222968   3.489   3.048   0.083
 7671TIP3   OH222969   6.018   6.188   1.312
 7671TIP3    H122970   6.092   6.138   1.278
 7671TIP3    H222971   5.974   6.127   1.371
 7672TIP3   OH222972   2.933   2.667   4.401
 7672TIP3    H122973   2.937   2.734   4.470
 7672TIP3    H222974   2.980   2.706   4.327
 7673TIP3   OH222975   6.342   4.697   4.579
 7673TIP3    H122976   6.256   4.654   4.578
 7673TIP3    H222977   6.398   4.638   4.629
 7674TIP3   OH222978   1.893   0.684   0.651
 7674TIP3    H122979   1.874   0.759   0.594
 7674TIP3    H222980   1.959   0.634   0.603
 7675TIP3   OH222981   7.177   2.120   1.882
 7675TIP3    H122982   7.190   2.112   1.977
 7675TIP3    H222983   7.116   2.193   1.873
 7676TIP3   OH222984   6.067   5.605   6.440
 7676TIP3    H122985   6.114   5.584   6.359
 7676TIP3    H222986   6.117   5.561   6.508
 7677TIP3   OH222987   1.817   3.798   4.733
 7677TIP3    H122988   1.759   3.849   4.676
 7677TIP3    H222989   1.886   3.766   4.674
 7678TIP3   OH222990   8.011   7.703   1.305
 7678TIP3    H122991   7.948   7.636   1.330
 7678TIP3    H222992   8.093   7.656   1.292
 7679TIP3   OH222993   0.994   3.055   0.072
 7679TIP3    H122994   0.922   3.075   0.013
 7679TIP3    H222995   0.961   2.985   0.128
 7680TIP3   OH222996   1.849   4.750   3.111
 7680TIP3    H122997   1.912   4.761   3.040
 7680TIP3    H222998   1.824   4.658   3.107
 7681TIP3   OH222999   2.649   2.923   3.867
 7681TIP3    H123000   2.554   2.912   3.863
 7681TIP3    H223001   2.681   2.886   3.785
 7682TIP3   OH223002   3.049   2.229   5.776
 7682TIP3    H123003   2.973   2.257   5.726
 7682TIP3    H223004   3.105   2.185   5.712
 7683TIP3   OH223005   5.449   7.048   2.640
 7683TIP3    H123006   5.422   6.956   2.634
 7683TIP3    H223007   5.367   7.097   2.636
 7684TIP3   OH223008   3.461   7.754   1.370
 7684TIP3    H123009   3.426   7.843   1.362
 7684TIP3    H223010   3.490   7.732   1.282
 7685TIP3   OH223011   4.535   4.048   2.115
 7685TIP3    H123012   4.565   4.111   2.181
 7685TIP3    H223013   4.474   3.991   2.162
 7686TIP3   OH223014   3.084   4.796   3.132
 7686TIP3    H123015   3.153   4.818   3.069
 7686TIP3    H223016   3.126   4.735   3.193
 7687TIP3   OH223017   4.776   6.597   3.693
 7687TIP3    H123018   4.839   6.536   3.656
 7687TIP3    H223019   4.716   6.542   3.743
 7688TIP3   OH223020   8.178   6.425   4.868
 7688TIP3    H123021   8.210   6.428   4.958
 7688TIP3    H223022   8.188   6.333   4.842
 7689TIP3   OH223023   3.994   3.535   3.687
 7689TIP3    H123024   4.053   3.523   3.612
 7689TIP3    H223025   4.046   3.508   3.763
 7690TIP3   OH223026   2.826   7.492   5.496
 7690TIP3    H123027   2.766   7.484   5.570
 7690TIP3    H223028   2.894   7.427   5.513
 7691TIP3   OH223029   4.055   4.616   0.695
 7691TIP3    H123030   4.128   4.645   0.749
 7691TIP3    H223031   4.045   4.685   0.629
 7692TIP3   OH223032   2.657   1.637   0.899
 7692TIP3    H123033   2.599   1.666   0.969
 7692TIP3    H223034   2.690   1.552   0.928
 7693TIP3   OH223035   6.559   0.586   6.644
 7693TIP3    H123036   6.595   0.555   6.561
 7693TIP3    H223037   6.636   0.614   6.694
 7694TIP3   OH223038   1.927   6.949   6.120
 7694TIP3    H123039   1.964   7.036   6.102
 7694TIP3    H223040   1.937   6.901   6.038
 7695TIP3   OH223041   2.391   2.958   1.564
 7695TIP3    H123042   2.447   3.018   1.613
 7695TIP3    H223043   2.352   2.901   1.630
 7696TIP3   OH223044   6.239   4.658   5.894
 7696TIP3    H123045   6.307   4.678   5.958
 7696TIP3    H223046   6.208   4.571   5.919
 7697TIP3   OH223047   5.754   4.433   5.109
 7697TIP3    H123048   5.800   4.349   5.109
 7697TIP3    H223049   5.664   4.410   5.130
 7698TIP3   OH223050   4.302   4.732   2.002
 7698TIP3    H123051   4.262   4.651   2.034
 7698TIP3    H223052   4.371   4.751   2.065
 7699TIP3   OH223053   6.777   1.895   4.771
 7699TIP3    H123054   6.772   1.955   4.846
 7699TIP3    H223055   6.767   1.951   4.694
 7700TIP3   OH223056   4.780   3.234   5.545
 7700TIP3    H123057   4.754   3.296   5.614
 7700TIP3    H223058   4.747   3.150   5.576
 7701TIP3   OH223059   6.903   6.558   4.273
 7701TIP3    H123060   6.894   6.651   4.293
 7701TIP3    H223061   6.815   6.522   4.284
 7702TIP3   OH223062   8.027   7.480   5.390
 7702TIP3    H123063   7.987   7.495   5.304
 7702TIP3    H223064   8.109   7.435   5.370
 7703TIP3   OH223065   6.532   6.818   6.771
 7703TIP3    H123066   6.476   6.868   6.831
 7703TIP3    H223067   6.523   6.863   6.687
 7704TIP3   OH223068   7.114   3.777   6.170
 7704TIP3    H123069   7.029   3.822   6.175
 7704TIP3    H223070   7.175   3.838   6.211
 7705TIP3   OH223071   1.480   5.780   3.026
 7705TIP3    H123072   1.442   5.732   3.099
 7705TIP3    H223073   1.405   5.813   2.977
 7706TIP3   OH223074   1.987   6.218   3.183
 7706TIP3    H123075   1.955   6.308   3.192
 7706TIP3    H223076   1.937   6.168   3.247
 7707TIP3   OH223077   6.671   2.684   1.619
 7707TIP3    H123078   6.731   2.709   1.548
 7707TIP3    H223079   6.716   2.713   1.699
 7708TIP3   OH223080   0.733   6.112   0.528
 7708TIP3    H123081   0.680   6.186   0.556
 7708TIP3    H223082   0.677   6.036   0.544
 7709TIP3   OH223083   0.735   1.677   1.552
 7709TIP3    H123084   0.642   1.668   1.532
 7709TIP3    H223085   0.743   1.651   1.643
 7710TIP3   OH223086   0.888   2.145   5.356
 7710TIP3    H123087   0.810   2.128   5.304
 7710TIP3    H223088   0.885   2.079   5.426
 7711TIP3   OH223089   8.196   3.534   1.832
 7711TIP3    H123090   8.231   3.577   1.910
 7711TIP3    H223091   8.233   3.584   1.759
 7712TIP3   OH223092   6.835   6.190   4.753
 7712TIP3    H123093   6.787   6.251   4.808
 7712TIP3    H223094   6.828   6.106   4.798
 7713TIP3   OH223095   6.792   3.114   3.558
 7713TIP3    H123096   6.882   3.109   3.527
 7713TIP3    H223097   6.764   3.203   3.538
 7714TIP3   OH223098   0.695   7.118   5.782
 7714TIP3    H123099   0.700   7.029   5.818
 7714TIP3    H223100   0.621   7.115   5.722
 7715TIP3   OH223101   3.921   1.554   0.494
 7715TIP3    H123102   3.855   1.590   0.435
 7715TIP3    H223103   3.871   1.494   0.551
 7716TIP3   OH223104   3.243   3.572   5.334
 7716TIP3    H123105   3.155   3.578   5.371
 7716TIP3    H223106   3.229   3.568   5.240
 7717TIP3   OH223107   8.142   3.144   5.813
 7717TIP3    H123108   8.145   3.055   5.778
 7717TIP3    H223109   8.049   3.166   5.813
 7718TIP3   OH223110   7.680   2.995   1.533
 7718TIP3    H123111   7.665   2.914   1.582
 7718TIP3    H223112   7.773   2.992   1.510
 7719TIP3   OH223113   3.905   3.488   1.656
 7719TIP3    H123114   3.979   3.473   1.597
 7719TIP3    H223115   3.831   3.502   1.597
 7720TIP3   OH223116   2.236   7.522   6.318
 7720TIP3    H123117   2.309   7.583   6.305
 7720TIP3    H223118   2.228   7.476   6.234
 7721TIP3   OH223119   1.606   2.445   1.235
 7721TIP3    H123120   1.633   2.480   1.320
 7721TIP3    H223121   1.543   2.376   1.256
 7722TIP3   OH223122   5.875   4.617   0.781
 7722TIP3    H123123   5.873   4.547   0.846
 7722TIP3    H223124   5.955   4.666   0.800
 7723TIP3   OH223125   3.817   5.086   5.080
 7723TIP3    H123126   3.794   5.145   5.008
 7723TIP3    H223127   3.912   5.076   5.072
 7724TIP3   OH223128   2.066   0.239   3.272
 7724TIP3    H123129   2.038   0.330   3.287
 7724TIP3    H223130   2.068   0.230   3.177
 7725TIP3   OH223131   4.744   4.989   6.005
 7725TIP3    H123132   4.702   5.043   5.938
 7725TIP3    H223133   4.824   5.036   6.026
 7726TIP3   OH223134   6.101   1.395   3.431
 7726TIP3    H123135   6.138   1.327   3.375
 7726TIP3    H223136   6.024   1.425   3.383
 7727TIP3   OH223137   3.546   7.189   0.013
 7727TIP3    H123138   3.628   7.176   0.060
 7727TIP3    H223139   3.506   7.265   0.055
 7728TIP3   OH223140   1.890   6.708   4.603
 7728TIP3    H123141   1.936   6.629   4.632
 7728TIP3    H223142   1.959   6.768   4.576
 7729TIP3   OH223143   0.620   2.856   2.197
 7729TIP3    H123144   0.597   2.945   2.224
 7729TIP3    H223145   0.678   2.824   2.266
 7730TIP3   OH223146   0.843   0.682   5.920
 7730TIP3    H123147   0.842   0.717   5.831
 7730TIP3    H223148   0.829   0.759   5.976
 7731TIP3   OH223149   3.208   7.663   3.942
 7731TIP3    H123150   3.287   7.613   3.922
 7731TIP3    H223151   3.181   7.700   3.857
 7732TIP3   OH223152   7.355   2.429   1.624
 7732TIP3    H123153   7.315   2.412   1.538
 7732TIP3    H223154   7.327   2.518   1.646
 7733TIP3   OH223155   3.330   0.066   6.549
 7733TIP3    H123156   3.396   0.000   6.568
 7733TIP3    H223157   3.309   0.104   6.634
 7734TIP3   OH223158   4.326   4.781   1.382
 7734TIP3    H123159   4.233   4.778   1.360
 7734TIP3    H223160   4.367   4.717   1.324
 7735TIP3   OH223161   6.012   5.560   0.005
 7735TIP3    H123162   6.048   5.484   0.050
 7735TIP3    H223163   5.975   5.614   0.075
 7736TIP3   OH223164   5.900   2.534   5.791
 7736TIP3    H123165   5.806   2.530   5.773
 7736TIP3    H223166   5.929   2.443   5.784
 7737TIP3   OH223167   2.261   2.924   5.897
 7737TIP3    H123168   2.336   2.879   5.858
 7737TIP3    H223169   2.274   3.016   5.875
 7738TIP3   OH223170   5.224   7.557   3.578
 7738TIP3    H123171   5.162   7.508   3.524
 7738TIP3    H223172   5.310   7.536   3.541
 7739TIP3   OH223173   2.618   5.439   4.272
 7739TIP3    H123174   2.712   5.451   4.257
 7739TIP3    H223175   2.613   5.383   4.350
 7740TIP3   OH223176   2.327   2.509   6.372
 7740TIP3    H123177   2.288   2.499   6.458
 7740TIP3    H223178   2.418   2.481   6.383
 7741TIP3   OH223179   1.002   5.666   1.445
 7741TIP3    H123180   0.917   5.643   1.408
 7741TIP3    H223181   1.011   5.610   1.522
 7742TIP3   OH223182   1.586   3.363   2.657
 7742TIP3    H123183   1.555   3.284   2.701
 7742TIP3    H223184   1.513   3.390   2.602
 7743TIP3   OH223185   4.982   6.773   2.430
 7743TIP3    H123186   4.994   6.681   2.408
 7743TIP3    H223187   5.013   6.780   2.520
 7744TIP3   OH223188   5.505   7.725   1.259
 7744TIP3    H123189   5.487   7.775   1.179
 7744TIP3    H223190   5.481   7.635   1.236
 7745TIP3   OH223191   7.526   4.127   2.478
 7745TIP3    H123192   7.526   4.174   2.561
 7745TIP3    H223193   7.592   4.058   2.489
 7746TIP3   OH223194   2.931   0.827   2.759
 7746TIP3    H123195   2.888   0.888   2.699
 7746TIP3    H223196   2.962   0.882   2.831
 7747TIP3   OH223197   7.288   0.917   5.279
 7747TIP3    H123198   7.361   0.894   5.222
 7747TIP3    H223199   7.318   0.995   5.326
 7748TIP3   OH223200   3.757   0.821   4.880
 7748TIP3    H123201   3.712   0.755   4.827
 7748TIP3    H223202   3.849   0.799   4.872
 7749TIP3   OH223203   2.930   7.129   6.650
 7749TIP3    H123204   2.891   7.214   6.672
 7749TIP3    H223205   2.967   7.098   6.732
 7750TIP3   OH223206   2.286   0.459   4.014
 7750TIP3    H123207   2.232   0.410   4.076
 7750TIP3    H223208   2.224   0.503   3.957
 7751TIP3   OH223209   1.327   1.135   4.866
 7751TIP3    H123210   1.422   1.149   4.860
 7751TIP3    H223211   1.292   1.173   4.785
 7752TIP3   OH223212   4.011   1.426   2.130
 7752TIP3    H123213   3.954   1.501   2.145
 7752TIP3    H223214   4.084   1.461   2.079
 7753TIP3   OH223215   3.001   7.556   1.993
 7753TIP3    H123216   2.993   7.651   2.003
 7753TIP3    H223217   2.913   7.522   2.010
 7754TIP3   OH223218   0.404   7.217   3.765
 7754TIP3    H123219   0.383   7.145   3.824
 7754TIP3    H223220   0.458   7.277   3.817
 7755TIP3   OH223221   4.826   4.926   6.271
 7755TIP3    H123222   4.834   4.847   6.216
 7755TIP3    H223223   4.798   4.994   6.210
 7756TIP3   OH223224   2.132   2.225   2.919
 7756TIP3    H123225   2.082   2.242   2.999
 7756TIP3    H223226   2.164   2.135   2.929
 7757TIP3   OH223227   2.041   7.447   3.942
 7757TIP3    H123228   2.003   7.435   4.029
 7757TIP3    H223229   1.966   7.471   3.887
 7758TIP3   OH223230   7.501   2.049   3.539
 7758TIP3    H123231   7.434   2.068   3.474
 7758TIP3    H223232   7.568   2.117   3.526
 7759TIP3   OH223233   1.894   1.159   1.217
 7759TIP3    H123234   1.864   1.121   1.135
 7759TIP3    H223235   1.978   1.116   1.233
 7760TIP3   OH223236   5.706   6.395   5.815
 7760TIP3    H123237   5.637   6.328   5.814
 7760TIP3    H223238   5.676   6.461   5.753
 7761TIP3   OH223239   6.051   4.674   4.411
 7761TIP3    H123240   6.004   4.620   4.348
 7761TIP3    H223241   6.040   4.763   4.380
 7762TIP3   OH223242   7.017   3.953   5.886
 7762TIP3    H123243   7.003   3.862   5.858
 7762TIP3    H223244   6.965   3.962   5.966
 7763TIP3   OH223245   6.608   5.346   1.628
 7763TIP3    H123246   6.612   5.371   1.536
 7763TIP3    H223247   6.607   5.250   1.627
 7764TIP3   OH223248   1.580   1.453   3.791
 7764TIP3    H123249   1.544   1.466   3.703
 7764TIP3    H223250   1.617   1.538   3.814
 7765TIP3   OH223251   8.133   1.425   1.388
 7765TIP3    H123252   8.058   1.474   1.423
 7765TIP3    H223253   8.205   1.446   1.447
 7766TIP3   OH223254   8.008   6.235   1.575
 7766TIP3    H123255   8.035   6.311   1.627
 7766TIP3    H223256   8.010   6.162   1.636
 7767TIP3   OH223257   0.827   0.860   4.048
 7767TIP3    H123258   0.760   0.874   3.981
 7767TIP3    H223259   0.893   0.806   4.005
 7768TIP3   OH223260   2.643   7.137   5.447
 7768TIP3    H123261   2.623   7.044   5.440
 7768TIP3    H223262   2.637   7.170   5.357
 7769TIP3   OH223263   8.276   4.074   4.478
 7769TIP3    H123264   8.339   4.081   4.406
 7769TIP3    H223265   8.192   4.063   4.435
 7770TIP3   OH223266   4.503   1.068   3.170
 7770TIP3    H123267   4.451   1.077   3.091
 7770TIP3    H223268   4.570   1.003   3.148
 7771TIP3   OH223269   7.360   4.275   6.365
 7771TIP3    H123270   7.400   4.351   6.409
 7771TIP3    H223271   7.433   4.214   6.353
 7772TIP3   OH223272   6.634   1.586   6.373
 7772TIP3    H123273   6.680   1.540   6.303
 7772TIP3    H223274   6.686   1.569   6.452
 7773TIP3   OH223275   5.929   2.897   4.320
 7773TIP3    H123276   5.902   2.964   4.258
 7773TIP3    H223277   5.976   2.833   4.267
 7774TIP3   OH223278   2.215   7.490   3.602
 7774TIP3    H123279   2.244   7.512   3.690
 7774TIP3    H223280   2.260   7.553   3.545
 7775TIP3   OH223281   6.676   2.500   6.606
 7775TIP3    H123282   6.683   2.594   6.625
 7775TIP3    H223283   6.677   2.495   6.511
 7776TIP3   OH223284   3.152   0.263   5.334
 7776TIP3    H123285   3.129   0.278   5.242
 7776TIP3    H223286   3.211   0.187   5.331
 7777TIP3   OH223287   4.357   2.265   2.727
 7777TIP3    H123288   4.289   2.278   2.661
 7777TIP3    H223289   4.340   2.177   2.761
 7778TIP3   OH223290   3.864   1.650   3.814
 7778TIP3    H123291   3.797   1.585   3.793
 7778TIP3    H223292   3.869   1.705   3.736
 7779TIP3   OH223293   5.329   3.012   3.402
 7779TIP3    H123294   5.313   2.930   3.356
 7779TIP3    H223295   5.307   2.993   3.493
 7780TIP3   OH223296   6.431   4.508   4.754
 7780TIP3    H123297   6.386   4.506   4.838
 7780TIP3    H223298   6.381   4.449   4.698
 7781TIP3   OH223299   5.510   7.786   5.499
 7781TIP3    H123300   5.589   7.743   5.468
 7781TIP3    H223301   5.541   7.857   5.555
 7782TIP3   OH223302   0.584   7.811   0.177
 7782TIP3    H123303   0.532   7.731   0.176
 7782TIP3    H223304   0.671   7.783   0.205
 7783TIP3   OH223305   5.916   6.651   2.808
 7783TIP3    H123306   5.958   6.683   2.888
 7783TIP3    H223307   5.906   6.730   2.754
 7784TIP3   OH223308   2.257   5.307   3.394
 7784TIP3    H123309   2.314   5.323   3.469
 7784TIP3    H223310   2.176   5.354   3.415
 7785TIP3   OH223311   0.648   5.818   3.934
 7785TIP3    H123312   0.574   5.803   3.994
 7785TIP3    H223313   0.693   5.734   3.930
 7786TIP3   OH223314   0.267   1.541   6.260
 7786TIP3    H123315   0.292   1.475   6.195
 7786TIP3    H223316   0.173   1.531   6.271
 7787TIP3   OH223317   1.731   0.478   1.264
 7787TIP3    H123318   1.813   0.498   1.218
 7787TIP3    H223319   1.705   0.393   1.230
 7788TIP3   OH223320   6.470   3.888   6.540
 7788TIP3    H123321   6.503   3.977   6.528
 7788TIP3    H223322   6.382   3.889   6.502
 7789TIP3   OH223323   1.484   1.635   3.202
 7789TIP3    H123324   1.435   1.553   3.198
 7789TIP3    H223325   1.425   1.697   3.244
 7790TIP3   OH223326   7.054   6.736   2.818
 7790TIP3    H123327   7.010   6.801   2.763
 7790TIP3    H223328   7.119   6.787   2.867
 7791TIP3   OH223329   3.814   6.367   5.408
 7791TIP3    H123330   3.745   6.359   5.474
 7791TIP3    H223331   3.774   6.418   5.338
 7792TIP3   OH223332   6.744   6.339   2.473
 7792TIP3    H123333   6.689   6.386   2.410
 7792TIP3    H223334   6.717   6.374   2.558
 7793TIP3   OH223335   2.449   3.350   5.959
 7793TIP3    H123336   2.417   3.337   5.869
 7793TIP3    H223337   2.424   3.270   6.005
 7794TIP3   OH223338   1.813   2.908   0.546
 7794TIP3    H123339   1.733   2.864   0.516
 7794TIP3    H223340   1.781   2.988   0.588
 7795TIP3   OH223341   4.933   0.400   1.496
 7795TIP3    H123342   4.857   0.346   1.477
 7795TIP3    H223343   4.992   0.385   1.422
 7796TIP3   OH223344   8.090   0.474   1.102
 7796TIP3    H123345   8.094   0.398   1.161
 7796TIP3    H223346   8.042   0.441   1.025
 7797TIP3   OH223347   6.430   2.402   1.497
 7797TIP3    H123348   6.356   2.389   1.437
 7797TIP3    H223349   6.423   2.494   1.523
 7798TIP3   OH223350   4.098   0.591   3.997
 7798TIP3    H123351   4.095   0.522   3.931
 7798TIP3    H223352   4.111   0.544   4.080
 7799TIP3   OH223353   2.155   6.614   4.154
 7799TIP3    H123354   2.135   6.707   4.139
 7799TIP3    H223355   2.168   6.608   4.249
 7800TIP3   OH223356   7.061   0.776   5.253
 7800TIP3    H123357   7.085   0.686   5.234
 7800TIP3    H223358   7.144   0.824   5.254
 7801TIP3   OH223359   2.879   0.984   2.968
 7801TIP3    H123360   2.920   0.999   3.053
 7801TIP3    H223361   2.936   1.028   2.905
 7802TIP3   OH223362   5.316   0.163   3.905
 7802TIP3    H123363   5.362   0.085   3.937
 7802TIP3    H223364   5.293   0.211   3.984
 7803TIP3   OH223365   6.217   5.276   1.075
 7803TIP3    H123366   6.309   5.301   1.078
 7803TIP3    H223367   6.184   5.298   1.162
 7804TIP3   OH223368   2.309   6.644   1.149
 7804TIP3    H123369   2.267   6.725   1.178
 7804TIP3    H223370   2.327   6.658   1.056
 7805TIP3   OH223371   6.589   0.855   4.439
 7805TIP3    H123372   6.598   0.899   4.524
 7805TIP3    H223373   6.678   0.851   4.405
 7806TIP3   OH223374   5.532   0.095   2.319
 7806TIP3    H123375   5.544   0.001   2.304
 7806TIP3    H223376   5.573   0.111   2.404
 7807TIP3   OH223377   0.038   1.059   0.853
 7807TIP3    H123378  -0.003   1.011   0.926
 7807TIP3    H223379  -0.007   1.143   0.851
 7808TIP3   OH223380   3.403   0.316   3.515
 7808TIP3    H123381   3.453   0.257   3.459
 7808TIP3    H223382   3.382   0.391   3.460
 7809TIP3   OH223383   2.285   0.756   3.407
 7809TIP3    H123384   2.221   0.769   3.477
 7809TIP3    H223385   2.268   0.826   3.344
 7810TIP3   OH223386   6.735   2.943   4.791
 7810TIP3    H123387   6.827   2.958   4.769
 7810TIP3    H223388   6.687   2.979   4.717
 7811TIP3   OH223389   4.601   3.775   2.515
 7811TIP3    H123390   4.676   3.728   2.550
 7811TIP3    H223391   4.640   3.849   2.467
 7812TIP3   OH223392   5.514   4.653   0.817
 7812TIP3    H123393   5.564   4.614   0.745
 7812TIP3    H223394   5.423   4.644   0.791
 7813TIP3   OH223395  -0.010   7.154   6.413
 7813TIP3    H123396   0.033   7.187   6.492
 7813TIP3    H223397   0.022   7.211   6.343
 7814TIP3   OH223398   2.075   7.623   6.099
 7814TIP3    H123399   2.146   7.593   6.042
 7814TIP3    H223400   2.099   7.713   6.121
 7815TIP3   OH223401   7.482   2.921   3.231
 7815TIP3    H123402   7.461   2.930   3.324
 7815TIP3    H223403   7.573   2.892   3.230
 7816TIP3   OH223404   5.473   0.295   1.039
 7816TIP3    H123405   5.470   0.322   1.131
 7816TIP3    H223406   5.487   0.376   0.991
 7817TIP3   OH223407   7.921   6.634   3.820
 7817TIP3    H123408   8.001   6.684   3.837
 7817TIP3    H223409   7.868   6.645   3.899
 7818TIP3   OH223410   1.532   6.007   1.387
 7818TIP3    H123411   1.603   5.946   1.365
 7818TIP3    H223412   1.517   6.057   1.307
 7819TIP3   OH223413   0.847   5.852   3.011
 7819TIP3    H123414   0.810   5.903   2.940
 7819TIP3    H223415   0.835   5.761   2.985
 7820TIP3   OH223416   2.498   0.622   2.709
 7820TIP3    H123417   2.477   0.558   2.777
 7820TIP3    H223418   2.594   0.617   2.702
 7821TIP3   OH223419   1.842   6.313   1.721
 7821TIP3    H123420   1.848   6.331   1.627
 7821TIP3    H223421   1.855   6.218   1.727
 7822TIP3   OH223422   1.217   3.900   2.904
 7822TIP3    H123423   1.307   3.880   2.877
 7822TIP3    H223424   1.171   3.816   2.897
 7823TIP3   OH223425   6.065   2.445   4.139
 7823TIP3    H123426   6.051   2.358   4.178
 7823TIP3    H223427   6.025   2.440   4.053
 7824TIP3   OH223428   7.766   0.660   3.810
 7824TIP3    H123429   7.702   0.593   3.788
 7824TIP3    H223430   7.713   0.737   3.831
 7825TIP3   OH223431   4.530   2.834   2.895
 7825TIP3    H123432   4.613   2.790   2.877
 7825TIP3    H223433   4.508   2.878   2.813
 7826TIP3   OH223434   1.001   7.395   4.048
 7826TIP3    H123435   1.084   7.443   4.053
 7826TIP3    H223436   0.935   7.459   4.076
 7827TIP3   OH223437   4.878   1.078   3.972
 7827TIP3    H123438   4.933   1.131   3.914
 7827TIP3    H223439   4.928   0.998   3.987
 7828TIP3   OH223440   4.635   3.277   2.847
 7828TIP3    H123441   4.644   3.261   2.941
 7828TIP3    H223442   4.605   3.368   2.841
 7829TIP3   OH223443   1.704   0.904   2.326
 7829TIP3    H123444   1.787   0.883   2.367
 7829TIP3    H223445   1.725   0.972   2.263
 7830TIP3   OH223446   1.479   4.438   0.506
 7830TIP3    H123447   1.421   4.510   0.530
 7830TIP3    H223448   1.524   4.414   0.587
 7831TIP3   OH223449   3.157   3.455   1.088
 7831TIP3    H123450   3.142   3.384   1.025
 7831TIP3    H223451   3.250   3.476   1.078
 7832TIP3   OH223452   0.057   6.907   6.635
 7832TIP3    H123453   0.103   6.829   6.605
 7832TIP3    H223454   0.125   6.974   6.639
 7833TIP3   OH223455   6.035   2.020   5.172
 7833TIP3    H123456   6.039   2.038   5.078
 7833TIP3    H223457   5.983   2.092   5.208
 7834TIP3   OH223458   0.629   1.890   3.071
 7834TIP3    H123459   0.618   1.836   2.993
 7834TIP3    H223460   0.588   1.974   3.048
 7835TIP3   OH223461   4.016   0.115   0.794
 7835TIP3    H123462   4.011   0.147   0.884
 7835TIP3    H223463   4.069   0.181   0.748
 7836TIP3   OH223464   0.461   3.583   4.261
 7836TIP3    H123465   0.377   3.550   4.291
 7836TIP3    H223466   0.510   3.600   4.342
 7837TIP3   OH223467   1.256   4.804   3.451
 7837TIP3    H123468   1.203   4.803   3.530
 7837TIP3    H223469   1.203   4.760   3.385
 7838TIP3   OH223470   1.523   2.294   2.930
 7838TIP3    H123471   1.496   2.207   2.900
 7838TIP3    H223472   1.614   2.302   2.899
 7839TIP3   OH223473   8.096   0.238   5.671
 7839TIP3    H123474   8.035   0.309   5.651
 7839TIP3    H223475   8.047   0.158   5.657
 7840TIP3   OH223476   2.627   2.156   6.102
 7840TIP3    H123477   2.536   2.162   6.074
 7840TIP3    H223478   2.677   2.161   6.021
 7841TIP3   OH223479   5.695   7.381   3.200
 7841TIP3    H123480   5.733   7.330   3.129
 7841TIP3    H223481   5.686   7.319   3.272
 7842TIP3   OH223482   1.991   4.037   1.049
 7842TIP3    H123483   2.035   3.994   1.122
 7842TIP3    H223484   2.023   3.991   0.971
 7843TIP3   OH223485   2.978   7.517   5.787
 7843TIP3    H123486   3.051   7.515   5.850
 7843TIP3    H223487   3.006   7.459   5.716
 7844TIP3   OH223488   7.395   2.071   5.136
 7844TIP3    H123489   7.432   1.986   5.158
 7844TIP3    H223490   7.470   2.130   5.128
 7845TIP3   OH223491   6.620   0.341   4.394
 7845TIP3    H123492   6.584   0.426   4.370
 7845TIP3    H223493   6.572   0.278   4.341
 7846TIP3   OH223494   2.079   2.388   6.604
 7846TIP3    H123495   2.079   2.360   6.696
 7846TIP3    H223496   2.111   2.311   6.556
 7847TIP3   OH223497   1.167   0.153   1.263
 7847TIP3    H123498   1.131   0.198   1.187
 7847TIP3    H223499   1.186   0.064   1.232
 7848TIP3   OH223500   1.221   3.796   2.577
 7848TIP3    H123501   1.197   3.859   2.509
 7848TIP3    H223502   1.137   3.760   2.607
 7849TIP3   OH223503   4.854   3.177   5.303
 7849TIP3    H123504   4.851   3.236   5.378
 7849TIP3    H223505   4.801   3.102   5.329
 7850TIP3   OH223506   0.634   2.047   1.425
 7850TIP3    H123507   0.700   2.106   1.389
 7850TIP3    H223508   0.658   1.960   1.392
 7851TIP3   OH223509   1.506   7.342   6.191
 7851TIP3    H123510   1.522   7.333   6.097
 7851TIP3    H223511   1.563   7.276   6.231
 7852TIP3   OH223512   5.152   0.629   6.230
 7852TIP3    H123513   5.192   0.681   6.160
 7852TIP3    H223514   5.167   0.680   6.309
 7853TIP3   OH223515   1.815   7.330   3.391
 7853TIP3    H123516   1.908   7.312   3.405
 7853TIP3    H223517   1.782   7.357   3.476
 7854TIP3   OH223518   2.900   2.837   2.839
 7854TIP3    H123519   2.980   2.803   2.799
 7854TIP3    H223520   2.915   2.932   2.845
 7855TIP3   OH223521   1.004   6.823   4.194
 7855TIP3    H123522   0.935   6.889   4.205
 7855TIP3    H223523   1.061   6.836   4.270
 7856TIP3   OH223524   4.538   5.629   1.325
 7856TIP3    H123525   4.443   5.636   1.312
 7856TIP3    H223526   4.548   5.559   1.390
 7857TIP3   OH223527   2.160   5.582   4.670
 7857TIP3    H123528   2.162   5.526   4.592
 7857TIP3    H223529   2.244   5.628   4.669
 7858TIP3   OH223530   2.390   4.730   5.374
 7858TIP3    H123531   2.455   4.799   5.363
 7858TIP3    H223532   2.306   4.776   5.376
 7859TIP3   OH223533   0.343   5.612   3.030
 7859TIP3    H123534   0.324   5.603   3.123
 7859TIP3    H223535   0.379   5.701   3.022
 7860TIP3   OH223536   6.292   4.981   0.643
 7860TIP3    H123537   6.246   5.047   0.694
 7860TIP3    H223538   6.362   4.949   0.701
 7861TIP3   OH223539   6.026   4.161   4.155
 7861TIP3    H123540   6.047   4.080   4.108
 7861TIP3    H223541   5.965   4.133   4.223
 7862TIP3   OH223542   2.764   3.323   1.805
 7862TIP3    H123543   2.791   3.247   1.856
 7862TIP3    H223544   2.669   3.328   1.816
 7863TIP3   OH223545   0.805   3.714   6.523
 7863TIP3    H123546   0.843   3.645   6.578
 7863TIP3    H223547   0.840   3.795   6.559
 7864TIP3   OH223548   4.496   6.450   1.568
 7864TIP3    H123549   4.575   6.501   1.583
 7864TIP3    H223550   4.426   6.515   1.563
 7865TIP3   OH223551   7.968   5.965   6.718
 7865TIP3    H123552   8.046   5.996   6.764
 7865TIP3    H223553   7.956   6.028   6.647
 7866TIP3   OH223554   0.934   6.443   4.469
 7866TIP3    H123555   0.912   6.357   4.434
 7866TIP3    H223556   0.927   6.502   4.394
 7867TIP3   OH223557   1.869   1.740   0.907
 7867TIP3    H123558   1.890   1.655   0.944
 7867TIP3    H223559   1.784   1.763   0.945
 7868TIP3   OH223560   2.213   0.587   2.688
 7868TIP3    H123561   2.301   0.624   2.689
 7868TIP3    H223562   2.161   0.647   2.741
 7869TIP3   OH223563   6.901   4.941   4.806
 7869TIP3    H123564   6.879   4.880   4.877
 7869TIP3    H223565   6.977   4.902   4.764
 7870TIP3   OH223566   2.583   0.824   5.669
 7870TIP3    H123567   2.612   0.913   5.651
 7870TIP3    H223568   2.660   0.769   5.653
 7871TIP3   OH223569   6.116   1.079   3.530
 7871TIP3    H123570   6.077   1.079   3.443
 7871TIP3    H223571   6.063   1.017   3.580
 7872TIP3   OH223572   6.272   0.684   1.663
 7872TIP3    H123573   6.296   0.769   1.624
 7872TIP3    H223574   6.213   0.644   1.599
 7873TIP3   OH223575   0.812   4.029   1.555
 7873TIP3    H123576   0.869   3.968   1.508
 7873TIP3    H223577   0.741   3.975   1.589
 7874TIP3   OH223578   1.508   2.983   2.417
 7874TIP3    H123579   1.421   3.011   2.387
 7874TIP3    H223580   1.540   2.925   2.348
 7875TIP3   OH223581   5.312   6.374   0.995
 7875TIP3    H123582   5.366   6.337   1.065
 7875TIP3    H223583   5.228   6.331   1.005
 7876TIP3   OH223584   1.243   1.050   1.298
 7876TIP3    H123585   1.213   0.984   1.361
 7876TIP3    H223586   1.329   1.077   1.332
 7877TIP3   OH223587   4.459   5.825   3.711
 7877TIP3    H123588   4.448   5.773   3.631
 7877TIP3    H223589   4.484   5.761   3.778
 7878TIP3   OH223590   8.281   3.358   3.379
 7878TIP3    H123591   8.248   3.305   3.306
 7878TIP3    H223592   8.202   3.387   3.425
 7879TIP3   OH223593   5.682   0.437   0.203
 7879TIP3    H123594   5.672   0.532   0.192
 7879TIP3    H223595   5.649   0.420   0.291
 7880TIP3   OH223596   7.984   7.294   3.189
 7880TIP3    H123597   7.973   7.207   3.226
 7880TIP3    H223598   7.895   7.330   3.185
 7881TIP3   OH223599   7.972   7.448   1.764
 7881TIP3    H123600   8.052   7.492   1.792
 7881TIP3    H223601   7.979   7.446   1.668
 7882TIP3   OH223602   3.221   6.998   1.399
 7882TIP3    H123603   3.186   7.085   1.382
 7882TIP3    H223604   3.310   7.014   1.430
 7883TIP3   OH223605   4.277   1.006   4.538
 7883TIP3    H123606   4.283   0.911   4.532
 7883TIP3    H223607   4.317   1.038   4.458
 7884TIP3   OH223608   7.260   1.932   2.624
 7884TIP3    H123609   7.182   1.986   2.606
 7884TIP3    H223610   7.332   1.995   2.626
 7885TIP3   OH223611   5.366   0.814   1.183
 7885TIP3    H123612   5.432   0.751   1.215
 7885TIP3    H223613   5.288   0.795   1.235
 7886TIP3   OH223614   7.133   6.124   6.312
 7886TIP3    H123615   7.109   6.035   6.335
 7886TIP3    H223616   7.081   6.145   6.235
 7887TIP3   OH223617   0.901   0.015   5.915
 7887TIP3    H123618   0.949   0.057   5.843
 7887TIP3    H223619   0.809   0.033   5.896
 7888TIP3   OH223620   8.290   4.001   2.273
 7888TIP3    H123621   8.201   3.977   2.245
 7888TIP3    H223622   8.280   4.091   2.305
 7889TIP3   OH223623   8.204   5.851   0.028
 7889TIP3    H123624   8.177   5.882  -0.058
 7889TIP3    H223625   8.166   5.913   0.089
 7890TIP3   OH223626   8.098   6.552   6.654
 7890TIP3    H123627   8.151   6.570   6.576
 7890TIP3    H223628   8.161   6.522   6.719
 7891TIP3   OH223629   1.745   2.909   5.220
 7891TIP3    H123630   1.718   2.902   5.311
 7891TIP3    H223631   1.769   3.001   5.209
 7892TIP3   OH223632   5.193   1.018   2.021
 7892TIP3    H123633   5.192   1.107   2.058
 7892TIP3    H223634   5.116   1.015   1.964
 7893TIP3   OH223635   7.297   1.917   1.045
 7893TIP3    H123636   7.261   1.995   1.087
 7893TIP3    H223637   7.346   1.952   0.970
 7894TIP3   OH223638   5.062   2.893   1.035
 7894TIP3    H123639   4.997   2.860   0.974
 7894TIP3    H223640   5.050   2.988   1.033
 7895TIP3   OH223641   4.316   4.467   0.150
 7895TIP3    H123642   4.368   4.396   0.187
 7895TIP3    H223643   4.241   4.475   0.209
 7896TIP3   OH223644   6.313   5.487   3.195
 7896TIP3    H123645   6.375   5.530   3.136
 7896TIP3    H223646   6.233   5.540   3.189
 7897TIP3   OH223647   0.316   6.942   3.607
 7897TIP3    H123648   0.253   6.892   3.658
 7897TIP3    H223649   0.401   6.921   3.646
 7898TIP3   OH223650   6.816   3.713   2.081
 7898TIP3    H123651   6.815   3.712   2.177
 7898TIP3    H223652   6.822   3.621   2.056
 7899TIP3   OH223653   1.587   7.513   0.892
 7899TIP3    H123654   1.652   7.506   0.962
 7899TIP3    H223655   1.567   7.423   0.867
 7900TIP3   OH223656   6.796   1.180   2.228
 7900TIP3    H123657   6.747   1.211   2.152
 7900TIP3    H223658   6.730   1.138   2.283
 7901TIP3   OH223659   4.731   6.641   5.194
 7901TIP3    H123660   4.752   6.555   5.230
 7901TIP3    H223661   4.675   6.623   5.119
 7902TIP3   OH223662   3.383   4.015   0.260
 7902TIP3    H123663   3.313   3.969   0.306
 7902TIP3    H223664   3.385   4.102   0.300
 7903TIP3   OH223665   1.530   5.573   4.567
 7903TIP3    H123666   1.489   5.514   4.631
 7903TIP3    H223667   1.502   5.660   4.594
 7904TIP3   OH223668   3.934   2.577   1.851
 7904TIP3    H123669   3.883   2.563   1.772
 7904TIP3    H223670   3.888   2.527   1.919
 7905TIP3   OH223671   8.057   0.715   4.946
 7905TIP3    H123672   8.106   0.725   4.864
 7905TIP3    H223673   8.080   0.792   4.997
 7906TIP3   OH223674   3.670   5.187   1.820
 7906TIP3    H123675   3.636   5.254   1.879
 7906TIP3    H223676   3.594   5.157   1.771
 7907TIP3   OH223677   8.208   0.881   1.691
 7907TIP3    H123678   8.285   0.906   1.642
 7907TIP3    H223679   8.170   0.964   1.721
 7908TIP3   OH223680   2.709   3.754   2.742
 7908TIP3    H123681   2.615   3.733   2.743
 7908TIP3    H223682   2.711   3.849   2.753
 7909TIP3   OH223683   8.060   2.188   2.470
 7909TIP3    H123684   8.026   2.275   2.449
 7909TIP3    H223685   8.151   2.191   2.441
 7910TIP3   OH223686   1.835   6.049   1.748
 7910TIP3    H123687   1.842   6.003   1.664
 7910TIP3    H223688   1.768   6.002   1.796
 7911TIP3   OH223689   6.049   0.768   6.443
 7911TIP3    H123690   6.100   0.792   6.365
 7911TIP3    H223691   5.976   0.716   6.409
 7912TIP3   OH223692   2.159   3.934   1.799
 7912TIP3    H123693   2.180   3.970   1.713
 7912TIP3    H223694   2.098   3.996   1.837
 7913TIP3   OH223695   5.326   6.955   4.912
 7913TIP3    H123696   5.234   6.934   4.893
 7913TIP3    H223697   5.334   7.048   4.892
 7914TIP3   OH223698   7.637   6.251   5.743
 7914TIP3    H123699   7.628   6.175   5.801
 7914TIP3    H223700   7.697   6.222   5.674
 7915TIP3   OH223701   0.667   6.196   4.831
 7915TIP3    H123702   0.676   6.280   4.876
 7915TIP3    H223703   0.605   6.212   4.761
 7916TIP3   OH223704   1.083   0.821   2.667
 7916TIP3    H123705   1.155   0.884   2.663
 7916TIP3    H223706   1.078   0.784   2.579
 7917TIP3   OH223707   6.905   0.008   6.737
 7917TIP3    H123708   6.920   0.102   6.739
 7917TIP3    H223709   6.936  -0.019   6.650
 7918TIP3   OH223710   5.202   6.454   5.897
 7918TIP3    H123711   5.284   6.497   5.872
 7918TIP3    H223712   5.224   6.403   5.975
 7919TIP3   OH223713   7.511   5.548   3.234
 7919TIP3    H123714   7.546   5.460   3.249
 7919TIP3    H223715   7.417   5.539   3.248
 7920TIP3   OH223716   3.369   1.455   6.129
 7920TIP3    H123717   3.335   1.544   6.124
 7920TIP3    H223718   3.374   1.426   6.038
 7921TIP3   OH223719   3.384   0.456   1.286
 7921TIP3    H123720   3.477   0.438   1.296
 7921TIP3    H223721   3.348   0.447   1.374
 7922TIP3   OH223722   5.312   2.883   2.023
 7922TIP3    H123723   5.406   2.880   2.039
 7922TIP3    H223724   5.301   2.953   1.958
 7923TIP3   OH223725   0.157   7.549   2.875
 7923TIP3    H123726   0.096   7.518   2.809
 7923TIP3    H223727   0.226   7.593   2.826
 7924TIP3   OH223728   2.431   1.472   3.212
 7924TIP3    H123729   2.356   1.531   3.223
 7924TIP3    H223730   2.440   1.430   3.297
 7925TIP3   OH223731   1.587   4.146   0.508
 7925TIP3    H123732   1.645   4.076   0.479
 7925TIP3    H223733   1.625   4.226   0.472
 7926TIP3   OH223734   5.162   1.848   2.064
 7926TIP3    H123735   5.241   1.822   2.017
 7926TIP3    H223736   5.104   1.883   1.997
 7927TIP3   OH223737   6.717   6.953   6.027
 7927TIP3    H123738   6.635   7.002   6.021
 7927TIP3    H223739   6.778   7.001   5.971
 7928TIP3   OH223740   6.439   5.660   2.551
 7928TIP3    H123741   6.506   5.632   2.614
 7928TIP3    H223742   6.371   5.700   2.604
 7929TIP3   OH223743   0.830   5.841   5.639
 7929TIP3    H123744   0.788   5.756   5.630
 7929TIP3    H223745   0.864   5.840   5.729
 7930TIP3   OH223746   4.036   3.139   2.672
 7930TIP3    H123747   3.954   3.187   2.669
 7930TIP3    H223748   4.104   3.207   2.667
 7931TIP3   OH223749   3.543   6.498   2.378
 7931TIP3    H123750   3.544   6.402   2.380
 7931TIP3    H223751   3.569   6.520   2.289
 7932TIP3   OH223752   7.338   1.888   4.893
 7932TIP3    H123753   7.357   1.959   4.954
 7932TIP3    H223754   7.244   1.872   4.904
 7933TIP3   OH223755   0.547   6.013   6.184
 7933TIP3    H123756   0.483   6.082   6.199
 7933TIP3    H223757   0.617   6.054   6.133
 7934TIP3   OH223758   2.185   1.488   0.503
 7934TIP3    H123759   2.254   1.422   0.502
 7934TIP3    H223760   2.171   1.507   0.596
 7935TIP3   OH223761   3.585   1.272   4.497
 7935TIP3    H123762   3.627   1.331   4.559
 7935TIP3    H223763   3.609   1.306   4.411
 7936TIP3   OH223764   6.654   3.926   2.366
 7936TIP3    H123765   6.665   3.830   2.369
 7936TIP3    H223766   6.738   3.960   2.397
 7937TIP3   OH223767   5.104   2.003   1.323
 7937TIP3    H123768   5.041   2.072   1.302
 7937TIP3    H223769   5.187   2.036   1.287
 7938TIP3   OH223770   5.522   6.985   5.395
 7938TIP3    H123771   5.576   7.045   5.447
 7938TIP3    H223772   5.506   6.911   5.454
 7939TIP3   OH223773   7.649   0.270   6.411
 7939TIP3    H123774   7.720   0.310   6.461
 7939TIP3    H223775   7.693   0.222   6.341
 7940TIP3   OH223776   1.939   2.959   4.178
 7940TIP3    H123777   1.850   2.940   4.207
 7940TIP3    H223778   1.931   2.970   4.083
 7941TIP3   OH223779   7.315   3.212   6.783
 7941TIP3    H123780   7.299   3.152   6.710
 7941TIP3    H223781   7.400   3.184   6.818
 7942TIP3   OH223782   5.205   7.169   6.544
 7942TIP3    H123783   5.187   7.104   6.611
 7942TIP3    H223784   5.128   7.226   6.544
 7943TIP3   OH223785   7.897   4.316   3.086
 7943TIP3    H123786   7.913   4.259   3.161
 7943TIP3    H223787   7.861   4.258   3.019
 7944TIP3   OH223788   3.912   0.758   1.525
 7944TIP3    H123789   3.955   0.688   1.574
 7944TIP3    H223790   3.829   0.720   1.497
 7945TIP3   OH223791   1.381   0.827   1.016
 7945TIP3    H123792   1.343   0.768   1.081
 7945TIP3    H223793   1.309   0.847   0.957
 7946TIP3   OH223794   3.554   2.954   4.405
 7946TIP3    H123795   3.539   3.028   4.346
 7946TIP3    H223796   3.579   2.882   4.348
 7947TIP3   OH223797   5.075   2.871   3.564
 7947TIP3    H123798   5.134   2.799   3.543
 7947TIP3    H223799   5.025   2.887   3.484
 7948TIP3   OH223800   7.595   4.200   3.452
 7948TIP3    H123801   7.628   4.111   3.436
 7948TIP3    H223802   7.509   4.201   3.410
 7949TIP3   OH223803   5.973   3.617   1.981
 7949TIP3    H123804   6.039   3.564   1.938
 7949TIP3    H223805   5.982   3.704   1.941
 7950TIP3   OH223806   7.518   3.989   4.126
 7950TIP3    H123807   7.568   3.934   4.187
 7950TIP3    H223808   7.581   4.053   4.094
 7951TIP3   OH223809   3.363   4.090   0.673
 7951TIP3    H123810   3.420   4.051   0.739
 7951TIP3    H223811   3.393   4.181   0.667
 7952TIP3   OH223812   3.844   1.653   5.030
 7952TIP3    H123813   3.841   1.611   4.944
 7952TIP3    H223814   3.883   1.587   5.088
 7953TIP3   OH223815   2.322   4.176   3.545
 7953TIP3    H123816   2.416   4.158   3.544
 7953TIP3    H223817   2.297   4.171   3.637
 7954TIP3   OH223818   7.145   6.305   0.461
 7954TIP3    H123819   7.061   6.321   0.418
 7954TIP3    H223820   7.208   6.301   0.389
 7955TIP3   OH223821   3.400   3.573   1.065
 7955TIP3    H123822   3.399   3.590   0.971
 7955TIP3    H223823   3.423   3.658   1.104
 7956TIP3   OH223824   7.533   1.504   0.242
 7956TIP3    H123825   7.452   1.555   0.240
 7956TIP3    H223826   7.509   1.422   0.284
 7957TIP3   OH223827   5.610   5.032   2.175
 7957TIP3    H123828   5.670   5.033   2.100
 7957TIP3    H223829   5.532   5.078   2.144
 7958TIP3   OH223830   7.344   1.536   6.111
 7958TIP3    H123831   7.282   1.548   6.039
 7958TIP3    H223832   7.324   1.449   6.146
 7959TIP3   OH223833   7.358   0.500   1.096
 7959TIP3    H123834   7.297   0.453   1.154
 7959TIP3    H223835   7.302   0.536   1.027
 7960TIP3   OH223836   6.654   3.577   0.510
 7960TIP3    H123837   6.575   3.629   0.524
 7960TIP3    H223838   6.622   3.487   0.504
 7961TIP3   OH223839   0.199   5.526   0.106
 7961TIP3    H123840   0.208   5.598   0.168
 7961TIP3    H223841   0.109   5.531   0.076
 7962TIP3   OH223842   1.874   6.421   0.706
 7962TIP3    H123843   1.845   6.431   0.797
 7962TIP3    H223844   1.821   6.350   0.671
 7963TIP3   OH223845   7.236   1.680   4.253
 7963TIP3    H123846   7.192   1.664   4.336
 7963TIP3    H223847   7.285   1.761   4.266
 7964TIP3   OH223848   0.976   6.526   0.502
 7964TIP3    H123849   1.048   6.474   0.466
 7964TIP3    H223850   0.937   6.470   0.568
 7965TIP3   OH223851   6.175   5.604   0.655
 7965TIP3    H123852   6.126   5.671   0.702
 7965TIP3    H223853   6.247   5.581   0.714
 7966TIP3   OH223854   4.459   5.680   3.449
 7966TIP3    H123855   4.507   5.688   3.367
 7966TIP3    H223856   4.373   5.719   3.431
 7967TIP3   OH223857   6.647   5.061   5.078
 7967TIP3    H123858   6.682   5.083   4.992
 7967TIP3    H223859   6.682   4.974   5.096
 7968TIP3   OH223860   0.106   4.657   2.692
 7968TIP3    H123861   0.024   4.676   2.737
 7968TIP3    H223862   0.079   4.611   2.613
 7969TIP3   OH223863   3.972   7.049   2.592
 7969TIP3    H123864   3.957   7.019   2.502
 7969TIP3    H223865   3.900   7.011   2.642
 7970TIP3   OH223866   0.907   0.681   4.988
 7970TIP3    H123867   0.894   0.658   5.079
 7970TIP3    H223868   0.948   0.604   4.949
 7971TIP3   OH223869   4.979   3.856   0.587
 7971TIP3    H123870   4.906   3.908   0.621
 7971TIP3    H223871   5.044   3.921   0.561
 7972TIP3   OH223872   3.271   5.755   6.386
 7972TIP3    H123873   3.271   5.661   6.367
 7972TIP3    H223874   3.297   5.796   6.303
 7973TIP3   OH223875   1.281   5.163   3.054
 7973TIP3    H123876   1.345   5.139   3.122
 7973TIP3    H223877   1.203   5.113   3.077
 7974TIP3   OH223878   0.916   0.469   3.934
 7974TIP3    H123879   0.944   0.561   3.928
 7974TIP3    H223880   0.929   0.434   3.846
 7975TIP3   OH223881   0.290   2.079   0.856
 7975TIP3    H123882   0.244   2.038   0.783
 7975TIP3    H223883   0.221   2.126   0.903
 7976TIP3   OH223884   2.047   7.298   5.084
 7976TIP3    H123885   2.022   7.264   4.998
 7976TIP3    H223886   2.131   7.257   5.102
 7977TIP3   OH223887   3.213   1.352   3.595
 7977TIP3    H123888   3.157   1.275   3.600
 7977TIP3    H223889   3.212   1.377   3.503
 7978TIP3   OH223890   8.078   6.440   5.511
 7978TIP3    H123891   8.071   6.421   5.605
 7978TIP3    H223892   8.129   6.520   5.507
 7979TIP3   OH223893   1.532   0.810   3.040
 7979TIP3    H123894   1.519   0.838   3.130
 7979TIP3    H223895   1.627   0.812   3.028
 7980TIP3   OH223896   7.186   3.148   3.075
 7980TIP3    H123897   7.213   3.238   3.096
 7980TIP3    H223898   7.244   3.123   3.003
 7981TIP3   OH223899   1.277   6.761   4.939
 7981TIP3    H123900   1.209   6.728   4.998
 7981TIP3    H223901   1.320   6.682   4.906
 7982TIP3   OH223902   7.420   7.296   2.228
 7982TIP3    H123903   7.447   7.291   2.136
 7982TIP3    H223904   7.502   7.310   2.276
 7983TIP3   OH223905   7.350   7.582   2.879
 7983TIP3    H123906   7.261   7.598   2.848
 7983TIP3    H223907   7.364   7.649   2.946
 7984TIP3   OH223908   1.327   5.842   6.147
 7984TIP3    H123909   1.330   5.746   6.139
 7984TIP3    H223910   1.235   5.861   6.165
 7985TIP3   OH223911   0.744   4.886   1.242
 7985TIP3    H123912   0.718   4.959   1.298
 7985TIP3    H223913   0.791   4.827   1.300
 7986TIP3   OH223914   0.744   0.251   4.678
 7986TIP3    H123915   0.713   0.170   4.637
 7986TIP3    H223916   0.835   0.232   4.703
 7987TIP3   OH223917   3.211   5.999   3.671
 7987TIP3    H123918   3.243   6.084   3.639
 7987TIP3    H223919   3.228   5.939   3.599
 7988TIP3   OH223920   1.580   6.413   0.669
 7988TIP3    H123921   1.508   6.407   0.732
 7988TIP3    H223922   1.597   6.507   0.661
 7989TIP3   OH223923   0.005   7.742   1.365
 7989TIP3    H123924  -0.025   7.785   1.445
 7989TIP3    H223925   0.101   7.744   1.371
 7990TIP3   OH223926   5.413   1.254   5.308
 7990TIP3    H123927   5.365   1.319   5.257
 7990TIP3    H223928   5.505   1.272   5.289
 7991TIP3   OH223929   1.373   6.059   0.107
 7991TIP3    H123930   1.375   6.073   0.201
 7991TIP3    H223931   1.304   5.993   0.094
 7992TIP3   OH223932   6.069   6.499   4.781
 7992TIP3    H123933   6.087   6.584   4.820
 7992TIP3    H223934   6.078   6.436   4.853
 7993TIP3   OH223935   4.383   0.122   6.347
 7993TIP3    H123936   4.459   0.064   6.348
 7993TIP3    H223937   4.351   0.121   6.437
 7994TIP3   OH223938   6.358   1.038   6.621
 7994TIP3    H123939   6.419   1.029   6.694
 7994TIP3    H223940   6.338   0.948   6.595
 7995TIP3   OH223941   5.589   4.629   3.424
 7995TIP3    H123942   5.505   4.645   3.380
 7995TIP3    H223943   5.593   4.534   3.434
 7996TIP3   OH223944   2.383   5.540   4.378
 7996TIP3    H123945   2.398   5.564   4.469
 7996TIP3    H223946   2.467   5.505   4.348
 7997TIP3   OH223947   7.788   7.454   6.433
 7997TIP3    H123948   7.786   7.435   6.527
 7997TIP3    H223949   7.697   7.472   6.409
 7998TIP3   OH223950   3.322   1.174   5.979
 7998TIP3    H123951   3.372   1.239   5.929
 7998TIP3    H223952   3.380   1.150   6.051
 7999TIP3   OH223953   8.258   0.796   3.847
 7999TIP3    H123954   8.237   0.767   3.758
 7999TIP3    H223955   8.180   0.773   3.898
 8000TIP3   OH223956   7.448   4.525   6.432
 8000TIP3    H123957   7.424   4.585   6.362
 8000TIP3    H223958   7.472   4.581   6.506
 8001TIP3   OH223959   7.522   5.522   2.912
 8001TIP3    H123960   7.569   5.542   2.831
 8001TIP3    H223961   7.450   5.586   2.914
 8002TIP3   OH223962   2.582   3.159   6.306
 8002TIP3    H123963   2.544   3.159   6.394
 8002TIP3    H223964   2.623   3.245   6.297
 8003TIP3   OH223965   4.957   1.982   0.023
 8003TIP3    H123966   5.051   1.999   0.014
 8003TIP3    H223967   4.918   2.069   0.033
 8004TIP3   OH223968   1.161   2.713   4.368
 8004TIP3    H123969   1.136   2.661   4.445
 8004TIP3    H223970   1.226   2.660   4.323
 8005TIP3   OH223971   0.378   4.550   4.248
 8005TIP3    H123972   0.395   4.547   4.343
 8005TIP3    H223973   0.412   4.636   4.221
 8006TIP3   OH223974   5.776   0.883   6.349
 8006TIP3    H123975   5.697   0.840   6.383
 8006TIP3    H223976   5.808   0.936   6.422
 8007TIP3   OH223977   5.230   5.711   1.648
 8007TIP3    H123978   5.277   5.627   1.654
 8007TIP3    H223979   5.138   5.687   1.653
 8008TIP3   OH223980   5.920   1.019   5.327
 8008TIP3    H123981   5.921   1.070   5.408
 8008TIP3    H223982   5.884   0.934   5.352
 8009TIP3   OH223983   5.067   1.369   5.817
 8009TIP3    H123984   5.143   1.316   5.842
 8009TIP3    H223985   5.089   1.458   5.843
 8010TIP3   OH223986   4.908   6.783   5.825
 8010TIP3    H123987   4.930   6.697   5.861
 8010TIP3    H223988   4.900   6.768   5.731
 8011TIP3   OH223989   6.535   0.394   3.414
 8011TIP3    H123990   6.460   0.453   3.430
 8011TIP3    H223991   6.599   0.419   3.481
 8012TIP3   OH223992   7.504   5.663   1.471
 8012TIP3    H123993   7.421   5.636   1.431
 8012TIP3    H223994   7.511   5.609   1.550
 8013TIP3   OH223995   7.196   3.443   5.254
 8013TIP3    H123996   7.175   3.358   5.215
 8013TIP3    H223997   7.197   3.428   5.348
 8014TIP3   OH223998   2.512   0.422   2.897
 8014TIP3    H123999   2.530   0.433   2.990
 8014TIP3    H224000   2.544   0.334   2.876
 8015TIP3   OH224001   6.852   2.022   3.912
 8015TIP3    H124002   6.865   2.073   3.832
 8015TIP3    H224003   6.757   2.019   3.924
 8016TIP3   OH224004   7.328   3.147   2.832
 8016TIP3    H124005   7.424   3.141   2.831
 8016TIP3    H224006   7.306   3.183   2.746
 8017TIP3   OH224007   8.236   4.723   3.313
 8017TIP3    H124008   8.141   4.719   3.300
 8017TIP3    H224009   8.250   4.799   3.369
 8018TIP3   OH224010   5.209   6.804   1.928
 8018TIP3    H124011   5.178   6.893   1.917
 8018TIP3    H224012   5.131   6.749   1.918
 8019TIP3   OH224013   8.192   0.124   1.678
 8019TIP3    H124014   8.246   0.048   1.655
 8019TIP3    H224015   8.241   0.167   1.748
 8020TIP3   OH224016   2.488   1.501   2.758
 8020TIP3    H124017   2.451   1.477   2.673
 8020TIP3    H224018   2.450   1.437   2.819
 8021TIP3   OH224019   7.077   4.500   2.763
 8021TIP3    H124020   7.089   4.591   2.791
 8021TIP3    H224021   7.151   4.483   2.705
 8022TIP3   OH224022   5.477   3.156   3.025
 8022TIP3    H124023   5.503   3.066   3.042
 8022TIP3    H224024   5.382   3.155   3.026
 8023TIP3   OH224025   4.388   6.903   5.310
 8023TIP3    H124026   4.376   6.997   5.318
 8023TIP3    H224027   4.423   6.890   5.223
 8024TIP3   OH224028   5.699   5.291   0.548
 8024TIP3    H124029   5.789   5.320   0.531
 8024TIP3    H224030   5.708   5.216   0.606
 8025TIP3   OH224031   1.681   5.739   0.012
 8025TIP3    H124032   1.761   5.785   0.039
 8025TIP3    H224033   1.712   5.658  -0.028
 8026TIP3   OH224034   3.707   5.838   5.283
 8026TIP3    H124035   3.759   5.902   5.234
 8026TIP3    H224036   3.768   5.768   5.302
 8027TIP3   OH224037   6.392   0.272   1.411
 8027TIP3    H124038   6.432   0.357   1.427
 8027TIP3    H224039   6.436   0.213   1.472
 8028TIP3   OH224040   6.535   7.161   3.839
 8028TIP3    H124041   6.444   7.190   3.849
 8028TIP3    H224042   6.582   7.239   3.808
 8029TIP3   OH224043   1.152   6.867   6.628
 8029TIP3    H124044   1.088   6.796   6.616
 8029TIP3    H224045   1.222   6.827   6.680
 8030TIP3   OH224046   5.068   6.900   2.205
 8030TIP3    H124047   5.101   6.818   2.167
 8030TIP3    H224048   4.997   6.873   2.263
 8031TIP3   OH224049   7.737   3.866   6.523
 8031TIP3    H124050   7.705   3.784   6.484
 8031TIP3    H224051   7.680   3.880   6.599
 8032TIP3   OH224052   1.803   5.319   1.380
 8032TIP3    H124053   1.825   5.278   1.463
 8032TIP3    H224054   1.840   5.407   1.385
 8033TIP3   OH224055   7.408   1.867   4.340
 8033TIP3    H124056   7.387   1.859   4.433
 8033TIP3    H224057   7.424   1.961   4.328
 8034TIP3   OH224058   7.831   7.236   4.294
 8034TIP3    H124059   7.874   7.321   4.285
 8034TIP3    H224060   7.862   7.202   4.378
 8035TIP3   OH224061   0.391   1.008   6.464
 8035TIP3    H124062   0.438   1.007   6.381
 8035TIP3    H224063   0.391   1.100   6.491
 8036TIP3   OH224064   7.640   1.370   1.575
 8036TIP3    H124065   7.631   1.275   1.564
 8036TIP3    H224066   7.591   1.407   1.501
 8037TIP3   OH224067   8.059   3.451   6.453
 8037TIP3    H124068   8.046   3.543   6.430
 8037TIP3    H224069   7.978   3.425   6.497
 8038TIP3   OH224070   4.020   3.005   0.317
 8038TIP3    H124071   4.051   2.985   0.229
 8038TIP3    H224072   4.100   3.017   0.368
 8039TIP3   OH224073   2.645   3.873   2.385
 8039TIP3    H124074   2.726   3.828   2.410
 8039TIP3    H224075   2.576   3.809   2.401
 8040TIP3   OH224076   3.975   5.263   3.661
 8040TIP3    H124077   3.953   5.349   3.626
 8040TIP3    H224078   4.017   5.282   3.745
 8041TIP3   OH224079   7.894   3.400   4.069
 8041TIP3    H124080   7.984   3.411   4.101
 8041TIP3    H224081   7.874   3.483   4.027
 8042TIP3   OH224082   7.474   6.289   2.134
 8042TIP3    H124083   7.391   6.326   2.164
 8042TIP3    H224084   7.478   6.203   2.175
 8043TIP3   OH224085   7.989  -0.028   1.744
 8043TIP3    H124086   8.044   0.038   1.702
 8043TIP3    H224087   7.982   0.002   1.835
 8044TIP3   OH224088   0.440   5.812   2.130
 8044TIP3    H124089   0.382   5.741   2.158
 8044TIP3    H224090   0.396   5.892   2.159
 8045TIP3   OH224091   8.142   7.070   1.118
 8045TIP3    H124092   8.202   7.134   1.081
 8045TIP3    H224093   8.055   7.100   1.092
 8046TIP3   OH224094   5.324   0.423   5.727
 8046TIP3    H124095   5.261   0.462   5.787
 8046TIP3    H224096   5.275   0.357   5.680
 8047TIP3   OH224097   3.117   3.994   3.153
 8047TIP3    H124098   3.040   4.045   3.179
 8047TIP3    H224099   3.192   4.048   3.177
 8048TIP3   OH224100   4.297   4.698   4.872
 8048TIP3    H124101   4.270   4.618   4.828
 8048TIP3    H224102   4.315   4.671   4.962
 8049TIP3   OH224103   5.055   4.647   0.540
 8049TIP3    H124104   5.024   4.577   0.483
 8049TIP3    H224105   4.981   4.665   0.598
 8050TIP3   OH224106   1.324   7.068   4.454
 8050TIP3    H124107   1.263   6.995   4.443
 8050TIP3    H224108   1.345   7.069   4.547
 8051TIP3   OH224109   5.923   6.432   5.488
 8051TIP3    H124110   5.950   6.400   5.402
 8051TIP3    H224111   5.857   6.370   5.518
 8052TIP3   OH224112   6.740   3.605   5.624
 8052TIP3    H124113   6.658   3.570   5.658
 8052TIP3    H224114   6.731   3.599   5.529
 8053TIP3   OH224115   0.573   4.572   6.372
 8053TIP3    H124116   0.633   4.636   6.409
 8053TIP3    H224117   0.494   4.623   6.351
 8054TIP3   OH224118   2.908   6.555   6.352
 8054TIP3    H124119   2.903   6.460   6.339
 8054TIP3    H224120   2.835   6.590   6.299
 8055TIP3   OH224121   4.136   5.197   4.395
 8055TIP3    H124122   4.148   5.120   4.339
 8055TIP3    H224123   4.051   5.183   4.437
 8056TIP3   OH224124   7.412   1.286   3.549
 8056TIP3    H124125   7.426   1.265   3.457
 8056TIP3    H224126   7.500   1.287   3.587
 8057TIP3   OH224127   5.055   1.050   5.563
 8057TIP3    H124128   4.975   1.002   5.586
 8057TIP3    H224129   5.025   1.137   5.538
 8058TIP3   OH224130   3.342   2.694   0.571
 8058TIP3    H124131   3.425   2.687   0.619
 8058TIP3    H224132   3.297   2.767   0.613
 8059TIP3   OH224133   7.981   3.407   0.140
 8059TIP3    H124134   7.943   3.411   0.052
 8059TIP3    H224135   7.949   3.324   0.176
 8060TIP3   OH224136   5.056   3.327   2.646
 8060TIP3    H124137   4.993   3.358   2.711
 8060TIP3    H224138   5.020   3.355   2.562
 8061TIP3   OH224139   3.103   1.037   2.337
 8061TIP3    H124140   3.090   1.128   2.308
 8061TIP3    H224141   3.017   1.010   2.369
 8062TIP3   OH224142   6.021   3.301   2.126
 8062TIP3    H124143   6.040   3.288   2.219
 8062TIP3    H224144   6.106   3.307   2.085
 8063TIP3   OH224145   1.061   2.062   6.312
 8063TIP3    H124146   1.147   2.027   6.332
 8063TIP3    H224147   1.003   2.024   6.379
 8064TIP3   OH224148   3.140   6.630   1.499
 8064TIP3    H124149   3.201   6.626   1.573
 8064TIP3    H224150   3.127   6.538   1.475
 8065TIP3   OH224151   2.616   2.701   6.478
 8065TIP3    H124152   2.600   2.684   6.386
 8065TIP3    H224153   2.682   2.637   6.504
 8066TIP3   OH224154   1.693   4.751   4.966
 8066TIP3    H124155   1.646   4.816   5.018
 8066TIP3    H224156   1.785   4.764   4.989
 8067TIP3   OH224157   4.192   5.233   0.915
 8067TIP3    H124158   4.180   5.175   0.990
 8067TIP3    H224159   4.177   5.177   0.839
 8068TIP3   OH224160   7.042   0.014   4.839
 8068TIP3    H124161   7.107   0.083   4.826
 8068TIP3    H224162   6.958   0.059   4.827
 8069TIP3   OH224163   0.683   2.290   2.574
 8069TIP3    H124164   0.646   2.364   2.623
 8069TIP3    H224165   0.777   2.302   2.580
 8070TIP3   OH224166   6.382   1.888   4.050
 8070TIP3    H124167   6.433   1.831   4.107
 8070TIP3    H224168   6.302   1.907   4.099
 8071TIP3   OH224169   8.148   4.232   6.545
 8071TIP3    H124170   8.228   4.189   6.575
 8071TIP3    H224171   8.078   4.188   6.594
 8072TIP3   OH224172   7.654   4.208   4.046
 8072TIP3    H124173   7.707   4.187   3.969
 8072TIP3    H224174   7.687   4.293   4.075
 8073TIP3   OH224175   0.235   1.433   0.759
 8073TIP3    H124176   0.297   1.365   0.786
 8073TIP3    H224177   0.261   1.455   0.669
 8074TIP3   OH224178   6.254   5.069   0.911
 8074TIP3    H124179   6.344   5.090   0.884
 8074TIP3    H224180   6.233   5.135   0.977
 8075TIP3   OH224181   1.166   3.535   0.543
 8075TIP3    H124182   1.248   3.574   0.573
 8075TIP3    H224183   1.100   3.602   0.558
 8076TIP3   OH224184   2.763   6.891   0.661
 8076TIP3    H124185   2.702   6.902   0.733
 8076TIP3    H224186   2.825   6.825   0.691
 8077TIP3   OH224187   5.806   5.068   5.372
 8077TIP3    H124188   5.820   5.146   5.426
 8077TIP3    H224189   5.745   5.097   5.304
 8078TIP3   OH224190   2.016   4.300   2.167
 8078TIP3    H124191   2.032   4.382   2.120
 8078TIP3    H224192   2.049   4.232   2.109
 8079TIP3   OH224193   5.451   4.329   0.405
 8079TIP3    H124194   5.506   4.407   0.415
 8079TIP3    H224195   5.512   4.260   0.380
 8080TIP3   OH224196   0.780   5.392   2.052
 8080TIP3    H124197   0.696   5.426   2.019
 8080TIP3    H224198   0.843   5.460   2.030
 8081TIP3   OH224199   4.637   5.220   0.648
 8081TIP3    H124200   4.605   5.291   0.704
 8081TIP3    H224201   4.729   5.209   0.673
 8082TIP3   OH224202   4.030   1.050   1.112
 8082TIP3    H124203   4.012   1.100   1.031
 8082TIP3    H224204   3.952   0.997   1.125
 8083TIP3   OH224205   1.348   1.445   6.197
 8083TIP3    H124206   1.402   1.427   6.274
 8083TIP3    H224207   1.285   1.511   6.226
 8084TIP3   OH224208   3.431   6.787   0.499
 8084TIP3    H124209   3.448   6.879   0.479
 8084TIP3    H224210   3.398   6.788   0.589
 8085TIP3   OH224211   6.840   7.434   4.018
 8085TIP3    H124212   6.825   7.341   3.997
 8085TIP3    H224213   6.930   7.437   4.050
 8086TIP3   OH224214   5.622   1.022   1.784
 8086TIP3    H124215   5.577   1.094   1.739
 8086TIP3    H224216   5.712   1.055   1.797
 8087TIP3   OH224217   1.764   0.775   6.354
 8087TIP3    H124218   1.688   0.746   6.404
 8087TIP3    H224219   1.731   0.787   6.265
 8088TIP3   OH224220   5.040   7.433   3.409
 8088TIP3    H124221   5.002   7.351   3.440
 8088TIP3    H224222   4.969   7.497   3.417
 8089TIP3   OH224223   7.711   5.721   4.503
 8089TIP3    H124224   7.695   5.773   4.582
 8089TIP3    H224225   7.679   5.776   4.432
 8090TIP3   OH224226   8.144   0.284   1.295
 8090TIP3    H124227   8.215   0.302   1.356
 8090TIP3    H224228   8.096   0.211   1.335
 8091TIP3   OH224229   8.098   1.620   5.505
 8091TIP3    H124230   8.045   1.680   5.558
 8091TIP3    H224231   8.080   1.533   5.542
 8092TIP3   OH224232   0.862   0.275   2.030
 8092TIP3    H124233   0.876   0.264   1.936
 8092TIP3    H224234   0.936   0.231   2.071
 8093TIP3   OH224235   5.470   3.402   1.024
 8093TIP3    H124236   5.403   3.345   0.986
 8093TIP3    H224237   5.447   3.489   0.993
 8094TIP3   OH224238   3.088   4.104   0.711
 8094TIP3    H124239   3.047   4.018   0.716
 8094TIP3    H224240   3.181   4.085   0.694
 8095TIP3   OH224241   0.800   2.926   2.886
 8095TIP3    H124242   0.772   2.842   2.849
 8095TIP3    H224243   0.742   2.939   2.961
 8096TIP3   OH224244   2.543   7.548   6.552
 8096TIP3    H124245   2.477   7.591   6.497
 8096TIP3    H224246   2.557   7.609   6.624
 8097TIP3   OH224247   2.643   5.355   3.798
 8097TIP3    H124248   2.727   5.388   3.827
 8097TIP3    H224249   2.581   5.384   3.865
 8098TIP3   OH224250   5.934   4.514   1.194
 8098TIP3    H124251   5.936   4.457   1.117
 8098TIP3    H224252   5.919   4.602   1.159
 8099TIP3   OH224253   3.863   6.347   1.739
 8099TIP3    H124254   3.820   6.301   1.667
 8099TIP3    H224255   3.944   6.380   1.701
 8100TIP3   OH224256   7.969   1.350   1.837
 8100TIP3    H124257   7.938   1.351   1.928
 8100TIP3    H224258   7.984   1.442   1.816
 8101TIP3   OH224259   0.780   6.731   5.181
 8101TIP3    H124260   0.820   6.650   5.214
 8101TIP3    H224261   0.844   6.799   5.201
 8102TIP3   OH224262   4.099   7.737   6.476
 8102TIP3    H124263   4.063   7.804   6.418
 8102TIP3    H224264   4.152   7.682   6.419
 8103TIP3   OH224265   5.340   6.680   5.321
 8103TIP3    H124266   5.327   6.625   5.398
 8103TIP3    H224267   5.252   6.699   5.290
 8104TIP3   OH224268   7.836   6.465   2.677
 8104TIP3    H124269   7.767   6.399   2.687
 8104TIP3    H224270   7.885   6.461   2.759
 8105TIP3   OH224271   2.010   1.058   3.699
 8105TIP3    H124272   1.977   1.108   3.624
 8105TIP3    H224273   2.022   1.123   3.767
 8106TIP3   OH224274   7.229   3.703   5.702
 8106TIP3    H124275   7.237   3.614   5.736
 8106TIP3    H224276   7.135   3.723   5.708
 8107TIP3   OH224277   3.303   3.573   5.072
 8107TIP3    H124278   3.335   3.560   4.983
 8107TIP3    H224279   3.379   3.603   5.121
 8108TIP3   OH224280   1.444   1.795   2.656
 8108TIP3    H124281   1.407   1.768   2.741
 8108TIP3    H224282   1.382   1.859   2.623
 8109TIP3   OH224283   2.262   3.222   6.758
 8109TIP3    H124284   2.356   3.243   6.755
 8109TIP3    H224285   2.238   3.208   6.667
 8110TIP3   OH224286   7.943   2.328   2.045
 8110TIP3    H124287   7.910   2.261   1.985
 8110TIP3    H224288   7.932   2.410   1.997
 8111TIP3   OH224289   3.859   1.656   1.815
 8111TIP3    H124290   3.793   1.646   1.883
 8111TIP3    H224291   3.809   1.672   1.735
 8112TIP3   OH224292   3.824   0.428   5.366
 8112TIP3    H124293   3.785   0.468   5.444
 8112TIP3    H224294   3.750   0.414   5.307
 8113TIP3   OH224295   7.512   7.218   4.338
 8113TIP3    H124296   7.543   7.128   4.347
 8113TIP3    H224297   7.590   7.268   4.313
 8114TIP3   OH224298   1.917   3.203   6.233
 8114TIP3    H124299   1.962   3.210   6.148
 8114TIP3    H224300   1.825   3.219   6.213
 8115TIP3   OH224301   4.959   7.246   4.233
 8115TIP3    H124302   4.946   7.158   4.199
 8115TIP3    H224303   4.923   7.303   4.165
 8116TIP3   OH224304   3.029   7.098   5.943
 8116TIP3    H124305   2.942   7.127   5.969
 8116TIP3    H224306   3.014   7.017   5.894
 8117TIP3   OH224307   3.382   6.589   5.752
 8117TIP3    H124308   3.422   6.584   5.839
 8117TIP3    H224309   3.447   6.635   5.699
 8118TIP3   OH224310   6.713   0.128   4.071
 8118TIP3    H124311   6.746   0.043   4.099
 8118TIP3    H224312   6.701   0.120   3.976
 8119TIP3   OH224313   7.707   1.431   4.568
 8119TIP3    H124314   7.765   1.380   4.625
 8119TIP3    H224315   7.715   1.521   4.600
 8120TIP3   OH224316   2.862   2.838   2.490
 8120TIP3    H124317   2.800   2.767   2.475
 8120TIP3    H224318   2.837   2.875   2.575
 8121TIP3   OH224319   4.989   4.025   6.563
 8121TIP3    H124320   5.009   3.965   6.634
 8121TIP3    H224321   4.904   4.063   6.587
 8122TIP3   OH224322   1.558   1.588   4.081
 8122TIP3    H124323   1.613   1.533   4.137
 8122TIP3    H224324   1.469   1.576   4.114
 8123TIP3   OH224325   3.926   5.653   5.283
 8123TIP3    H124326   3.931   5.590   5.355
 8123TIP3    H224327   4.004   5.635   5.231
 8124TIP3   OH224328   4.619   7.710   6.381
 8124TIP3    H124329   4.666   7.732   6.461
 8124TIP3    H224330   4.533   7.752   6.392
 8125TIP3   OH224331   4.308   4.242   2.157
 8125TIP3    H124332   4.300   4.189   2.078
 8125TIP3    H224333   4.319   4.178   2.227
 8126TIP3   OH224334   8.018   0.740   1.166
 8126TIP3    H124335   8.087   0.674   1.175
 8126TIP3    H224336   7.994   0.762   1.256
 8127TIP3   OH224337   3.001   1.903   6.712
 8127TIP3    H124338   3.024   1.900   6.619
 8127TIP3    H224339   2.913   1.866   6.716
 8128TIP3   OH224340   3.196   2.053   3.332
 8128TIP3    H124341   3.220   2.142   3.308
 8128TIP3    H224342   3.269   2.021   3.385
 8129TIP3   OH224343   4.362   7.058   1.467
 8129TIP3    H124344   4.378   6.972   1.505
 8129TIP3    H224345   4.327   7.040   1.380
 8130TIP3   OH224346   4.533   0.785   3.375
 8130TIP3    H124347   4.514   0.865   3.424
 8130TIP3    H224348   4.488   0.797   3.291
 8131TIP3   OH224349   1.666   0.347   0.196
 8131TIP3    H124350   1.595   0.393   0.242
 8131TIP3    H224351   1.746   0.375   0.242
 8132TIP3   OH224352   1.152   1.991   0.634
 8132TIP3    H124353   1.113   1.919   0.583
 8132TIP3    H224354   1.078   2.037   0.672
 8133TIP3   OH224355   8.169   3.777   3.329
 8133TIP3    H124356   8.181   3.868   3.355
 8133TIP3    H224357   8.219   3.727   3.394
 8134TIP3   OH224358   5.725   3.906   3.271
 8134TIP3    H124359   5.720   3.811   3.258
 8134TIP3    H224360   5.635   3.932   3.290
 8135TIP3   OH224361   4.616   5.370   6.305
 8135TIP3    H124362   4.677   5.441   6.324
 8135TIP3    H224363   4.615   5.365   6.209
 8136TIP3   OH224364   6.534   6.020   1.547
 8136TIP3    H124365   6.515   6.090   1.483
 8136TIP3    H224366   6.613   6.050   1.592
 8137TIP3   OH224367   0.812   6.183   2.178
 8137TIP3    H124368   0.849   6.272   2.176
 8137TIP3    H224369   0.811   6.160   2.271
 8138TIP3   OH224370   6.587   2.032   3.924
 8138TIP3    H124371   6.572   2.123   3.952
 8138TIP3    H224372   6.524   1.981   3.975
 8139TIP3   OH224373   3.063   2.940   2.207
 8139TIP3    H124374   3.101   2.885   2.275
 8139TIP3    H224375   3.100   3.027   2.221
 8140TIP3   OH224376   1.741   4.928   0.564
 8140TIP3    H124377   1.765   4.868   0.494
 8140TIP3    H224378   1.668   4.979   0.527
 8141TIP3   OH224379   0.549   2.727   4.669
 8141TIP3    H124380   0.510   2.643   4.645
 8141TIP3    H224381   0.487   2.792   4.637
 8142TIP3   OH224382   4.046   1.790   2.771
 8142TIP3    H124383   3.995   1.871   2.781
 8142TIP3    H224384   4.005   1.729   2.832
 8143TIP3   OH224385   0.117   7.316   4.372
 8143TIP3    H124386   0.090   7.365   4.294
 8143TIP3    H224387   0.040   7.316   4.428
 8144TIP3   OH224388   2.059   5.586   5.704
 8144TIP3    H124389   2.017   5.613   5.785
 8144TIP3    H224390   2.153   5.601   5.719
 8145TIP3   OH224391   1.857   3.335   0.688
 8145TIP3    H124392   1.857   3.409   0.628
 8145TIP3    H224393   1.826   3.261   0.635
 8146TIP3   OH224394   4.798   4.217   5.419
 8146TIP3    H124395   4.761   4.174   5.496
 8146TIP3    H224396   4.732   4.282   5.395
 8147TIP3   OH224397   0.809   4.209   3.397
 8147TIP3    H124398   0.791   4.270   3.326
 8147TIP3    H224399   0.727   4.161   3.409
 8148TIP3   OH224400   3.126   1.268   1.552
 8148TIP3    H124401   3.192   1.301   1.492
 8148TIP3    H224402   3.123   1.173   1.536
 8149TIP3   OH224403   5.204   5.833   4.643
 8149TIP3    H124404   5.160   5.781   4.709
 8149TIP3    H224405   5.133   5.864   4.586
 8150TIP3   OH224406   0.841   4.635   4.359
 8150TIP3    H124407   0.826   4.543   4.337
 8150TIP3    H224408   0.809   4.643   4.449
 8151TIP3   OH224409   1.871   5.122   1.192
 8151TIP3    H124410   1.798   5.107   1.132
 8151TIP3    H224411   1.838   5.188   1.253
 8152TIP3   OH224412   5.720   5.130   2.621
 8152TIP3    H124413   5.723   5.167   2.532
 8152TIP3    H224414   5.643   5.074   2.621
 8153TIP3   OH224415   4.084   1.930   1.876
 8153TIP3    H124416   4.037   1.997   1.827
 8153TIP3    H224417   4.097   1.859   1.813
 8154TIP3   OH224418   2.760   0.499   1.301
 8154TIP3    H124419   2.757   0.550   1.382
 8154TIP3    H224420   2.789   0.561   1.235
 8155TIP3   OH224421   4.539   6.957   0.505
 8155TIP3    H124422   4.621   6.945   0.457
 8155TIP3    H224423   4.499   7.035   0.466
 8156TIP3   OH224424   1.397   1.151   3.530
 8156TIP3    H124425   1.362   1.238   3.517
 8156TIP3    H224426   1.481   1.165   3.574
 8157TIP3   OH224427   1.448   6.936   6.419
 8157TIP3    H124428   1.513   6.933   6.489
 8157TIP3    H224429   1.455   6.850   6.377
 8158TIP3   OH224430   1.562   5.960   6.067
 8158TIP3    H124431   1.482   5.909   6.075
 8158TIP3    H224432   1.532   6.047   6.039
 8159TIP3   OH224433   4.448   7.132   3.013
 8159TIP3    H124434   4.438   7.217   2.970
 8159TIP3    H224435   4.535   7.136   3.053
 8160TIP3   OH224436   0.539   1.657   0.128
 8160TIP3    H124437   0.551   1.732   0.186
 8160TIP3    H224438   0.593   1.677   0.051
 8161TIP3   OH224439   0.092   1.379   2.228
 8161TIP3    H124440   0.142   1.376   2.310
 8161TIP3    H224441   0.121   1.301   2.180
 8162TIP3   OH224442   4.345   5.434   6.755
 8162TIP3    H124443   4.305   5.351   6.729
 8162TIP3    H224444   4.439   5.419   6.747
 8163TIP3   OH224445   6.618   4.359   2.637
 8163TIP3    H124446   6.663   4.438   2.665
 8163TIP3    H224447   6.583   4.380   2.551
 8164TIP3   OH224448   5.272   7.516   6.419
 8164TIP3    H124449   5.185   7.482   6.439
 8164TIP3    H224450   5.316   7.523   6.503
 8165TIP3   OH224451   0.212   5.077   0.183
 8165TIP3    H124452   0.279   5.038   0.239
 8165TIP3    H224453   0.188   5.008   0.121
 8166TIP3   OH224454   1.232   0.233   6.117
 8166TIP3    H124455   1.303   0.190   6.165
 8166TIP3    H224456   1.152   0.191   6.149
 8167TIP3   OH224457   6.952   6.635   1.293
 8167TIP3    H124458   6.992   6.698   1.353
 8167TIP3    H224459   6.897   6.688   1.236
 8168TIP3   OH224460   5.450   5.931   5.362
 8168TIP3    H124461   5.433   5.876   5.285
 8168TIP3    H224462   5.436   6.020   5.330
 8169TIP3   OH224463   0.967   3.594   5.369
 8169TIP3    H124464   0.887   3.645   5.385
 8169TIP3    H224465   0.936   3.504   5.364
 8170TIP3   OH224466   5.836   4.524   1.446
 8170TIP3    H124467   5.880   4.497   1.366
 8170TIP3    H224468   5.859   4.457   1.510
 8171TIP3   OH224469   5.515   6.039   2.736
 8171TIP3    H124470   5.454   5.990   2.681
 8171TIP3    H224471   5.593   6.050   2.681
 8172TIP3   OH224472   2.593   3.707   4.998
 8172TIP3    H124473   2.537   3.747   5.064
 8172TIP3    H224474   2.535   3.685   4.926
 8173TIP3   OH224475   6.554   7.200   4.780
 8173TIP3    H124476   6.575   7.109   4.761
 8173TIP3    H224477   6.464   7.210   4.750
 8174TIP3   OH224478   3.764   4.189   1.661
 8174TIP3    H124479   3.743   4.270   1.613
 8174TIP3    H224480   3.821   4.217   1.732
 8175TIP3   OH224481   3.305   1.645   2.338
 8175TIP3    H124482   3.305   1.593   2.418
 8175TIP3    H224483   3.267   1.729   2.364
 8176TIP3   OH224484   1.533   4.526   4.330
 8176TIP3    H124485   1.600   4.465   4.360
 8176TIP3    H224486   1.580   4.608   4.314
 8177TIP3   OH224487   2.794   1.829   4.244
 8177TIP3    H124488   2.736   1.885   4.295
 8177TIP3    H224489   2.795   1.746   4.291
 8178TIP3   OH224490   4.942   7.700   6.557
 8178TIP3    H124491   4.860   7.749   6.546
 8178TIP3    H224492   5.008   7.767   6.573
 8179TIP3   OH224493   5.731   1.496   3.542
 8179TIP3    H124494   5.689   1.570   3.586
 8179TIP3    H224495   5.824   1.506   3.561
 8180TIP3   OH224496   6.532   1.754   1.094
 8180TIP3    H124497   6.578   1.677   1.127
 8180TIP3    H224498   6.446   1.749   1.134
 8181TIP3   OH224499   1.600   3.128   4.877
 8181TIP3    H124500   1.510   3.096   4.873
 8181TIP3    H224501   1.625   3.142   4.786
 8182TIP3   OH224502   7.869   1.702   6.560
 8182TIP3    H124503   7.875   1.646   6.482
 8182TIP3    H224504   7.921   1.779   6.539
 8183TIP3   OH224505   0.148   4.178   5.406
 8183TIP3    H124506   0.057   4.152   5.393
 8183TIP3    H224507   0.196   4.095   5.413
 8184TIP3   OH224508   6.521   7.276   2.662
 8184TIP3    H124509   6.576   7.287   2.739
 8184TIP3    H224510   6.481   7.362   2.649
 8185TIP3   OH224511   3.581   5.149   2.448
 8185TIP3    H124512   3.494   5.119   2.423
 8185TIP3    H224513   3.582   5.141   2.544
 8186TIP3   OH224514   6.765   3.908   1.257
 8186TIP3    H124515   6.814   3.866   1.328
 8186TIP3    H224516   6.710   3.973   1.301
 8187TIP3   OH224517   5.143   2.548   6.562
 8187TIP3    H124518   5.048   2.550   6.554
 8187TIP3    H224519   5.170   2.466   6.520
 8188TIP3   OH224520   7.672   1.098   0.082
 8188TIP3    H124521   7.759   1.133   0.061
 8188TIP3    H224522   7.643   1.151   0.157
 8189TIP3   OH224523   1.929   0.402   6.002
 8189TIP3    H124524   1.839   0.433   5.986
 8189TIP3    H224525   1.967   0.466   6.062
 8190TIP3   OH224526   3.652   1.111   2.439
 8190TIP3    H124527   3.613   1.154   2.516
 8190TIP3    H224528   3.708   1.178   2.400
 8191TIP3   OH224529   6.881   0.849   3.126
 8191TIP3    H124530   6.870   0.906   3.203
 8191TIP3    H224531   6.793   0.840   3.090
 8192TIP3   OH224532   7.939   6.728   1.227
 8192TIP3    H124533   7.926   6.738   1.321
 8192TIP3    H224534   7.852   6.703   1.194
 8193TIP3   OH224535   5.632   2.174   0.229
 8193TIP3    H124536   5.714   2.192   0.182
 8193TIP3    H224537   5.568   2.158   0.159
 8194TIP3   OH224538   5.477   4.577   6.607
 8194TIP3    H124539   5.572   4.589   6.620
 8194TIP3    H224540   5.446   4.663   6.577
 8195TIP3   OH224541   5.183   0.623   4.496
 8195TIP3    H124542   5.124   0.548   4.484
 8195TIP3    H224543   5.152   0.687   4.432
 8196TIP3   OH224544   0.857   0.248   5.761
 8196TIP3    H124545   0.767   0.232   5.787
 8196TIP3    H224546   0.892   0.306   5.829
 8197TIP3   OH224547   7.975   0.181   3.777
 8197TIP3    H124548   7.884   0.175   3.808
 8197TIP3    H224549   7.994   0.275   3.775
 8198TIP3   OH224550   7.318   4.130   0.523
 8198TIP3    H124551   7.300   4.221   0.497
 8198TIP3    H224552   7.310   4.131   0.618
 8199TIP3   OH224553   5.233   0.052   0.378
 8199TIP3    H124554   5.235   0.015   0.466
 8199TIP3    H224555   5.293  -0.002   0.327
 8200TIP3   OH224556   5.901   1.085   1.257
 8200TIP3    H124557   5.945   1.090   1.341
 8200TIP3    H224558   5.872   1.174   1.239
 8201TIP3   OH224559   5.445   3.202   2.752
 8201TIP3    H124560   5.462   3.206   2.846
 8201TIP3    H224561   5.352   3.183   2.745
 8202TIP3   OH224562   3.785   7.373   2.898
 8202TIP3    H124563   3.765   7.454   2.850
 8202TIP3    H224564   3.761   7.303   2.837
 8203TIP3   OH224565   2.526   1.008   4.465
 8203TIP3    H124566   2.494   1.097   4.483
 8203TIP3    H224567   2.481   0.953   4.529
 8204TIP3   OH224568   0.098   5.176   5.915
 8204TIP3    H124569   0.040   5.250   5.900
 8204TIP3    H224570   0.136   5.157   5.829
 8205TIP3   OH224571   3.011   6.015   4.858
 8205TIP3    H124572   2.954   6.084   4.822
 8205TIP3    H224573   3.098   6.036   4.824
 8206TIP3   OH224574   5.088   4.831   1.990
 8206TIP3    H124575   5.182   4.815   1.982
 8206TIP3    H224576   5.075   4.917   1.950
 8207TIP3   OH224577   1.432   4.988   5.767
 8207TIP3    H124578   1.444   5.071   5.721
 8207TIP3    H224579   1.372   4.938   5.712
 8208TIP3   OH224580   5.879   5.319   5.752
 8208TIP3    H124581   5.885   5.289   5.843
 8208TIP3    H224582   5.959   5.288   5.711
 8209TIP3   OH224583   4.453   5.077   5.172
 8209TIP3    H124584   4.401   5.139   5.222
 8209TIP3    H224585   4.405   5.065   5.090
 8210TIP3   OH224586   4.521   2.778   4.447
 8210TIP3    H124587   4.470   2.826   4.512
 8210TIP3    H224588   4.461   2.711   4.415
 8211TIP3   OH224589   2.249   5.245   6.283
 8211TIP3    H124590   2.254   5.156   6.248
 8211TIP3    H224591   2.269   5.301   6.209
 8212TIP3   OH224592   1.524   4.983   0.358
 8212TIP3    H124593   1.533   5.077   0.346
 8212TIP3    H224594   1.431   4.968   0.371
 8213TIP3   OH224595   5.616   2.208   3.855
 8213TIP3    H124596   5.529   2.228   3.821
 8213TIP3    H224597   5.642   2.288   3.901
 8214TIP3   OH224598   3.856   4.742   0.915
 8214TIP3    H124599   3.906   4.713   0.839
 8214TIP3    H224600   3.911   4.808   0.957
 8215TIP3   OH224601   0.804   6.090   1.436
 8215TIP3    H124602   0.878   6.152   1.436
 8215TIP3    H224603   0.813   6.042   1.354
 8216TIP3   OH224604   6.358   7.810   2.751
 8216TIP3    H124605   6.330   7.761   2.828
 8216TIP3    H224606   6.453   7.811   2.756
 8217TIP3   OH224607   1.470   3.588   4.469
 8217TIP3    H124608   1.476   3.496   4.444
 8217TIP3    H224609   1.382   3.598   4.506
 8218TIP3   OH224610   5.976   6.071   3.713
 8218TIP3    H124611   6.003   6.002   3.774
 8218TIP3    H224612   6.013   6.151   3.750
 8219TIP3   OH224613   3.737   0.733   1.973
 8219TIP3    H124614   3.702   0.675   1.906
 8219TIP3    H224615   3.819   0.766   1.937
 8220TIP3   OH224616   3.585   4.749   4.454
 8220TIP3    H124617   3.622   4.781   4.372
 8220TIP3    H224618   3.575   4.828   4.508
 8221TIP3   OH224619   1.851   5.586   3.087
 8221TIP3    H124620   1.835   5.641   3.163
 8221TIP3    H224621   1.788   5.615   3.022
 8222TIP3   OH224622   2.967   5.604   5.614
 8222TIP3    H124623   2.916   5.523   5.620
 8222TIP3    H224624   2.905   5.670   5.583
 8223TIP3   OH224625   1.242   1.964   6.009
 8223TIP3    H124626   1.168   1.926   6.055
 8223TIP3    H224627   1.303   1.892   5.995
 8224TIP3   OH224628   5.394   1.376   6.365
 8224TIP3    H124629   5.475   1.426   6.357
 8224TIP3    H224630   5.423   1.289   6.394
 8225TIP3   OH224631   2.251   6.221   5.233
 8225TIP3    H124632   2.188   6.248   5.166
 8225TIP3    H224633   2.205   6.232   5.316
 8226TIP3   OH224634   0.245   2.338   3.133
 8226TIP3    H124635   0.296   2.340   3.052
 8226TIP3    H224636   0.156   2.358   3.106
 8227TIP3   OH224637   5.932   6.251   2.354
 8227TIP3    H124638   5.976   6.174   2.390
 8227TIP3    H224639   5.995   6.286   2.290
 8228TIP3   OH224640   0.296   6.712   2.952
 8228TIP3    H124641   0.229   6.707   3.021
 8228TIP3    H224642   0.323   6.804   2.952
 8229TIP3   OH224643   0.662   0.001   4.026
 8229TIP3    H124644   0.599   0.025   4.095
 8229TIP3    H224645   0.714   0.080   4.012
 8230TIP3   OH224646   6.346   5.165   1.635
 8230TIP3    H124647   6.265   5.133   1.597
 8230TIP3    H224648   6.402   5.184   1.559
 8231TIP3   OH224649   5.653   4.635   1.700
 8231TIP3    H124650   5.671   4.707   1.640
 8231TIP3    H224651   5.588   4.671   1.761
 8232TIP3   OH224652   4.024   1.406   0.301
 8232TIP3    H124653   4.112   1.428   0.271
 8232TIP3    H224654   4.036   1.386   0.394
 8233TIP3   OH224655   5.438   2.359   1.313
 8233TIP3    H124656   5.349   2.327   1.300
 8233TIP3    H224657   5.471   2.308   1.387
 8234TIP3   OH224658   2.367   6.294   0.937
 8234TIP3    H124659   2.298   6.244   0.980
 8234TIP3    H224660   2.333   6.383   0.932
 8235TIP3   OH224661   3.741   7.679   4.644
 8235TIP3    H124662   3.722   7.741   4.573
 8235TIP3    H224663   3.685   7.604   4.626
 8236TIP3   OH224664   6.679   0.354   3.180
 8236TIP3    H124665   6.627   0.390   3.253
 8236TIP3    H224666   6.756   0.410   3.175
 8237TIP3   OH224667   5.781   4.830   0.625
 8237TIP3    H124668   5.714   4.879   0.674
 8237TIP3    H224669   5.782   4.744   0.667
 8238TIP3   OH224670   6.884   6.992   2.283
 8238TIP3    H124671   6.822   6.979   2.211
 8238TIP3    H224672   6.969   6.968   2.246
 8239TIP3   OH224673   4.561   0.308   4.025
 8239TIP3    H124674   4.527   0.259   3.949
 8239TIP3    H224675   4.615   0.244   4.072
 8240TIP3   OH224676   5.491   4.481   2.180
 8240TIP3    H124677   5.427   4.467   2.250
 8240TIP3    H224678   5.564   4.525   2.222
 8241TIP3   OH224679   8.156   3.499   0.713
 8241TIP3    H124680   8.178   3.424   0.658
 8241TIP3    H224681   8.112   3.560   0.654
 8242TIP3   OH224682   2.238   4.541   4.586
 8242TIP3    H124683   2.212   4.625   4.547
 8242TIP3    H224684   2.178   4.529   4.659
 8243TIP3   OH224685   6.324   6.962   3.554
 8243TIP3    H124686   6.407   6.914   3.546
 8243TIP3    H224687   6.329   7.003   3.640
 8244TIP3   OH224688   1.333   7.057   1.864
 8244TIP3    H124689   1.342   6.968   1.898
 8244TIP3    H224690   1.341   7.048   1.769
 8245TIP3   OH224691   6.581   3.058   4.616
 8245TIP3    H124692   6.491   3.027   4.614
 8245TIP3    H224693   6.584   3.125   4.547
 8246TIP3   OH224694   2.857   6.994   6.411
 8246TIP3    H124695   2.878   7.046   6.488
 8246TIP3    H224696   2.842   7.058   6.342
 8247TIP3   OH224697   3.827   5.292   2.414
 8247TIP3    H124698   3.808   5.380   2.381
 8247TIP3    H224699   3.742   5.258   2.442
 8248TIP3   OH224700   6.095   6.461   2.714
 8248TIP3    H124701   6.041   6.540   2.706
 8248TIP3    H224702   6.157   6.481   2.783
 8249TIP3   OH224703   6.043   0.201   5.996
 8249TIP3    H124704   6.031   0.279   5.942
 8249TIP3    H224705   5.983   0.136   5.959
 8250TIP3   OH224706   7.986   1.894   3.341
 8250TIP3    H124707   7.894   1.870   3.351
 8250TIP3    H224708   8.034   1.813   3.363
 8251TIP3   OH224709   6.402   4.086   3.390
 8251TIP3    H124710   6.362   4.144   3.325
 8251TIP3    H224711   6.390   3.998   3.354
 8252TIP3   OH224712   0.504   0.233   5.156
 8252TIP3    H124713   0.524   0.238   5.063
 8252TIP3    H224714   0.545   0.311   5.194
 8253TIP3   OH224715   5.501   4.607   0.447
 8253TIP3    H124716   5.590   4.593   0.479
 8253TIP3    H224717   5.512   4.647   0.361
 8254TIP3   OH224718   4.020   7.654   1.077
 8254TIP3    H124719   4.049   7.672   1.166
 8254TIP3    H224720   3.994   7.739   1.042
 8255TIP3   OH224721   4.318   7.439   3.319
 8255TIP3    H124722   4.292   7.462   3.230
 8255TIP3    H224723   4.302   7.345   3.326
 8256TIP3   OH224724   5.497   2.173   6.307
 8256TIP3    H124725   5.476   2.109   6.240
 8256TIP3    H224726   5.592   2.186   6.299
 8257TIP3   OH224727   4.858   5.168   0.386
 8257TIP3    H124728   4.788   5.123   0.435
 8257TIP3    H224729   4.858   5.125   0.300
 8258TIP3   OH224730   1.292   2.668   4.038
 8258TIP3    H124731   1.370   2.655   3.984
 8258TIP3    H224732   1.314   2.632   4.123
 8259TIP3   OH224733   3.395   2.346   5.903
 8259TIP3    H124734   3.484   2.315   5.915
 8259TIP3    H224735   3.403   2.424   5.849
 8260TIP3   OH224736   5.266   5.738   0.344
 8260TIP3    H124737   5.175   5.753   0.318
 8260TIP3    H224738   5.285   5.809   0.406
 8261TIP3   OH224739   2.024   4.671   2.455
 8261TIP3    H124740   1.947   4.655   2.401
 8261TIP3    H224741   1.994   4.659   2.545
 8262TIP3   OH224742   8.013   3.636   3.941
 8262TIP3    H124743   8.030   3.592   3.858
 8262TIP3    H224744   7.965   3.716   3.917
 8263TIP3   OH224745   6.224   0.764   2.850
 8263TIP3    H124746   6.276   0.783   2.772
 8263TIP3    H224747   6.159   0.701   2.821
 8264TIP3   OH224748   6.726   1.746   2.291
 8264TIP3    H124749   6.750   1.769   2.201
 8264TIP3    H224750   6.788   1.794   2.345
 8265TIP3   OH224751   4.273   0.363   2.133
 8265TIP3    H124752   4.217   0.419   2.188
 8265TIP3    H224753   4.335   0.324   2.195
 8266TIP3   OH224754   4.249   6.058   0.180
 8266TIP3    H124755   4.166   6.022   0.210
 8266TIP3    H224756   4.242   6.152   0.199
 8267TIP3   OH224757   6.539   2.546   0.882
 8267TIP3    H124758   6.577   2.555   0.795
 8267TIP3    H224759   6.615   2.538   0.941
 8268TIP3   OH224760   4.254   7.015   2.201
 8268TIP3    H124761   4.261   6.977   2.114
 8268TIP3    H224762   4.175   7.069   2.199
 8269TIP3   OH224763   7.206   4.341   6.681
 8269TIP3    H124764   7.203   4.434   6.657
 8269TIP3    H224765   7.295   4.327   6.711
 8270TIP3   OH224766   5.503   7.571   3.250
 8270TIP3    H124767   5.570   7.511   3.218
 8270TIP3    H224768   5.479   7.537   3.336
 8271TIP3   OH224769   2.073   6.135   0.226
 8271TIP3    H124770   2.006   6.200   0.204
 8271TIP3    H224771   2.084   6.143   0.321
 8272TIP3   OH224772   6.736   0.218   0.181
 8272TIP3    H124773   6.753   0.202   0.089
 8272TIP3    H224774   6.822   0.210   0.223
 8273TIP3   OH224775   7.229   5.159   6.763
 8273TIP3    H124776   7.193   5.231   6.711
 8273TIP3    H224777   7.301   5.197   6.812
 8274TIP3   OH224778   5.301   7.540   5.143
 8274TIP3    H124779   5.324   7.578   5.227
 8274TIP3    H224780   5.382   7.502   5.110
 8275TIP3   OH224781   2.605   3.406   5.175
 8275TIP3    H124782   2.620   3.312   5.182
 8275TIP3    H224783   2.510   3.416   5.184
 8276TIP3   OH224784   7.005   4.608   1.607
 8276TIP3    H124785   6.967   4.674   1.665
 8276TIP3    H224786   7.047   4.546   1.666
 8277TIP3   OH224787   4.944   3.701   4.437
 8277TIP3    H124788   4.958   3.744   4.353
 8277TIP3    H224789   4.980   3.762   4.502
 8278TIP3   OH224790   1.690   4.945   3.286
 8278TIP3    H124791   1.752   4.898   3.230
 8278TIP3    H224792   1.610   4.892   3.283
 8279TIP3   OH224793   2.370   5.681   1.154
 8279TIP3    H124794   2.416   5.629   1.220
 8279TIP3    H224795   2.416   5.664   1.072
 8280TIP3   OH224796   2.720   3.215   3.931
 8280TIP3    H124797   2.680   3.138   3.891
 8280TIP3    H224798   2.650   3.281   3.933
 8281TIP3   OH224799   8.227   1.492   4.541
 8281TIP3    H124800   8.201   1.461   4.454
 8281TIP3    H224801   8.264   1.415   4.584
 8282TIP3   OH224802   1.967   1.340   1.422
 8282TIP3    H124803   1.931   1.287   1.350
 8282TIP3    H224804   2.060   1.344   1.404
 8283TIP3   OH224805   0.495   2.126   3.041
 8283TIP3    H124806   0.402   2.119   3.061
 8283TIP3    H224807   0.500   2.116   2.946
 8284TIP3   OH224808   1.547   3.463   1.180
 8284TIP3    H124809   1.466   3.459   1.232
 8284TIP3    H224810   1.538   3.392   1.116
 8285TIP3   OH224811   4.531   0.429   6.609
 8285TIP3    H124812   4.610   0.468   6.647
 8285TIP3    H224813   4.540   0.443   6.515
 8286TIP3   OH224814   0.227   2.050   4.082
 8286TIP3    H124815   0.135   2.046   4.105
 8286TIP3    H224816   0.251   2.142   4.093
 8287TIP3   OH224817   6.663   5.088   1.559
 8287TIP3    H124818   6.745   5.089   1.609
 8287TIP3    H224819   6.634   4.997   1.562
 8288TIP3   OH224820   1.592   1.078   4.970
 8288TIP3    H124821   1.618   1.084   5.062
 8288TIP3    H224822   1.620   0.991   4.943
 8289TIP3   OH224823   3.404   3.496   3.911
 8289TIP3    H124824   3.494   3.483   3.880
 8289TIP3    H224825   3.405   3.465   4.001
 8290TIP3   OH224826   2.494   5.988   3.697
 8290TIP3    H124827   2.486   5.947   3.783
 8290TIP3    H224828   2.409   5.974   3.656
 8291TIP3   OH224829   3.999   1.078   0.430
 8291TIP3    H124830   3.958   1.139   0.369
 8291TIP3    H224831   4.007   0.996   0.381
 8292TIP3   OH224832   6.305   4.012   2.254
 8292TIP3    H124833   6.351   3.941   2.208
 8292TIP3    H224834   6.213   3.989   2.246
 8293TIP3   OH224835   1.210   0.936   5.457
 8293TIP3    H124836   1.273   0.970   5.394
 8293TIP3    H224837   1.258   0.934   5.540
 8294TIP3   OH224838   3.975   0.650   5.049
 8294TIP3    H124839   4.019   0.576   5.092
 8294TIP3    H224840   4.040   0.686   4.989
 8295TIP3   OH224841   1.641   5.690   1.261
 8295TIP3    H124842   1.568   5.652   1.213
 8295TIP3    H224843   1.689   5.615   1.297
 8296TIP3   OH224844   7.720   1.411   4.296
 8296TIP3    H124845   7.726   1.420   4.391
 8296TIP3    H224846   7.720   1.501   4.263
 8297TIP3   OH224847   5.725   4.541   3.709
 8297TIP3    H124848   5.733   4.589   3.626
 8297TIP3    H224849   5.687   4.457   3.684
 8298TIP3   OH224850   5.010   2.197   3.804
 8298TIP3    H124851   5.022   2.108   3.771
 8298TIP3    H224852   4.939   2.189   3.868
 8299TIP3   OH224853   6.285   5.312   0.539
 8299TIP3    H124854   6.249   5.368   0.470
 8299TIP3    H224855   6.354   5.262   0.496
 8300TIP3   OH224856   5.185   5.498   6.529
 8300TIP3    H124857   5.185   5.459   6.442
 8300TIP3    H224858   5.277   5.501   6.554
 8301TIP3   OH224859   4.629   0.680   0.488
 8301TIP3    H124860   4.612   0.685   0.582
 8301TIP3    H224861   4.552   0.721   0.447
 8302TIP3   OH224862   5.374   4.360   4.825
 8302TIP3    H124863   5.305   4.426   4.831
 8302TIP3    H224864   5.327   4.277   4.818
 8303TIP3   OH224865   3.911   0.498   2.755
 8303TIP3    H124866   3.873   0.426   2.706
 8303TIP3    H224867   3.840   0.531   2.809
 8304TIP3   OH224868   2.675   1.310   6.528
 8304TIP3    H124869   2.671   1.299   6.624
 8304TIP3    H224870   2.643   1.398   6.513
 8305TIP3   OH224871   7.328   3.542   1.830
 8305TIP3    H124872   7.243   3.512   1.797
 8305TIP3    H224873   7.314   3.551   1.924
 8306TIP3   OH224874   6.456   4.028   1.806
 8306TIP3    H124875   6.530   4.027   1.745
 8306TIP3    H224876   6.496   4.010   1.892
 8307TIP3   OH224877   5.035   0.870   3.938
 8307TIP3    H124878   5.009   0.847   3.849
 8307TIP3    H224879   5.131   0.872   3.934
 8308TIP3   OH224880   0.562   5.649   0.222
 8308TIP3    H124881   0.607   5.634   0.139
 8308TIP3    H224882   0.492   5.711   0.202
 8309TIP3   OH224883   7.717   2.492   3.872
 8309TIP3    H124884   7.776   2.561   3.902
 8309TIP3    H224885   7.723   2.424   3.940
 8310TIP3   OH224886   2.555   4.359   0.567
 8310TIP3    H124887   2.471   4.352   0.611
 8310TIP3    H224888   2.533   4.376   0.475
 8311TIP3   OH224889   3.899   1.204   2.869
 8311TIP3    H124890   3.947   1.196   2.951
 8311TIP3    H224891   3.914   1.120   2.825
 8312TIP3   OH224892   0.895   4.711   2.070
 8312TIP3    H124893   0.872   4.800   2.043
 8312TIP3    H224894   0.934   4.722   2.157
 8313TIP3   OH224895   3.578   1.759   4.438
 8313TIP3    H124896   3.637   1.734   4.509
 8313TIP3    H224897   3.632   1.813   4.381
 8314TIP3   OH224898   4.649   0.837   5.894
 8314TIP3    H124899   4.629   0.922   5.934
 8314TIP3    H224900   4.744   0.837   5.884
 8315TIP3   OH224901   5.935   4.279   0.387
 8315TIP3    H124902   6.001   4.222   0.426
 8315TIP3    H224903   5.986   4.347   0.342
 8316TIP3   OH224904   1.936   2.350   5.156
 8316TIP3    H124905   1.887   2.318   5.232
 8316TIP3    H224906   1.871   2.399   5.106
 8317TIP3   OH224907   7.291   5.811   3.672
 8317TIP3    H124908   7.279   5.877   3.604
 8317TIP3    H224909   7.204   5.775   3.686
 8318TIP3   OH224910   3.690   3.535   0.938
 8318TIP3    H124911   3.678   3.499   0.850
 8318TIP3    H224912   3.642   3.474   0.995
 8319TIP3   OH224913   4.770   5.807   0.154
 8319TIP3    H124914   4.699   5.752   0.122
 8319TIP3    H224915   4.814   5.838   0.075
 8320TIP3   OH224916   8.208   6.012   1.914
 8320TIP3    H124917   8.252   6.014   1.830
 8320TIP3    H224918   8.190   6.103   1.935
 8321TIP3   OH224919   2.388   0.436   2.184
 8321TIP3    H124920   2.330   0.364   2.157
 8321TIP3    H224921   2.355   0.463   2.269
 8322TIP3   OH224922   7.240   2.988   2.208
 8322TIP3    H124923   7.162   2.971   2.262
 8322TIP3    H224924   7.297   3.040   2.265
 8323TIP3   OH224925   2.407   2.181   3.658
 8323TIP3    H124926   2.471   2.205   3.725
 8323TIP3    H224927   2.341   2.251   3.662
 8324TIP3   OH224928   5.087   1.248   3.861
 8324TIP3    H124929   5.044   1.302   3.927
 8324TIP3    H224930   5.172   1.290   3.848
 8325TIP3   OH224931   7.622   3.846   1.242
 8325TIP3    H124932   7.595   3.921   1.189
 8325TIP3    H224933   7.575   3.858   1.325
 8326TIP3   OH224934   0.554   3.462   6.467
 8326TIP3    H124935   0.640   3.502   6.454
 8326TIP3    H224936   0.492   3.530   6.438
 8327TIP3   OH224937   5.604   2.630   5.798
 8327TIP3    H124938   5.571   2.605   5.884
 8327TIP3    H224939   5.564   2.715   5.780
 8328TIP3   OH224940   7.476   4.435   2.309
 8328TIP3    H124941   7.511   4.407   2.393
 8328TIP3    H224942   7.549   4.479   2.265
 8329TIP3   OH224943   2.956   3.215   3.388
 8329TIP3    H124944   2.937   3.241   3.478
 8329TIP3    H224945   2.924   3.287   3.334
 8330TIP3   OH224946   4.304   6.718   3.429
 8330TIP3    H124947   4.212   6.721   3.403
 8330TIP3    H224948   4.328   6.626   3.421
 8331TIP3   OH224949   7.494   6.631   1.938
 8331TIP3    H124950   7.561   6.572   1.906
 8331TIP3    H224951   7.412   6.583   1.928
 8332TIP3   OH224952   7.891   0.142   2.913
 8332TIP3    H124953   7.844   0.181   2.839
 8332TIP3    H224954   7.956   0.084   2.874
 8333TIP3   OH224955   2.553   5.880   2.099
 8333TIP3    H124956   2.458   5.879   2.115
 8333TIP3    H224957   2.590   5.830   2.171
 8334TIP3   OH224958   7.462   1.287   2.959
 8334TIP3    H124959   7.435   1.361   2.906
 8334TIP3    H224960   7.557   1.296   2.966
 8335TIP3   OH224961   0.005   4.470   1.002
 8335TIP3    H124962   0.045   4.549   1.038
 8335TIP3    H224963   0.062   4.446   0.928
 8336TIP3   OH224964   5.703   0.801   2.247
 8336TIP3    H124965   5.770   0.843   2.302
 8336TIP3    H224966   5.626   0.794   2.303
 8337TIP3   OH224967   6.575   6.798   0.585
 8337TIP3    H124968   6.661   6.829   0.614
 8337TIP3    H224969   6.560   6.718   0.635
 8338TIP3   OH224970   1.153   4.265   6.468
 8338TIP3    H124971   1.078   4.324   6.460
 8338TIP3    H224972   1.223   4.308   6.419
 8339TIP3   OH224973   7.934   1.045   0.783
 8339TIP3    H124974   7.998   1.051   0.712
 8339TIP3    H224975   7.946   1.125   0.834
 8340TIP3   OH224976   4.508   5.960   0.141
 8340TIP3    H124977   4.420   5.998   0.143
 8340TIP3    H224978   4.513   5.916   0.056
 8341TIP3   OH224979   8.260   2.275   2.981
 8341TIP3    H124980   8.184   2.220   3.001
 8341TIP3    H224981   8.311   2.224   2.919
 8342TIP3   OH224982   1.778   0.061   2.767
 8342TIP3    H124983   1.760   0.021   2.682
 8342TIP3    H224984   1.693   0.065   2.810
 8343TIP3   OH224985   5.423   3.440   6.405
 8343TIP3    H124986   5.378   3.470   6.326
 8343TIP3    H224987   5.475   3.515   6.434
 8344TIP3   OH224988   1.561   4.245   1.751
 8344TIP3    H124989   1.569   4.212   1.840
 8344TIP3    H224990   1.590   4.336   1.757
 8345TIP3   OH224991   7.512   7.459   6.396
 8345TIP3    H124992   7.515   7.544   6.440
 8345TIP3    H224993   7.423   7.427   6.410
 8346TIP3   OH224994   3.053   0.327   2.238
 8346TIP3    H124995   2.991   0.254   2.242
 8346TIP3    H224996   3.026   0.386   2.308
 8347TIP3   OH224997   6.758   1.584   5.957
 8347TIP3    H124998   6.691   1.637   5.915
 8347TIP3    H224999   6.839   1.606   5.912
 8348TIP3   OH225000   3.166   1.836   4.668
 8348TIP3    H125001   3.229   1.768   4.692
 8348TIP3    H225002   3.218   1.917   4.665
 8349TIP3   OH225003   3.908   4.526   2.772
 8349TIP3    H125004   3.829   4.531   2.719
 8349TIP3    H225005   3.880   4.485   2.854
 8350TIP3   OH225006   1.642   0.192   1.214
 8350TIP3    H125007   1.623   0.102   1.190
 8350TIP3    H225008   1.558   0.226   1.246
 8351TIP3   OH225009   4.137   0.186   3.696
 8351TIP3    H125010   4.173   0.132   3.626
 8351TIP3    H225011   4.046   0.201   3.669
 8352TIP3   OH225012   4.531   4.250   5.114
 8352TIP3    H125013   4.561   4.275   5.201
 8352TIP3    H225014   4.436   4.247   5.121
 8353TIP3   OH225015   2.859   3.585   3.612
 8353TIP3    H125016   2.797   3.626   3.672
 8353TIP3    H225017   2.870   3.649   3.542
 8354TIP3   OH225018   1.854   2.550   5.746
 8354TIP3    H125019   1.761   2.572   5.750
 8354TIP3    H225020   1.897   2.620   5.795
 8355TIP3   OH225021   0.571   1.441   3.126
 8355TIP3    H125022   0.484   1.445   3.167
 8355TIP3    H225023   0.622   1.384   3.184
 8356TIP3   OH225024   2.682   4.471   3.696
 8356TIP3    H125025   2.710   4.380   3.702
 8356TIP3    H225026   2.601   4.475   3.747
 8357TIP3   OH225027   0.695   7.658   5.829
 8357TIP3    H125028   0.608   7.619   5.822
 8357TIP3    H225029   0.693   7.732   5.768
 8358TIP3   OH225030   5.108   2.337   4.967
 8358TIP3    H125031   5.130   2.269   5.031
 8358TIP3    H225032   5.081   2.412   5.020
 8359TIP3   OH225033   5.405   6.670   3.178
 8359TIP3    H125034   5.319   6.691   3.143
 8359TIP3    H225035   5.397   6.579   3.208
 8360TIP3   OH225036   4.874   3.373   0.928
 8360TIP3    H125037   4.951   3.414   0.889
 8360TIP3    H225038   4.806   3.382   0.861
 8361TIP3   OH225039   5.813   3.231   5.033
 8361TIP3    H125040   5.778   3.311   5.072
 8361TIP3    H225041   5.907   3.237   5.047
 8362TIP3   OH225042   3.674   1.979   1.538
 8362TIP3    H125043   3.703   2.061   1.578
 8362TIP3    H225044   3.707   1.910   1.595
 8363TIP3   OH225045   5.151   7.392   3.998
 8363TIP3    H125046   5.091   7.439   3.939
 8363TIP3    H225047   5.153   7.303   3.964
 8364TIP3   OH225048   0.062   6.644   1.568
 8364TIP3    H125049   0.030   6.592   1.494
 8364TIP3    H225050   0.042   6.734   1.544
 8365TIP3   OH225051   7.444   5.986   5.116
 8365TIP3    H125052   7.383   6.059   5.122
 8365TIP3    H225053   7.424   5.944   5.033
 8366TIP3   OH225054   6.833   1.752   1.722
 8366TIP3    H125055   6.767   1.739   1.655
 8366TIP3    H225056   6.893   1.817   1.685
 8367TIP3   OH225057   7.550   4.025   5.092
 8367TIP3    H125058   7.625   4.081   5.071
 8367TIP3    H225059   7.490   4.036   5.018
 8368TIP3   OH225060   7.995   2.204   0.971
 8368TIP3    H125061   8.001   2.149   0.893
 8368TIP3    H225062   7.953   2.285   0.941
 8369TIP3   OH225063   3.191   2.362   6.513
 8369TIP3    H125064   3.271   2.311   6.527
 8369TIP3    H225065   3.191   2.381   6.419
 8370TIP3   OH225066   0.364   0.151   1.970
 8370TIP3    H125067   0.300   0.080   1.982
 8370TIP3    H225068   0.432   0.112   1.916
 8371TIP3   OH225069   3.696   1.224   1.012
 8371TIP3    H125070   3.666   1.135   0.994
 8371TIP3    H225071   3.783   1.228   0.972
 8372TIP3   OH225072   5.738   7.573   1.575
 8372TIP3    H125073   5.731   7.645   1.638
 8372TIP3    H225074   5.689   7.501   1.615
 8373TIP3   OH225075   7.456   3.636   3.667
 8373TIP3    H125076   7.495   3.653   3.581
 8373TIP3    H225077   7.434   3.722   3.700
 8374TIP3   OH225078   5.028   1.869   1.037
 8374TIP3    H125079   4.935   1.848   1.026
 8374TIP3    H225080   5.031   1.930   1.110
 8375TIP3   OH225081   4.392   1.558   6.578
 8375TIP3    H125082   4.421   1.569   6.669
 8375TIP3    H225083   4.390   1.464   6.564
 8376TIP3   OH225084   1.493   0.773   0.706
 8376TIP3    H125085   1.530   0.728   0.630
 8376TIP3    H225086   1.442   0.706   0.751
 8377TIP3   OH225087   7.928   2.672   3.419
 8377TIP3    H125088   7.992   2.733   3.456
 8377TIP3    H225089   7.979   2.593   3.399
 8378TIP3   OH225090   0.195   4.376   2.729
 8378TIP3    H125091   0.190   4.438   2.801
 8378TIP3    H225092   0.116   4.322   2.738
 8379TIP3   OH225093   6.550   3.291   3.285
 8379TIP3    H125094   6.491   3.321   3.216
 8379TIP3    H225095   6.575   3.370   3.333
 8380TIP3   OH225096   5.217   4.518   5.941
 8380TIP3    H125097   5.290   4.459   5.959
 8380TIP3    H225098   5.257   4.605   5.941
 8381TIP3   OH225099   4.268   6.011   6.433
 8381TIP3    H125100   4.219   6.064   6.496
 8381TIP3    H225101   4.218   5.929   6.427
 8382TIP3   OH225102   0.272   1.133   5.526
 8382TIP3    H125103   0.185   1.165   5.504
 8382TIP3    H225104   0.274   1.043   5.494
 8383TIP3   OH225105   3.467   0.496   0.809
 8383TIP3    H125106   3.409   0.445   0.865
 8383TIP3    H225107   3.509   0.558   0.868
 8384TIP3   OH225108   0.638   7.498   3.591
 8384TIP3    H125109   0.553   7.489   3.549
 8384TIP3    H225110   0.624   7.471   3.681
 8385TIP3   OH225111   6.741   1.489   4.431
 8385TIP3    H125112   6.742   1.460   4.340
 8385TIP3    H225113   6.821   1.540   4.441
 8386TIP3   OH225114   1.535   7.485   5.884
 8386TIP3    H125115   1.481   7.501   5.807
 8386TIP3    H225116   1.527   7.391   5.901
 8387TIP3   OH225117   3.164   4.464   6.367
 8387TIP3    H125118   3.134   4.377   6.338
 8387TIP3    H225119   3.241   4.481   6.313
 8388TIP3   OH225120   7.308   7.551   4.205
 8388TIP3    H125121   7.361   7.610   4.152
 8388TIP3    H225122   7.371   7.502   4.258
 8389TIP3   OH225123   4.315   5.002   2.358
 8389TIP3    H125124   4.310   4.945   2.435
 8389TIP3    H225125   4.319   5.091   2.393
 8390TIP3   OH225126   5.221   5.492   1.357
 8390TIP3    H125127   5.184   5.405   1.339
 8390TIP3    H225128   5.147   5.543   1.390
 8391TIP3   OH225129   6.294   5.895   4.081
 8391TIP3    H125130   6.322   5.849   4.160
 8391TIP3    H225131   6.237   5.834   4.036
 8392TIP3   OH225132   7.502   6.976   5.030
 8392TIP3    H125133   7.562   7.050   5.027
 8392TIP3    H225134   7.556   6.900   5.008
 8393TIP3   OH225135   4.275   1.763   6.451
 8393TIP3    H125136   4.229   1.785   6.532
 8393TIP3    H225137   4.312   1.676   6.467
 8394TIP3   OH225138   2.222   6.985   6.195
 8394TIP3    H125139   2.282   6.910   6.197
 8394TIP3    H225140   2.136   6.946   6.178
 8395TIP3   OH225141   5.436   2.285   1.623
 8395TIP3    H125142   5.350   2.265   1.659
 8395TIP3    H225143   5.459   2.369   1.664
 8396TIP3   OH225144   6.290   3.176   5.896
 8396TIP3    H125145   6.280   3.259   5.849
 8396TIP3    H225146   6.203   3.136   5.891
 8397TIP3   OH225147   3.552   3.949   3.351
 8397TIP3    H125148   3.582   3.975   3.438
 8397TIP3    H225149   3.592   3.864   3.336
 8398TIP3   OH225150   4.518   6.257   3.452
 8398TIP3    H125151   4.449   6.232   3.514
 8398TIP3    H225152   4.545   6.344   3.480
 8399TIP3   OH225153   0.192   5.059   6.138
 8399TIP3    H125154   0.164   5.087   6.050
 8399TIP3    H225155   0.277   5.101   6.150
 8400TIP3   OH225156   5.430   7.479   4.376
 8400TIP3    H125157   5.475   7.496   4.293
 8400TIP3    H225158   5.480   7.408   4.416
 8401TIP3   OH225159   6.721   5.701   5.313
 8401TIP3    H125160   6.657   5.660   5.255
 8401TIP3    H225161   6.685   5.788   5.331
 8402TIP3   OH225162   4.380   4.495   2.663
 8402TIP3    H125163   4.311   4.561   2.673
 8402TIP3    H225164   4.341   4.428   2.607
 8403TIP3   OH225165   3.430   0.947   0.540
 8403TIP3    H125166   3.350   1.000   0.535
 8403TIP3    H225167   3.409   0.877   0.601
 8404TIP3   OH225168   4.414   1.512   4.886
 8404TIP3    H125169   4.365   1.473   4.813
 8404TIP3    H225170   4.478   1.446   4.910
 8405TIP3   OH225171   5.583   3.898   6.244
 8405TIP3    H125172   5.499   3.941   6.224
 8405TIP3    H225173   5.620   3.878   6.158
 8406TIP3   OH225174   1.457   7.379   4.553
 8406TIP3    H125175   1.524   7.434   4.593
 8406TIP3    H225176   1.435   7.315   4.621
 8407TIP3   OH225177   0.545   4.454   5.884
 8407TIP3    H125178   0.545   4.453   5.979
 8407TIP3    H225179   0.637   4.460   5.860
 8408TIP3   OH225180   6.838   1.290   2.880
 8408TIP3    H125181   6.837   1.196   2.899
 8408TIP3    H225182   6.752   1.308   2.842
 8409TIP3   OH225183   4.006   2.143   1.577
 8409TIP3    H125184   4.053   2.225   1.557
 8409TIP3    H225185   3.927   2.172   1.623
 8410TIP3   OH225186   5.036   4.125   6.018
 8410TIP3    H125187   5.005   4.133   6.108
 8410TIP3    H225188   4.961   4.149   5.964
 8411TIP3   OH225189   7.490   5.219   4.445
 8411TIP3    H125190   7.522   5.301   4.406
 8411TIP3    H225191   7.552   5.153   4.414
 8412TIP3   OH225192   3.896   5.029   6.739
 8412TIP3    H125193   3.930   5.116   6.759
 8412TIP3    H225194   3.969   4.984   6.696
 8413TIP3   OH225195   1.034   3.606   0.159
 8413TIP3    H125196   0.967   3.564   0.105
 8413TIP3    H225197   1.067   3.678   0.105
 8414TIP3   OH225198   2.273   7.358   5.338
 8414TIP3    H125199   2.361   7.358   5.300
 8414TIP3    H225200   2.269   7.277   5.389
 8415TIP3   OH225201   4.780   4.394   4.429
 8415TIP3    H125202   4.737   4.422   4.510
 8415TIP3    H225203   4.867   4.435   4.432
 8416TIP3   OH225204   0.129   4.385   4.108
 8416TIP3    H125205   0.043   4.353   4.081
 8416TIP3    H225206   0.125   4.388   4.203
 8417TIP3   OH225207   3.775   4.582   1.424
 8417TIP3    H125208   3.768   4.671   1.389
 8417TIP3    H225209   3.862   4.553   1.398
 8418TIP3   OH225210   6.682   4.040   4.784
 8418TIP3    H125211   6.699   4.098   4.710
 8418TIP3    H225212   6.761   4.044   4.837
 8419TIP3   OH225213   6.749   7.402   5.555
 8419TIP3    H125214   6.747   7.493   5.526
 8419TIP3    H225215   6.814   7.401   5.626
 8420TIP3   OH225216   4.114   2.334   0.350
 8420TIP3    H125217   4.052   2.301   0.416
 8420TIP3    H225218   4.183   2.376   0.401
 8421TIP3   OH225219   4.137   1.986   3.575
 8421TIP3    H125220   4.077   1.989   3.650
 8421TIP3    H225221   4.081   2.001   3.499
 8422TIP3   OH225222   7.010   4.358   5.047
 8422TIP3    H125223   7.000   4.262   5.051
 8422TIP3    H225224   6.963   4.384   4.968
 8423TIP3   OH225225   6.450   6.164   2.235
 8423TIP3    H125226   6.450   6.135   2.326
 8423TIP3    H225227   6.379   6.115   2.194
 8424TIP3   OH225228   3.510   2.204   4.227
 8424TIP3    H125229   3.505   2.170   4.138
 8424TIP3    H225230   3.478   2.294   4.221
 8425TIP3   OH225231   1.780   3.953   0.407
 8425TIP3    H125232   1.842   3.883   0.388
 8425TIP3    H225233   1.756   3.987   0.321
 8426TIP3   OH225234   0.683   5.779   5.932
 8426TIP3    H125235   0.769   5.752   5.900
 8426TIP3    H225236   0.641   5.698   5.959
 8427TIP3   OH225237   3.207   4.551   0.905
 8427TIP3    H125238   3.232   4.466   0.942
 8427TIP3    H225239   3.272   4.612   0.940
 8428TIP3   OH225240   5.187   5.452   5.532
 8428TIP3    H125241   5.132   5.506   5.588
 8428TIP3    H225242   5.255   5.418   5.590
 8429TIP3   OH225243   4.636   4.567   0.262
 8429TIP3    H125244   4.614   4.661   0.264
 8429TIP3    H225245   4.624   4.541   0.171
 8430TIP3   OH225246   6.634   5.520   2.872
 8430TIP3    H125247   6.662   5.477   2.791
 8430TIP3    H225248   6.653   5.613   2.858
 8431TIP3   OH225249   7.609   6.548   6.144
 8431TIP3    H125250   7.551   6.472   6.147
 8431TIP3    H225251   7.588   6.590   6.061
 8432TIP3   OH225252   0.798   4.270   3.669
 8432TIP3    H125253   0.713   4.313   3.660
 8432TIP3    H225254   0.825   4.250   3.579
 8433TIP3   OH225255   1.916   5.587   3.988
 8433TIP3    H125256   1.854   5.519   4.015
 8433TIP3    H225257   1.932   5.638   4.068
 8434TIP3   OH225258   4.678   2.031   4.477
 8434TIP3    H125259   4.746   2.018   4.544
 8434TIP3    H225260   4.626   2.104   4.510
 8435TIP3   OH225261   8.025   2.676   2.027
 8435TIP3    H125262   8.018   2.647   1.936
 8435TIP3    H225263   8.105   2.728   2.030
 8436TIP3   OH225264   7.665   1.050   3.628
 8436TIP3    H125265   7.643   1.022   3.717
 8436TIP3    H225266   7.669   1.145   3.633
 8437TIP3   OH225267   5.806   5.269   1.530
 8437TIP3    H125268   5.744   5.250   1.460
 8437TIP3    H225269   5.828   5.362   1.519
 8438TIP3   OH225270   4.712   2.158   5.078
 8438TIP3    H125271   4.697   2.252   5.072
 8438TIP3    H225272   4.753   2.135   4.994
 8439TIP3   OH225273   1.582   4.396   2.153
 8439TIP3    H125274   1.573   4.319   2.096
 8439TIP3    H225275   1.606   4.467   2.093
 8440TIP3   OH225276   6.518   7.597   6.658
 8440TIP3    H125277   6.565   7.571   6.738
 8440TIP3    H225278   6.488   7.514   6.620
 8441TIP3   OH225279   1.755   0.326   0.891
 8441TIP3    H125280   1.697   0.305   0.818
 8441TIP3    H225281   1.782   0.417   0.875
 8442TIP3   OH225282   1.438   7.642   1.563
 8442TIP3    H125283   1.345   7.628   1.545
 8442TIP3    H225284   1.471   7.556   1.587
 8443TIP3   OH225285   2.804   7.276   0.725
 8443TIP3    H125286   2.745   7.326   0.782
 8443TIP3    H225287   2.820   7.195   0.773
 8444TIP3   OH225288   0.959   7.670   2.032
 8444TIP3    H125289   0.885   7.642   2.086
 8444TIP3    H225290   1.033   7.676   2.094
 8445TIP3   OH225291   0.263   1.868   0.028
 8445TIP3    H125292   0.168   1.865   0.036
 8445TIP3    H225293   0.294   1.786   0.069
 8446TIP3   OH225294   4.912   2.325   0.622
 8446TIP3    H125295   5.004   2.344   0.607
 8446TIP3    H225296   4.904   2.231   0.609
 8447TIP3   OH225297   1.064   1.270   5.703
 8447TIP3    H125298   1.154   1.270   5.670
 8447TIP3    H225299   1.035   1.361   5.691
 8448TIP3   OH225300   5.183   6.381   0.707
 8448TIP3    H125301   5.196   6.305   0.764
 8448TIP3    H225302   5.272   6.414   0.691
 8449TIP3   OH225303   7.965   2.783   2.639
 8449TIP3    H125304   8.036   2.773   2.702
 8449TIP3    H225305   8.009   2.791   2.554
 8450TIP3   OH225306   4.134   7.106   5.205
 8450TIP3    H125307   4.145   7.100   5.300
 8450TIP3    H225308   4.068   7.173   5.192
 8451TIP3   OH225309   0.579   4.828   2.169
 8451TIP3    H125310   0.533   4.800   2.248
 8451TIP3    H225311   0.665   4.856   2.200
 8452TIP3   OH225312   7.678   2.884   5.243
 8452TIP3    H125313   7.684   2.950   5.312
 8452TIP3    H225314   7.722   2.923   5.168
 8453TIP3   OH225315   0.898   4.857   5.089
 8453TIP3    H125316   0.954   4.837   5.164
 8453TIP3    H225317   0.874   4.772   5.054
 8454TIP3   OH225318   4.757   3.150   2.545
 8454TIP3    H125319   4.788   3.103   2.468
 8454TIP3    H225320   4.670   3.182   2.520
 8455TIP3   OH225321   4.833   4.661   0.706
 8455TIP3    H125322   4.746   4.695   0.684
 8455TIP3    H225323   4.823   4.621   0.792
 8456TIP3   OH225324   6.620   2.089   2.160
 8456TIP3    H125325   6.675   2.105   2.237
 8456TIP3    H225326   6.534   2.071   2.196
 8457TIP3   OH225327   5.777   1.403   5.589
 8457TIP3    H125328   5.784   1.446   5.504
 8457TIP3    H225329   5.683   1.399   5.606
 8458TIP3   OH225330   0.529   6.959   6.271
 8458TIP3    H125331   0.610   7.003   6.246
 8458TIP3    H225332   0.468   7.030   6.293
 8459TIP3   OH225333   7.635   6.430   6.738
 8459TIP3    H125334   7.570   6.499   6.748
 8459TIP3    H225335   7.716   6.476   6.716
 8460TIP3   OH225336   0.628   2.090   5.292
 8460TIP3    H125337   0.571   2.071   5.218
 8460TIP3    H225338   0.600   2.030   5.361
 8461TIP3   OH225339   3.742   7.764   5.674
 8461TIP3    H125340   3.667   7.770   5.615
 8461TIP3    H225341   3.718   7.820   5.748
 8462TIP3   OH225342   1.373   4.551   1.723
 8462TIP3    H125343   1.340   4.465   1.697
 8462TIP3    H225344   1.299   4.591   1.769
 8463TIP3   OH225345   0.892   5.542   3.749
 8463TIP3    H125346   0.840   5.559   3.827
 8463TIP3    H225347   0.828   5.540   3.678
 8464TIP3   OH225348   4.951   6.622   6.350
 8464TIP3    H125349   4.895   6.676   6.294
 8464TIP3    H225350   4.903   6.613   6.432
 8465TIP3   OH225351   3.869   6.017   5.161
 8465TIP3    H125352   3.891   6.040   5.251
 8465TIP3    H225353   3.953   5.993   5.121
 8466TIP3   OH225354   8.046   2.035   6.039
 8466TIP3    H125355   8.031   2.075   5.954
 8466TIP3    H225356   7.963   2.044   6.086
 8467TIP3   OH225357   2.925   1.980   4.021
 8467TIP3    H125358   2.909   2.060   4.073
 8467TIP3    H225359   2.879   1.911   4.069
 8468TIP3   OH225360   3.467   6.208   1.507
 8468TIP3    H125361   3.518   6.141   1.553
 8468TIP3    H225362   3.388   6.218   1.561
 8469TIP3   OH225363   5.204   6.496   6.325
 8469TIP3    H125364   5.276   6.524   6.381
 8469TIP3    H225365   5.132   6.554   6.349
 8470TIP3   OH225366   3.981   3.251   2.979
 8470TIP3    H125367   3.922   3.209   3.042
 8470TIP3    H225368   4.051   3.187   2.967
 8471TIP3   OH225369   1.448   2.761   0.856
 8471TIP3    H125370   1.450   2.793   0.947
 8471TIP3    H225371   1.368   2.708   0.851
 8472TIP3   OH225372   3.152   3.379   0.508
 8472TIP3    H125373   3.090   3.451   0.512
 8472TIP3    H225374   3.236   3.418   0.534
 8473TIP3   OH225375   5.614   3.552   0.115
 8473TIP3    H125376   5.632   3.612   0.187
 8473TIP3    H225377   5.584   3.471   0.158
 8474TIP3   OH225378   4.498   3.612   3.978
 8474TIP3    H125379   4.591   3.633   3.979
 8474TIP3    H225380   4.490   3.538   3.917
 8475TIP3   OH225381   7.656   1.166   6.589
 8475TIP3    H125382   7.701   1.096   6.541
 8475TIP3    H225383   7.587   1.120   6.637
 8476TIP3   OH225384   7.581   0.501   1.693
 8476TIP3    H125385   7.507   0.533   1.745
 8476TIP3    H225386   7.589   0.564   1.622
 8477TIP3   OH225387   5.623   4.757   0.236
 8477TIP3    H125388   5.570   4.835   0.217
 8477TIP3    H225389   5.705   4.792   0.271
 8478TIP3   OH225390   1.997   6.476   4.710
 8478TIP3    H125391   2.010   6.381   4.701
 8478TIP3    H225392   2.071   6.505   4.763
 8479TIP3   OH225393   5.367   2.518   4.392
 8479TIP3    H125394   5.427   2.588   4.417
 8479TIP3    H225395   5.305   2.559   4.332
 8480TIP3   OH225396   1.857   2.410   1.085
 8480TIP3    H125397   1.824   2.431   1.173
 8480TIP3    H225398   1.779   2.390   1.034
 8481TIP3   OH225399   3.905   4.351   2.081
 8481TIP3    H125400   3.989   4.384   2.049
 8481TIP3    H225401   3.892   4.269   2.033
 8482TIP3   OH225402   4.879   1.048   5.135
 8482TIP3    H125403   4.800   1.037   5.082
 8482TIP3    H225404   4.951   1.025   5.076
 8483TIP3   OH225405   6.102   3.225   1.134
 8483TIP3    H125406   6.043   3.254   1.204
 8483TIP3    H225407   6.176   3.285   1.139
 8484TIP3   OH225408   0.231   2.714   3.458
 8484TIP3    H125409   0.292   2.652   3.419
 8484TIP3    H225410   0.170   2.737   3.387
 8485TIP3   OH225411   3.862   0.981   4.263
 8485TIP3    H125412   3.782   0.991   4.315
 8485TIP3    H225413   3.886   1.069   4.237
 8486TIP3   OH225414   8.123   3.692   4.266
 8486TIP3    H125415   8.206   3.732   4.242
 8486TIP3    H225416   8.139   3.597   4.261
 8487TIP3   OH225417   5.102   0.486   3.114
 8487TIP3    H125418   5.012   0.489   3.147
 8487TIP3    H225419   5.116   0.394   3.093
 8488TIP3   OH225420   5.986   2.733   1.156
 8488TIP3    H125421   5.980   2.742   1.251
 8488TIP3    H225422   6.036   2.809   1.127
 8489TIP3   OH225423   1.407   5.462   5.120
 8489TIP3    H125424   1.477   5.499   5.174
 8489TIP3    H225425   1.380   5.534   5.063
 8490TIP3   OH225426   4.325   3.026   6.036
 8490TIP3    H125427   4.372   2.970   6.098
 8490TIP3    H225428   4.386   3.097   6.018
 8491TIP3   OH225429   6.167   0.683   5.272
 8491TIP3    H125430   6.092   0.690   5.213
 8491TIP3    H225431   6.210   0.602   5.246
 8492TIP3   OH225432   0.085   7.314   5.624
 8492TIP3    H125433   0.111   7.379   5.558
 8492TIP3    H225434   0.140   7.334   5.700
 8493TIP3   OH225435   5.208   5.151   2.312
 8493TIP3    H125436   5.180   5.194   2.232
 8493TIP3    H225437   5.142   5.175   2.377
 8494TIP3   OH225438   0.222   5.695   5.675
 8494TIP3    H125439   0.269   5.669   5.596
 8494TIP3    H225440   0.189   5.783   5.656
 8495TIP3   OH225441   4.976   6.084   2.942
 8495TIP3    H125442   4.966   6.109   3.033
 8495TIP3    H225443   4.964   5.989   2.942
 8496TIP3   OH225444   6.103   5.715   3.948
 8496TIP3    H125445   6.038   5.758   3.893
 8496TIP3    H225446   6.114   5.628   3.909
 8497TIP3   OH225447   8.109   6.444   1.701
 8497TIP3    H125448   8.123   6.414   1.791
 8497TIP3    H225449   8.187   6.496   1.681
 8498TIP3   OH225450   7.582   7.709   5.384
 8498TIP3    H125451   7.520   7.771   5.346
 8498TIP3    H225452   7.529   7.657   5.445
 8499TIP3   OH225453   4.943   6.461   3.318
 8499TIP3    H125454   4.893   6.543   3.316
 8499TIP3    H225455   4.925   6.424   3.404
 8500TIP3   OH225456   6.699   7.061   4.251
 8500TIP3    H125457   6.747   7.035   4.329
 8500TIP3    H225458   6.611   7.080   4.282
 8501TIP3   OH225459   5.352   4.843   6.591
 8501TIP3    H125460   5.261   4.866   6.611
 8501TIP3    H225461   5.404   4.897   6.649
 8502TIP3   OH225462   1.627   7.182   1.516
 8502TIP3    H125463   1.639   7.174   1.421
 8502TIP3    H225464   1.533   7.172   1.530
 8503TIP3   OH225465   5.701   7.172   1.044
 8503TIP3    H125466   5.712   7.238   1.113
 8503TIP3    H225467   5.618   7.196   1.002
 8504TIP3   OH225468   3.028   5.490   6.599
 8504TIP3    H125469   3.027   5.550   6.525
 8504TIP3    H225470   2.949   5.437   6.588
 8505TIP3   OH225471   7.861   4.292   5.668
 8505TIP3    H125472   7.792   4.349   5.702
 8505TIP3    H225473   7.925   4.352   5.629
 8506TIP3   OH225474   7.333   1.121   0.749
 8506TIP3    H125475   7.351   1.028   0.760
 8506TIP3    H225476   7.264   1.125   0.682
 8507TIP3   OH225477   0.195   7.282   3.617
 8507TIP3    H125478   0.274   7.244   3.656
 8507TIP3    H225479   0.145   7.206   3.585
 8508TIP3   OH225480   3.805   0.891   1.162
 8508TIP3    H125481   3.826   0.809   1.207
 8508TIP3    H225482   3.742   0.935   1.220
 8509TIP3   OH225483   6.038   0.293   2.637
 8509TIP3    H125484   6.066   0.253   2.719
 8509TIP3    H225485   6.093   0.371   2.628
 8510TIP3   OH225486   7.082   6.159   5.819
 8510TIP3    H125487   7.114   6.141   5.908
 8510TIP3    H225488   7.153   6.131   5.762
 8511TIP3   OH225489   7.884   3.971   0.414
 8511TIP3    H125490   7.796   3.932   0.413
 8511TIP3    H225491   7.915   3.958   0.504
 8512TIP3   OH225492   7.648   2.768   4.065
 8512TIP3    H125493   7.579   2.706   4.087
 8512TIP3    H225494   7.703   2.772   4.143
 8513TIP3   OH225495   3.460   7.048   0.482
 8513TIP3    H125496   3.541   7.094   0.460
 8513TIP3    H225497   3.430   7.089   0.563
 8514TIP3   OH225498   4.627   0.619   1.406
 8514TIP3    H125499   4.600   0.577   1.325
 8514TIP3    H225500   4.559   0.595   1.469
 8515TIP3   OH225501   3.871   2.038   2.847
 8515TIP3    H125502   3.789   2.082   2.829
 8515TIP3    H225503   3.851   1.977   2.918
 8516TIP3   OH225504   7.969   4.675   5.364
 8516TIP3    H125505   8.019   4.598   5.391
 8516TIP3    H225506   8.033   4.747   5.365
 8517TIP3   OH225507   5.151   7.170   2.228
 8517TIP3    H125508   5.232   7.187   2.275
 8517TIP3    H225509   5.145   7.075   2.224
 8518TIP3   OH225510   2.221   3.164   0.110
 8518TIP3    H125511   2.137   3.179   0.153
 8518TIP3    H225512   2.286   3.194   0.173
 8519TIP3   OH225513   2.623   7.673   4.587
 8519TIP3    H125514   2.709   7.629   4.586
 8519TIP3    H225515   2.616   7.709   4.675
 8520TIP3   OH225516   2.873   1.295   1.175
 8520TIP3    H125517   2.799   1.287   1.115
 8520TIP3    H225518   2.927   1.365   1.138
 8521TIP3   OH225519   6.334   4.086   1.040
 8521TIP3    H125520   6.394   4.136   0.984
 8521TIP3    H225521   6.304   4.014   0.985
 8522TIP3   OH225522   2.508   5.636   0.914
 8522TIP3    H125523   2.545   5.567   0.859
 8522TIP3    H225524   2.433   5.668   0.864
 8523TIP3   OH225525   2.830   4.827   1.882
 8523TIP3    H125526   2.763   4.758   1.883
 8523TIP3    H225527   2.781   4.908   1.870
 8524TIP3   OH225528   0.564   7.627   2.477
 8524TIP3    H125529   0.646   7.584   2.502
 8524TIP3    H225530   0.552   7.695   2.543
 8525TIP3   OH225531   3.262   3.427   6.489
 8525TIP3    H125532   3.282   3.519   6.474
 8525TIP3    H225533   3.187   3.428   6.548
 8526TIP3   OH225534   0.461   1.644   1.557
 8526TIP3    H125535   0.425   1.661   1.644
 8526TIP3    H225536   0.384   1.633   1.501
 8527TIP3   OH225537   7.558   5.466   3.985
 8527TIP3    H125538   7.575   5.377   3.955
 8527TIP3    H225539   7.538   5.515   3.905
 8528TIP3   OH225540   2.770   6.809   0.301
 8528TIP3    H125541   2.678   6.827   0.282
 8528TIP3    H225542   2.803   6.765   0.223
 8529TIP3   OH225543   0.123   3.968   4.854
 8529TIP3    H125544   0.164   3.958   4.768
 8529TIP3    H225545   0.120   3.879   4.890
 8530TIP3   OH225546   0.268   4.541   6.404
 8530TIP3    H125547   0.299   4.545   6.494
 8530TIP3    H225548   0.180   4.503   6.411
 8531TIP3   OH225549   5.371   6.461   2.247
 8531TIP3    H125550   5.326   6.544   2.230
 8531TIP3    H225551   5.304   6.394   2.236
 8532TIP3   OH225552   7.338   5.559   1.005
 8532TIP3    H125553   7.383   5.594   0.928
 8532TIP3    H225554   7.407   5.524   1.060
 8533TIP3   OH225555   3.472   7.384   5.560
 8533TIP3    H125556   3.406   7.438   5.516
 8533TIP3    H225557   3.536   7.365   5.491
 8534TIP3   OH225558   2.709   4.290   4.023
 8534TIP3    H125559   2.723   4.215   4.081
 8534TIP3    H225560   2.761   4.360   4.061
 8535TIP3   OH225561   2.749   4.746   4.128
 8535TIP3    H125562   2.789   4.832   4.116
 8535TIP3    H225563   2.773   4.721   4.217
 8536TIP3   OH225564   4.253   6.404   6.273
 8536TIP3    H125565   4.189   6.333   6.266
 8536TIP3    H225566   4.322   6.369   6.329
 8537TIP3   OH225567   5.104   3.247   5.145
 8537TIP3    H125568   5.021   3.291   5.129
 8537TIP3    H225569   5.157   3.265   5.068
 8538TIP3   OH225570   4.679   6.338   6.589
 8538TIP3    H125571   4.684   6.347   6.685
 8538TIP3    H225572   4.695   6.426   6.556
 8539TIP3   OH225573   2.827   3.804   1.420
 8539TIP3    H125574   2.852   3.836   1.334
 8539TIP3    H225575   2.905   3.758   1.452
 8540TIP3   OH225576   3.498   5.333   0.368
 8540TIP3    H125577   3.515   5.394   0.297
 8540TIP3    H225578   3.577   5.335   0.421
 8541TIP3   OH225579   1.408   0.764   2.007
 8541TIP3    H125580   1.495   0.787   2.039
 8541TIP3    H225581   1.376   0.844   1.965
 8542TIP3   OH225582   6.531   4.254   1.167
 8542TIP3    H125583   6.477   4.305   1.106
 8542TIP3    H225584   6.468   4.214   1.227
 8543TIP3   OH225585   3.420   3.192   0.953
 8543TIP3    H125586   3.353   3.237   0.902
 8543TIP3    H225587   3.374   3.120   0.996
 8544TIP3   OH225588   0.547   5.072   4.952
 8544TIP3    H125589   0.606   5.087   4.878
 8544TIP3    H225590   0.504   4.990   4.932
 8545TIP3   OH225591   5.095   4.533   3.045
 8545TIP3    H125592   5.182   4.552   3.080
 8545TIP3    H225593   5.112   4.476   2.970
 8546TIP3   OH225594   3.405   5.004   4.749
 8546TIP3    H125595   3.475   4.985   4.687
 8546TIP3    H225596   3.380   4.918   4.784
 8547TIP3   OH225597   3.970   3.521   4.500
 8547TIP3    H125598   3.927   3.461   4.440
 8547TIP3    H225599   3.915   3.600   4.499
 8548TIP3   OH225600   7.750   6.344   3.458
 8548TIP3    H125601   7.840   6.323   3.432
 8548TIP3    H225602   7.734   6.288   3.534
 8549TIP3   OH225603   1.190   1.397   3.777
 8549TIP3    H125604   1.247   1.388   3.701
 8549TIP3    H225605   1.241   1.362   3.850
 8550TIP3   OH225606   5.825   4.815   5.331
 8550TIP3    H125607   5.845   4.816   5.425
 8550TIP3    H225608   5.814   4.908   5.308
 8551TIP3   OH225609   5.314   4.129   5.557
 8551TIP3    H125610   5.325   4.206   5.613
 8551TIP3    H225611   5.388   4.133   5.497
 8552TIP3   OH225612   2.513   3.147   3.638
 8552TIP3    H125613   2.539   3.239   3.631
 8552TIP3    H225614   2.538   3.108   3.554
 8553TIP3   OH225615   6.792   6.331   6.675
 8553TIP3    H125616   6.834   6.416   6.661
 8553TIP3    H225617   6.815   6.279   6.598
 8554TIP3   OH225618   1.712   7.169   5.363
 8554TIP3    H125619   1.666   7.210   5.436
 8554TIP3    H225620   1.644   7.155   5.297
 8555TIP3   OH225621   2.775   0.622   1.677
 8555TIP3    H125622   2.868   0.612   1.657
 8555TIP3    H225623   2.731   0.560   1.619
 8556TIP3   OH225624   1.472   5.245   6.367
 8556TIP3    H125625   1.482   5.158   6.326
 8556TIP3    H225626   1.455   5.226   6.459
 8557TIP3   OH225627   1.763   6.348   5.047
 8557TIP3    H125628   1.856   6.366   5.040
 8557TIP3    H225629   1.741   6.301   4.967
 8558TIP3   OH225630   3.663   3.715   6.721
 8558TIP3    H125631   3.710   3.682   6.644
 8558TIP3    H225632   3.691   3.658   6.792
 8559TIP3   OH225633   6.417   7.269   3.432
 8559TIP3    H125634   6.486   7.206   3.413
 8559TIP3    H225635   6.340   7.215   3.452
 8560TIP3   OH225636   4.031   5.156   2.524
 8560TIP3    H125637   3.983   5.090   2.575
 8560TIP3    H225638   3.963   5.205   2.479
 8561TIP3   OH225639   3.778   5.681   1.815
 8561TIP3    H125640   3.724   5.653   1.889
 8561TIP3    H225641   3.799   5.601   1.768
 8562TIP3   OH225642   1.385   4.635   5.631
 8562TIP3    H125643   1.459   4.634   5.569
 8562TIP3    H225644   1.349   4.546   5.627
 8563TIP3   OH225645   4.970   0.816   3.672
 8563TIP3    H125646   4.879   0.839   3.657
 8563TIP3    H225647   4.982   0.734   3.626
 8564TIP3   OH225648   8.095   6.366   1.371
 8564TIP3    H125649   8.153   6.313   1.315
 8564TIP3    H225650   8.057   6.303   1.432
 8565TIP3   OH225651   0.772   3.384   3.302
 8565TIP3    H125652   0.840   3.379   3.369
 8565TIP3    H225653   0.693   3.353   3.346
 8566TIP3   OH225654   4.006   1.090   5.485
 8566TIP3    H125655   4.051   1.117   5.405
 8566TIP3    H225656   3.924   1.051   5.454
 8567TIP3   OH225657   5.106   1.035   3.350
 8567TIP3    H125658   5.087   0.995   3.435
 8567TIP3    H225659   5.195   1.005   3.330
 8568TIP3   OH225660   7.699   7.377   4.633
 8568TIP3    H125661   7.705   7.444   4.701
 8568TIP3    H225662   7.618   7.330   4.653
 8569TIP3   OH225663   7.531   7.533   4.492
 8569TIP3    H125664   7.612   7.518   4.540
 8569TIP3    H225665   7.552   7.514   4.401
 8570TIP3   OH225666   4.429   7.321   5.805
 8570TIP3    H125667   4.385   7.238   5.822
 8570TIP3    H225668   4.458   7.351   5.891
 8571TIP3   OH225669   7.577   5.420   3.568
 8571TIP3    H125670   7.490   5.385   3.587
 8571TIP3    H225671   7.604   5.375   3.488
 8572TIP3   OH225672   5.072   5.876   2.029
 8572TIP3    H125673   5.000   5.857   1.969
 8572TIP3    H225674   5.147   5.892   1.973
 8573TIP3   OH225675   0.717   0.865   2.266
 8573TIP3    H125676   0.653   0.880   2.197
 8573TIP3    H225677   0.716   0.945   2.319
 8574TIP3   OH225678   7.033   4.917   4.238
 8574TIP3    H125679   7.060   4.888   4.151
 8574TIP3    H225680   7.078   5.001   4.251
 8575TIP3   OH225681   2.636   2.099   5.532
 8575TIP3    H125682   2.567   2.086   5.466
 8575TIP3    H225683   2.590   2.088   5.616
 8576TIP3   OH225684   1.243   3.747   4.600
 8576TIP3    H125685   1.262   3.685   4.670
 8576TIP3    H225686   1.299   3.823   4.618
 8577TIP3   OH225687   2.945   6.798   1.715
 8577TIP3    H125688   2.930   6.868   1.652
 8577TIP3    H225689   3.040   6.783   1.712
 8578TIP3   OH225690   4.463   4.068   5.806
 8578TIP3    H125691   4.405   4.120   5.751
 8578TIP3    H225692   4.483   4.124   5.880
 8579TIP3   OH225693   4.474   3.919   3.077
 8579TIP3    H125694   4.463   3.846   3.138
 8579TIP3    H225695   4.485   3.876   2.992
 8580TIP3   OH225696   0.400   0.175   4.580
 8580TIP3    H125697   0.430   0.165   4.489
 8580TIP3    H225698   0.471   0.139   4.632
 8581TIP3   OH225699   5.035   2.938   0.370
 8581TIP3    H125700   5.018   2.907   0.281
 8581TIP3    H225701   5.103   3.004   0.361
 8582TIP3   OH225702   0.309   6.593   3.763
 8582TIP3    H125703   0.260   6.653   3.707
 8582TIP3    H225704   0.273   6.607   3.850
 8583TIP3   OH225705   7.677   5.374   2.615
 8583TIP3    H125706   7.753   5.432   2.606
 8583TIP3    H225707   7.695   5.323   2.694
 8584TIP3   OH225708   1.927   4.349   4.097
 8584TIP3    H125709   1.975   4.400   4.032
 8584TIP3    H225710   1.979   4.356   4.177
 8585TIP3   OH225711   7.437   3.572   5.241
 8585TIP3    H125712   7.397   3.610   5.163
 8585TIP3    H225713   7.364   3.537   5.292
 8586TIP3   OH225714   4.331   1.719   2.677
 8586TIP3    H125715   4.319   1.624   2.670
 8586TIP3    H225716   4.244   1.753   2.698
 8587TIP3   OH225717   4.605   2.905   1.144
 8587TIP3    H125718   4.612   2.841   1.073
 8587TIP3    H225719   4.658   2.868   1.214
 8588TIP3   OH225720   2.283   6.924   6.605
 8588TIP3    H125721   2.216   6.980   6.565
 8588TIP3    H225722   2.359   6.981   6.617
 8589TIP3   OH225723   0.682   5.056   4.322
 8589TIP3    H125724   0.612   5.103   4.278
 8589TIP3    H225725   0.638   5.003   4.389
 8590TIP3   OH225726   0.526   0.312   1.701
 8590TIP3    H125727   0.492   0.397   1.730
 8590TIP3    H225728   0.462   0.283   1.635
 8591TIP3   OH225729   8.017   1.055   3.177
 8591TIP3    H125730   8.018   0.981   3.238
 8591TIP3    H225731   8.101   1.050   3.133
 8592TIP3   OH225732   7.474   2.488   4.316
 8592TIP3    H125733   7.543   2.456   4.258
 8592TIP3    H225734   7.522   2.532   4.387
 8593TIP3   OH225735   6.702   1.022   5.016
 8593TIP3    H125736   6.617   0.982   4.999
 8593TIP3    H225737   6.684   1.088   5.083
 8594TIP3   OH225738   3.682   1.694   1.582
 8594TIP3    H125739   3.641   1.611   1.559
 8594TIP3    H225740   3.644   1.757   1.521
 8595TIP3   OH225741   6.336   7.438   3.130
 8595TIP3    H125742   6.411   7.402   3.178
 8595TIP3    H225743   6.286   7.361   3.103
 8596TIP3   OH225744   7.022   1.343   0.839
 8596TIP3    H125745   7.084   1.301   0.899
 8596TIP3    H225746   6.988   1.418   0.889
 8597TIP3   OH225747   6.673   7.082   2.913
 8597TIP3    H125748   6.670   7.177   2.901
 8597TIP3    H225749   6.761   7.065   2.946
 8598TIP3   OH225750   7.121   5.129   2.991
 8598TIP3    H125751   7.037   5.146   3.032
 8598TIP3    H225752   7.113   5.167   2.903
 8599TIP3   OH225753   4.117   1.655   3.008
 8599TIP3    H125754   4.053   1.597   3.049
 8599TIP3    H225755   4.140   1.611   2.926
 8600TIP3   OH225756   7.268   3.425   0.734
 8600TIP3    H125757   7.198   3.387   0.681
 8600TIP3    H225758   7.256   3.385   0.820
 8601TIP3   OH225759   5.614   3.828   0.058
 8601TIP3    H125760   5.570   3.749   0.026
 8601TIP3    H225761   5.624   3.814   0.152
 8602TIP3   OH225762   7.115   7.110   3.399
 8602TIP3    H125763   7.173   7.059   3.343
 8602TIP3    H225764   7.168   7.185   3.427
 8603TIP3   OH225765   3.797   2.145   3.238
 8603TIP3    H125766   3.718   2.181   3.277
 8603TIP3    H225767   3.837   2.218   3.191
 8604TIP3   OH225768   4.778   3.125   1.967
 8604TIP3    H125769   4.739   3.042   1.938
 8604TIP3    H225770   4.706   3.188   1.960
 8605TIP3   OH225771   0.597   5.279   4.717
 8605TIP3    H125772   0.690   5.300   4.709
 8605TIP3    H225773   0.594   5.184   4.723
 8606TIP3   OH225774   1.017   1.656   4.306
 8606TIP3    H125775   0.945   1.595   4.300
 8606TIP3    H225776   1.025   1.693   4.217
 8607TIP3   OH225777   3.321   2.927   3.300
 8607TIP3    H125778   3.280   2.905   3.384
 8607TIP3    H225779   3.248   2.949   3.243
 8608TIP3   OH225780   1.005   0.454   4.881
 8608TIP3    H125781   0.982   0.367   4.848
 8608TIP3    H225782   1.084   0.478   4.833
 8609TIP3   OH225783   7.718   6.561   4.289
 8609TIP3    H125784   7.719   6.644   4.337
 8609TIP3    H225785   7.637   6.518   4.318
 8610TIP3   OH225786   6.294   2.760   5.456
 8610TIP3    H125787   6.296   2.712   5.373
 8610TIP3    H225788   6.230   2.829   5.442
 8611TIP3   OH225789   4.539   1.049   2.895
 8611TIP3    H125790   4.615   1.000   2.863
 8611TIP3    H225791   4.543   1.132   2.846
 8612TIP3   OH225792   6.492   3.332   0.550
 8612TIP3    H125793   6.465   3.323   0.459
 8612TIP3    H225794   6.411   3.348   0.598
 8613TIP3   OH225795   3.420   1.177   3.394
 8613TIP3    H125796   3.361   1.104   3.375
 8613TIP3    H225797   3.371   1.255   3.366
 8614TIP3   OH225798   6.596   4.256   3.871
 8614TIP3    H125799   6.675   4.207   3.890
 8614TIP3    H225800   6.586   4.252   3.776
 8615TIP3   OH225801   5.157   1.263   2.167
 8615TIP3    H125802   5.211   1.251   2.245
 8615TIP3    H225803   5.174   1.354   2.141
 8616TIP3   OH225804   2.987   0.358   4.805
 8616TIP3    H125805   3.062   0.416   4.814
 8616TIP3    H225806   3.008   0.282   4.860
 8617TIP3   OH225807   2.558   0.782   3.757
 8617TIP3    H125808   2.494   0.720   3.791
 8617TIP3    H225809   2.581   0.747   3.671
 8618TIP3   OH225810   2.741   3.889   0.518
 8618TIP3    H125811   2.652   3.924   0.512
 8618TIP3    H225812   2.786   3.947   0.580
 8619TIP3   OH225813   2.347   2.235   4.114
 8619TIP3    H125814   2.349   2.330   4.100
 8619TIP3    H225815   2.276   2.204   4.059
 8620TIP3   OH225816   4.572   5.446   0.786
 8620TIP3    H125817   4.495   5.436   0.842
 8620TIP3    H225818   4.634   5.497   0.839
 8621TIP3   OH225819   5.352   4.917   2.239
 8621TIP3    H125820   5.439   4.954   2.229
 8621TIP3    H225821   5.304   4.981   2.292
 8622TIP3   OH225822   1.321   1.222   5.609
 8622TIP3    H125823   1.347   1.179   5.528
 8622TIP3    H225824   1.359   1.310   5.603
 8623TIP3   OH225825   5.959   0.314   0.048
 8623TIP3    H125826   5.880   0.334   0.098
 8623TIP3    H225827   6.005   0.249   0.100
 8624TIP3   OH225828   2.552   6.004   5.971
 8624TIP3    H125829   2.545   5.914   6.001
 8624TIP3    H225830   2.587   5.997   5.882
 8625TIP3   OH225831   6.694   4.838   6.477
 8625TIP3    H125832   6.603   4.836   6.509
 8625TIP3    H225833   6.747   4.842   6.557
 8626TIP3   OH225834   7.783   7.684   4.270
 8626TIP3    H125835   7.756   7.773   4.248
 8626TIP3    H225836   7.780   7.680   4.365
 8627TIP3   OH225837   2.811   4.496   2.222
 8627TIP3    H125838   2.761   4.556   2.278
 8627TIP3    H225839   2.749   4.427   2.200
 8628TIP3   OH225840   3.163   7.749   6.227
 8628TIP3    H125841   3.106   7.675   6.207
 8628TIP3    H225842   3.242   7.709   6.263
 8629TIP3   OH225843   1.418   5.703   4.971
 8629TIP3    H125844   1.432   5.726   5.062
 8629TIP3    H225845   1.373   5.779   4.933
 8630TIP3   OH225846   2.111   3.664   1.902
 8630TIP3    H125847   2.159   3.737   1.863
 8630TIP3    H225848   2.176   3.594   1.910
 8631TIP3   OH225849   8.189   1.801   4.324
 8631TIP3    H125850   8.112   1.763   4.280
 8631TIP3    H225851   8.263   1.758   4.282
 8632TIP3   OH225852   4.096   1.894   6.279
 8632TIP3    H125853   4.149   1.838   6.336
 8632TIP3    H225854   4.011   1.897   6.321
 8633TIP3   OH225855   0.704   2.904   4.372
 8633TIP3    H125856   0.799   2.892   4.359
 8633TIP3    H225857   0.697   2.950   4.456
 8634TIP3   OH225858   3.204   2.688   1.202
 8634TIP3    H125859   3.115   2.723   1.214
 8634TIP3    H225860   3.201   2.601   1.242
 8635TIP3   OH225861   7.749   7.207   3.713
 8635TIP3    H125862   7.668   7.258   3.722
 8635TIP3    H225863   7.809   7.247   3.776
 8636TIP3   OH225864   7.504   2.263   5.466
 8636TIP3    H125865   7.411   2.276   5.487
 8636TIP3    H225866   7.503   2.199   5.395
 8637TIP3   OH225867   5.057   3.025   2.125
 8637TIP3    H125868   5.120   2.974   2.074
 8637TIP3    H225869   5.063   3.113   2.089
 8638TIP3   OH225870   4.706   3.511   0.477
 8638TIP3    H125871   4.764   3.500   0.552
 8638TIP3    H225872   4.727   3.598   0.443
 8639TIP3   OH225873   0.444   3.017   4.956
 8639TIP3    H125874   0.389   3.065   4.895
 8639TIP3    H225875   0.444   3.071   5.036
 8640TIP3   OH225876   0.278   2.275   1.143
 8640TIP3    H125877   0.312   2.187   1.128
 8640TIP3    H225878   0.355   2.329   1.158
 8641TIP3   OH225879   2.646   3.212   1.524
 8641TIP3    H125880   2.589   3.284   1.551
 8641TIP3    H225881   2.634   3.145   1.590
 8642TIP3   OH225882   6.368   2.443   0.264
 8642TIP3    H125883   6.301   2.459   0.198
 8642TIP3    H225884   6.413   2.364   0.234
 8643TIP3   OH225885   5.489   3.363   0.308
 8643TIP3    H125886   5.471   3.329   0.396
 8643TIP3    H225887   5.403   3.392   0.276
 8644TIP3   OH225888   1.084   4.897   2.575
 8644TIP3    H125889   1.157   4.950   2.542
 8644TIP3    H225890   1.018   4.961   2.601
 8645TIP3   OH225891   7.710   0.897   4.354
 8645TIP3    H125892   7.705   0.985   4.393
 8645TIP3    H225893   7.785   0.856   4.398
 8646TIP3   OH225894   8.221   4.364   4.653
 8646TIP3    H125895   8.316   4.360   4.646
 8646TIP3    H225896   8.195   4.276   4.682
 8647TIP3   OH225897   2.402   4.341   6.541
 8647TIP3    H125898   2.335   4.304   6.598
 8647TIP3    H225899   2.355   4.403   6.485
 8648TIP3   OH225900   2.118   1.953   6.681
 8648TIP3    H125901   2.062   1.977   6.607
 8648TIP3    H225902   2.180   1.889   6.646
 8649TIP3   OH225903   3.109   4.171   3.514
 8649TIP3    H125904   3.030   4.129   3.480
 8649TIP3    H225905   3.161   4.099   3.549
 8650TIP3   OH225906   1.986   3.514   6.480
 8650TIP3    H125907   2.073   3.547   6.503
 8650TIP3    H225908   2.003   3.426   6.446
 8651TIP3   OH225909   1.115   5.817   1.901
 8651TIP3    H125910   1.099   5.833   1.808
 8651TIP3    H225911   1.050   5.870   1.947
 8652TIP3   OH225912   0.892   6.241   3.376
 8652TIP3    H125913   0.852   6.160   3.343
 8652TIP3    H225914   0.970   6.211   3.423
 8653TIP3   OH225915   0.314   1.497   3.198
 8653TIP3    H125916   0.251   1.463   3.135
 8653TIP3    H225917   0.295   1.450   3.279
 8654TIP3   OH225918   7.762   2.973   3.008
 8654TIP3    H125919   7.856   2.991   3.012
 8654TIP3    H225920   7.747   2.907   3.076
 8655TIP3   OH225921   1.046   1.005   5.785
 8655TIP3    H125922   0.952   0.989   5.769
 8655TIP3    H225923   1.058   1.098   5.766
 8656TIP3   OH225924   7.357   7.646   1.368
 8656TIP3    H125925   7.335   7.719   1.426
 8656TIP3    H225926   7.318   7.570   1.410
 8657TIP3   OH225927   0.255   1.974   1.421
 8657TIP3    H125928   0.319   1.991   1.352
 8657TIP3    H225929   0.287   1.895   1.464
 8658TIP3   OH225930   6.344   3.188   2.366
 8658TIP3    H125931   6.335   3.102   2.325
 8658TIP3    H225932   6.439   3.202   2.370
 8659TIP3   OH225933   3.117   3.600   2.042
 8659TIP3    H125934   3.077   3.622   2.126
 8659TIP3    H225935   3.046   3.609   1.979
 8660TIP3   OH225936   4.961   5.827   2.929
 8660TIP3    H125937   4.950   5.769   2.854
 8660TIP3    H225938   4.932   5.775   3.004
 8661TIP3   OH225939   6.067   6.875   2.392
 8661TIP3    H125940   6.100   6.791   2.360
 8661TIP3    H225941   6.091   6.876   2.485
 8662TIP3   OH225942   2.580   7.328   0.913
 8662TIP3    H125943   2.528   7.248   0.902
 8662TIP3    H225944   2.533   7.394   0.862
 8663TIP3   OH225945   3.417   5.924   4.511
 8663TIP3    H125946   3.416   5.837   4.470
 8663TIP3    H225947   3.486   5.919   4.577
 8664TIP3   OH225948   5.336   3.053   2.249
 8664TIP3    H125949   5.269   3.062   2.316
 8664TIP3    H225950   5.327   2.964   2.216
 8665TIP3   OH225951   0.035   0.756   5.400
 8665TIP3    H125952   0.047   0.836   5.451
 8665TIP3    H225953   0.124   0.733   5.372
 8666TIP3   OH225954   4.692  -0.006   0.155
 8666TIP3    H125955   4.711   0.087   0.168
 8666TIP3    H225956   4.726  -0.026   0.068
 8667TIP3   OH225957   6.321   1.809   1.302
 8667TIP3    H125958   6.321   1.717   1.330
 8667TIP3    H225959   6.338   1.859   1.382
 8668TIP3   OH225960   0.934   7.168   1.249
 8668TIP3    H125961   0.998   7.139   1.314
 8668TIP3    H225962   0.851   7.171   1.296
 8669TIP3   OH225963   6.267   0.445   3.171
 8669TIP3    H125964   6.312   0.523   3.139
 8669TIP3    H225965   6.295   0.436   3.262
 8670TIP3   OH225966   0.370   2.507   0.483
 8670TIP3    H125967   0.372   2.417   0.450
 8670TIP3    H225968   0.429   2.555   0.425
 8671TIP3   OH225969   5.833   0.182   4.664
 8671TIP3    H125970   5.877   0.252   4.712
 8671TIP3    H225971   5.815   0.219   4.578
 8672TIP3   OH225972   4.300   2.149   5.550
 8672TIP3    H125973   4.380   2.102   5.573
 8672TIP3    H225974   4.230   2.101   5.595
 8673TIP3   OH225975   8.014   7.399   1.506
 8673TIP3    H125976   7.940   7.417   1.448
 8673TIP3    H225977   8.090   7.396   1.448
 8674TIP3   OH225978   4.266   7.525   6.381
 8674TIP3    H125979   4.292   7.564   6.298
 8674TIP3    H225980   4.305   7.438   6.380
 8675TIP3   OH225981   6.982   6.944   6.356
 8675TIP3    H125982   6.903   6.942   6.304
 8675TIP3    H225983   7.027   6.862   6.335
 8676TIP3   OH225984  -0.025   2.440   5.676
 8676TIP3    H125985  -0.004   2.533   5.667
 8676TIP3    H225986   0.060   2.398   5.685
 8677TIP3   OH225987   2.393   2.748   3.441
 8677TIP3    H125988   2.313   2.766   3.391
 8677TIP3    H225989   2.362   2.706   3.521
 8678TIP3   OH225990   3.707   3.161   0.861
 8678TIP3    H125991   3.619   3.187   0.886
 8678TIP3    H225992   3.708   3.066   0.872
 8679TIP3   OH225993   8.233   3.491   5.202
 8679TIP3    H125994   8.218   3.553   5.274
 8679TIP3    H225995   8.146   3.466   5.173
 8680TIP3   OH225996   5.494   2.893   5.740
 8680TIP3    H125997   5.491   2.940   5.824
 8680TIP3    H225998   5.402   2.885   5.714
 8681TIP3   OH225999   0.982   7.750   4.282
 8681TIP3    H126000   1.014   7.802   4.356
 8681TIP3    H226001   1.041   7.771   4.210
 8682TIP3   OH226002   7.340   3.562   3.905
 8682TIP3    H126003   7.380   3.596   3.825
 8682TIP3    H226004   7.349   3.633   3.969
 8683TIP3   OH226005   0.665   5.091   1.384
 8683TIP3    H126006   0.586   5.077   1.436
 8683TIP3    H226007   0.689   5.183   1.402
 8684TIP3   OH226008   1.597   3.823   4.552
 8684TIP3    H126009   1.529   3.880   4.587
 8684TIP3    H226010   1.558   3.736   4.552
 8685TIP3   OH226011   4.842   0.021   5.747
 8685TIP3    H126012   4.937   0.029   5.760
 8685TIP3    H226013   4.806   0.103   5.780
 8686TIP3   OH226014   4.132   2.952   0.821
 8686TIP3    H126015   4.086   2.870   0.803
 8686TIP3    H226016   4.224   2.932   0.806
 8687TIP3   OH226017   1.999   4.275   1.203
 8687TIP3    H126018   2.001   4.202   1.142
 8687TIP3    H226019   1.906   4.291   1.219
 8688TIP3   OH226020   5.386   5.569   1.049
 8688TIP3    H126021   5.391   5.628   1.123
 8688TIP3    H226022   5.295   5.573   1.020
 8689TIP3   OH226023   3.449   2.050   2.331
 8689TIP3    H126024   3.399   2.025   2.409
 8689TIP3    H226025   3.471   1.967   2.289
 8690TIP3   OH226026   3.896   6.679   2.340
 8690TIP3    H126027   3.866   6.681   2.431
 8690TIP3    H226028   3.929   6.590   2.327
 8691TIP3   OH226029   2.645   6.663   1.959
 8691TIP3    H126030   2.736   6.677   1.987
 8691TIP3    H226031   2.600   6.631   2.037
 8692TIP3   OH226032   4.449   2.162   2.464
 8692TIP3    H126033   4.442   2.071   2.492
 8692TIP3    H226034   4.507   2.202   2.528
 8693TIP3   OH226035   7.208   5.565   5.659
 8693TIP3    H126036   7.153   5.636   5.690
 8693TIP3    H226037   7.296   5.588   5.689
 8694TIP3   OH226038   4.065   6.894   0.682
 8694TIP3    H126039   4.100   6.983   0.675
 8694TIP3    H226040   4.100   6.861   0.765
 8695TIP3   OH226041   4.761   2.103   1.870
 8695TIP3    H126042   4.793   2.088   1.959
 8695TIP3    H226043   4.837   2.138   1.823
 8696TIP3   OH226044   4.994   4.575   6.437
 8696TIP3    H126045   4.909   4.561   6.395
 8696TIP3    H226046   5.044   4.495   6.416
 8697TIP3   OH226047   1.948   1.888   2.861
 8697TIP3    H126048   1.978   1.871   2.950
 8697TIP3    H226049   2.027   1.918   2.815
 8698TIP3   OH226050   1.214   3.964   2.169
 8698TIP3    H126051   1.153   4.007   2.229
 8698TIP3    H226052   1.255   3.896   2.221
 8699TIP3   OH226053   2.335   1.124   0.886
 8699TIP3    H126054   2.423   1.087   0.892
 8699TIP3    H226055   2.285   1.076   0.952
 8700TIP3   OH226056   4.907   7.184   4.708
 8700TIP3    H126057   4.947   7.149   4.628
 8700TIP3    H226058   4.978   7.184   4.773
 8701TIP3   OH226059   4.847   1.480   5.656
 8701TIP3    H126060   4.903   1.422   5.707
 8701TIP3    H226061   4.904   1.553   5.633
 8702TIP3   OH226062   3.155   5.187   4.722
 8702TIP3    H126063   3.237   5.138   4.725
 8702TIP3    H226064   3.088   5.121   4.741
 8703TIP3   OH226065   4.268   2.984   3.806
 8703TIP3    H126066   4.199   2.978   3.740
 8703TIP3    H226067   4.347   3.006   3.757
 8704TIP3   OH226068   1.193   3.322   4.975
 8704TIP3    H126069   1.169   3.293   5.064
 8704TIP3    H226070   1.269   3.379   4.988
 8705TIP3   OH226071   6.681   7.694   5.327
 8705TIP3    H126072   6.707   7.674   5.237
 8705TIP3    H226073   6.761   7.681   5.378
 8706TIP3   OH226074   5.214   3.544   5.063
 8706TIP3    H126075   5.209   3.571   5.154
 8706TIP3    H226076   5.268   3.611   5.021
 8707TIP3   OH226077   7.247   5.608   3.315
 8707TIP3    H126078   7.195   5.539   3.355
 8707TIP3    H226079   7.185   5.679   3.298
 8708TIP3   OH226080   3.487   4.397   6.038
 8708TIP3    H126081   3.570   4.444   6.045
 8708TIP3    H226082   3.504   4.311   6.076
 8709TIP3   OH226083   7.744   3.964   2.534
 8709TIP3    H126084   7.795   3.893   2.573
 8709TIP3    H226085   7.809   4.030   2.510
 8710TIP3   OH226086   1.095   6.907   3.210
 8710TIP3    H126087   1.026   6.844   3.231
 8710TIP3    H226088   1.116   6.889   3.118
 8711TIP3   OH226089   1.813   3.882   1.635
 8711TIP3    H126090   1.829   3.880   1.541
 8711TIP3    H226091   1.842   3.797   1.666
 8712TIP3   OH226092   8.203   0.967   3.368
 8712TIP3    H126093   8.272   0.905   3.346
 8712TIP3    H226094   8.122   0.916   3.365
 8713TIP3   OH226095   6.532   6.531   4.951
 8713TIP3    H126096   6.564   6.487   5.030
 8713TIP3    H226097   6.532   6.462   4.884
 8714TIP3   OH226098   7.395   3.310   1.073
 8714TIP3    H126099   7.302   3.321   1.052
 8714TIP3    H226100   7.431   3.399   1.072
 8715TIP3   OH226101   5.418   5.618   2.962
 8715TIP3    H126102   5.486   5.550   2.971
 8715TIP3    H226103   5.466   5.697   2.939
 8716TIP3   OH226104   0.507   2.475   6.676
 8716TIP3    H126105   0.498   2.444   6.766
 8716TIP3    H226106   0.568   2.549   6.682
 8717TIP3   OH226107   0.246   4.801   2.245
 8717TIP3    H126108   0.221   4.885   2.285
 8717TIP3    H226109   0.291   4.754   2.314
 8718TIP3   OH226110   6.109   1.184   0.339
 8718TIP3    H126111   6.079   1.096   0.317
 8718TIP3    H226112   6.032   1.227   0.376
 8719TIP3   OH226113   5.778   1.510   2.380
 8719TIP3    H126114   5.815   1.424   2.360
 8719TIP3    H226115   5.770   1.512   2.475
 8720TIP3   OH226116   2.932   1.871   0.654
 8720TIP3    H126117   2.848   1.834   0.626
 8720TIP3    H226118   2.911   1.962   0.675
 8721TIP3   OH226119   5.219   3.342   5.377
 8721TIP3    H126120   5.181   3.300   5.455
 8721TIP3    H226121   5.197   3.282   5.305
 8722TIP3   OH226122   3.063   2.786   1.685
 8722TIP3    H126123   3.155   2.777   1.659
 8722TIP3    H226124   3.066   2.823   1.773
 8723TIP3   OH226125   5.021   4.299   0.561
 8723TIP3    H126126   5.078   4.364   0.520
 8723TIP3    H226127   4.938   4.305   0.514
 8724TIP3   OH226128   5.895   0.871   1.033
 8724TIP3    H126129   5.976   0.822   1.024
 8724TIP3    H226130   5.922   0.963   1.040
 8725TIP3   OH226131   7.998   4.038   2.733
 8725TIP3    H126132   8.034   4.048   2.644
 8725TIP3    H226133   8.073   4.052   2.791
 8726TIP3   OH226134   4.423   4.387   1.803
 8726TIP3    H126135   4.518   4.383   1.791
 8726TIP3    H226136   4.399   4.300   1.835
 8727TIP3   OH226137   5.823   0.040   2.791
 8727TIP3    H126138   5.777   0.089   2.860
 8727TIP3    H226139   5.913   0.035   2.822
 8728TIP3   OH226140   5.168   1.634   3.940
 8728TIP3    H126141   5.240   1.587   3.983
 8728TIP3    H226142   5.190   1.632   3.847
 8729TIP3   OH226143   2.627   0.902   2.883
 8729TIP3    H126144   2.711   0.932   2.916
 8729TIP3    H226145   2.628   0.807   2.896
 8730TIP3   OH226146   3.888   2.480   5.476
 8730TIP3    H126147   3.977   2.452   5.455
 8730TIP3    H226148   3.854   2.515   5.394
 8731TIP3   OH226149   6.227   2.390   4.616
 8731TIP3    H126150   6.231   2.363   4.708
 8731TIP3    H226151   6.134   2.406   4.600
 8732TIP3   OH226152   4.439   5.562   6.350
 8732TIP3    H126153   4.508   5.619   6.384
 8732TIP3    H226154   4.483   5.478   6.335
 8733TIP3   OH226155   7.193   1.777   5.452
 8733TIP3    H126156   7.115   1.722   5.461
 8733TIP3    H226157   7.207   1.783   5.357
 8734TIP3   OH226158   2.278   0.034   2.991
 8734TIP3    H126159   2.292   0.028   2.896
 8734TIP3    H226160   2.255   0.125   3.007
 8735TIP3   OH226161   1.335   2.531   4.257
 8735TIP3    H126162   1.418   2.485   4.246
 8735TIP3    H226163   1.268   2.462   4.245
 8736TIP3   OH226164   7.909   1.301   6.643
 8736TIP3    H126165   7.815   1.283   6.646
 8736TIP3    H226166   7.949   1.216   6.621
 8737TIP3   OH226167   5.445   0.419   1.278
 8737TIP3    H126168   5.472   0.359   1.348
 8737TIP3    H226169   5.485   0.503   1.301
 8738TIP3   OH226170   6.617   3.851   3.233
 8738TIP3    H126171   6.530   3.813   3.222
 8738TIP3    H226172   6.620   3.881   3.323
 8739TIP3   OH226173   6.433   5.500   3.436
 8739TIP3    H126174   6.347   5.504   3.478
 8739TIP3    H226175   6.414   5.487   3.343
 8740TIP3   OH226176   7.492   7.384   2.697
 8740TIP3    H126177   7.420   7.320   2.695
 8740TIP3    H226178   7.473   7.438   2.774
 8741TIP3   OH226179   2.603   2.683   4.587
 8741TIP3    H126180   2.571   2.605   4.542
 8741TIP3    H226181   2.547   2.754   4.555
 8742TIP3   OH226182   5.647   4.348   4.791
 8742TIP3    H126183   5.563   4.374   4.829
 8742TIP3    H226184   5.633   4.257   4.763
 8743TIP3   OH226185   7.257   3.818   1.447
 8743TIP3    H126186   7.349   3.838   1.462
 8743TIP3    H226187   7.257   3.740   1.393
 8744TIP3   OH226188   6.718   1.179   6.568
 8744TIP3    H126189   6.765   1.167   6.651
 8744TIP3    H226190   6.637   1.224   6.593
 8745TIP3   OH226191   2.304   2.182   2.679
 8745TIP3    H126192   2.285   2.134   2.759
 8745TIP3    H226193   2.278   2.272   2.698
 8746TIP3   OH226194   7.379   2.204   0.963
 8746TIP3    H126195   7.289   2.220   0.933
 8746TIP3    H226196   7.417   2.291   0.971
 8747TIP3   OH226197   4.244   7.703   5.111
 8747TIP3    H126198   4.266   7.744   5.027
 8747TIP3    H226199   4.197   7.771   5.159
 8748TIP3   OH226200   6.994   5.899   6.356
 8748TIP3    H126201   6.979   5.821   6.303
 8748TIP3    H226202   7.003   5.866   6.446
 8749TIP3   OH226203   1.050   0.629   4.517
 8749TIP3    H126204   1.097   0.610   4.598
 8749TIP3    H226205   1.030   0.723   4.522
 8750TIP3   OH226206   1.377   1.605   1.003
 8750TIP3    H126207   1.360   1.687   1.049
 8750TIP3    H226208   1.380   1.629   0.910
 8751TIP3   OH226209   5.481   5.056   5.422
 8751TIP3    H126210   5.409   5.047   5.483
 8751TIP3    H226211   5.560   5.049   5.476
 8752TIP3   OH226212   6.376   4.036   3.968
 8752TIP3    H126213   6.365   3.994   4.054
 8752TIP3    H226214   6.464   4.011   3.940
 8753TIP3   OH226215   1.230   7.840   2.882
 8753TIP3    H126216   1.142   7.812   2.910
 8753TIP3    H226217   1.235   7.815   2.790
 8754TIP3   OH226218   6.934   7.611   4.479
 8754TIP3    H126219   6.918   7.653   4.395
 8754TIP3    H226220   7.022   7.641   4.504
 8755TIP3   OH226221   7.962   6.072   6.127
 8755TIP3    H126222   8.030   6.132   6.156
 8755TIP3    H226223   7.899   6.128   6.080
 8756TIP3   OH226224   6.147   1.623   3.962
 8756TIP3    H126225   6.074   1.666   3.917
 8756TIP3    H226226   6.159   1.673   4.042
 8757TIP3   OH226227   5.457   5.478   1.490
 8757TIP3    H126228   5.372   5.478   1.445
 8757TIP3    H226229   5.443   5.422   1.566
 8758TIP3   OH226230   0.801   4.491   0.055
 8758TIP3    H126231   0.881   4.500   0.004
 8758TIP3    H226232   0.754   4.418   0.015
 8759TIP3   OH226233   0.852   6.642   1.614
 8759TIP3    H126234   0.890   6.573   1.668
 8759TIP3    H226235   0.896   6.722   1.642
 8760TIP3   OH226236   2.285   3.012   3.163
 8760TIP3    H126237   2.302   2.967   3.080
 8760TIP3    H226238   2.244   2.945   3.218
 8761TIP3   OH226239   4.165  -0.006   5.331
 8761TIP3    H126240   4.164   0.090   5.324
 8761TIP3    H226241   4.119  -0.024   5.413
 8762TIP3   OH226242   6.865   3.751   1.065
 8762TIP3    H126243   6.819   3.772   1.146
 8762TIP3    H226244   6.857   3.831   1.012
 8763TIP3   OH226245   3.794   3.616   3.915
 8763TIP3    H126246   3.815   3.699   3.872
 8763TIP3    H226247   3.729   3.576   3.858
 8764TIP3   OH226248   8.157   3.044   6.154
 8764TIP3    H126249   8.230   2.982   6.142
 8764TIP3    H226250   8.154   3.092   6.071
 8765TIP3   OH226251   3.099   4.091   2.481
 8765TIP3    H126252   3.143   4.176   2.478
 8765TIP3    H226253   3.006   4.114   2.490
 8766TIP3   OH226254   5.722   5.974   0.990
 8766TIP3    H126255   5.685   5.918   1.058
 8766TIP3    H226256   5.816   5.961   0.996
 8767TIP3   OH226257   0.675   5.704   4.636
 8767TIP3    H126258   0.590   5.663   4.653
 8767TIP3    H226259   0.724   5.637   4.589
 8768TIP3   OH226260   5.401   4.207   3.261
 8768TIP3    H126261   5.415   4.114   3.277
 8768TIP3    H226262   5.355   4.211   3.177
 8769TIP3   OH226263   0.094   5.041   4.125
 8769TIP3    H126264   0.020   5.093   4.092
 8769TIP3    H226265   0.144   5.018   4.047
 8770TIP3   OH226266   5.878   1.350   4.831
 8770TIP3    H126267   5.835   1.423   4.875
 8770TIP3    H226268   5.813   1.319   4.767
 8771TIP3   OH226269   7.308   2.646   6.230
 8771TIP3    H126270   7.280   2.737   6.220
 8771TIP3    H226271   7.404   2.649   6.223
 8772TIP3   OH226272   5.872   1.176   6.474
 8772TIP3    H126273   5.797   1.195   6.530
 8772TIP3    H226274   5.910   1.261   6.455
 8773TIP3   OH226275   0.529   6.824   3.281
 8773TIP3    H126276   0.598   6.813   3.215
 8773TIP3    H226277   0.569   6.791   3.362
 8774TIP3   OH226278   2.368   7.038   1.731
 8774TIP3    H126279   2.416   7.031   1.648
 8774TIP3    H226280   2.436   7.034   1.798
 8775TIP3   OH226281   5.319   3.979   2.635
 8775TIP3    H126282   5.337   3.935   2.553
 8775TIP3    H226283   5.242   3.934   2.671
 8776TIP3   OH226284   6.084   0.712   4.067
 8776TIP3    H126285   6.170   0.722   4.106
 8776TIP3    H226286   6.093   0.638   4.007
 8777TIP3   OH226287   4.354   3.880   4.394
 8777TIP3    H126288   4.310   3.838   4.468
 8777TIP3    H226289   4.446   3.886   4.422
 8778TIP3   OH226290   0.001   0.396   3.960
 8778TIP3    H126291   0.039   0.312   3.935
 8778TIP3    H226292   0.073   0.458   3.954
 8779TIP3   OH226293   4.868   3.090   3.097
 8779TIP3    H126294   4.873   3.181   3.128
 8779TIP3    H226295   4.860   3.098   3.002
 8780TIP3   OH226296   7.191   1.239   1.018
 8780TIP3    H126297   7.281   1.236   0.988
 8780TIP3    H226298   7.197   1.240   1.114
 8781TIP3   OH226299   2.746   0.673   0.958
 8781TIP3    H126300   2.777   0.761   0.979
 8781TIP3    H226301   2.813   0.637   0.900
 8782TIP3   OH226302   7.792   5.511   4.662
 8782TIP3    H126303   7.779   5.590   4.609
 8782TIP3    H226304   7.753   5.532   4.747
 8783TIP3   OH226305   7.853   1.447   3.489
 8783TIP3    H126306   7.875   1.375   3.430
 8783TIP3    H226307   7.770   1.481   3.456
 8784TIP3   OH226308   5.918   7.682   1.105
 8784TIP3    H126309   5.994   7.728   1.072
 8784TIP3    H226310   5.919   7.598   1.059
 8785TIP3   OH226311   5.991   0.899   1.678
 8785TIP3    H126312   6.086   0.911   1.680
 8785TIP3    H226313   5.955   0.985   1.700
 8786TIP3   OH226314   7.740   4.641   2.918
 8786TIP3    H126315   7.721   4.564   2.865
 8786TIP3    H226316   7.815   4.615   2.972
 8787TIP3   OH226317   0.340   1.538   0.514
 8787TIP3    H126318   0.257   1.508   0.478
 8787TIP3    H226319   0.407   1.489   0.465
 8788TIP3   OH226320   3.271   3.238   1.471
 8788TIP3    H126321   3.207   3.262   1.404
 8788TIP3    H226322   3.222   3.241   1.553
 8789TIP3   OH226323   4.620   4.081   0.101
 8789TIP3    H126324   4.557   4.010   0.096
 8789TIP3    H226325   4.580   4.153   0.051
 8790TIP3   OH226326   5.200   3.376   2.910
 8790TIP3    H126327   5.184   3.292   2.953
 8790TIP3    H226328   5.199   3.356   2.816
 8791TIP3   OH226329   5.705   2.812   5.531
 8791TIP3    H126330   5.678   2.816   5.440
 8791TIP3    H226331   5.623   2.797   5.579
 8792TIP3   OH226332   3.907   0.713   3.066
 8792TIP3    H126333   3.976   0.745   3.008
 8792TIP3    H226334   3.953   0.670   3.137
 8793TIP3   OH226335   7.464   6.972   4.620
 8793TIP3    H126336   7.371   6.966   4.641
 8793TIP3    H226337   7.508   6.928   4.693
 8794TIP3   OH226338   2.390   0.367   6.604
 8794TIP3    H126339   2.431   0.402   6.683
 8794TIP3    H226340   2.425   0.278   6.597
 8795TIP3   OH226341   1.925   1.576   4.525
 8795TIP3    H126342   2.020   1.584   4.532
 8795TIP3    H226343   1.906   1.488   4.558
 8796TIP3   OH226344   2.116   6.244   4.589
 8796TIP3    H126345   2.089   6.208   4.505
 8796TIP3    H226346   2.209   6.219   4.597
 8797TIP3   OH226347   1.968   2.688   6.178
 8797TIP3    H126348   1.994   2.627   6.109
 8797TIP3    H226349   2.025   2.764   6.166
 8798TIP3   OH226350   7.303   1.046   0.311
 8798TIP3    H126351   7.246   1.001   0.375
 8798TIP3    H226352   7.391   1.031   0.345
 8799TIP3   OH226353   6.815   6.706   3.790
 8799TIP3    H126354   6.910   6.720   3.787
 8799TIP3    H226355   6.784   6.767   3.857
 8800TIP3   OH226356   7.784   2.362   3.631
 8800TIP3    H126357   7.879   2.355   3.630
 8800TIP3    H226358   7.763   2.402   3.715
 8801TIP3   OH226359   7.076   1.041   2.571
 8801TIP3    H126360   7.158   1.088   2.558
 8801TIP3    H226361   7.100   0.965   2.625
 8802TIP3   OH226362   8.206   4.233   1.855
 8802TIP3    H126363   8.238   4.267   1.939
 8802TIP3    H226364   8.280   4.240   1.796
 8803TIP3   OH226365   5.683   3.710   0.723
 8803TIP3    H126366   5.638   3.747   0.799
 8803TIP3    H226367   5.666   3.772   0.652
 8804TIP3   OH226368   2.014   5.510   5.979
 8804TIP3    H126369   2.042   5.565   6.052
 8804TIP3    H226370   1.932   5.470   6.009
 8805TIP3   OH226371   1.902   2.960   6.399
 8805TIP3    H126372   1.937   3.031   6.345
 8805TIP3    H226373   1.896   2.885   6.340
 8806TIP3   OH226374   7.465   0.743   2.320
 8806TIP3    H126375   7.374   0.743   2.290
 8806TIP3    H226376   7.478   0.830   2.357
 8807TIP3   OH226377   2.321   6.756   3.470
 8807TIP3    H126378   2.281   6.674   3.440
 8807TIP3    H226379   2.405   6.730   3.506
 8808TIP3   OH226380   0.639   7.774   3.576
 8808TIP3    H126381   0.602   7.794   3.490
 8808TIP3    H226382   0.665   7.683   3.570
 8809TIP3   OH226383   3.355   5.385   4.760
 8809TIP3    H126384   3.260   5.382   4.748
 8809TIP3    H226385   3.369   5.460   4.819
 8810TIP3   OH226386   6.091   0.664   4.836
 8810TIP3    H126387   6.066   0.586   4.787
 8810TIP3    H226388   6.180   0.683   4.807
 8811TIP3   OH226389   1.672   5.963   1.982
 8811TIP3    H126390   1.622   5.899   1.931
 8811TIP3    H226391   1.656   5.940   2.073
 8812TIP3   OH226392   7.340   7.267   6.073
 8812TIP3    H126393   7.271   7.266   6.140
 8812TIP3    H226394   7.313   7.199   6.011
 8813TIP3   OH226395   3.908   0.097   3.214
 8813TIP3    H126396   3.944   0.183   3.235
 8813TIP3    H226397   3.978   0.035   3.234
 8814TIP3   OH226398   6.338   2.773   2.042
 8814TIP3    H126399   6.366   2.765   1.951
 8814TIP3    H226400   6.270   2.707   2.053
 8815TIP3   OH226401   7.689   0.572   5.925
 8815TIP3    H126402   7.714   0.504   5.987
 8815TIP3    H226403   7.745   0.647   5.948
 8816TIP3   OH226404   4.147   3.899   3.754
 8816TIP3    H126405   4.222   3.957   3.740
 8816TIP3    H226406   4.176   3.838   3.822
 8817TIP3   OH226407   3.116   0.420   0.353
 8817TIP3    H126408   3.145   0.330   0.339
 8817TIP3    H226409   3.172   0.472   0.295
 8818TIP3   OH226410   0.761   4.637   5.433
 8818TIP3    H126411   0.824   4.666   5.498
 8818TIP3    H226412   0.814   4.590   5.368
 8819TIP3   OH226413   4.054   2.399   0.679
 8819TIP3    H126414   4.019   2.457   0.748
 8819TIP3    H226415   3.993   2.326   0.677
 8820TIP3   OH226416   3.172   1.225   6.212
 8820TIP3    H126417   3.210   1.179   6.137
 8820TIP3    H226418   3.221   1.308   6.216
 8821TIP3   OH226419   1.571   4.542   2.976
 8821TIP3    H126420   1.478   4.535   3.000
 8821TIP3    H226421   1.618   4.511   3.053
 8822TIP3   OH226422   0.518   0.923   4.109
 8822TIP3    H126423   0.457   0.955   4.043
 8822TIP3    H226424   0.502   0.829   4.113
 8823TIP3   OH226425   0.333   1.743   0.829
 8823TIP3    H126426   0.317   1.655   0.796
 8823TIP3    H226427   0.280   1.800   0.773
 8824TIP3   OH226428   4.080   2.530   2.681
 8824TIP3    H126429   4.015   2.476   2.727
 8824TIP3    H226430   4.156   2.531   2.739
 8825TIP3   OH226431   4.770   6.050   4.812
 8825TIP3    H126432   4.733   5.963   4.798
 8825TIP3    H226433   4.863   6.035   4.823
 8826TIP3   OH226434   3.523   3.759   5.147
 8826TIP3    H126435   3.464   3.795   5.213
 8826TIP3    H226436   3.588   3.828   5.133
 8827TIP3   OH226437   7.788   5.737   0.865
 8827TIP3    H126438   7.746   5.807   0.815
 8827TIP3    H226439   7.809   5.670   0.800
 8828TIP3   OH226440   1.327   1.135   2.406
 8828TIP3    H126441   1.402   1.182   2.442
 8828TIP3    H226442   1.351   1.042   2.415
 8829TIP3   OH226443   7.560   7.131   3.484
 8829TIP3    H126444   7.592   7.041   3.473
 8829TIP3    H226445   7.594   7.158   3.569
 8830TIP3   OH226446   5.504   3.001   2.478
 8830TIP3    H126447   5.464   3.049   2.550
 8830TIP3    H226448   5.469   3.042   2.399
 8831TIP3   OH226449   0.007   5.303   4.609
 8831TIP3    H126450  -0.049   5.225   4.608
 8831TIP3    H226451   0.051   5.302   4.524
 8832TIP3   OH226452   3.604   5.920   4.697
 8832TIP3    H126453   3.696   5.894   4.696
 8832TIP3    H226454   3.602   6.000   4.750
 8833TIP3   OH226455   6.882   5.206   3.078
 8833TIP3    H126456   6.851   5.127   3.121
 8833TIP3    H226457   6.816   5.226   3.012
 8834TIP3   OH226458   4.219   6.809   4.149
 8834TIP3    H126459   4.150   6.811   4.083
 8834TIP3    H226460   4.175   6.779   4.229
 8835TIP3   OH226461   4.135   2.793   4.212
 8835TIP3    H126462   4.175   2.855   4.152
 8835TIP3    H226463   4.062   2.840   4.251
 8836TIP3   OH226464   3.265   6.998   0.282
 8836TIP3    H126465   3.190   6.966   0.333
 8836TIP3    H226466   3.333   7.014   0.348
 8837TIP3   OH226467   1.970   5.444   6.700
 8837TIP3    H126468   1.994   5.528   6.738
 8837TIP3    H226469   2.032   5.431   6.628
 8838TIP3   OH226470   6.296   7.178   4.698
 8838TIP3    H126471   6.267   7.156   4.609
 8838TIP3    H226472   6.228   7.142   4.755
 8839TIP3   OH226473   2.824   3.260   3.671
 8839TIP3    H126474   2.802   3.243   3.763
 8839TIP3    H226475   2.833   3.355   3.667
 8840TIP3   OH226476   5.304   7.046   5.285
 8840TIP3    H126477   5.326   6.991   5.210
 8840TIP3    H226478   5.379   7.037   5.343
 8841TIP3   OH226479   5.371   2.369   3.727
 8841TIP3    H126480   5.296   2.331   3.680
 8841TIP3    H226481   5.344   2.370   3.819
 8842TIP3   OH226482   4.828   6.987   1.400
 8842TIP3    H126483   4.856   7.024   1.484
 8842TIP3    H226484   4.862   7.048   1.334
 8843TIP3   OH226485   0.942   4.515   1.361
 8843TIP3    H126486   1.001   4.462   1.414
 8843TIP3    H226487   0.883   4.452   1.319
 8844TIP3   OH226488   6.622   5.223   5.315
 8844TIP3    H126489   6.546   5.279   5.302
 8844TIP3    H226490   6.632   5.176   5.232
 8845TIP3   OH226491   6.437   4.415   2.452
 8845TIP3    H126492   6.405   4.347   2.394
 8845TIP3    H226493   6.366   4.479   2.455
 8846TIP3   OH226494   2.005   6.704   0.945
 8846TIP3    H126495   2.059   6.625   0.947
 8846TIP3    H226496   2.005   6.736   1.035
 8847TIP3   OH226497   2.692   4.241   6.060
 8847TIP3    H126498   2.756   4.277   5.999
 8847TIP3    H226499   2.607   4.258   6.019
 8848TIP3   OH226500   3.638   4.308   2.930
 8848TIP3    H126501   3.626   4.268   2.844
 8848TIP3    H226502   3.635   4.402   2.914
 8849TIP3   OH226503   5.273   4.677   6.307
 8849TIP3    H126504   5.204   4.687   6.373
 8849TIP3    H226505   5.257   4.591   6.269
 8850TIP3   OH226506   1.893   4.091   1.791
 8850TIP3    H126507   1.876   4.030   1.719
 8850TIP3    H226508   1.881   4.038   1.870
 8851TIP3   OH226509   3.250   1.416   1.798
 8851TIP3    H126510   3.246   1.321   1.809
 8851TIP3    H226511   3.204   1.432   1.715
 8852TIP3   OH226512   2.486   6.861   5.735
 8852TIP3    H126513   2.421   6.902   5.677
 8852TIP3    H226514   2.526   6.934   5.782
 8853TIP3   OH226515   7.465   0.778   4.796
 8853TIP3    H126516   7.391   0.836   4.814
 8853TIP3    H226517   7.425   0.700   4.757
 8854TIP3   OH226518   4.147   5.980   4.438
 8854TIP3    H126519   4.220   5.999   4.379
 8854TIP3    H226520   4.079   5.942   4.381
 8855TIP3   OH226521   8.038   4.091   5.841
 8855TIP3    H126522   7.977   4.150   5.797
 8855TIP3    H226523   8.123   4.135   5.835
 8856TIP3   OH226524   1.571   2.870   5.789
 8856TIP3    H126525   1.539   2.800   5.846
 8856TIP3    H226526   1.554   2.950   5.839
 8857TIP3   OH226527   5.755   7.444   4.994
 8857TIP3    H126528   5.739   7.419   5.085
 8857TIP3    H226529   5.740   7.538   4.992
 8858TIP3   OH226530   4.107   7.164   0.745
 8858TIP3    H126531   4.092   7.164   0.840
 8858TIP3    H226532   4.065   7.245   0.715
 8859TIP3   OH226533   4.657   0.399   2.291
 8859TIP3    H126534   4.601   0.473   2.267
 8859TIP3    H226535   4.686   0.363   2.207
 8860TIP3   OH226536   5.454   3.052   6.701
 8860TIP3    H126537   5.376   3.023   6.654
 8860TIP3    H226538   5.451   3.147   6.696
 8861TIP3   OH226539   2.380   1.935   4.717
 8861TIP3    H126540   2.464   1.938   4.763
 8861TIP3    H226541   2.315   1.916   4.785
 8862TIP3   OH226542   0.673   5.259   1.079
 8862TIP3    H126543   0.744   5.215   1.125
 8862TIP3    H226544   0.712   5.287   0.996
 8863TIP3   OH226545   2.624   6.639   0.062
 8863TIP3    H126546   2.607   6.591  -0.019
 8863TIP3    H226547   2.553   6.703   0.067
 8864TIP3   OH226548   2.674   4.263   2.168
 8864TIP3    H126549   2.586   4.297   2.183
 8864TIP3    H226550   2.662   4.171   2.148
 8865TIP3   OH226551   3.647   2.635   6.087
 8865TIP3    H126552   3.673   2.570   6.152
 8865TIP3    H226553   3.673   2.597   6.003
 8866TIP3   OH226554   1.702   5.361   6.487
 8866TIP3    H126555   1.623   5.332   6.442
 8866TIP3    H226556   1.683   5.450   6.515
 8867TIP3   OH226557   4.552   0.431   1.213
 8867TIP3    H126558   4.469   0.392   1.242
 8867TIP3    H226559   4.529   0.479   1.134
 8868TIP3   OH226560   2.816   1.405   2.804
 8868TIP3    H126561   2.743   1.387   2.745
 8868TIP3    H226562   2.840   1.319   2.838
 8869TIP3   OH226563   3.163   2.087   5.144
 8869TIP3    H126564   3.243   2.034   5.144
 8869TIP3    H226565   3.167   2.137   5.063
 8870TIP3   OH226566   6.428   2.951   1.815
 8870TIP3    H126567   6.397   3.041   1.831
 8870TIP3    H226568   6.523   2.957   1.820
 8871TIP3   OH226569   7.877   4.696   1.338
 8871TIP3    H126570   7.855   4.608   1.368
 8871TIP3    H226571   7.972   4.694   1.324
 8872TIP3   OH226572   8.038   2.628   0.994
 8872TIP3    H126573   7.943   2.636   0.996
 8872TIP3    H226574   8.069   2.715   0.969
 8873TIP3   OH226575   6.549   3.555   4.379
 8873TIP3    H126576   6.628   3.608   4.376
 8873TIP3    H226577   6.499   3.590   4.453
 8874TIP3   OH226578   3.090   6.791   1.005
 8874TIP3    H126579   3.076   6.745   1.088
 8874TIP3    H226580   3.173   6.836   1.016
 8875TIP3   OH226581   4.706   3.977   4.896
 8875TIP3    H126582   4.799   3.994   4.877
 8875TIP3    H226583   4.693   3.885   4.874
 8876TIP3   OH226584   7.182   7.471   2.542
 8876TIP3    H126585   7.130   7.421   2.480
 8876TIP3    H226586   7.208   7.408   2.609
 8877TIP3   OH226587   8.010   3.869   6.060
 8877TIP3    H126588   7.998   3.944   6.002
 8877TIP3    H226589   7.933   3.870   6.117
 8878TIP3   OH226590   0.138   3.842   6.044
 8878TIP3    H126591   0.192   3.823   5.967
 8878TIP3    H226592   0.143   3.937   6.054
 8879TIP3   OH226593   0.086   0.516   5.568
 8879TIP3    H126594   0.013   0.456   5.578
 8879TIP3    H226595   0.063   0.569   5.492
 8880TIP3   OH226596   7.120   2.623   2.405
 8880TIP3    H126597   7.084   2.539   2.376
 8880TIP3    H226598   7.150   2.607   2.494
 8881TIP3   OH226599   0.361   7.393   1.202
 8881TIP3    H126600   0.400   7.384   1.115
 8881TIP3    H226601   0.282   7.443   1.188
 8882TIP3   OH226602   1.895   4.704   6.506
 8882TIP3    H126603   1.903   4.754   6.587
 8882TIP3    H226604   1.820   4.742   6.461
 8883TIP3   OH226605   6.725   6.794   1.222
 8883TIP3    H126606   6.675   6.726   1.267
 8883TIP3    H226607   6.668   6.822   1.150
 8884TIP3   OH226608   4.354   1.663   3.350
 8884TIP3    H126609   4.385   1.691   3.436
 8884TIP3    H226610   4.300   1.736   3.319
 8885TIP3   OH226611   1.564   7.509   5.079
 8885TIP3    H126612   1.600   7.586   5.123
 8885TIP3    H226613   1.634   7.443   5.084
 8886TIP3   OH226614   2.296   5.717   0.270
 8886TIP3    H126615   2.383   5.755   0.261
 8886TIP3    H226616   2.291   5.652   0.201
 8887TIP3   OH226617   7.346   6.330   3.604
 8887TIP3    H126618   7.268   6.275   3.605
 8887TIP3    H226619   7.317   6.413   3.642
 8888TIP3   OH226620   7.409   1.315   3.244
 8888TIP3    H126621   7.316   1.338   3.248
 8888TIP3    H226622   7.437   1.344   3.157
 8889TIP3   OH226623   6.999   3.185   5.189
 8889TIP3    H126624   7.091   3.158   5.197
 8889TIP3    H226625   6.965   3.180   5.278
 8890TIP3   OH226626   3.409   4.009   5.745
 8890TIP3    H126627   3.460   3.932   5.721
 8890TIP3    H226628   3.341   3.976   5.805
 8891TIP3   OH226629   3.400   4.443   3.740
 8891TIP3    H126630   3.305   4.435   3.729
 8891TIP3    H226631   3.430   4.353   3.751
 8892TIP3   OH226632   4.834   7.805   2.661
 8892TIP3    H126633   4.771   7.751   2.614
 8892TIP3    H226634   4.781   7.871   2.705
 8893TIP3   OH226635   1.983   6.895   3.329
 8893TIP3    H126636   2.073   6.920   3.311
 8893TIP3    H226637   1.956   6.951   3.402
 8894TIP3   OH226638   0.261   5.598   2.023
 8894TIP3    H126639   0.236   5.643   2.104
 8894TIP3    H226640   0.187   5.541   2.003
 8895TIP3   OH226641   5.431   6.600   0.369
 8895TIP3    H126642   5.367   6.671   0.374
 8895TIP3    H226643   5.393   6.538   0.306
 8896TIP3   OH226644   2.158   5.269   5.656
 8896TIP3    H126645   2.126   5.337   5.716
 8896TIP3    H226646   2.221   5.315   5.600
 8897TIP3   OH226647   1.788   5.164   2.504
 8897TIP3    H126648   1.837   5.087   2.475
 8897TIP3    H226649   1.760   5.142   2.593
 8898TIP3   OH226650   3.370   7.745   5.047
 8898TIP3    H126651   3.410   7.722   4.963
 8898TIP3    H226652   3.334   7.833   5.033
 8899TIP3   OH226653   0.919   4.356   4.487
 8899TIP3    H126654   0.851   4.410   4.528
 8899TIP3    H226655   0.996   4.369   4.542
 8900TIP3   OH226656   5.032   7.369   5.634
 8900TIP3    H126657   5.115   7.406   5.662
 8900TIP3    H226658   5.033   7.378   5.538
 8901TIP3   OH226659   6.775   5.042   0.117
 8901TIP3    H126660   6.861   5.081   0.100
 8901TIP3    H226661   6.719   5.117   0.140
 8902TIP3   OH226662   6.485   7.473   2.437
 8902TIP3    H126663   6.444   7.530   2.371
 8902TIP3    H226664   6.513   7.533   2.506
 8903TIP3   OH226665   7.053   4.433   4.255
 8903TIP3    H126666   7.050   4.496   4.183
 8903TIP3    H226667   7.125   4.463   4.311
 8904TIP3   OH226668   2.478   0.765   4.894
 8904TIP3    H126669   2.507   0.680   4.928
 8904TIP3    H226670   2.544   0.827   4.927
 8905TIP3   OH226671   3.946   7.219   1.262
 8905TIP3    H126672   3.976   7.225   1.353
 8905TIP3    H226673   3.854   7.244   1.266
 8906TIP3   OH226674   4.234   5.431   2.723
 8906TIP3    H126675   4.158   5.467   2.677
 8906TIP3    H226676   4.273   5.507   2.767
 8907TIP3   OH226677   3.490   5.353   4.495
 8907TIP3    H126678   3.566   5.347   4.438
 8907TIP3    H226679   3.486   5.268   4.539
 8908TIP3   OH226680   0.146   6.606   0.290
 8908TIP3    H126681   0.205   6.665   0.243
 8908TIP3    H226682   0.160   6.627   0.382
 8909TIP3   OH226683   0.352   5.746   5.929
 8909TIP3    H126684   0.293   5.736   5.854
 8909TIP3    H226685   0.422   5.682   5.913
 8910TIP3   OH226686   1.790   3.509   2.530
 8910TIP3    H126687   1.863   3.543   2.582
 8910TIP3    H226688   1.733   3.467   2.595
 8911TIP3   OH226689   7.755   6.206   1.475
 8911TIP3    H126690   7.731   6.127   1.523
 8911TIP3    H226691   7.841   6.230   1.509
 8912TIP3   OH226692   7.033   0.264   2.723
 8912TIP3    H126693   6.982   0.307   2.791
 8912TIP3    H226694   6.985   0.183   2.705
 8913TIP3   OH226695   1.954   6.767   1.821
 8913TIP3    H126696   1.905   6.720   1.889
 8913TIP3    H226697   1.984   6.846   1.865
 8914TIP3   OH226698   5.613   5.767   4.958
 8914TIP3    H126699   5.574   5.739   5.041
 8914TIP3    H226700   5.551   5.739   4.891
 8915TIP3   OH226701   5.908   6.938   0.629
 8915TIP3    H126702   5.914   6.947   0.534
 8915TIP3    H226703   5.999   6.931   0.658
 8916TIP3   OH226704   1.276   4.292   3.004
 8916TIP3    H126705   1.199   4.260   3.050
 8916TIP3    H226706   1.262   4.267   2.913
 8917TIP3   OH226707   1.068   3.371   5.757
 8917TIP3    H126708   1.140   3.417   5.801
 8917TIP3    H226709   0.993   3.429   5.766
 8918TIP3   OH226710   7.984   1.449   3.752
 8918TIP3    H126711   8.044   1.524   3.759
 8918TIP3    H226712   7.941   1.461   3.667
 8919TIP3   OH226713   2.293   4.499   4.219
 8919TIP3    H126714   2.315   4.408   4.199
 8919TIP3    H226715   2.267   4.537   4.135
 8920TIP3   OH226716   0.569   0.601   2.012
 8920TIP3    H126717   0.661   0.583   1.993
 8920TIP3    H226718   0.531   0.625   1.928
 8921TIP3   OH226719   2.293   3.915   1.323
 8921TIP3    H126720   2.381   3.880   1.331
 8921TIP3    H226721   2.270   3.903   1.231
 8922TIP3   OH226722   1.386   0.064   4.045
 8922TIP3    H126723   1.465   0.108   4.014
 8922TIP3    H226724   1.323   0.134   4.058
 8923TIP3   OH226725   8.180   3.929   2.538
 8923TIP3    H126726   8.263   3.966   2.507
 8923TIP3    H226727   8.206   3.868   2.607
 8924TIP3   OH226728   0.390   3.649   3.037
 8924TIP3    H126729   0.392   3.634   3.132
 8924TIP3    H226730   0.449   3.724   3.024
 8925TIP3   OH226731   8.172   3.646   0.980
 8925TIP3    H126732   8.242   3.593   1.017
 8925TIP3    H226733   8.164   3.617   0.889
 8926TIP3   OH226734   5.258   3.750   3.615
 8926TIP3    H126735   5.276   3.759   3.708
 8926TIP3    H226736   5.273   3.838   3.579
 8927TIP3   OH226737   0.178   7.585   4.616
 8927TIP3    H126738   0.116   7.529   4.663
 8927TIP3    H226739   0.258   7.583   4.670
 8928TIP3   OH226740   8.018   2.788   6.040
 8928TIP3    H126741   7.984   2.842   5.968
 8928TIP3    H226742   8.093   2.837   6.073
 8929TIP3   OH226743   2.185   4.825   4.590
 8929TIP3    H126744   2.178   4.877   4.670
 8929TIP3    H226745   2.157   4.884   4.520
 8930TIP3   OH226746   5.992   7.656   3.184
 8930TIP3    H126747   6.038   7.738   3.171
 8930TIP3    H226748   5.899   7.678   3.175
 8931TIP3   OH226749   3.751   3.382   5.737
 8931TIP3    H126750   3.789   3.384   5.649
 8931TIP3    H226751   3.815   3.335   5.790
 8932TIP3   OH226752   5.429   3.622   2.844
 8932TIP3    H126753   5.428   3.552   2.910
 8932TIP3    H226754   5.403   3.579   2.763
 8933TIP3   OH226755   4.306   5.137   4.944
 8933TIP3    H126756   4.287   5.210   4.885
 8933TIP3    H226757   4.296   5.059   4.889
 8934TIP3   OH226758   1.928   2.310   1.345
 8934TIP3    H126759   1.886   2.254   1.410
 8934TIP3    H226760   2.022   2.299   1.362
 8935TIP3   OH226761   1.336   6.476   5.185
 8935TIP3    H126762   1.376   6.471   5.099
 8935TIP3    H226763   1.275   6.550   5.179
 8936TIP3   OH226764   3.669   3.881   3.973
 8936TIP3    H126765   3.679   3.808   4.035
 8936TIP3    H226766   3.584   3.866   3.932
 8937TIP3   OH226767   4.931   2.438   4.274
 8937TIP3    H126768   4.902   2.347   4.280
 8937TIP3    H226769   4.946   2.464   4.365
 8938TIP3   OH226770   5.659   3.779   5.950
 8938TIP3    H126771   5.712   3.855   5.975
 8938TIP3    H226772   5.719   3.705   5.953
 8939TIP3   OH226773   0.848   1.638   2.985
 8939TIP3    H126774   0.762   1.671   3.013
 8939TIP3    H226775   0.828   1.554   2.943
 8940TIP3   OH226776   1.640   7.639   1.334
 8940TIP3    H126777   1.574   7.647   1.403
 8940TIP3    H226778   1.642   7.546   1.314
 8941TIP3   OH226779   1.343   7.562   1.921
 8941TIP3    H126780   1.332   7.657   1.911
 8941TIP3    H226781   1.424   7.553   1.971
 8942TIP3   OH226782   5.118   6.232   6.725
 8942TIP3    H126783   5.057   6.291   6.768
 8942TIP3    H226784   5.203   6.254   6.762
 8943TIP3   OH226785   2.802   2.291   5.609
 8943TIP3    H126786   2.851   2.336   5.541
 8943TIP3    H226787   2.742   2.233   5.561
 8944TIP3   OH226788   4.220   7.763   5.645
 8944TIP3    H126789   4.221   7.848   5.689
 8944TIP3    H226790   4.135   7.760   5.600
 8945TIP3   OH226791   6.908   3.382   5.833
 8945TIP3    H126792   6.921   3.441   5.907
 8945TIP3    H226793   6.842   3.320   5.864
 8946TIP3   OH226794   7.096   4.336   6.417
 8946TIP3    H126795   7.189   4.320   6.397
 8946TIP3    H226796   7.091   4.328   6.512
 8947TIP3   OH226797   6.542   5.593   5.109
 8947TIP3    H126798   6.589   5.637   5.038
 8947TIP3    H226799   6.473   5.544   5.065
 8948TIP3   OH226800   4.676   0.749   5.140
 8948TIP3    H126801   4.749   0.750   5.079
 8948TIP3    H226802   4.616   0.816   5.107
 8949TIP3   OH226803   5.054   4.129   5.354
 8949TIP3    H126804   5.065   4.092   5.442
 8949TIP3    H226805   4.961   4.149   5.348
 8950TIP3   OH226806   7.590   0.474   3.752
 8950TIP3    H126807   7.539   0.461   3.672
 8950TIP3    H226808   7.545   0.421   3.818
 8951TIP3   OH226809   4.123   6.449   0.670
 8951TIP3    H126810   4.146   6.358   0.651
 8951TIP3    H226811   4.102   6.487   0.584
 8952TIP3   OH226812   1.783   3.738   5.755
 8952TIP3    H126813   1.808   3.716   5.844
 8952TIP3    H226814   1.842   3.809   5.729
 8953TIP3   OH226815   2.962   2.765   1.277
 8953TIP3    H126816   2.973   2.832   1.344
 8953TIP3    H226817   2.874   2.731   1.292
 8954TIP3   OH226818   0.533   6.697   4.815
 8954TIP3    H126819   0.459   6.756   4.832
 8954TIP3    H226820   0.521   6.669   4.724
 8955TIP3   OH226821   5.268   1.986   5.276
 8955TIP3    H126822   5.217   2.009   5.199
 8955TIP3    H226823   5.210   2.001   5.350
 8956TIP3   OH226824   7.555   1.978   0.116
 8956TIP3    H126825   7.639   2.003   0.079
 8956TIP3    H226826   7.542   1.888   0.088
 8957TIP3   OH226827   7.507   3.589   1.092
 8957TIP3    H126828   7.557   3.605   1.012
 8957TIP3    H226829   7.552   3.639   1.160
 8958TIP3   OH226830   0.702   1.640   6.007
 8958TIP3    H126831   0.687   1.696   6.083
 8958TIP3    H226832   0.721   1.554   6.044
 8959TIP3   OH226833   0.542   3.633   5.478
 8959TIP3    H126834   0.467   3.594   5.434
 8959TIP3    H226835   0.600   3.660   5.406
 8960TIP3   OH226836   6.095   7.582   2.531
 8960TIP3    H126837   6.153   7.649   2.495
 8960TIP3    H226838   6.085   7.518   2.460
 8961TIP3   OH226839   0.528   1.082   3.569
 8961TIP3    H126840   0.620   1.066   3.548
 8961TIP3    H226841   0.484   1.079   3.484
 8962TIP3   OH226842   5.043   1.972   4.183
 8962TIP3    H126843   5.103   1.909   4.224
 8962TIP3    H226844   5.043   1.948   4.090
 8963TIP3   OH226845   5.101   4.510   2.130
 8963TIP3    H126846   5.079   4.603   2.125
 8963TIP3    H226847   5.017   4.465   2.129
 8964TIP3   OH226848   2.977   1.706   5.998
 8964TIP3    H126849   2.979   1.789   5.951
 8964TIP3    H226850   2.981   1.639   5.929
 8965TIP3   OH226851   4.694   4.209   6.383
 8965TIP3    H126852   4.600   4.193   6.375
 8965TIP3    H226853   4.705   4.300   6.354
 8966TIP3   OH226854   4.151   1.365   4.382
 8966TIP3    H126855   4.075   1.309   4.401
 8966TIP3    H226856   4.119   1.425   4.314
 8967TIP3   OH226857   3.710   5.531   0.952
 8967TIP3    H126858   3.620   5.519   0.982
 8967TIP3    H226859   3.750   5.588   1.018
 8968TIP3   OH226860   4.445   4.647   2.435
 8968TIP3    H126861   4.416   4.738   2.442
 8968TIP3    H226862   4.441   4.614   2.524
 8969TIP3   OH226863   1.508   1.039   1.346
 8969TIP3    H126864   1.545   1.025   1.433
 8969TIP3    H226865   1.581   1.026   1.286
 8970TIP3   OH226866   5.643   2.356   6.476
 8970TIP3    H126867   5.706   2.383   6.543
 8970TIP3    H226868   5.696   2.337   6.399
 8971TIP3   OH226869   5.058   1.962   1.834
 8971TIP3    H126870   4.974   1.929   1.802
 8971TIP3    H226871   5.114   1.963   1.757
 8972TIP3   OH226872   2.357   3.397   1.227
 8972TIP3    H126873   2.452   3.403   1.228
 8972TIP3    H226874   2.337   3.330   1.163
 8973TIP3   OH226875   7.352   2.585   5.475
 8973TIP3    H126876   7.324   2.662   5.427
 8973TIP3    H226877   7.442   2.603   5.501
 8974TIP3   OH226878   0.274   6.284   0.145
 8974TIP3    H126879   0.191   6.298   0.189
 8974TIP3    H226880   0.332   6.250   0.213
 8975TIP3   OH226881   1.440   1.150   5.357
 8975TIP3    H126882   1.447   1.245   5.347
 8975TIP3    H226883   1.529   1.118   5.348
 8976TIP3   OH226884   0.338   7.025   2.157
 8976TIP3    H126885   0.419   6.991   2.197
 8976TIP3    H226886   0.367   7.066   2.076
 8977TIP3   OH226887   3.008   1.498   1.041
 8977TIP3    H126888   2.986   1.574   0.987
 8977TIP3    H226889   3.056   1.534   1.115
 8978TIP3   OH226890   5.110   4.229   2.286
 8978TIP3    H126891   5.040   4.265   2.341
 8978TIP3    H226892   5.168   4.303   2.269
 8979TIP3   OH226893   7.310   2.017   3.359
 8979TIP3    H126894   7.381   1.986   3.302
 8979TIP3    H226895   7.233   1.968   3.331
 8980TIP3   OH226896   3.606   0.112   2.361
 8980TIP3    H126897   3.592   0.184   2.422
 8980TIP3    H226898   3.690   0.133   2.319
 8981TIP3   OH226899   5.471   1.568   1.153
 8981TIP3    H126900   5.394   1.545   1.204
 8981TIP3    H226901   5.533   1.602   1.217
 8982TIP3   OH226902   4.604   4.628   4.224
 8982TIP3    H126903   4.688   4.666   4.251
 8982TIP3    H226904   4.544   4.702   4.222
 8983TIP3   OH226905   4.890   3.138   2.825
 8983TIP3    H126906   4.901   3.071   2.757
 8983TIP3    H226907   4.822   3.196   2.791
 8984TIP3   OH226908   0.338   3.852   3.705
 8984TIP3    H126909   0.397   3.907   3.757
 8984TIP3    H226910   0.348   3.764   3.741
 8985TIP3   OH226911   6.735   3.620   5.341
 8985TIP3    H126912   6.670   3.678   5.301
 8985TIP3    H226913   6.773   3.573   5.267
 8986TIP3   OH226914   6.049   7.599   4.466
 8986TIP3    H126915   5.971   7.585   4.414
 8986TIP3    H226916   6.034   7.549   4.546
 8987TIP3   OH226917   2.010   5.925   6.110
 8987TIP3    H126918   1.971   5.996   6.059
 8987TIP3    H226919   1.962   5.925   6.192
 8988TIP3   OH226920   1.262   1.195   0.388
 8988TIP3    H126921   1.323   1.265   0.408
 8988TIP3    H226922   1.303   1.147   0.315
 8989TIP3   OH226923   1.694   4.618   5.746
 8989TIP3    H126924   1.622   4.624   5.809
 8989TIP3    H226925   1.766   4.666   5.788
 8990TIP3   OH226926   4.100   3.689   3.341
 8990TIP3    H126927   4.140   3.636   3.410
 8990TIP3    H226928   4.017   3.644   3.321
 8991TIP3   OH226929   7.096   4.917   5.315
 8991TIP3    H126930   7.183   4.921   5.274
 8991TIP3    H226931   7.083   4.824   5.333
 8992TIP3   OH226932   5.706   4.281   4.152
 8992TIP3    H126933   5.747   4.247   4.231
 8992TIP3    H226934   5.775   4.275   4.085
 8993TIP3   OH226935   0.347   0.041   3.809
 8993TIP3    H126936   0.354   0.006   3.720
 8993TIP3    H226937   0.259   0.080   3.813
 8994TIP3   OH226938   8.222   0.704   4.729
 8994TIP3    H126939   8.268   0.628   4.763
 8994TIP3    H226940   8.160   0.669   4.665
 8995TIP3   OH226941   0.405   4.367   3.366
 8995TIP3    H126942   0.354   4.412   3.433
 8995TIP3    H226943   0.342   4.351   3.295
 8996TIP3   OH226944   3.906   0.857   0.879
 8996TIP3    H126945   3.983   0.895   0.837
 8996TIP3    H226946   3.921   0.869   0.973
 8997TIP3   OH226947   7.519   6.723   5.659
 8997TIP3    H126948   7.546   6.801   5.706
 8997TIP3    H226949   7.568   6.652   5.700
 8998TIP3   OH226950   1.769   7.715   1.115
 8998TIP3    H126951   1.843   7.772   1.137
 8998TIP3    H226952   1.713   7.717   1.193
 8999TIP3   OH226953   2.243   0.316   3.007
 8999TIP3    H126954   2.300   0.368   2.951
 8999TIP3    H226955   2.236   0.366   3.088
 9000TIP3   OH226956   2.977   2.126   2.942
 9000TIP3    H126957   2.899   2.127   2.997
 9000TIP3    H226958   3.007   2.217   2.940
 9001TIP3   OH226959   2.474   5.566   1.362
 9001TIP3    H126960   2.459   5.620   1.439
 9001TIP3    H226961   2.568   5.548   1.362
 9002TIP3   OH226962   3.248   5.001   4.085
 9002TIP3    H126963   3.324   4.966   4.037
 9002TIP3    H226964   3.286   5.055   4.154
 9003TIP3   OH226965   6.146   1.577   1.881
 9003TIP3    H126966   6.209   1.649   1.874
 9003TIP3    H226967   6.070   1.606   1.830
 9004TIP3   OH226968   6.742   5.567   6.772
 9004TIP3    H126969   6.731   5.661   6.779
 9004TIP3    H226970   6.828   5.555   6.731
 9005TIP3   OH226971   1.655   6.380   5.467
 9005TIP3    H126972   1.725   6.433   5.429
 9005TIP3    H226973   1.692   6.292   5.474
 9006TIP3   OH226974   6.831   1.215   0.685
 9006TIP3    H126975   6.898   1.282   0.699
 9006TIP3    H226976   6.756   1.246   0.736
 9007TIP3   OH226977   7.001   2.481   1.469
 9007TIP3    H126978   6.978   2.574   1.466
 9007TIP3    H226979   6.963   2.450   1.551
 9008TIP3   OH226980   5.382   5.992   1.094
 9008TIP3    H126981   5.449   5.952   1.150
 9008TIP3    H226982   5.417   6.078   1.072
 9009TIP3   OH226983   7.367   0.264   5.582
 9009TIP3    H126984   7.344   0.354   5.557
 9009TIP3    H226985   7.413   0.273   5.666
 9010TIP3   OH226986   4.394   2.423   4.778
 9010TIP3    H126987   4.398   2.357   4.847
 9010TIP3    H226988   4.325   2.391   4.719
 9011TIP3   OH226989   8.057   5.242   1.805
 9011TIP3    H126990   8.029   5.157   1.770
 9011TIP3    H226991   8.135   5.264   1.755
 9012TIP3   OH226992   3.103   4.176   0.162
 9012TIP3    H126993   3.034   4.111   0.173
 9012TIP3    H226994   3.167   4.134   0.106
 9013TIP3   OH226995   5.084   4.668   0.996
 9013TIP3    H126996   5.159   4.698   1.047
 9013TIP3    H226997   5.053   4.590   1.042
 9014TIP3   OH226998   5.515   4.840   5.228
 9014TIP3    H126999   5.459   4.829   5.304
 9014TIP3    H227000   5.536   4.933   5.226
 9015TIP3   OH227001   3.511   4.554   6.414
 9015TIP3    H127002   3.582   4.605   6.375
 9015TIP3    H227003   3.510   4.472   6.365
 9016TIP3   OH227004   2.079   3.095   0.698
 9016TIP3    H127005   2.076   3.048   0.614
 9016TIP3    H227006   2.043   3.032   0.761
 9017TIP3   OH227007   4.232   2.165   4.291
 9017TIP3    H127008   4.157   2.106   4.295
 9017TIP3    H227009   4.307   2.107   4.278
 9018TIP3   OH227010   5.616   5.811   1.168
 9018TIP3    H127011   5.539   5.772   1.210
 9018TIP3    H227012   5.687   5.749   1.185
 9019TIP3   OH227013   6.473   1.587   4.452
 9019TIP3    H127014   6.552   1.532   4.455
 9019TIP3    H227015   6.463   1.608   4.359
 9020TIP3   OH227016   0.055   3.310   2.060
 9020TIP3    H127017  -0.040   3.309   2.059
 9020TIP3    H227018   0.079   3.395   2.097
 9021TIP3   OH227019   5.416   2.539   2.589
 9021TIP3    H127020   5.510   2.521   2.582
 9021TIP3    H227021   5.398   2.598   2.516
 9022TIP3   OH227022   6.987   0.165   5.806
 9022TIP3    H127023   6.976   0.246   5.756
 9022TIP3    H227024   7.023   0.193   5.889
 9023TIP3   OH227025   3.370   0.938   5.711
 9023TIP3    H127026   3.423   0.998   5.658
 9023TIP3    H227027   3.427   0.912   5.783
 9024TIP3   OH227028   1.900   2.801   5.888
 9024TIP3    H127029   1.890   2.855   5.810
 9024TIP3    H227030   1.990   2.769   5.884
 9025TIP3   OH227031   0.820   0.557   2.729
 9025TIP3    H127032   0.801   0.464   2.720
 9025TIP3    H227033   0.904   0.560   2.774
 9026TIP3   OH227034   7.340   0.137   2.495
 9026TIP3    H127035   7.364   0.047   2.473
 9026TIP3    H227036   7.288   0.129   2.575
 9027TIP3   OH227037   8.143   5.773   2.812
 9027TIP3    H127038   8.072   5.760   2.875
 9027TIP3    H227039   8.100   5.810   2.735
 9028TIP3   OH227040   4.326   2.291   3.288
 9028TIP3    H127041   4.374   2.352   3.343
 9028TIP3    H227042   4.313   2.337   3.205
 9029TIP3   OH227043   5.594   4.086   2.824
 9029TIP3    H127044   5.555   4.172   2.807
 9029TIP3    H227045   5.520   4.025   2.817
 9030TIP3   OH227046   5.436   1.986   1.429
 9030TIP3    H127047   5.411   1.997   1.337
 9030TIP3    H227048   5.457   1.893   1.437
 9031TIP3   OH227049   8.248   4.207   3.220
 9031TIP3    H127050   8.232   4.156   3.299
 9031TIP3    H227051   8.189   4.170   3.154
 9032TIP3   OH227052   7.745   2.615   5.241
 9032TIP3    H127053   7.836   2.645   5.239
 9032TIP3    H227054   7.694   2.695   5.256
 9033TIP3   OH227055   5.386   5.499   6.034
 9033TIP3    H127056   5.377   5.575   6.092
 9033TIP3    H227057   5.416   5.536   5.951
 9034TIP3   OH227058   4.027   2.399   4.355
 9034TIP3    H127059   4.019   2.476   4.410
 9034TIP3    H227060   4.120   2.376   4.357
 9035TIP3   OH227061   6.179   7.126   1.206
 9035TIP3    H127062   6.231   7.128   1.287
 9035TIP3    H227063   6.155   7.218   1.191
 9036TIP3   OH227064   7.714   2.557   2.967
 9036TIP3    H127065   7.691   2.595   2.882
 9036TIP3    H227066   7.635   2.511   2.995
 9037TIP3   OH227067   3.703   3.734   1.343
 9037TIP3    H127068   3.719   3.650   1.384
 9037TIP3    H227069   3.730   3.799   1.409
 9038TIP3   OH227070   0.188   6.667   6.575
 9038TIP3    H127071   0.283   6.678   6.582
 9038TIP3    H227072   0.168   6.594   6.633
 9039TIP3   OH227073   6.746   7.300   1.958
 9039TIP3    H127074   6.663   7.348   1.949
 9039TIP3    H227075   6.720   7.214   1.990
 9040TIP3   OH227076   1.955   4.408   6.345
 9040TIP3    H127077   1.999   4.464   6.409
 9040TIP3    H227078   1.969   4.453   6.261
 9041TIP3   OH227079   2.267   3.682   4.152
 9041TIP3    H127080   2.181   3.657   4.185
 9041TIP3    H227081   2.312   3.718   4.229
 9042TIP3   OH227082   5.178   2.315   1.224
 9042TIP3    H127083   5.200   2.391   1.170
 9042TIP3    H227084   5.091   2.288   1.194
 9043TIP3   OH227085   2.135   1.590   5.991
 9043TIP3    H127086   2.175   1.506   5.967
 9043TIP3    H227087   2.071   1.607   5.921
 9044TIP3   OH227088   3.976   6.179   4.042
 9044TIP3    H127089   3.986   6.257   3.987
 9044TIP3    H227090   4.065   6.159   4.072
 9045TIP3   OH227091   2.804   3.386   0.404
 9045TIP3    H127092   2.840   3.313   0.354
 9045TIP3    H227093   2.737   3.424   0.346
 9046TIP3   OH227094   4.509   1.118   5.633
 9046TIP3    H127095   4.525   1.212   5.627
 9046TIP3    H227096   4.453   1.098   5.559
 9047TIP3   OH227097   4.042   0.533   3.323
 9047TIP3    H127098   4.058   0.603   3.386
 9047TIP3    H227099   4.130   0.503   3.298
 9048TIP3   OH227100   1.619   7.593   4.822
 9048TIP3    H127101   1.540   7.615   4.772
 9048TIP3    H227102   1.587   7.564   4.907
 9049TIP3   OH227103   0.542   4.039   6.603
 9049TIP3    H127104   0.483   3.967   6.578
 9049TIP3    H227105   0.554   4.089   6.523
 9050TIP3   OH227106   3.570   2.499   4.444
 9050TIP3    H127107   3.518   2.523   4.520
 9050TIP3    H227108   3.649   2.553   4.451
 9051TIP3   OH227109   6.631   1.284   5.955
 9051TIP3    H127110   6.579   1.364   5.957
 9051TIP3    H227111   6.695   1.298   5.886
 9052TIP3   OH227112   0.591   1.075   3.205
 9052TIP3    H127113   0.610   0.982   3.217
 9052TIP3    H227114   0.611   1.116   3.289
 9053TIP3   OH227115   4.393   3.522   0.221
 9053TIP3    H127116   4.339   3.479   0.154
 9053TIP3    H227117   4.442   3.450   0.261
 9054TIP3   OH227118   4.502   7.467   0.945
 9054TIP3    H127119   4.495   7.479   1.039
 9054TIP3    H227120   4.563   7.394   0.934
 9055TIP3   OH227121   3.054   4.832   3.741
 9055TIP3    H127122   2.989   4.765   3.721
 9055TIP3    H227123   3.109   4.794   3.809
 9056TIP3   OH227124   3.140   3.899   5.453
 9056TIP3    H127125   3.143   3.962   5.524
 9056TIP3    H227126   3.056   3.914   5.410
 9057TIP3   OH227127   1.970   4.920   0.186
 9057TIP3    H127128   2.015   4.871   0.118
 9057TIP3    H227129   2.008   5.008   0.181
 9058TIP3   OH227130   6.899   4.387   2.952
 9058TIP3    H127131   6.969   4.379   2.887
 9058TIP3    H227132   6.866   4.476   2.941
 9059TIP3   OH227133   2.530   0.323   6.332
 9059TIP3    H127134   2.464   0.295   6.269
 9059TIP3    H227135   2.507   0.278   6.413
 9060TIP3   OH227136   4.401   3.616   2.479
 9060TIP3    H127137   4.319   3.659   2.502
 9060TIP3    H227138   4.468   3.682   2.492
 9061TIP3   OH227139   8.127   4.268   0.958
 9061TIP3    H127140   8.065   4.287   1.028
 9061TIP3    H227141   8.192   4.338   0.964
 9062TIP3   OH227142   4.431   0.262   0.346
 9062TIP3    H127143   4.519   0.298   0.352
 9062TIP3    H227144   4.389   0.310   0.274
 9063TIP3   OH227145   1.659   1.851   3.697
 9063TIP3    H127146   1.685   1.943   3.690
 9063TIP3    H227147   1.620   1.843   3.783
 9064TIP3   OH227148   4.690   1.806   0.646
 9064TIP3    H127149   4.705   1.713   0.629
 9064TIP3    H227150   4.595   1.815   0.649
 9065TIP3   OH227151   2.196   5.039   4.780
 9065TIP3    H127152   2.202   5.123   4.734
 9065TIP3    H227153   2.263   5.044   4.848
 9066TIP3   OH227154   5.874   2.197   4.881
 9066TIP3    H127155   5.956   2.149   4.871
 9066TIP3    H227156   5.859   2.199   4.976
 9067TIP3   OH227157   2.989   4.920   4.070
 9067TIP3    H127158   3.080   4.949   4.075
 9067TIP3    H227159   2.970   4.917   3.976
 9068TIP3   OH227160   7.345   5.786   4.925
 9068TIP3    H127161   7.266   5.825   4.962
 9068TIP3    H227162   7.327   5.692   4.923
 9069TIP3   OH227163   0.181   2.622   3.053
 9069TIP3    H127164   0.151   2.661   3.136
 9069TIP3    H227165   0.101   2.604   3.005
 9070TIP3   OH227166   5.669   2.460   3.932
 9070TIP3    H127167   5.699   2.551   3.936
 9070TIP3    H227168   5.577   2.466   3.907
 9071TIP3   OH227169   3.776   6.620   4.338
 9071TIP3    H127170   3.782   6.566   4.417
 9071TIP3    H227171   3.770   6.710   4.371
 9072TIP3   OH227172   6.167   3.589   2.164
 9072TIP3    H127173   6.090   3.608   2.111
 9072TIP3    H227174   6.184   3.671   2.211
 9073TIP3   OH227175   5.604   2.702   1.246
 9073TIP3    H127176   5.629   2.651   1.169
 9073TIP3    H227177   5.647   2.786   1.235
 9074TIP3   OH227178   0.995   7.685   2.752
 9074TIP3    H127179   0.983   7.675   2.846
 9074TIP3    H227180   1.033   7.601   2.723
 9075TIP3   OH227181   7.796   7.586   2.773
 9075TIP3    H127182   7.856   7.659   2.758
 9075TIP3    H227183   7.804   7.532   2.695
 9076TIP3   OH227184   1.483   5.846   2.155
 9076TIP3    H127185   1.438   5.873   2.075
 9076TIP3    H227186   1.517   5.759   2.135
 9077TIP3   OH227187   1.736   5.093   0.023
 9077TIP3    H127188   1.779   5.178   0.018
 9077TIP3    H227189   1.646   5.113   0.048
 9078TIP3   OH227190   3.468   6.409   1.061
 9078TIP3    H127191   3.393   6.367   1.019
 9078TIP3    H227192   3.536   6.342   1.061
 9079TIP3   OH227193   2.617   4.730   6.579
 9079TIP3    H127194   2.673   4.785   6.524
 9079TIP3    H227195   2.647   4.641   6.562
 9080TIP3   OH227196   6.324   6.744   5.323
 9080TIP3    H127197   6.367   6.802   5.386
 9080TIP3    H227198   6.277   6.803   5.264
 9081TIP3   OH227199   7.872   0.991   4.809
 9081TIP3    H127200   7.932   0.935   4.760
 9081TIP3    H227201   7.805   1.015   4.746
 9082TIP3   OH227202   4.022   1.573   4.757
 9082TIP3    H127203   3.999   1.481   4.746
 9082TIP3    H227204   3.968   1.619   4.692
 9083TIP3   OH227205   0.656   6.426   1.943
 9083TIP3    H127206   0.722   6.369   1.906
 9083TIP3    H227207   0.669   6.510   1.900
 9084TIP3   OH227208   6.587   4.935   3.843
 9084TIP3    H127209   6.654   5.001   3.862
 9084TIP3    H227210   6.517   4.953   3.905
 9085TIP3   OH227211   4.353   0.680   4.148
 9085TIP3    H127212   4.268   0.677   4.192
 9085TIP3    H227213   4.332   0.691   4.055
 9086TIP3   OH227214   1.223   5.495   5.705
 9086TIP3    H127215   1.219   5.469   5.797
 9086TIP3    H227216   1.149   5.449   5.664
 9087TIP3   OH227217   2.334   0.960   6.561
 9087TIP3    H127218   2.371   0.903   6.494
 9087TIP3    H227219   2.309   0.902   6.632
 9088TIP3   OH227220   3.316   1.518   0.199
 9088TIP3    H127221   3.226   1.549   0.190
 9088TIP3    H227222   3.310   1.423   0.188
 9089TIP3   OH227223   5.814   1.092   5.081
 9089TIP3    H127224   5.853   1.061   4.999
 9089TIP3    H227225   5.868   1.052   5.149
 9090TIP3   OH227226   0.797   7.669   0.107
 9090TIP3    H127227   0.795   7.580   0.142
 9090TIP3    H227228   0.877   7.708   0.145
 9091TIP3   OH227229   6.026   0.896   5.626
 9091TIP3    H127230   5.978   0.977   5.608
 9091TIP3    H227231   6.050   0.903   5.718
 9092TIP3   OH227232   5.633   0.000   0.749
 9092TIP3    H127233   5.707   0.029   0.695
 9092TIP3    H227234   5.649   0.042   0.834
 9093TIP3   OH227235   4.074   0.238   6.312
 9093TIP3    H127236   4.164   0.206   6.321
 9093TIP3    H227237   4.032   0.216   6.395
 9094TIP3   OH227238   8.262   4.946   3.457
 9094TIP3    H127239   8.352   4.977   3.452
 9094TIP3    H227240   8.209   5.025   3.459
 9095TIP3   OH227241   7.237   5.668   0.522
 9095TIP3    H127242   7.289   5.733   0.474
 9095TIP3    H227243   7.206   5.715   0.599
 9096TIP3   OH227244   5.264   1.429   0.847
 9096TIP3    H127245   5.222   1.371   0.911
 9096TIP3    H227246   5.213   1.510   0.850
 9097TIP3   OH227247   7.062   2.153   1.447
 9097TIP3    H127248   7.064   2.063   1.481
 9097TIP3    H227249   6.973   2.183   1.464
 9098TIP3   OH227250   1.611   0.389   3.579
 9098TIP3    H127251   1.603   0.471   3.628
 9098TIP3    H227252   1.626   0.416   3.489
 9099TIP3   OH227253   4.838   1.566   0.721
 9099TIP3    H127254   4.845   1.543   0.814
 9099TIP3    H227255   4.927   1.555   0.687
 9100TIP3   OH227256   1.205   1.622   4.794
 9100TIP3    H127257   1.233   1.538   4.756
 9100TIP3    H227258   1.162   1.668   4.722
 9101TIP3   OH227259   3.230   5.540   1.919
 9101TIP3    H127260   3.203   5.628   1.946
 9101TIP3    H227261   3.196   5.531   1.830
 9102TIP3   OH227262   6.563   3.248   4.407
 9102TIP3    H127263   6.543   3.339   4.430
 9102TIP3    H227264   6.579   3.250   4.313
 9103TIP3   OH227265   3.372   7.164   2.498
 9103TIP3    H127266   3.461   7.160   2.462
 9103TIP3    H227267   3.357   7.077   2.534
 9104TIP3   OH227268   2.602   0.565   6.424
 9104TIP3    H127269   2.641   0.531   6.505
 9104TIP3    H227270   2.549   0.493   6.391
 9105TIP3   OH227271   7.101   6.883   0.729
 9105TIP3    H127272   7.174   6.943   0.714
 9105TIP3    H227273   7.128   6.802   0.685
 9106TIP3   OH227274   4.535   5.360   4.065
 9106TIP3    H127275   4.442   5.382   4.069
 9106TIP3    H227276   4.562   5.350   4.156
 9107TIP3   OH227277   4.275   2.598   1.330
 9107TIP3    H127278   4.309   2.676   1.287
 9107TIP3    H227279   4.199   2.573   1.278
 9108TIP3   OH227280   2.725   5.002   6.031
 9108TIP3    H127281   2.800   5.021   6.088
 9108TIP3    H227282   2.650   5.000   6.090
 9109TIP3   OH227283   6.517   4.105   6.274
 9109TIP3    H127284   6.463   4.153   6.337
 9109TIP3    H227285   6.554   4.173   6.218
 9110TIP3   OH227286   6.781   2.108   1.036
 9110TIP3    H127287   6.762   2.169   0.964
 9110TIP3    H227288   6.780   2.021   0.995
 9111TIP3   OH227289   2.748   2.238   2.338
 9111TIP3    H127290   2.652   2.240   2.341
 9111TIP3    H227291   2.772   2.320   2.296
 9112TIP3   OH227292   0.601   1.010   6.292
 9112TIP3    H127293   0.641   1.073   6.232
 9112TIP3    H227294   0.643   0.927   6.271
 9113TIP3   OH227295   5.553   4.262   4.495
 9113TIP3    H127296   5.536   4.197   4.563
 9113TIP3    H227297   5.630   4.310   4.526
 9114TIP3   OH227298   4.864   7.519   0.252
 9114TIP3    H127299   4.884   7.605   0.216
 9114TIP3    H227300   4.939   7.465   0.229
 9115TIP3   OH227301   1.607   4.504   0.048
 9115TIP3    H127302   1.656   4.489   0.129
 9115TIP3    H227303   1.519   4.470   0.067
 9116TIP3   OH227304   5.617   7.157   6.063
 9116TIP3    H127305   5.535   7.129   6.104
 9116TIP3    H227306   5.590   7.225   6.001
 9117TIP3   OH227307   4.779   1.432   5.998
 9117TIP3    H127308   4.690   1.424   6.033
 9117TIP3    H227309   4.775   1.388   5.913
 9118TIP3   OH227310   3.036   7.188   5.237
 9118TIP3    H127311   2.964   7.133   5.205
 9118TIP3    H227312   2.997   7.274   5.248
 9119TIP3   OH227313   7.079   5.401   3.488
 9119TIP3    H127314   7.167   5.368   3.473
 9119TIP3    H227315   7.039   5.404   3.401
 9120TIP3   OH227316   0.176   4.407   6.083
 9120TIP3    H127317   0.232   4.382   6.157
 9120TIP3    H227318   0.134   4.325   6.056
 9121TIP3   OH227319   6.358   0.593   3.365
 9121TIP3    H127320   6.370   0.643   3.284
 9121TIP3    H227321   6.378   0.656   3.435
 9122TIP3   OH227322   5.640   0.419   0.683
 9122TIP3    H127323   5.676   0.491   0.631
 9122TIP3    H227324   5.716   0.363   0.702
 9123TIP3   OH227325   3.512   6.797   4.100
 9123TIP3    H127326   3.517   6.705   4.074
 9123TIP3    H227327   3.477   6.795   4.189
 9124TIP3   OH227328   4.171   7.398   2.564
 9124TIP3    H127329   4.117   7.345   2.505
 9124TIP3    H227330   4.116   7.473   2.585
 9125TIP3   OH227331   4.829   5.109   3.957
 9125TIP3    H127332   4.783   5.179   3.911
 9125TIP3    H227333   4.770   5.086   4.030
 9126TIP3   OH227334   4.917   3.450   2.838
 9126TIP3    H127335   4.874   3.389   2.898
 9126TIP3    H227336   4.966   3.509   2.896
 9127TIP3   OH227337   3.968   1.202   1.966
 9127TIP3    H127338   3.975   1.125   2.023
 9127TIP3    H227339   3.978   1.277   2.025
 9128TIP3   OH227340   8.157   6.035   5.081
 9128TIP3    H127341   8.086   6.046   5.145
 9128TIP3    H227342   8.234   6.015   5.133
 9129TIP3   OH227343   1.287   5.251   4.600
 9129TIP3    H127344   1.258   5.281   4.686
 9129TIP3    H227345   1.220   5.282   4.539
 9130TIP3   OH227346   2.939   3.968   5.291
 9130TIP3    H127347   2.957   3.989   5.199
 9130TIP3    H227348   2.857   3.920   5.289
 9131TIP3   OH227349   6.353   0.160   6.269
 9131TIP3    H127350   6.430   0.217   6.276
 9131TIP3    H227351   6.298   0.185   6.343
 9132TIP3   OH227352   3.620   4.441   4.451
 9132TIP3    H127353   3.593   4.533   4.453
 9132TIP3    H227354   3.653   4.423   4.538
 9133TIP3   OH227355   7.697   5.158   3.533
 9133TIP3    H127356   7.708   5.115   3.618
 9133TIP3    H227357   7.771   5.218   3.527
 9134TIP3   OH227358   2.229   0.275   0.568
 9134TIP3    H127359   2.223   0.288   0.473
 9134TIP3    H227360   2.310   0.225   0.579
 9135TIP3   OH227361   0.180   2.323   3.805
 9135TIP3    H127362   0.229   2.387   3.753
 9135TIP3    H227363   0.236   2.245   3.806
 9136TIP3   OH227364   1.475   0.899   4.365
 9136TIP3    H127365   1.527   0.922   4.442
 9136TIP3    H227366   1.540   0.871   4.300
 9137TIP3   OH227367   6.738   6.428   2.728
 9137TIP3    H127368   6.823   6.389   2.708
 9137TIP3    H227369   6.728   6.415   2.823
 9138TIP3   OH227370   3.561   2.185   3.378
 9138TIP3    H127371   3.546   2.091   3.369
 9138TIP3    H227372   3.488   2.225   3.331
 9139TIP3   OH227373   3.645   6.767   6.446
 9139TIP3    H127374   3.697   6.799   6.372
 9139TIP3    H227375   3.568   6.825   6.447
 9140TIP3   OH227376   2.950   0.823   4.324
 9140TIP3    H127377   2.966   0.780   4.240
 9140TIP3    H227378   2.875   0.879   4.308
 9141TIP3   OH227379   6.437   7.019   2.280
 9141TIP3    H127380   6.417   7.105   2.317
 9141TIP3    H227381   6.361   6.997   2.226
 9142TIP3   OH227382   0.151   6.602   4.564
 9142TIP3    H127383   0.216   6.626   4.499
 9142TIP3    H227384   0.201   6.563   4.636
 9143TIP3   OH227385   7.289   4.625   5.735
 9143TIP3    H127386   7.351   4.690   5.767
 9143TIP3    H227387   7.297   4.552   5.796
 9144TIP3   OH227388   3.462   0.518   3.246
 9144TIP3    H127389   3.521   0.449   3.216
 9144TIP3    H227390   3.480   0.593   3.189
 9145TIP3   OH227391   0.976   5.715   4.483
 9145TIP3    H127392   0.916   5.705   4.409
 9145TIP3    H227393   0.968   5.633   4.532
 9146TIP3   OH227394   8.046   2.862   1.718
 9146TIP3    H127395   8.059   2.950   1.752
 9146TIP3    H227396   8.133   2.831   1.695
 9147TIP3   OH227397   3.948   1.197   0.907
 9147TIP3    H127398   3.997   1.278   0.893
 9147TIP3    H227399   3.971   1.142   0.832
 9148TIP3   OH227400   5.085   1.966   3.622
 9148TIP3    H127401   5.003   1.970   3.572
 9148TIP3    H227402   5.112   1.875   3.617
 9149TIP3   OH227403   0.137   1.960   2.454
 9149TIP3    H127404   0.203   1.931   2.516
 9149TIP3    H227405   0.066   1.896   2.462
 9150TIP3   OH227406   2.791   0.467   5.236
 9150TIP3    H127407   2.861   0.531   5.221
 9150TIP3    H227408   2.769   0.478   5.328
 9151TIP3   OH227409   4.705   1.836   0.311
 9151TIP3    H127410   4.665   1.761   0.355
 9151TIP3    H227411   4.798   1.831   0.334
 9152TIP3   OH227412   6.509   4.969   1.807
 9152TIP3    H127413   6.472   5.005   1.726
 9152TIP3    H227414   6.588   4.923   1.780
 9153TIP3   OH227415   3.042   0.623   1.940
 9153TIP3    H127416   3.059   0.635   2.034
 9153TIP3    H227417   2.995   0.540   1.935
 9154TIP3   OH227418   5.695   3.940   2.219
 9154TIP3    H127419   5.674   3.952   2.311
 9154TIP3    H227420   5.665   4.020   2.176
 9155TIP3   OH227421   1.054   0.121   1.517
 9155TIP3    H127422   1.105   0.131   1.436
 9155TIP3    H227423   1.082   0.195   1.572
 9156TIP3   OH227424   7.597   2.691   1.360
 9156TIP3    H127425   7.524   2.645   1.318
 9156TIP3    H227426   7.586   2.671   1.453
 9157TIP3   OH227427   7.295   4.235   1.201
 9157TIP3    H127428   7.257   4.199   1.281
 9157TIP3    H227429   7.249   4.317   1.187
 9158TIP3   OH227430   7.674   7.638   3.038
 9158TIP3    H127431   7.715   7.724   3.042
 9158TIP3    H227432   7.708   7.599   2.958
 9159TIP3   OH227433   7.348   5.732   3.049
 9159TIP3    H127434   7.441   5.729   3.072
 9159TIP3    H227435   7.303   5.741   3.133
 9160TIP3   OH227436   6.442   1.962   2.322
 9160TIP3    H127437   6.456   1.988   2.413
 9160TIP3    H227438   6.450   1.866   2.324
 9161TIP3   OH227439   1.106   1.706   5.762
 9161TIP3    H127440   1.120   1.672   5.851
 9161TIP3    H227441   1.030   1.763   5.770
 9162TIP3   OH227442   0.989   2.632   2.655
 9162TIP3    H127443   1.060   2.696   2.652
 9162TIP3    H227444   0.955   2.640   2.744
 9163TIP3   OH227445   0.724   1.133   1.103
 9163TIP3    H127446   0.755   1.146   1.014
 9163TIP3    H227447   0.722   1.038   1.114
 9164TIP3   OH227448   5.503   1.438   2.410
 9164TIP3    H127449   5.531   1.498   2.341
 9164TIP3    H227450   5.582   1.394   2.438
 9165TIP3   OH227451   8.231   5.042   4.546
 9165TIP3    H127452   8.146   5.036   4.590
 9165TIP3    H227453   8.285   4.977   4.591
 9166TIP3   OH227454   5.924   2.048   4.061
 9166TIP3    H127455   5.986   2.108   4.102
 9166TIP3    H227456   5.910   2.084   3.973
 9167TIP3   OH227457   1.556   2.267   5.631
 9167TIP3    H127458   1.546   2.271   5.536
 9167TIP3    H227459   1.645   2.232   5.644
 9168TIP3   OH227460   0.250   3.975   2.359
 9168TIP3    H127461   0.156   3.972   2.340
 9168TIP3    H227462   0.256   3.962   2.454
 9169TIP3   OH227463   2.367   0.318   3.467
 9169TIP3    H127464   2.443   0.375   3.480
 9169TIP3    H227465   2.403   0.230   3.460
 9170TIP3   OH227466   0.571   6.959   2.291
 9170TIP3    H127467   0.549   6.877   2.335
 9170TIP3    H227468   0.667   6.958   2.284
 9171TIP3   OH227469   5.110   1.455   0.574
 9171TIP3    H127470   5.171   1.527   0.585
 9171TIP3    H227471   5.111   1.436   0.480
 9172TIP3   OH227472   3.238   5.651   4.291
 9172TIP3    H127473   3.230   5.561   4.260
 9172TIP3    H227474   3.206   5.649   4.381
 9173TIP3   OH227475   3.250   4.203   6.261
 9173TIP3    H127476   3.295   4.185   6.179
 9173TIP3    H227477   3.159   4.218   6.236
 9174TIP3   OH227478   3.414   1.611   1.174
 9174TIP3    H127479   3.409   1.641   1.083
 9174TIP3    H227480   3.478   1.540   1.173
 9175TIP3   OH227481   5.515   1.119   5.997
 9175TIP3    H127482   5.571   1.165   6.060
 9175TIP3    H227483   5.441   1.088   6.050
 9176TIP3   OH227484   7.999   4.874   3.648
 9176TIP3    H127485   8.048   4.791   3.645
 9176TIP3    H227486   8.014   4.913   3.562
 9177TIP3   OH227487   2.070   7.138   0.737
 9177TIP3    H127488   2.040   7.208   0.795
 9177TIP3    H227489   2.158   7.164   0.710
 9178TIP3   OH227490   4.536   1.299   0.819
 9178TIP3    H127491   4.476   1.304   0.893
 9178TIP3    H227492   4.553   1.205   0.808
 9179TIP3   OH227493   3.324   1.036   1.396
 9179TIP3    H127494   3.258   0.976   1.430
 9179TIP3    H227495   3.386   1.046   1.468
 9180TIP3   OH227496   2.330   1.805   1.220
 9180TIP3    H127497   2.411   1.852   1.203
 9180TIP3    H227498   2.304   1.831   1.308
 9181TIP3   OH227499   4.891   2.822   5.958
 9181TIP3    H127500   4.828   2.889   5.929
 9181TIP3    H227501   4.945   2.867   6.022
 9182TIP3   OH227502   5.417   6.005   4.586
 9182TIP3    H127503   5.347   5.968   4.639
 9182TIP3    H227504   5.449   6.079   4.638
 9183TIP3   OH227505   1.827   2.101   3.422
 9183TIP3    H127506   1.764   2.056   3.365
 9183TIP3    H227507   1.912   2.085   3.381
 9184TIP3   OH227508   3.167   6.386   6.238
 9184TIP3    H127509   3.208   6.347   6.315
 9184TIP3    H227510   3.087   6.335   6.225
 9185TIP3   OH227511   3.430   4.980   6.147
 9185TIP3    H127512   3.419   4.923   6.071
 9185TIP3    H227513   3.485   4.930   6.207
 9186TIP3   OH227514   2.257   5.128   4.053
 9186TIP3    H127515   2.247   5.063   3.983
 9186TIP3    H227516   2.181   5.185   4.045
 9187TIP3   OH227517   4.134   0.907   2.369
 9187TIP3    H127518   4.211   0.906   2.425
 9187TIP3    H227519   4.060   0.899   2.429
 9188TIP3   OH227520   7.697   3.817   6.163
 9188TIP3    H127521   7.604   3.818   6.182
 9188TIP3    H227522   7.715   3.904   6.126
 9189TIP3   OH227523   7.993   0.256   4.091
 9189TIP3    H127524   8.013   0.168   4.061
 9189TIP3    H227525   7.914   0.281   4.043
 9190TIP3   OH227526   2.979   3.673   0.224
 9190TIP3    H127527   2.945   3.585   0.208
 9190TIP3    H227528   3.066   3.673   0.184
 9191TIP3   OH227529   6.713   0.602   0.762
 9191TIP3    H127530   6.752   0.628   0.846
 9191TIP3    H227531   6.626   0.571   0.785
 9192TIP3   OH227532   1.393   0.068   0.321
 9192TIP3    H127533   1.368   0.146   0.273
 9192TIP3    H227534   1.469   0.034   0.273
 9193TIP3   OH227535   5.322   6.534   2.520
 9193TIP3    H127536   5.370   6.524   2.438
 9193TIP3    H227537   5.230   6.524   2.494
 9194TIP3   OH227538   4.444   5.828   2.745
 9194TIP3    H127539   4.366   5.855   2.696
 9194TIP3    H227540   4.457   5.898   2.810
 9195TIP3   OH227541   1.804   0.456   3.073
 9195TIP3    H127542   1.737   0.401   3.115
 9195TIP3    H227543   1.825   0.410   2.992
 9196TIP3   OH227544   1.785   4.820   2.699
 9196TIP3    H127545   1.862   4.876   2.708
 9196TIP3    H227546   1.722   4.873   2.650
 9197TIP3   OH227547   5.684   1.190   6.238
 9197TIP3    H127548   5.777   1.179   6.257
 9197TIP3    H227549   5.672   1.285   6.231
 9198TIP3   OH227550   6.612   3.675   0.940
 9198TIP3    H127551   6.580   3.756   0.901
 9198TIP3    H227552   6.701   3.696   0.969
 9199TIP3   OH227553   4.770   3.093   6.121
 9199TIP3    H127554   4.818   3.016   6.153
 9199TIP3    H227555   4.701   3.107   6.186
 9200TIP3   OH227556   3.811   2.674   3.151
 9200TIP3    H127557   3.769   2.720   3.224
 9200TIP3    H227558   3.845   2.593   3.190
 9201TIP3   OH227559   0.568   1.142   5.073
 9201TIP3    H127560   0.631   1.073   5.052
 9201TIP3    H227561   0.520   1.157   4.991
 9202TIP3   OH227562   7.904   7.658   0.267
 9202TIP3    H127563   7.950   7.627   0.189
 9202TIP3    H227564   7.947   7.613   0.340
 9203TIP3   OH227565   5.147   0.216   3.047
 9203TIP3    H127566   5.195   0.163   2.983
 9203TIP3    H227567   5.134   0.158   3.122
 9204TIP3   OH227568   0.395   6.586   5.502
 9204TIP3    H127569   0.461   6.627   5.445
 9204TIP3    H227570   0.382   6.499   5.464
 9205TIP3   OH227571   7.728   2.215   3.950
 9205TIP3    H127572   7.643   2.190   3.914
 9205TIP3    H227573   7.788   2.147   3.920
 9206TIP3   OH227574   5.478   3.445   3.065
 9206TIP3    H127575   5.571   3.448   3.088
 9206TIP3    H227576   5.461   3.354   3.045
 9207TIP3   OH227577   1.633   3.362   3.951
 9207TIP3    H127578   1.705   3.422   3.929
 9207TIP3    H227579   1.629   3.302   3.876
 9208TIP3   OH227580   7.822   5.435   5.969
 9208TIP3    H127581   7.726   5.440   5.969
 9208TIP3    H227582   7.841   5.342   5.979
 9209TIP3   OH227583   7.030   6.604   5.613
 9209TIP3    H127584   7.064   6.686   5.578
 9209TIP3    H227585   7.003   6.626   5.703
 9210TIP3   OH227586   4.460   7.098   1.151
 9210TIP3    H127587   4.450   7.149   1.070
 9210TIP3    H227588   4.370   7.084   1.181
 9211TIP3   OH227589   1.272   5.782   0.411
 9211TIP3    H127590   1.276   5.706   0.351
 9211TIP3    H227591   1.362   5.813   0.414
 9212TIP3   OH227592   3.538   7.378   3.614
 9212TIP3    H127593   3.506   7.332   3.537
 9212TIP3    H227594   3.577   7.458   3.580
 9213TIP3   OH227595   8.210   6.887   6.377
 9213TIP3    H127596   8.217   6.983   6.380
 9213TIP3    H227597   8.241   6.859   6.464
 9214TIP3   OH227598   5.767   6.257   0.989
 9214TIP3    H127599   5.779   6.264   0.895
 9214TIP3    H227600   5.722   6.173   1.001
 9215TIP3   OH227601   2.148   0.882   4.575
 9215TIP3    H127602   2.171   0.810   4.516
 9215TIP3    H227603   2.230   0.928   4.591
 9216TIP3   OH227604   4.014   5.056   3.928
 9216TIP3    H127605   4.102   5.093   3.940
 9216TIP3    H227606   4.023   4.997   3.853
 9217TIP3   OH227607   7.835   1.617   3.914
 9217TIP3    H127608   7.874   1.534   3.888
 9217TIP3    H227609   7.811   1.659   3.832
 9218TIP3   OH227610   5.918  -0.025   5.327
 9218TIP3    H127611   5.988   0.036   5.308
 9218TIP3    H227612   5.876   0.009   5.406
 9219TIP3   OH227613   6.519   5.330   3.695
 9219TIP3    H127614   6.506   5.283   3.613
 9219TIP3    H227615   6.483   5.417   3.680
 9220TIP3   OH227616   4.021   1.510   6.416
 9220TIP3    H127617   3.963   1.467   6.353
 9220TIP3    H227618   4.065   1.438   6.461
 9221TIP3   OH227619   4.494   1.985   3.938
 9221TIP3    H127620   4.561   1.979   3.871
 9221TIP3    H227621   4.478   2.079   3.948
 9222TIP3   OH227622   5.706   0.856   0.791
 9222TIP3    H127623   5.744   0.868   0.703
 9222TIP3    H227624   5.780   0.872   0.850
 9223TIP3   OH227625   5.951   5.810   5.311
 9223TIP3    H127626   6.008   5.770   5.245
 9223TIP3    H227627   5.879   5.748   5.322
 9224TIP3   OH227628   4.350   3.711   6.028
 9224TIP3    H127629   4.389   3.636   6.072
 9224TIP3    H227630   4.360   3.783   6.091
 9225TIP3   OH227631   6.678   1.371   1.404
 9225TIP3    H127632   6.598   1.342   1.358
 9225TIP3    H227633   6.662   1.349   1.496
 9226TIP3   OH227634   1.129   3.650   2.275
 9226TIP3    H127635   1.080   3.628   2.196
 9226TIP3    H227636   1.072   3.622   2.347
 9227TIP3   OH227637   4.178   2.450   1.752
 9227TIP3    H127638   4.104   2.494   1.795
 9227TIP3    H227639   4.144   2.424   1.666
 9228TIP3   OH227640   1.938   4.736   5.045
 9228TIP3    H127641   1.947   4.690   5.129
 9228TIP3    H227642   2.023   4.778   5.031
 9229TIP3   OH227643   2.693   4.638   0.938
 9229TIP3    H127644   2.670   4.627   1.030
 9229TIP3    H227645   2.717   4.550   0.909
 9230TIP3   OH227646   3.484   3.716   4.454
 9230TIP3    H127647   3.545   3.665   4.401
 9230TIP3    H227648   3.402   3.713   4.405
 9231TIP3   OH227649   5.463   3.753   5.605
 9231TIP3    H127650   5.382   3.744   5.656
 9231TIP3    H227651   5.484   3.664   5.579
 9232TIP3   OH227652   3.279   1.757   5.375
 9232TIP3    H127653   3.217   1.779   5.306
 9232TIP3    H227654   3.257   1.667   5.399
 9233TIP3   OH227655   1.660   2.235   4.015
 9233TIP3    H127656   1.747   2.263   3.989
 9233TIP3    H227657   1.606   2.247   3.936
 9234TIP3   OH227658   3.175   0.813   4.752
 9234TIP3    H127659   3.146   0.868   4.679
 9234TIP3    H227660   3.260   0.849   4.776
 9235TIP3   OH227661   4.891   3.419   5.075
 9235TIP3    H127662   4.842   3.464   5.007
 9235TIP3    H227663   4.918   3.487   5.136
 9236TIP3   OH227664   6.288   0.222   3.557
 9236TIP3    H127665   6.340   0.253   3.483
 9236TIP3    H227666   6.279   0.128   3.541
 9237TIP3   OH227667   1.888   3.575   1.432
 9237TIP3    H127668   1.892   3.600   1.524
 9237TIP3    H227669   1.961   3.620   1.391
 9238TIP3   OH227670   5.325   0.174   6.009
 9238TIP3    H127671   5.340   0.083   5.982
 9238TIP3    H227672   5.338   0.173   6.103
 9239TIP3   OH227673   0.399   4.999   2.597
 9239TIP3    H127674   0.492   5.013   2.616
 9239TIP3    H227675   0.382   5.054   2.521
 9240TIP3   OH227676   2.570   6.559   1.084
 9240TIP3    H127677   2.613   6.632   1.129
 9240TIP3    H227678   2.477   6.578   1.091
 9241TIP3   OH227679   4.679   3.402   3.440
 9241TIP3    H127680   4.660   3.309   3.428
 9241TIP3    H227681   4.762   3.404   3.487
 9242TIP3   OH227682   5.786   2.558   4.451
 9242TIP3    H127683   5.706   2.525   4.493
 9242TIP3    H227684   5.844   2.482   4.448
 9243TIP3   OH227685   5.333   4.444   2.392
 9243TIP3    H127686   5.319   4.532   2.424
 9243TIP3    H227687   5.333   4.389   2.470
 9244TIP3   OH227688   2.569   7.786   4.813
 9244TIP3    H127689   2.625   7.788   4.890
 9244TIP3    H227690   2.512   7.862   4.822
 9245TIP3   OH227691   0.110   0.867   4.203
 9245TIP3    H127692   0.166   0.826   4.269
 9245TIP3    H227693   0.149   0.840   4.119
 9246TIP3   OH227694   1.382   5.243   5.660
 9246TIP3    H127695   1.370   5.338   5.663
 9246TIP3    H227696   1.387   5.223   5.566
 9247TIP3   OH227697   7.865   0.609   6.240
 9247TIP3    H127698   7.832   0.527   6.202
 9247TIP3    H227699   7.882   0.664   6.164
 9248TIP3   OH227700   2.896   3.263   5.160
 9248TIP3    H127701   2.872   3.347   5.121
 9248TIP3    H227702   2.813   3.221   5.181
 9249TIP3   OH227703   2.986   5.938   1.139
 9249TIP3    H127704   2.957   5.915   1.051
 9249TIP3    H227705   2.958   5.864   1.193
 9250TIP3   OH227706   2.888   0.526   0.486
 9250TIP3    H127707   2.882   0.472   0.564
 9250TIP3    H227708   2.966   0.495   0.440
 9251TIP3   OH227709   7.085   5.871   1.573
 9251TIP3    H127710   7.131   5.792   1.599
 9251TIP3    H227711   7.018   5.884   1.641
 9252TIP3   OH227712   7.434   3.314   0.519
 9252TIP3    H127713   7.371   3.332   0.450
 9252TIP3    H227714   7.405   3.368   0.593
 9253TIP3   OH227715   0.086   1.644   4.189
 9253TIP3    H127716   0.053   1.561   4.157
 9253TIP3    H227717   0.144   1.676   4.119
 9254TIP3   OH227718   4.058   1.768   5.230
 9254TIP3    H127719   4.029   1.704   5.295
 9254TIP3    H227720   4.131   1.726   5.185
 9255TIP3   OH227721   7.186   2.673   4.479
 9255TIP3    H127722   7.116   2.637   4.533
 9255TIP3    H227723   7.182   2.622   4.398
 9256TIP3   OH227724   4.992   7.723   0.814
 9256TIP3    H127725   4.981   7.818   0.811
 9256TIP3    H227726   5.085   7.709   0.833
 9257TIP3   OH227727   1.706   1.063   5.214
 9257TIP3    H127728   1.725   1.147   5.255
 9257TIP3    H227729   1.740   0.998   5.275
 9258TIP3   OH227730   4.689   6.717   3.032
 9258TIP3    H127731   4.711   6.768   2.954
 9258TIP3    H227732   4.667   6.782   3.099
 9259TIP3   OH227733   2.384   3.652   3.912
 9259TIP3    H127734   2.345   3.739   3.912
 9259TIP3    H227735   2.350   3.609   3.990
 9260TIP3   OH227736   4.564   1.716   6.366
 9260TIP3    H127737   4.547   1.635   6.414
 9260TIP3    H227738   4.477   1.746   6.338
 9261TIP3   OH227739   4.943   2.215   0.317
 9261TIP3    H127740   4.889   2.242   0.243
 9261TIP3    H227741   4.920   2.277   0.387
 9262TIP3   OH227742   6.523   2.343   0.571
 9262TIP3    H127743   6.459   2.399   0.614
 9262TIP3    H227744   6.588   2.404   0.535
 9263TIP3   OH227745   7.771   5.936   6.464
 9263TIP3    H127746   7.701   5.910   6.525
 9263TIP3    H227747   7.786   5.858   6.410
 9264TIP3   OH227748   3.670   0.639   0.907
 9264TIP3    H127749   3.705   0.667   0.823
 9264TIP3    H227750   3.742   0.653   0.969
 9265TIP3   OH227751   5.761   7.266   1.516
 9265TIP3    H127752   5.822   7.297   1.450
 9265TIP3    H227753   5.675   7.284   1.479
 9266TIP3   OH227754   4.694   1.583   1.168
 9266TIP3    H127755   4.759   1.526   1.126
 9266TIP3    H227756   4.611   1.536   1.157
 9267TIP3   OH227757   6.129   5.336   4.775
 9267TIP3    H127758   6.193   5.310   4.841
 9267TIP3    H227759   6.176   5.398   4.719
 9268TIP3   OH227760   1.557   1.179   2.585
 9268TIP3    H127761   1.591   1.091   2.600
 9268TIP3    H227762   1.568   1.224   2.668
 9269TIP3   OH227763   6.849   3.544   4.183
 9269TIP3    H127764   6.807   3.605   4.243
 9269TIP3    H227765   6.784   3.529   4.114
 9270TIP3   OH227766   7.940   2.886   6.703
 9270TIP3    H127767   7.891   2.854   6.628
 9270TIP3    H227768   8.030   2.894   6.672
 9271TIP3   OH227769   6.458   3.972   5.404
 9271TIP3    H127770   6.475   4.054   5.356
 9271TIP3    H227771   6.490   3.903   5.346
 9272TIP3   OH227772   4.673   7.084   6.652
 9272TIP3    H127773   4.688   6.994   6.622
 9272TIP3    H227774   4.580   7.099   6.635
 9273TIP3   OH227775   7.048   5.960   4.742
 9273TIP3    H127776   7.020   5.990   4.828
 9273TIP3    H227777   7.081   6.038   4.698
 9274TIP3   OH227778   4.419   2.359   0.088
 9274TIP3    H127779   4.485   2.395   0.029
 9274TIP3    H227780   4.466   2.347   0.171
 9275TIP3   OH227781   8.148   3.210   2.419
 9275TIP3    H127782   8.221   3.271   2.425
 9275TIP3    H227783   8.186   3.125   2.439
 9276TIP3   OH227784   1.223   5.286   3.624
 9276TIP3    H127785   1.217   5.312   3.532
 9276TIP3    H227786   1.190   5.362   3.672
 9277TIP3   OH227787   0.960   1.099   6.217
 9277TIP3    H127788   1.022   1.136   6.154
 9277TIP3    H227789   0.924   1.175   6.263
 9278TIP3   OH227790   0.554   4.716   1.122
 9278TIP3    H127791   0.479   4.731   1.179
 9278TIP3    H227792   0.612   4.790   1.140
 9279TIP3   OH227793   2.205   5.738   6.124
 9279TIP3    H127794   2.254   5.693   6.193
 9279TIP3    H227795   2.157   5.807   6.171
 9280TIP3   OH227796   7.935   1.893   1.725
 9280TIP3    H127797   7.977   1.892   1.812
 9280TIP3    H227798   7.967   1.813   1.683
 9281TIP3   OH227799   3.409   2.500   5.054
 9281TIP3    H127800   3.427   2.590   5.026
 9281TIP3    H227801   3.458   2.491   5.136
 9282TIP3   OH227802   2.972   6.530   0.117
 9282TIP3    H127803   2.932   6.534   0.030
 9282TIP3    H227804   3.037   6.600   0.117
 9283TIP3   OH227805   3.309   5.476   6.568
 9283TIP3    H127806   3.214   5.485   6.581
 9283TIP3    H227807   3.329   5.388   6.599
 9284TIP3   OH227808   5.606   5.537   6.583
 9284TIP3    H127809   5.532   5.564   6.529
 9284TIP3    H227810   5.663   5.490   6.523
 9285TIP3   OH227811   6.653   0.325   3.805
 9285TIP3    H127812   6.713   0.398   3.795
 9285TIP3    H227813   6.592   0.353   3.873
 9286TIP3   OH227814   4.623   0.530   6.059
 9286TIP3    H127815   4.707   0.543   6.105
 9286TIP3    H227816   4.584   0.617   6.056
 9287TIP3   OH227817   0.957   7.239   2.164
 9287TIP3    H127818   0.924   7.278   2.083
 9287TIP3    H227819   0.897   7.271   2.232
 9288TIP3   OH227820   1.354   5.976   6.557
 9288TIP3    H127821   1.275   6.028   6.543
 9288TIP3    H227822   1.329   5.914   6.627
 9289TIP3   OH227823   6.813   6.491   0.379
 9289TIP3    H127824   6.788   6.575   0.340
 9289TIP3    H227825   6.821   6.510   0.472
 9290TIP3   OH227826   6.195   6.781   0.450
 9290TIP3    H127827   6.147   6.704   0.422
 9290TIP3    H227828   6.275   6.747   0.491
 9291TIP3   OH227829   3.141   4.522   1.420
 9291TIP3    H127830   3.225   4.481   1.398
 9291TIP3    H227831   3.131   4.593   1.357
 9292TIP3   OH227832   7.540   0.634   3.298
 9292TIP3    H127833   7.459   0.684   3.290
 9292TIP3    H227834   7.513   0.552   3.339
 9293TIP3   OH227835   2.355   5.142   4.534
 9293TIP3    H127836   2.416   5.203   4.493
 9293TIP3    H227837   2.340   5.075   4.467
 9294TIP3   OH227838   4.993   5.156   6.306
 9294TIP3    H127839   5.025   5.069   6.330
 9294TIP3    H227840   4.929   5.178   6.373
 9295TIP3   OH227841   7.045   7.530   0.688
 9295TIP3    H127842   7.017   7.594   0.623
 9295TIP3    H227843   7.136   7.512   0.666
 9296TIP3   OH227844   3.179   4.911   0.411
 9296TIP3    H127845   3.088   4.900   0.438
 9296TIP3    H227846   3.218   4.964   0.481
 9297TIP3   OH227847   3.821   4.660   3.314
 9297TIP3    H127848   3.726   4.653   3.303
 9297TIP3    H227849   3.851   4.569   3.318
 9298TIP3   OH227850   8.239   1.214   5.046
 9298TIP3    H127851   8.314   1.155   5.049
 9298TIP3    H227852   8.166   1.158   5.018
 9299TIP3   OH227853   1.819   4.465   3.787
 9299TIP3    H127854   1.903   4.420   3.785
 9299TIP3    H227855   1.828   4.532   3.854
 9300TIP3   OH227856   3.595   6.448   6.215
 9300TIP3    H127857   3.536   6.489   6.152
 9300TIP3    H227858   3.679   6.491   6.200
 9301TIP3   OH227859   3.599   1.682   1.946
 9301TIP3    H127860   3.550   1.746   1.895
 9301TIP3    H227861   3.580   1.598   1.906
 9302TIP3   OH227862   2.449   0.789   5.940
 9302TIP3    H127863   2.480   0.773   5.851
 9302TIP3    H227864   2.528   0.784   5.994
 9303TIP3   OH227865   8.272   5.691   6.657
 9303TIP3    H127866   8.337   5.631   6.695
 9303TIP3    H227867   8.200   5.691   6.720
 9304TIP3   OH227868   0.502   0.080   6.091
 9304TIP3    H127869   0.474   0.090   6.182
 9304TIP3    H227870   0.566   0.009   6.093
 9305TIP3   OH227871   0.990   3.456   2.906
 9305TIP3    H127872   0.941   3.503   2.973
 9305TIP3    H227873   1.028   3.381   2.951
 9306TIP3   OH227874   2.077   4.060   3.319
 9306TIP3    H127875   1.984   4.038   3.315
 9306TIP3    H227876   2.080   4.147   3.358
 9307TIP3   OH227877   7.485   1.269   5.858
 9307TIP3    H127878   7.447   1.184   5.878
 9307TIP3    H227879   7.418   1.315   5.807
 9308TIP3   OH227880   3.946   2.326   6.154
 9308TIP3    H127881   3.913   2.277   6.079
 9308TIP3    H227882   4.017   2.273   6.188
 9309TIP3   OH227883   0.205   5.942   3.050
 9309TIP3    H127884   0.156   5.862   3.069
 9309TIP3    H227885   0.219   5.939   2.955
 9310TIP3   OH227886   4.651   6.550   2.321
 9310TIP3    H127887   4.602   6.618   2.274
 9310TIP3    H227888   4.609   6.544   2.406
 9311TIP3   OH227889   3.111   4.239   2.020
 9311TIP3    H127890   3.075   4.311   1.967
 9311TIP3    H227891   3.047   4.227   2.091
 9312TIP3   OH227892   0.475   0.500   2.241
 9312TIP3    H127893   0.508   0.556   2.172
 9312TIP3    H227894   0.494   0.411   2.211
 9313TIP3   OH227895   2.012   5.363   2.694
 9313TIP3    H127896   1.945   5.431   2.686
 9313TIP3    H227897   2.012   5.342   2.787
 9314TIP3   OH227898   7.608   5.294   3.296
 9314TIP3    H127899   7.682   5.235   3.312
 9314TIP3    H227900   7.549   5.244   3.240
 9315TIP3   OH227901   0.498   4.635   0.158
 9315TIP3    H127902   0.503   4.606   0.249
 9315TIP3    H227903   0.569   4.698   0.149
 9316TIP3   OH227904   4.869   7.734   4.438
 9316TIP3    H127905   4.781   7.772   4.444
 9316TIP3    H227906   4.913   7.761   4.518
 9317TIP3   OH227907   1.992   0.471   1.693
 9317TIP3    H127908   2.004   0.452   1.786
 9317TIP3    H227909   1.952   0.392   1.658
 9318TIP3   OH227910   1.245   6.046   0.341
 9318TIP3    H127911   1.254   5.964   0.388
 9318TIP3    H227912   1.151   6.054   0.323
 9319TIP3   OH227913   0.979   2.612   0.116
 9319TIP3    H127914   1.019   2.675   0.056
 9319TIP3    H227915   1.016   2.632   0.202
 9320TIP3   OH227916   4.683   6.844   0.750
 9320TIP3    H127917   4.641   6.911   0.696
 9320TIP3    H227918   4.773   6.876   0.761
 9321TIP3   OH227919   2.590   1.902   1.132
 9321TIP3    H127920   2.548   1.978   1.092
 9321TIP3    H227921   2.684   1.917   1.122
 9322TIP3   OH227922   1.740   3.093   1.981
 9322TIP3    H127923   1.744   3.016   2.038
 9322TIP3    H227924   1.693   3.159   2.032
 9323TIP3   OH227925   4.398   3.913   6.651
 9323TIP3    H127926   4.420   3.880   6.739
 9323TIP3    H227927   4.473   3.890   6.597
 9324TIP3   OH227928   3.134   4.250   5.869
 9324TIP3    H127929   3.204   4.201   5.912
 9324TIP3    H227930   3.097   4.305   5.938
 9325TIP3   OH227931   6.066   2.178   3.402
 9325TIP3    H127932   6.063   2.207   3.312
 9325TIP3    H227933   6.030   2.251   3.453
 9326TIP3   OH227934   3.039   6.209   1.127
 9326TIP3    H127935   3.006   6.119   1.121
 9326TIP3    H227936   3.037   6.230   1.220
 9327TIP3   OH227937   3.195   5.935   3.928
 9327TIP3    H127938   3.202   5.933   3.833
 9327TIP3    H227939   3.280   5.965   3.959
 9328TIP3   OH227940   4.482   3.405   3.797
 9328TIP3    H127941   4.393   3.373   3.814
 9328TIP3    H227942   4.473   3.462   3.720
 9329TIP3   OH227943   8.013   4.969   1.820
 9329TIP3    H127944   7.955   4.912   1.770
 9329TIP3    H227945   7.998   4.943   1.912
 9330TIP3   OH227946   2.668   5.093   0.677
 9330TIP3    H127947   2.609   5.140   0.619
 9330TIP3    H227948   2.610   5.038   0.731
 9331TIP3   OH227949   4.213   2.374   4.590
 9331TIP3    H127950   4.208   2.468   4.577
 9331TIP3    H227951   4.122   2.346   4.598
 9332TIP3   OH227952   3.642   7.062   6.392
 9332TIP3    H127953   3.584   7.127   6.351
 9332TIP3    H227954   3.729   7.085   6.361
 9333TIP3   OH227955   8.074   2.787   4.311
 9333TIP3    H127956   8.140   2.725   4.341
 9333TIP3    H227957   8.106   2.814   4.224
 9334TIP3   OH227958  -0.005   4.304   5.605
 9334TIP3    H127959  -0.028   4.222   5.649
 9334TIP3    H227960   0.086   4.293   5.578
 9335TIP3   OH227961   1.819   4.070   4.570
 9335TIP3    H127962   1.880   4.053   4.498
 9335TIP3    H227963   1.740   4.104   4.527
 9336TIP3   OH227964   2.721   1.386   3.254
 9336TIP3    H127965   2.702   1.382   3.348
 9336TIP3    H227966   2.739   1.295   3.230
 9337TIP3   OH227967   3.276   3.952   4.423
 9337TIP3    H127968   3.238   4.039   4.441
 9337TIP3    H227969   3.370   3.967   4.423
 9338TIP3   OH227970   4.457   7.282   6.305
 9338TIP3    H127971   4.484   7.214   6.242
 9338TIP3    H227972   4.412   7.347   6.251
 9339TIP3   OH227973   4.107   0.835   6.136
 9339TIP3    H127974   4.063   0.761   6.095
 9339TIP3    H227975   4.157   0.797   6.208
 9340TIP3   OH227976   2.179   3.745   6.426
 9340TIP3    H127977   2.245   3.767   6.361
 9340TIP3    H227978   2.152   3.829   6.463
 9341TIP3   OH227979   6.412   5.348   4.616
 9341TIP3    H127980   6.331   5.316   4.577
 9341TIP3    H227981   6.481   5.307   4.564
 9342TIP3   OH227982   0.357   1.966   3.370
 9342TIP3    H127983   0.364   1.886   3.318
 9342TIP3    H227984   0.380   1.939   3.459
 9343TIP3   OH227985   3.347   7.349   2.967
 9343TIP3    H127986   3.315   7.349   2.877
 9343TIP3    H227987   3.315   7.267   3.004
 9344TIP3   OH227988   1.363   0.379   4.388
 9344TIP3    H127989   1.411   0.322   4.329
 9344TIP3    H227990   1.396   0.356   4.475
 9345TIP3   OH227991   4.008   3.588   4.081
 9345TIP3    H127992   3.931   3.607   4.027
 9345TIP3    H227993   3.992   3.499   4.114
 9346TIP3   OH227994   0.350   4.926   1.810
 9346TIP3    H127995   0.359   4.889   1.722
 9346TIP3    H227996   0.440   4.934   1.842
 9347TIP3   OH227997   4.651   2.383   0.549
 9347TIP3    H127998   4.669   2.475   0.568
 9347TIP3    H227999   4.723   2.335   0.590
 9348TIP3   OH228000   5.810   3.240   1.657
 9348TIP3    H128001   5.755   3.268   1.584
 9348TIP3    H228002   5.873   3.311   1.669
 9349TIP3   OH228003   3.822   1.777   3.554
 9349TIP3    H128004   3.808   1.738   3.468
 9349TIP3    H228005   3.860   1.863   3.536
 9350TIP3   OH228006   6.096   5.317   1.809
 9350TIP3    H128007   6.050   5.388   1.854
 9350TIP3    H228008   6.174   5.302   1.862
 9351TIP3   OH228009   7.588   6.913   3.701
 9351TIP3    H128010   7.519   6.960   3.747
 9351TIP3    H228011   7.572   6.821   3.721
 9352TIP3   OH228012   0.179   6.687   3.525
 9352TIP3    H128013   0.096   6.734   3.528
 9352TIP3    H228014   0.218   6.713   3.441
 9353TIP3   OH228015   1.393   1.785   4.925
 9353TIP3    H128016   1.311   1.752   4.888
 9353TIP3    H228017   1.367   1.831   5.004
 9354TIP3   OH228018   0.063   4.609   4.817
 9354TIP3    H128019   0.089   4.519   4.833
 9354TIP3    H228020  -0.031   4.605   4.800
 9355TIP3   OH228021   2.375   3.624   6.008
 9355TIP3    H128022   2.463   3.586   6.009
 9355TIP3    H228023   2.351   3.628   5.916
 9356TIP3   OH228024   4.236   3.565   5.369
 9356TIP3    H128025   4.245   3.637   5.432
 9356TIP3    H228026   4.164   3.513   5.403
 9357TIP3   OH228027   1.973   1.084   5.107
 9357TIP3    H128028   1.896   1.104   5.160
 9357TIP3    H228029   2.007   1.003   5.144
 9358TIP3   OH228030   3.541   5.623   4.574
 9358TIP3    H128031   3.509   5.538   4.544
 9358TIP3    H228032   3.637   5.618   4.566
 9359TIP3   OH228033   1.170   7.673   5.203
 9359TIP3    H128034   1.138   7.720   5.125
 9359TIP3    H228035   1.246   7.724   5.231
 9360TIP3   OH228036   1.251   4.373   5.623
 9360TIP3    H128037   1.282   4.284   5.635
 9360TIP3    H228038   1.181   4.383   5.688
 9361TIP3   OH228039   4.896   0.758   5.831
 9361TIP3    H128040   4.941   0.831   5.876
 9361TIP3    H228041   4.886   0.788   5.741
 9362TIP3   OH228042   5.296   1.109   1.632
 9362TIP3    H128043   5.214   1.082   1.589
 9362TIP3    H228044   5.359   1.115   1.560
 9363TIP3   OH228045   7.971   1.465   0.609
 9363TIP3    H128046   7.980   1.558   0.589
 9363TIP3    H228047   7.924   1.428   0.534
 9364TIP3   OH228048   2.826   0.256   1.402
 9364TIP3    H128049   2.908   0.301   1.422
 9364TIP3    H228050   2.775   0.321   1.354
 9365TIP3   OH228051   4.175   0.072   1.453
 9365TIP3    H128052   4.207   0.046   1.367
 9365TIP3    H228053   4.186  -0.006   1.507
 9366TIP3   OH228054   0.705   6.448   3.456
 9366TIP3    H128055   0.758   6.389   3.402
 9366TIP3    H228056   0.711   6.412   3.544
 9367TIP3   OH228057   2.976   0.559   0.051
 9367TIP3    H128058   2.914   0.569   0.124
 9367TIP3    H228059   3.010   0.470   0.061
 9368TIP3   OH228060   6.762   6.287   3.010
 9368TIP3    H128061   6.808   6.371   3.016
 9368TIP3    H228062   6.828   6.227   2.975
 9369TIP3   OH228063   4.719   7.379   2.060
 9369TIP3    H128064   4.741   7.354   1.970
 9369TIP3    H228065   4.697   7.296   2.103
 9370TIP3   OH228066   5.086   1.883   3.912
 9370TIP3    H128067   4.997   1.874   3.876
 9370TIP3    H228068   5.115   1.793   3.926
 9371TIP3   OH228069   3.692   7.757   3.051
 9371TIP3    H128070   3.766   7.761   2.990
 9371TIP3    H228071   3.635   7.688   3.015
 9372TIP3   OH228072   5.373   1.998   3.500
 9372TIP3    H128073   5.399   2.033   3.415
 9372TIP3    H228074   5.280   2.018   3.507
 9373TIP3   OH228075   0.849   2.476   1.734
 9373TIP3    H128076   0.761   2.482   1.772
 9373TIP3    H228077   0.856   2.385   1.705
 9374TIP3   OH228078   3.062   3.123   0.558
 9374TIP3    H128079   3.093   3.114   0.649
 9374TIP3    H228080   3.095   3.208   0.529
 9375TIP3   OH228081   3.190   7.555   5.955
 9375TIP3    H128082   3.204   7.469   5.914
 9375TIP3    H228083   3.261   7.562   6.019
 9376TIP3   OH228084   3.654   0.388   3.633
 9376TIP3    H128085   3.706   0.407   3.555
 9376TIP3    H228086   3.566   0.371   3.600
 9377TIP3   OH228087   0.097   6.913   1.461
 9377TIP3    H128088   0.031   6.962   1.510
 9377TIP3    H228089   0.151   6.980   1.419
 9378TIP3   OH228090   0.393   1.773   3.172
 9378TIP3    H128091   0.485   1.798   3.162
 9378TIP3    H228092   0.395   1.680   3.192
 9379TIP3   OH228093   0.453   5.045   1.200
 9379TIP3    H128094   0.548   5.042   1.209
 9379TIP3    H228095   0.423   5.099   1.273
 9380TIP3   OH228096   2.792   3.365   5.481
 9380TIP3    H128097   2.701   3.359   5.454
 9380TIP3    H228098   2.798   3.310   5.559
 9381TIP3   OH228099   2.126   3.529   4.933
 9381TIP3    H128100   2.131   3.518   4.838
 9381TIP3    H228101   2.038   3.502   4.956
 9382TIP3   OH228102   0.167   2.765   3.898
 9382TIP3    H128103   0.240   2.704   3.906
 9382TIP3    H228104   0.177   2.802   3.810
 9383TIP3   OH228105   6.828   3.962   0.367
 9383TIP3    H128106   6.797   4.050   0.348
 9383TIP3    H228107   6.813   3.951   0.461
 9384TIP3   OH228108   0.981   2.130   1.422
 9384TIP3    H128109   1.053   2.176   1.378
 9384TIP3    H228110   0.972   2.176   1.506
 9385TIP3   OH228111   4.673   5.178   3.191
 9385TIP3    H128112   4.726   5.257   3.179
 9385TIP3    H228113   4.585   5.212   3.210
 9386TIP3   OH228114   5.470   2.354   1.924
 9386TIP3    H128115   5.509   2.275   1.962
 9386TIP3    H228116   5.417   2.322   1.851
 9387TIP3   OH228117   5.806   1.129   2.713
 9387TIP3    H128118   5.831   1.037   2.716
 9387TIP3    H228119   5.847   1.163   2.633
 9388TIP3   OH228120   3.561   0.384   2.498
 9388TIP3    H128121   3.591   0.453   2.438
 9388TIP3    H228122   3.473   0.411   2.523
 9389TIP3   OH228123   6.813   2.321   4.951
 9389TIP3    H128124   6.904   2.299   4.971
 9389TIP3    H228125   6.816   2.362   4.865
 9390TIP3   OH228126   1.237   0.550   4.065
 9390TIP3    H128127   1.146   0.581   4.069
 9390TIP3    H228128   1.277   0.580   4.147
 9391TIP3   OH228129   2.517   2.563   0.419
 9391TIP3    H128130   2.439   2.508   0.423
 9391TIP3    H228131   2.545   2.559   0.327
 9392TIP3   OH228132   3.084   0.086   3.517
 9392TIP3    H128133   3.144   0.122   3.451
 9392TIP3    H228134   3.057   0.002   3.481
 9393TIP3   OH228135   5.493   1.916   2.547
 9393TIP3    H128136   5.419   1.872   2.588
 9393TIP3    H228137   5.565   1.907   2.610
 9394TIP3   OH228138   1.674   0.790   6.042
 9394TIP3    H128139   1.639   0.801   5.953
 9394TIP3    H228140   1.612   0.730   6.084
 9395TIP3   OH228141   7.322   0.288   3.006
 9395TIP3    H128142   7.416   0.301   2.988
 9395TIP3    H228143   7.294   0.371   3.045
 9396TIP3   OH228144   0.495   4.715   5.434
 9396TIP3    H128145   0.588   4.695   5.442
 9396TIP3    H228146   0.453   4.630   5.423
 9397TIP3   OH228147   6.986   5.594   3.668
 9397TIP3    H128148   6.959   5.536   3.740
 9397TIP3    H228149   7.043   5.539   3.614
 9398TIP3   OH228150   1.953   5.009   0.746
 9398TIP3    H128151   1.877   4.995   0.689
 9398TIP3    H228152   2.009   5.068   0.695
 9399TIP3   OH228153   1.394   5.806   4.127
 9399TIP3    H128154   1.303   5.813   4.154
 9399TIP3    H228155   1.398   5.726   4.076
 9400TIP3   OH228156   5.434   4.686   6.003
 9400TIP3    H128157   5.449   4.770   6.046
 9400TIP3    H228158   5.511   4.673   5.947
 9401TIP3   OH228159   3.327   3.975   1.322
 9401TIP3    H128160   3.360   3.956   1.234
 9401TIP3    H228161   3.301   4.068   1.318
 9402TIP3   OH228162   1.340   0.919   5.719
 9402TIP3    H128163   1.424   0.909   5.763
 9402TIP3    H228164   1.305   1.002   5.752
 9403TIP3   OH228165   5.209   6.248   2.265
 9403TIP3    H128166   5.253   6.173   2.226
 9403TIP3    H228167   5.132   6.211   2.309
 9404TIP3   OH228168   5.522   6.214   4.761
 9404TIP3    H128169   5.551   6.291   4.712
 9404TIP3    H228170   5.602   6.182   4.803
 9405TIP3   OH228171   2.264   2.965   2.861
 9405TIP3    H128172   2.347   3.012   2.861
 9405TIP3    H228173   2.225   2.985   2.776
 9406TIP3   OH228174   3.555   3.367   1.108
 9406TIP3    H128175   3.512   3.307   1.047
 9406TIP3    H228176   3.498   3.444   1.110
 9407TIP3   OH228177   7.493   0.814   3.848
 9407TIP3    H128178   7.557   0.885   3.853
 9407TIP3    H228179   7.422   0.841   3.907
 9408TIP3   OH228180   0.953   0.765   3.077
 9408TIP3    H128181   1.012   0.839   3.062
 9408TIP3    H228182   0.988   0.695   3.022
 9409TIP3   OH228183   7.948   2.497   3.083
 9409TIP3    H128184   7.939   2.455   3.169
 9409TIP3    H228185   7.859   2.520   3.059
 9410TIP3   OH228186   4.258   4.399   0.579
 9410TIP3    H128187   4.296   4.369   0.662
 9410TIP3    H228188   4.193   4.465   0.605
 9411TIP3   OH228189   2.725   1.225   0.929
 9411TIP3    H128190   2.665   1.150   0.925
 9411TIP3    H228191   2.711   1.271   0.847
 9412TIP3   OH228192   1.541   4.303   2.582
 9412TIP3    H128193   1.592   4.383   2.597
 9412TIP3    H228194   1.607   4.235   2.571
 9413TIP3   OH228195   4.438   5.807   0.821
 9413TIP3    H128196   4.356   5.845   0.789
 9413TIP3    H228197   4.427   5.804   0.916
 9414TIP3   OH228198   0.484   3.927   6.160
 9414TIP3    H128199   0.488   3.853   6.098
 9414TIP3    H228200   0.450   3.888   6.240
 9415TIP3   OH228201   5.245   1.786  -0.006
 9415TIP3    H128202   5.231   1.864  -0.060
 9415TIP3    H228203   5.234   1.816   0.084
 9416TIP3   OH228204   6.152   0.668   3.629
 9416TIP3    H128205   6.102   0.748   3.612
 9416TIP3    H228206   6.217   0.665   3.559
 9417TIP3   OH228207   8.017   0.715   3.918
 9417TIP3    H128208   7.990   0.726   4.009
 9417TIP3    H228209   7.935   0.716   3.868
 9418TIP3   OH228210   2.434   3.524   0.533
 9418TIP3    H128211   2.408   3.453   0.475
 9418TIP3    H228212   2.364   3.589   0.525
 9419TIP3   OH228213   1.241   6.231   5.289
 9419TIP3    H128214   1.270   6.310   5.243
 9419TIP3    H228215   1.321   6.181   5.305
 9420TIP3   OH228216   6.018   3.768   5.689
 9420TIP3    H128217   5.942   3.827   5.688
 9420TIP3    H228218   6.086   3.816   5.642
 9421TIP3   OH228219   1.469   5.556   1.100
 9421TIP3    H128220   1.451   5.486   1.037
 9421TIP3    H228221   1.431   5.525   1.182
 9422TIP3   OH228222   1.773   4.660   2.362
 9422TIP3    H128223   1.703   4.608   2.402
 9422TIP3    H228224   1.729   4.739   2.329
 9423TIP3   OH228225   3.446   3.630   2.582
 9423TIP3    H128226   3.448   3.722   2.611
 9423TIP3    H228227   3.400   3.633   2.498
 9424TIP3   OH228228   1.656   5.134   4.190
 9424TIP3    H128229   1.601   5.160   4.116
 9424TIP3    H228230   1.595   5.132   4.264
 9425TIP3   OH228231   6.757   6.603   5.892
 9425TIP3    H128232   6.760   6.512   5.861
 9425TIP3    H228233   6.665   6.619   5.913
 9426TIP3   OH228234   3.496   1.867   2.643
 9426TIP3    H128235   3.522   1.775   2.643
 9426TIP3    H228236   3.577   1.915   2.627
 9427TIP3   OH228237   6.055   3.397   3.669
 9427TIP3    H128238   6.147   3.368   3.669
 9427TIP3    H228239   6.049   3.457   3.744
 9428TIP3   OH228240   3.975   2.786   1.268
 9428TIP3    H128241   3.932   2.855   1.218
 9428TIP3    H228242   3.950   2.802   1.358
 9429TIP3   OH228243   1.678   0.029   6.407
 9429TIP3    H128244   1.640  -0.055   6.382
 9429TIP3    H228245   1.629   0.055   6.485
 9430TIP3   OH228246   0.449   5.882   0.133
 9430TIP3    H128247   0.366   5.929   0.138
 9430TIP3    H228248   0.516   5.951   0.129
 9431TIP3   OH228249   2.307   7.491   1.879
 9431TIP3    H128250   2.363   7.562   1.910
 9431TIP3    H228251   2.349   7.411   1.910
 9432TIP3   OH228252   1.050   1.545   3.164
 9432TIP3    H128253   0.976   1.566   3.106
 9432TIP3    H228254   1.087   1.630   3.188
 9433TIP3   OH228255   1.170   7.359   3.444
 9433TIP3    H128256   1.211   7.272   3.451
 9433TIP3    H228257   1.120   7.369   3.525
 9434TIP3   OH228258   2.573   5.292   4.492
 9434TIP3    H128259   2.521   5.333   4.561
 9434TIP3    H228260   2.651   5.259   4.537
 9435TIP3   OH228261   4.884   5.736   3.181
 9435TIP3    H128262   4.958   5.787   3.215
 9435TIP3    H228263   4.808   5.769   3.230
 9436TIP3   OH228264   4.244   0.511   5.446
 9436TIP3    H128265   4.310   0.578   5.428
 9436TIP3    H228266   4.181   0.519   5.374
 9437TIP3   OH228267   2.115   1.022   5.496
 9437TIP3    H128268   2.071   0.946   5.458
 9437TIP3    H228269   2.119   1.086   5.425
 9438TIP3   OH228270   5.953   5.376   1.234
 9438TIP3    H128271   5.907   5.347   1.156
 9438TIP3    H228272   5.988   5.296   1.273
 9439TIP3   OH228273   0.893   4.177   0.717
 9439TIP3    H128274   0.818   4.122   0.693
 9439TIP3    H228275   0.919   4.145   0.804
 9440TIP3   OH228276   6.784   0.468   6.470
 9440TIP3    H128277   6.826   0.404   6.529
 9440TIP3    H228278   6.705   0.424   6.439
 9441TIP3   OH228279   0.670   3.123   2.714
 9441TIP3    H128280   0.727   3.060   2.669
 9441TIP3    H228281   0.664   3.089   2.804
 9442TIP3   OH228282   3.927   5.476   3.451
 9442TIP3    H128283   3.921   5.566   3.420
 9442TIP3    H228284   3.837   5.448   3.464
 9443TIP3   OH228285   0.194   3.080   0.634
 9443TIP3    H128286   0.263   3.117   0.690
 9443TIP3    H228287   0.147   3.157   0.600
 9444TIP3   OH228288   0.431   3.255   1.890
 9444TIP3    H128289   0.460   3.306   1.966
 9444TIP3    H228290   0.375   3.186   1.928
 9445TIP3   OH228291   5.323   2.674   2.384
 9445TIP3    H128292   5.343   2.603   2.324
 9445TIP3    H228293   5.235   2.702   2.360
 9446TIP3   OH228294   2.860   2.613   1.957
 9446TIP3    H128295   2.776   2.653   1.932
 9446TIP3    H228296   2.879   2.552   1.885
 9447TIP3   OH228297   5.664   6.920   1.767
 9447TIP3    H128298   5.740   6.972   1.743
 9447TIP3    H228299   5.681   6.893   1.857
 9448TIP3   OH228300   5.144   3.293   5.929
 9448TIP3    H128301   5.059   3.322   5.960
 9448TIP3    H228302   5.166   3.218   5.985
 9449TIP3   OH228303   5.268   7.656   4.890
 9449TIP3    H128304   5.173   7.648   4.880
 9449TIP3    H228305   5.286   7.623   4.978
 9450TIP3   OH228306   5.297   5.148   5.037
 9450TIP3    H128307   5.250   5.101   5.106
 9450TIP3    H228308   5.366   5.196   5.083
 9451TIP3   OH228309   2.731   4.655   2.627
 9451TIP3    H128310   2.760   4.565   2.644
 9451TIP3    H228311   2.681   4.649   2.546
 9452TIP3   OH228312   2.853   0.335   4.554
 9452TIP3    H128313   2.861   0.420   4.511
 9452TIP3    H228314   2.895   0.347   4.639
 9453TIP3   OH228315   0.864   2.410   4.202
 9453TIP3    H128316   0.800   2.377   4.266
 9453TIP3    H228317   0.948   2.377   4.233
 9454TIP3   OH228318   6.529   2.769   2.972
 9454TIP3    H128319   6.568   2.704   3.029
 9454TIP3    H228320   6.603   2.824   2.945
 9455TIP3   OH228321   7.092   0.855   2.925
 9455TIP3    H128322   7.141   0.925   2.968
 9455TIP3    H228323   7.019   0.838   2.984
 9456TIP3   OH228324   2.468   3.446   2.698
 9456TIP3    H128325   2.460   3.431   2.793
 9456TIP3    H228326   2.383   3.481   2.672
 9457TIP3   OH228327   2.362   7.618   3.368
 9457TIP3    H128328   2.386   7.681   3.300
 9457TIP3    H228329   2.443   7.604   3.417
 9458TIP3   OH228330   1.852   7.612   0.331
 9458TIP3    H128331   1.811   7.543   0.279
 9458TIP3    H228332   1.911   7.656   0.270
 9459TIP3   OH228333   2.267   1.564   2.192
 9459TIP3    H128334   2.331   1.493   2.200
 9459TIP3    H228335   2.280   1.598   2.104
 9460TIP3   OH228336   7.861   7.802  -0.004
 9460TIP3    H128337   7.826   7.803   0.086
 9460TIP3    H228338   7.918   7.726  -0.006
 9461TIP3   OH228339   2.846   2.861   5.521
 9461TIP3    H128340   2.934   2.849   5.483
 9461TIP3    H228341   2.861   2.860   5.616
 9462TIP3   OH228342   1.365   5.276   2.098
 9462TIP3    H128343   1.395   5.223   2.024
 9462TIP3    H228344   1.273   5.294   2.078
 9463TIP3   OH228345   3.649   1.472   2.532
 9463TIP3    H128346   3.711   1.545   2.534
 9463TIP3    H228347   3.579   1.500   2.591
 9464TIP3   OH228348   5.794   0.051   0.537
 9464TIP3    H128349   5.838  -0.016   0.485
 9464TIP3    H228350   5.736   0.096   0.476
 9465TIP3   OH228351   3.377   2.064   0.758
 9465TIP3    H128352   3.301   2.026   0.802
 9465TIP3    H228353   3.390   2.009   0.680
 9466TIP3   OH228354   0.200   2.338   5.042
 9466TIP3    H128355   0.202   2.420   5.092
 9466TIP3    H228356   0.251   2.358   4.963
 9467TIP3   OH228357   7.482   4.377   5.445
 9467TIP3    H128358   7.454   4.468   5.456
 9467TIP3    H228359   7.576   4.378   5.461
 9468TIP3   OH228360   6.773   2.038   4.997
 9468TIP3    H128361   6.831   2.114   4.997
 9468TIP3    H228362   6.720   2.047   5.076
 9469TIP3   OH228363   2.784   7.695   0.462
 9469TIP3    H128364   2.833   7.777   0.469
 9469TIP3    H228365   2.709   7.715   0.407
 9470TIP3   OH228366   0.801   3.374   6.010
 9470TIP3    H128367   0.850   3.291   6.010
 9470TIP3    H228368   0.759   3.376   6.096
 9471TIP3   OH228369   8.218   7.452   5.005
 9471TIP3    H128370   8.199   7.465   5.098
 9471TIP3    H228371   8.133   7.434   4.966
 9472TIP3   OH228372   2.847   6.261   0.769
 9472TIP3    H128373   2.788   6.309   0.826
 9472TIP3    H228374   2.838   6.303   0.683
 9473TIP3   OH228375   6.341   5.857   4.375
 9473TIP3    H128376   6.344   5.911   4.454
 9473TIP3    H228377   6.314   5.770   4.405
 9474TIP3   OH228378   1.240   2.699   2.346
 9474TIP3    H128379   1.212   2.717   2.256
 9474TIP3    H228380   1.313   2.638   2.336
 9475TIP3   OH228381   3.108   4.953   2.543
 9475TIP3    H128382   3.127   4.860   2.529
 9475TIP3    H228383   3.013   4.957   2.547
 9476TIP3   OH228384   6.538   3.003   5.894
 9476TIP3    H128385   6.449   3.036   5.902
 9476TIP3    H228386   6.531   2.909   5.908
 9477TIP3   OH228387   5.262   7.648   0.748
 9477TIP3    H128388   5.325   7.720   0.742
 9477TIP3    H228389   5.274   7.613   0.836
 9478TIP3   OH228390   0.137   0.784   5.075
 9478TIP3    H128391   0.145   0.704   5.126
 9478TIP3    H228392   0.117   0.755   4.986
 9479TIP3   OH228393   7.080   2.282   5.064
 9479TIP3    H128394   7.163   2.329   5.053
 9479TIP3    H228395   7.090   2.234   5.147
 9480TIP3   OH228396   5.268   3.422   3.258
 9480TIP3    H128397   5.191   3.478   3.254
 9480TIP3    H228398   5.312   3.436   3.174
 9481TIP3   OH228399   2.687   7.451   1.313
 9481TIP3    H128400   2.626   7.485   1.378
 9481TIP3    H228401   2.761   7.513   1.315
 9482TIP3   OH228402   2.616   0.063   5.822
 9482TIP3    H128403   2.576   0.105   5.898
 9482TIP3    H228404   2.660   0.134   5.776
 9483TIP3   OH228405   5.515   7.775   2.949
 9483TIP3    H128406   5.441   7.772   2.888
 9483TIP3    H228407   5.516   7.688   2.989
 9484TIP3   OH228408   5.274   0.179   1.420
 9484TIP3    H128409   5.364   0.158   1.446
 9484TIP3    H228410   5.222   0.159   1.498
 9485TIP3   OH228411   5.294   1.665   0.559
 9485TIP3    H128412   5.388   1.672   0.577
 9485TIP3    H228413   5.265   1.755   0.548
 9486TIP3   OH228414   1.019   6.617   3.065
 9486TIP3    H128415   1.056   6.533   3.094
 9486TIP3    H228416   0.924   6.601   3.060
 9487TIP3   OH228417   3.713   2.705   0.411
 9487TIP3    H128418   3.751   2.787   0.443
 9487TIP3    H228419   3.742   2.639   0.475
 9488TIP3   OH228420   6.293   1.859   4.328
 9488TIP3    H128421   6.287   1.954   4.341
 9488TIP3    H228422   6.203   1.832   4.313
 9489TIP3   OH228423   1.181   1.224   6.112
 9489TIP3    H128424   1.207   1.222   6.020
 9489TIP3    H228425   1.188   1.316   6.137
 9490TIP3   OH228426   3.969   5.313   4.938
 9490TIP3    H128427   3.923   5.371   4.999
 9490TIP3    H228428   3.970   5.362   4.855
 9491TIP3   OH228429   1.768   5.596   6.209
 9491TIP3    H128430   1.684   5.571   6.248
 9491TIP3    H228431   1.834   5.561   6.269
 9492TIP3   OH228432   5.992   5.619   1.492
 9492TIP3    H128433   6.047   5.546   1.520
 9492TIP3    H228434   5.906   5.579   1.479
 9493TIP3   OH228435   7.292   3.172   5.239
 9493TIP3    H128436   7.337   3.136   5.163
 9493TIP3    H228437   7.294   3.102   5.304
 9494TIP3   OH228438   4.188   5.504   5.997
 9494TIP3    H128439   4.173   5.510   6.092
 9494TIP3    H228440   4.114   5.452   5.965
 9495TIP3   OH228441   1.272   1.991   3.608
 9495TIP3    H128442   1.194   2.003   3.554
 9495TIP3    H228443   1.238   1.963   3.693
 9496TIP3   OH228444   5.714   0.564   2.106
 9496TIP3    H128445   5.706   0.649   2.149
 9496TIP3    H228446   5.741   0.585   2.017
 9497TIP3   OH228447   3.831   1.603   0.863
 9497TIP3    H128448   3.780   1.577   0.787
 9497TIP3    H228449   3.862   1.691   0.843
 9498TIP3   OH228450   5.780   6.656   4.864
 9498TIP3    H128451   5.763   6.617   4.778
 9498TIP3    H228452   5.693   6.671   4.900
 9499TIP3   OH228453   4.376   3.620   6.555
 9499TIP3    H128454   4.376   3.624   6.651
 9499TIP3    H228455   4.294   3.663   6.530
 9500TIP3   OH228456   4.099   0.566   0.760
 9500TIP3    H128457   4.090   0.546   0.853
 9500TIP3    H228458   4.117   0.481   0.718
 9501TIP3   OH228459   5.216   7.671   6.110
 9501TIP3    H128460   5.247   7.703   6.195
 9501TIP3    H228461   5.157   7.599   6.131
 9502TIP3   OH228462   2.115   4.705   6.348
 9502TIP3    H128463   2.185   4.657   6.392
 9502TIP3    H228464   2.056   4.733   6.419
 9503TIP3   OH228465   6.132   4.163   0.598
 9503TIP3    H128466   6.190   4.220   0.547
 9503TIP3    H228467   6.161   4.074   0.578
 9504TIP3   OH228468   5.341   3.911   1.045
 9504TIP3    H128469   5.319   3.831   1.093
 9504TIP3    H228470   5.257   3.940   1.008
 9505TIP3   OH228471   1.851   4.101   2.936
 9505TIP3    H128472   1.837   4.020   2.887
 9505TIP3    H228473   1.786   4.162   2.901
 9506TIP3   OH228474   4.958   6.845   1.036
 9506TIP3    H128475   4.899   6.918   1.052
 9506TIP3    H228476   5.033   6.884   0.991
 9507TIP3   OH228477   6.931   4.047   4.231
 9507TIP3    H128478   6.949   3.975   4.292
 9507TIP3    H228479   6.882   4.006   4.160
 9508TIP3   OH228480   6.983   2.913   4.695
 9508TIP3    H128481   7.064   2.959   4.717
 9508TIP3    H228482   6.969   2.932   4.603
 9509TIP3   OH228483   0.782   2.436   5.898
 9509TIP3    H128484   0.778   2.520   5.854
 9509TIP3    H228485   0.866   2.437   5.944
 9510TIP3   OH228486   8.070   7.714   5.527
 9510TIP3    H128487   7.997   7.752   5.480
 9510TIP3    H228488   8.071   7.622   5.502
 9511TIP3   OH228489   6.384   6.612   2.101
 9511TIP3    H128490   6.332   6.585   2.025
 9511TIP3    H228491   6.437   6.685   2.069
 9512TIP3   OH228492   4.258   0.233   5.393
 9512TIP3    H128493   4.244   0.313   5.442
 9512TIP3    H228494   4.261   0.261   5.301
 9513TIP3   OH228495   5.942   7.792   5.213
 9513TIP3    H128496   5.876   7.801   5.145
 9513TIP3    H228497   6.005   7.861   5.194
 9514TIP3   OH228498   1.743   5.955   0.610
 9514TIP3    H128499   1.749   6.016   0.536
 9514TIP3    H228500   1.649   5.938   0.619
 9515TIP3   OH228501   7.506   0.492   5.235
 9515TIP3    H128502   7.472   0.403   5.238
 9515TIP3    H228503   7.439   0.542   5.189
 9516TIP3   OH228504   4.507   0.577   3.897
 9516TIP3    H128505   4.540   0.491   3.923
 9516TIP3    H228506   4.545   0.591   3.810
 9517TIP3   OH228507   1.978   4.573   6.138
 9517TIP3    H128508   2.028   4.629   6.197
 9517TIP3    H228509   1.936   4.634   6.077
 9518TIP3   OH228510   6.245   1.181   3.285
 9518TIP3    H128511   6.205   1.145   3.206
 9518TIP3    H228512   6.293   1.107   3.323
 9519TIP3   OH228513   2.362   2.407   1.635
 9519TIP3    H128514   2.389   2.366   1.553
 9519TIP3    H228515   2.442   2.409   1.688
 9520TIP3   OH228516   7.646   6.840   4.793
 9520TIP3    H128517   7.653   6.748   4.770
 9520TIP3    H228518   7.725   6.881   4.758
 9521TIP3   OH228519   1.157   3.026   2.122
 9521TIP3    H128520   1.192   2.966   2.056
 9521TIP3    H228521   1.184   3.113   2.092
 9522TIP3   OH228522   2.410   3.586   5.720
 9522TIP3    H128523   2.447   3.575   5.633
 9522TIP3    H228524   2.324   3.626   5.705
 9523TIP3   OH228525   1.428   6.190   2.099
 9523TIP3    H128526   1.507   6.220   2.144
 9523TIP3    H228527   1.461   6.141   2.024
 9524TIP3   OH228528   1.136   5.113   1.983
 9524TIP3    H128529   1.122   5.206   1.968
 9524TIP3    H228530   1.139   5.075   1.895
 9525TIP3   OH228531   1.935   2.492   0.832
 9525TIP3    H128532   1.872   2.564   0.822
 9525TIP3    H228533   1.890   2.429   0.889
 9526TIP3   OH228534   4.729   5.773   4.806
 9526TIP3    H128535   4.643   5.741   4.832
 9526TIP3    H228536   4.783   5.762   4.884
 9527TIP3   OH228537   3.323   7.069   3.385
 9527TIP3    H128538   3.391   7.134   3.402
 9527TIP3    H228539   3.285   7.050   3.470
 9528TIP3   OH228540   6.730   1.925   2.658
 9528TIP3    H128541   6.685   1.938   2.574
 9528TIP3    H228542   6.659   1.923   2.723
 9529TIP3   OH228543   4.595   3.705   6.387
 9529TIP3    H128544   4.610   3.767   6.458
 9529TIP3    H228545   4.529   3.645   6.421
 9530TIP3   OH228546   7.234   3.364   0.337
 9530TIP3    H128547   7.172   3.433   0.316
 9530TIP3    H228548   7.258   3.327   0.252
 9531TIP3   OH228549   8.011   1.362   5.609
 9531TIP3    H128550   7.956   1.407   5.673
 9531TIP3    H228551   8.068   1.305   5.662
 9532TIP3   OH228552   2.161   7.197   1.153
 9532TIP3    H128553   2.118   7.191   1.068
 9532TIP3    H228554   2.090   7.210   1.215
 9533TIP3   OH228555   2.873   2.617   0.848
 9533TIP3    H128556   2.815   2.552   0.889
 9533TIP3    H228557   2.835   2.631   0.761
 9534TIP3   OH228558   6.292   4.833   5.020
 9534TIP3    H128559   6.286   4.750   4.973
 9534TIP3    H228560   6.206   4.843   5.062
 9535TIP3   OH228561   7.279   3.996   5.960
 9535TIP3    H128562   7.261   4.085   5.990
 9535TIP3    H228563   7.192   3.956   5.950
 9536TIP3   OH228564   4.548   3.322   0.332
 9536TIP3    H128565   4.607   3.375   0.386
 9536TIP3    H228566   4.607   3.267   0.280
 9537TIP3   OH228567   0.384   3.567   4.668
 9537TIP3    H128568   0.432   3.614   4.600
 9537TIP3    H228569   0.295   3.600   4.662
 9538TIP3   OH228570   6.444   0.429   0.638
 9538TIP3    H128571   6.425   0.487   0.712
 9538TIP3    H228572   6.464   0.489   0.566
 9539TIP3   OH228573   6.957   5.432   3.239
 9539TIP3    H128574   6.925   5.345   3.218
 9539TIP3    H228575   6.909   5.490   3.180
 9540TIP3   OH228576   7.586   2.740   5.796
 9540TIP3    H128577   7.599   2.647   5.813
 9540TIP3    H228578   7.532   2.771   5.868
 9541TIP3   OH228579   4.505   0.381   6.318
 9541TIP3    H128580   4.458   0.299   6.337
 9541TIP3    H228581   4.441   0.436   6.273
 9542TIP3   OH228582   7.803   4.941   6.756
 9542TIP3    H128583   7.817   4.972   6.667
 9542TIP3    H228584   7.815   4.846   6.750
 9543TIP3   OH228585   4.174   0.924   5.243
 9543TIP3    H128586   4.094   0.890   5.283
 9543TIP3    H228587   4.227   0.846   5.226
 9544TIP3   OH228588   4.806   6.517   0.935
 9544TIP3    H128589   4.866   6.516   1.009
 9544TIP3    H228590   4.851   6.569   0.868
 9545TIP3   OH228591   0.070   2.844   6.141
 9545TIP3    H128592   0.080   2.815   6.232
 9545TIP3    H228593   0.159   2.844   6.106
 9546TIP3   OH228594   3.007   1.937   5.318
 9546TIP3    H128595   2.993   1.858   5.266
 9546TIP3    H228596   3.042   2.000   5.255
 9547TIP3   OH228597   3.813   6.417   0.884
 9547TIP3    H128598   3.868   6.357   0.934
 9547TIP3    H228599   3.732   6.369   0.869
 9548TIP3   OH228600   2.647   3.632   5.883
 9548TIP3    H128601   2.707   3.557   5.891
 9548TIP3    H228602   2.576   3.600   5.828
 9549TIP3   OH228603   5.757   4.711   4.296
 9549TIP3    H128604   5.676   4.666   4.268
 9549TIP3    H228605   5.773   4.678   4.384
 9550TIP3   OH228606   0.569   1.636   4.159
 9550TIP3    H128607   0.507   1.691   4.110
 9550TIP3    H228608   0.564   1.551   4.115
 9551TIP3   OH228609   3.675   6.369   0.273
 9551TIP3    H128610   3.653   6.449   0.321
 9551TIP3    H228611   3.592   6.321   0.268
 9552TIP3   OH228612   7.553   0.884   6.025
 9552TIP3    H128613   7.491   0.824   5.983
 9552TIP3    H228614   7.502   0.964   6.041
 9553TIP3   OH228615   2.469   3.324   2.200
 9553TIP3    H128616   2.392   3.279   2.233
 9553TIP3    H228617   2.542   3.288   2.251
 9554TIP3   OH228618   3.296   2.088   5.829
 9554TIP3    H128619   3.211   2.065   5.866
 9554TIP3    H228620   3.311   2.178   5.856
 9555TIP3   OH228621   5.868   2.957   1.351
 9555TIP3    H128622   5.805   2.953   1.279
 9555TIP3    H228623   5.817   2.939   1.429
 9556TIP3   OH228624   4.038   7.149   4.761
 9556TIP3    H128625   3.983   7.224   4.783
 9556TIP3    H228626   4.012   7.125   4.672
 9557TIP3   OH228627   0.183   5.999   3.756
 9557TIP3    H128628   0.149   5.996   3.845
 9557TIP3    H228629   0.273   6.032   3.765
 9558TIP3   OH228630   4.560   0.054   4.320
 9558TIP3    H128631   4.545   0.007   4.238
 9558TIP3    H228632   4.656   0.063   4.325
 9559TIP3   OH228633   7.801   4.090   1.897
 9559TIP3    H128634   7.790   4.076   1.991
 9559TIP3    H228635   7.853   4.170   1.891
 9560TIP3   OH228636   0.089   6.234   2.481
 9560TIP3    H128637   0.090   6.323   2.514
 9560TIP3    H228638   0.178   6.202   2.493
 9561TIP3   OH228639   4.405   6.365   0.398
 9561TIP3    H128640   4.442   6.450   0.376
 9561TIP3    H228641   4.333   6.353   0.336
 9562TIP3   OH228642   6.797   5.947   4.915
 9562TIP3    H128643   6.756   5.871   4.875
 9562TIP3    H228644   6.869   5.911   4.966
 9563TIP3   OH228645   4.718   6.146   1.982
 9563TIP3    H128646   4.656   6.074   1.968
 9563TIP3    H228647   4.666   6.214   2.024
 9564TIP3   OH228648   4.262   7.555   1.914
 9564TIP3    H128649   4.230   7.602   1.837
 9564TIP3    H228650   4.347   7.521   1.888
 9565TIP3   OH228651   5.529   3.832   3.879
 9565TIP3    H128652   5.610   3.880   3.896
 9565TIP3    H228653   5.529   3.818   3.784
 9566TIP3   OH228654   3.861   5.178   3.065
 9566TIP3    H128655   3.882   5.099   3.115
 9566TIP3    H228656   3.926   5.242   3.092
 9567TIP3   OH228657   6.356   5.014   3.979
 9567TIP3    H128658   6.286   5.042   3.920
 9567TIP3    H228659   6.310   4.975   4.053
 9568TIP3   OH228660   1.326   1.734   3.501
 9568TIP3    H128661   1.315   1.816   3.550
 9568TIP3    H228662   1.254   1.678   3.531
 9569TIP3   OH228663   1.082   0.101   3.444
 9569TIP3    H128664   1.165   0.127   3.484
 9569TIP3    H228665   1.093   0.008   3.424
 9570TIP3   OH228666   0.286   0.549   3.336
 9570TIP3    H128667   0.215   0.613   3.334
 9570TIP3    H228668   0.278   0.501   3.254
 9571TIP3   OH228669   6.302   2.416   4.901
 9571TIP3    H128670   6.375   2.458   4.855
 9571TIP3    H228671   6.343   2.352   4.959
 9572TIP3   OH228672   4.900   5.263   2.723
 9572TIP3    H128673   4.814   5.300   2.744
 9572TIP3    H228674   4.909   5.189   2.784
 9573TIP3   OH228675   7.625   0.972   4.691
 9573TIP3    H128676   7.557   1.001   4.630
 9573TIP3    H228677   7.588   0.894   4.732
 9574TIP3   OH228678   6.400   0.059   1.819
 9574TIP3    H128679   6.452   0.086   1.895
 9574TIP3    H228680   6.336  -0.003   1.855
 9575TIP3   OH228681   3.946   7.025   0.180
 9575TIP3    H128682   4.030   7.003   0.140
 9575TIP3    H228683   3.887   7.038   0.105
 9576TIP3   OH228684   6.400   5.098   0.064
 9576TIP3    H128685   6.446   5.170   0.109
 9576TIP3    H228686   6.313   5.097   0.104
 9577TIP3   OH228687   5.614   3.917   0.944
 9577TIP3    H128688   5.611   3.930   1.039
 9577TIP3    H228689   5.575   3.996   0.907
 9578TIP3   OH228690   2.985   2.799   6.652
 9578TIP3    H128691   3.058   2.826   6.597
 9578TIP3    H228692   2.970   2.873   6.710
 9579TIP3   OH228693   5.949   3.114   0.240
 9579TIP3    H128694   5.882   3.046   0.252
 9579TIP3    H228695   5.900   3.189   0.206
 9580TIP3   OH228696   5.016   0.953   1.273
 9580TIP3    H128697   5.085   0.888   1.288
 9580TIP3    H228698   4.936   0.901   1.263
 9581TIP3   OH228699   2.562   7.226   4.127
 9581TIP3    H128700   2.529   7.310   4.094
 9581TIP3    H228701   2.484   7.182   4.163
 9582TIP3   OH228702   3.372   5.210   3.796
 9582TIP3    H128703   3.441   5.264   3.757
 9582TIP3    H228704   3.402   5.120   3.782
 9583TIP3   OH228705   6.366   3.496   2.346
 9583TIP3    H128706   6.344   3.478   2.437
 9583TIP3    H228707   6.281   3.511   2.303
 9584TIP3   OH228708   3.889   3.249   1.488
 9584TIP3    H128709   3.908   3.172   1.542
 9584TIP3    H228710   3.801   3.232   1.453
 9585TIP3   OH228711   7.303   7.161   2.431
 9585TIP3    H128712   7.237   7.221   2.466
 9585TIP3    H228713   7.354   7.215   2.370
 9586TIP3   OH228714   3.715   3.145   6.033
 9586TIP3    H128715   3.731   3.072   6.093
 9586TIP3    H228716   3.802   3.167   5.999
 9587TIP3   OH228717   6.499   5.662   3.651
 9587TIP3    H128718   6.498   5.619   3.566
 9587TIP3    H228719   6.440   5.737   3.640
 9588TIP3   OH228720   0.583   5.445   5.032
 9588TIP3    H128721   0.512   5.485   5.082
 9588TIP3    H228722   0.550   5.359   5.008
 9589TIP3   OH228723   0.132   1.621   1.790
 9589TIP3    H128724   0.221   1.634   1.822
 9589TIP3    H228725   0.089   1.569   1.858
 9590TIP3   OH228726   4.080   1.984   4.572
 9590TIP3    H128727   4.070   1.986   4.476
 9590TIP3    H228728   4.167   1.948   4.586
 9591TIP3   OH228729   0.707   4.647   2.485
 9591TIP3    H128730   0.779   4.634   2.547
 9591TIP3    H228731   0.725   4.584   2.415
 9592TIP3   OH228732   0.784   5.329   5.352
 9592TIP3    H128733   0.725   5.291   5.418
 9592TIP3    H228734   0.787   5.263   5.283
 9593TIP3   OH228735   6.143   5.964   6.264
 9593TIP3    H128736   6.128   6.026   6.336
 9593TIP3    H228737   6.129   6.015   6.185
 9594TIP3   OH228738   0.230   1.771   4.822
 9594TIP3    H128739   0.293   1.752   4.891
 9594TIP3    H228740   0.192   1.856   4.846
 9595TIP3   OH228741   1.235   3.069   5.964
 9595TIP3    H128742   1.170   3.120   5.915
 9595TIP3    H228743   1.190   3.044   6.045
 9596TIP3   OH228744   2.549   4.020   4.055
 9596TIP3    H128745   2.558   4.050   4.146
 9596TIP3    H228746   2.596   3.937   4.052
 9597TIP3   OH228747   1.765   0.048   5.041
 9597TIP3    H128748   1.762   0.100   5.121
 9597TIP3    H228749   1.712   0.097   4.978
 9598TIP3   OH228750   5.179   2.388   4.569
 9598TIP3    H128751   5.220   2.423   4.490
 9598TIP3    H228752   5.248   2.391   4.635
 9599TIP3   OH228753   2.766   3.827   3.099
 9599TIP3    H128754   2.845   3.774   3.092
 9599TIP3    H228755   2.749   3.856   3.010
 9600TIP3   OH228756   0.949   4.191   6.078
 9600TIP3    H128757   0.984   4.113   6.122
 9600TIP3    H228758   0.919   4.247   6.149
 9601TIP3   OH228759   1.250   5.415   5.360
 9601TIP3    H128760   1.189   5.414   5.434
 9601TIP3    H228761   1.194   5.417   5.283
 9602TIP3   OH228762   4.562   5.157   2.132
 9602TIP3    H128763   4.520   5.210   2.199
 9602TIP3    H228764   4.612   5.091   2.180
 9603TIP3   OH228765   5.743   5.628   0.693
 9603TIP3    H128766   5.781   5.573   0.761
 9603TIP3    H228767   5.662   5.662   0.732
 9604TIP3   OH228768   2.164   4.127   2.451
 9604TIP3    H128769   2.197   4.084   2.372
 9604TIP3    H228770   2.195   4.217   2.444
 9605TIP3   OH228771   2.903   7.068   4.219
 9605TIP3    H128772   2.879   7.148   4.267
 9605TIP3    H228773   2.847   7.068   4.142
 9606TIP3   OH228774   3.448   4.078   1.839
 9606TIP3    H128775   3.515   4.010   1.827
 9606TIP3    H228776   3.365   4.032   1.830
 9607TIP3   OH228777   6.093   1.730   2.888
 9607TIP3    H128778   6.184   1.760   2.890
 9607TIP3    H228779   6.097   1.640   2.920
 9608TIP3   OH228780   8.057   0.548   5.648
 9608TIP3    H128781   7.975   0.533   5.695
 9608TIP3    H228782   8.047   0.503   5.565
 9609TIP3   OH228783   6.306   6.729   4.556
 9609TIP3    H128784   6.220   6.765   4.536
 9609TIP3    H228785   6.367   6.801   4.543
 9610TIP3   OH228786   1.774   0.246   1.659
 9610TIP3    H128787   1.710   0.298   1.708
 9610TIP3    H228788   1.819   0.194   1.725
 9611TIP3   OH228789   7.339   2.242   2.361
 9611TIP3    H128790   7.375   2.327   2.384
 9611TIP3    H228791   7.282   2.219   2.435
 9612TIP3   OH228792   7.750   1.972   6.414
 9612TIP3    H128793   7.709   1.889   6.437
 9612TIP3    H228794   7.699   2.039   6.460
 9613TIP3   OH228795   5.252   6.941   1.208
 9613TIP3    H128796   5.215   6.930   1.121
 9613TIP3    H228797   5.281   6.853   1.234
 9614TIP3   OH228798   7.805   0.404   6.638
 9614TIP3    H128799   7.788   0.496   6.658
 9614TIP3    H228800   7.800   0.360   6.723
 9615TIP3   OH228801  -0.023   2.577   6.020
 9615TIP3    H128802   0.021   2.566   5.936
 9615TIP3    H228803   0.013   2.658   6.056
 9616TIP3   OH228804   6.461   7.053   0.696
 9616TIP3    H128805   6.511   6.975   0.674
 9616TIP3    H228806   6.514   7.097   0.762
 9617TIP3   OH228807   4.758   7.496   3.650
 9617TIP3    H128808   4.672   7.499   3.608
 9617TIP3    H228809   4.811   7.557   3.599
 9618TIP3   OH228810   0.526   4.612   5.070
 9618TIP3    H128811   0.433   4.614   5.093
 9618TIP3    H228812   0.565   4.552   5.133
 9619TIP3   OH228813   0.405   7.487   6.222
 9619TIP3    H128814   0.496   7.458   6.233
 9619TIP3    H228815   0.403   7.574   6.263
 9620TIP3   OH228816   8.047   4.629   5.734
 9620TIP3    H128817   8.106   4.680   5.789
 9620TIP3    H228818   7.972   4.687   5.718
 9621TIP3   OH228819   4.096   6.970   5.783
 9621TIP3    H128820   4.022   6.981   5.724
 9621TIP3    H228821   4.089   6.879   5.813
 9622TIP3   OH228822   6.508   5.549   5.564
 9622TIP3    H128823   6.588   5.497   5.573
 9622TIP3    H228824   6.521   5.623   5.624
 9623TIP3   OH228825   3.632   1.963   4.120
 9623TIP3    H128826   3.633   1.867   4.129
 9623TIP3    H228827   3.640   1.995   4.209
 9624TIP3   OH228828   2.272   6.857   2.254
 9624TIP3    H128829   2.222   6.920   2.202
 9624TIP3    H228830   2.337   6.822   2.193
 9625TIP3   OH228831   8.235   4.465   3.175
 9625TIP3    H128832   8.262   4.379   3.207
 9625TIP3    H228833   8.215   4.515   3.254
 9626TIP3   OH228834   5.040   2.966   5.210
 9626TIP3    H128835   5.010   2.939   5.123
 9626TIP3    H228836   5.018   3.059   5.215
 9627TIP3   OH228837   0.548   0.872   1.348
 9627TIP3    H128838   0.584   0.794   1.392
 9627TIP3    H228839   0.614   0.940   1.361
 9628TIP3   OH228840   4.097   0.494   6.615
 9628TIP3    H128841   4.152   0.417   6.628
 9628TIP3    H228842   4.157   0.568   6.625
 9629TIP3   OH228843   6.930   2.270   1.928
 9629TIP3    H128844   6.937   2.203   1.996
 9629TIP3    H228845   6.920   2.352   1.976
 9630TIP3   OH228846   4.199   3.570   4.279
 9630TIP3    H128847   4.135   3.588   4.210
 9630TIP3    H228848   4.147   3.561   4.358
 9631TIP3   OH228849   1.845   7.078   0.593
 9631TIP3    H128850   1.835   7.164   0.553
 9631TIP3    H228851   1.925   7.084   0.645
 9632TIP3   OH228852   1.766   6.360   3.438
 9632TIP3    H128853   1.806   6.444   3.417
 9632TIP3    H228854   1.712   6.377   3.515
 9633TIP3   OH228855   2.440   7.257   5.118
 9633TIP3    H128856   2.437   7.250   5.022
 9633TIP3    H228857   2.380   7.188   5.148
 9634TIP3   OH228858   2.804   0.763   2.134
 9634TIP3    H128859   2.761   0.737   2.052
 9634TIP3    H228860   2.799   0.684   2.188
 9635TIP3   OH228861   3.993   6.187   6.525
 9635TIP3    H128862   3.954   6.100   6.516
 9635TIP3    H228863   3.933   6.245   6.476
 9636TIP3   OH228864   3.415   2.704   5.969
 9636TIP3    H128865   3.496   2.666   6.004
 9636TIP3    H228866   3.428   2.799   5.976
 9637TIP3   OH228867   7.276   6.874   2.891
 9637TIP3    H128868   7.252   6.956   2.932
 9637TIP3    H228869   7.271   6.891   2.797
 9638TIP3   OH228870   2.811   5.840   1.796
 9638TIP3    H128871   2.723   5.874   1.813
 9638TIP3    H228872   2.830   5.866   1.706
 9639TIP3   OH228873   8.256   5.580   0.005
 9639TIP3    H128874   8.172   5.534   0.002
 9639TIP3    H228875   8.231   5.672   0.020
 9640TIP3   OH228876   7.059   7.155   5.063
 9640TIP3    H128877   7.125   7.162   5.132
 9640TIP3    H228878   7.110   7.144   4.983
 9641TIP3   OH228879   2.543   4.928   3.377
 9641TIP3    H128880   2.532   4.989   3.450
 9641TIP3    H228881   2.546   4.842   3.418
 9642TIP3   OH228882   5.451   4.557   1.112
 9642TIP3    H128883   5.458   4.465   1.137
 9642TIP3    H228884   5.484   4.560   1.022
 9643TIP3   OH228885   0.768   1.517   4.317
 9643TIP3    H128886   0.799   1.465   4.243
 9643TIP3    H228887   0.680   1.544   4.292
 9644TIP3   OH228888   3.188   6.509   2.262
 9644TIP3    H128889   3.232   6.425   2.248
 9644TIP3    H228890   3.095   6.487   2.269
 9645TIP3   OH228891   4.485   4.431   4.884
 9645TIP3    H128892   4.452   4.457   4.970
 9645TIP3    H228893   4.575   4.463   4.882
 9646TIP3   OH228894   5.437   2.386   0.380
 9646TIP3    H128895   5.402   2.309   0.334
 9646TIP3    H228896   5.375   2.456   0.360
 9647TIP3   OH228897   5.463   0.167   4.287
 9647TIP3    H128898   5.511   0.245   4.314
 9647TIP3    H228899   5.383   0.168   4.340
 9648TIP3   OH228900   4.169   1.882   6.692
 9648TIP3    H128901   4.183   1.915   6.781
 9648TIP3    H228902   4.109   1.808   6.702
 9649TIP3   OH228903   4.346   7.483   6.111
 9649TIP3    H128904   4.382   7.565   6.075
 9649TIP3    H228905   4.282   7.455   6.045
 9650TIP3   OH228906   7.381   4.713   3.036
 9650TIP3    H128907   7.361   4.755   2.952
 9650TIP3    H228908   7.383   4.619   3.016
 9651TIP3   OH228909   7.058   0.583   3.822
 9651TIP3    H128910   7.114   0.566   3.898
 9651TIP3    H228911   7.067   0.678   3.807
 9652TIP3   OH228912   1.882   1.765   2.432
 9652TIP3    H128913   1.875   1.748   2.526
 9652TIP3    H228914   1.953   1.707   2.403
 9653TIP3   OH228915   6.187   6.207   4.672
 9653TIP3    H128916   6.098   6.173   4.668
 9653TIP3    H228917   6.176   6.302   4.680
 9654TIP3   OH228918   3.102   3.050   3.176
 9654TIP3    H128919   3.122   3.130   3.128
 9654TIP3    H228920   3.076   3.081   3.263
 9655TIP3   OH228921   7.882   6.127   4.900
 9655TIP3    H128922   7.845   6.136   4.812
 9655TIP3    H228923   7.934   6.047   4.895
 9656TIP3   OH228924   7.763   0.825   2.649
 9656TIP3    H128925   7.754   0.817   2.744
 9656TIP3    H228926   7.711   0.753   2.614
 9657TIP3   OH228927   2.191   3.974   4.779
 9657TIP3    H128928   2.154   3.920   4.849
 9657TIP3    H228929   2.282   3.989   4.806
 9658TIP3   OH228930   2.175   4.266   6.717
 9658TIP3    H128931   2.187   4.207   6.792
 9658TIP3    H228932   2.150   4.350   6.757
 9659TIP3   OH228933   8.259   0.395   6.267
 9659TIP3    H128934   8.342   0.427   6.302
 9659TIP3    H228935   8.226   0.468   6.214
 9660TIP3   OH228936   7.475   1.180   3.868
 9660TIP3    H128937   7.447   1.269   3.843
 9660TIP3    H228938   7.558   1.194   3.913
 9661TIP3   OH228939   4.729   2.032   3.712
 9661TIP3    H128940   4.777   1.964   3.758
 9661TIP3    H228941   4.781   2.050   3.633
 9662TIP3   OH228942   0.416   1.277   6.623
 9662TIP3    H128943   0.464   1.206   6.665
 9662TIP3    H228944   0.361   1.313   6.693
 9663TIP3   OH228945   8.165   6.979   3.690
 9663TIP3    H128946   8.182   7.037   3.616
 9663TIP3    H228947   8.098   7.024   3.741
 9664TIP3   OH228948   3.734   4.554   4.179
 9664TIP3    H128949   3.800   4.486   4.163
 9664TIP3    H228950   3.691   4.567   4.095
 9665TIP3   OH228951   4.259   3.757   1.289
 9665TIP3    H128952   4.183   3.768   1.231
 9665TIP3    H228953   4.283   3.665   1.279
 9666TIP3   OH228954   3.764   2.380   1.416
 9666TIP3    H128955   3.671   2.373   1.435
 9666TIP3    H228956   3.788   2.295   1.379
 9667TIP3   OH228957   2.540   5.351   2.778
 9667TIP3    H128958   2.587   5.429   2.748
 9667TIP3    H228959   2.580   5.330   2.862
 9668TIP3   OH228960   0.771   4.167   1.807
 9668TIP3    H128961   0.793   4.098   1.744
 9668TIP3    H228962   0.714   4.227   1.759
 9669TIP3   OH228963   2.637   2.846   3.090
 9669TIP3    H128964   2.649   2.881   3.178
 9669TIP3    H228965   2.712   2.878   3.040
 9670TIP3   OH228966   4.109   3.156   5.536
 9670TIP3    H128967   4.126   3.065   5.514
 9670TIP3    H228968   4.162   3.206   5.473
 9671TIP3   OH228969   7.526   6.181   4.634
 9671TIP3    H128970   7.476   6.102   4.654
 9671TIP3    H228971   7.460   6.244   4.603
 9672TIP3   OH228972   5.696   4.852   1.519
 9672TIP3    H128973   5.784   4.837   1.484
 9672TIP3    H228974   5.637   4.834   1.446
 9673TIP3   OH228975   3.875   1.891   6.420
 9673TIP3    H128976   3.780   1.900   6.432
 9673TIP3    H228977   3.901   1.829   6.489
 9674TIP3   OH228978   4.911   1.567   1.400
 9674TIP3    H128979   4.989   1.620   1.382
 9674TIP3    H228980   4.848   1.592   1.333
 9675TIP3   OH228981   2.596   0.548   5.802
 9675TIP3    H128982   2.691   0.558   5.799
 9675TIP3    H228983   2.574   0.558   5.894
 9676TIP3   OH228984   3.826   5.642   4.599
 9676TIP3    H128985   3.910   5.679   4.570
 9676TIP3    H228986   3.831   5.643   4.695
 9677TIP3   OH228987   1.769   4.456   4.968
 9677TIP3    H128988   1.791   4.548   4.977
 9677TIP3    H228989   1.851   4.413   4.943
 9678TIP3   OH228990   7.101   3.534   3.369
 9678TIP3    H128991   7.043   3.458   3.359
 9678TIP3    H228992   7.170   3.519   3.304
 9679TIP3   OH228993   6.693   3.858   3.517
 9679TIP3    H128994   6.635   3.782   3.530
 9679TIP3    H228995   6.767   3.841   3.575
 9680TIP3   OH228996   4.346   1.507   3.906
 9680TIP3    H128997   4.356   1.414   3.883
 9680TIP3    H228998   4.268   1.535   3.857
 9681TIP3   OH228999   5.680   7.488   4.601
 9681TIP3    H129000   5.695   7.554   4.533
 9681TIP3    H229001   5.595   7.512   4.638
 9682TIP3   OH229002   3.599   7.071   2.346
 9682TIP3    H129003   3.621   6.979   2.336
 9682TIP3    H229004   3.672   7.119   2.308
 9683TIP3   OH229005   4.078   1.856   1.010
 9683TIP3    H129006   4.031   1.848   0.927
 9683TIP3    H229007   4.103   1.948   1.015
 9684TIP3   OH229008   0.576   1.823   2.501
 9684TIP3    H129009   0.523   1.839   2.423
 9684TIP3    H229010   0.511   1.806   2.570
 9685TIP3   OH229011   1.953   0.647   6.133
 9685TIP3    H129012   2.043   0.678   6.127
 9685TIP3    H229013   1.902   0.714   6.088
 9686TIP3   OH229014   5.225   4.674   2.558
 9686TIP3    H129015   5.205   4.748   2.500
 9686TIP3    H229016   5.157   4.677   2.625
 9687TIP3   OH229017   6.447   3.673   4.610
 9687TIP3    H129018   6.362   3.665   4.653
 9687TIP3    H229019   6.471   3.765   4.620
 9688TIP3   OH229020   1.263   0.821   6.251
 9688TIP3    H129021   1.227   0.821   6.162
 9688TIP3    H229022   1.310   0.903   6.258
 9689TIP3   OH229023   0.257   1.806   5.544
 9689TIP3    H129024   0.203   1.811   5.465
 9689TIP3    H229025   0.240   1.718   5.579
 9690TIP3   OH229026   5.264   3.322   2.168
 9690TIP3    H129027   5.170   3.300   2.169
 9690TIP3    H229028   5.307   3.241   2.141
 9691TIP3   OH229029   3.101   3.974   2.184
 9691TIP3    H129030   3.057   4.046   2.231
 9691TIP3    H229031   3.050   3.964   2.104
 9692TIP3   OH229032   7.935   4.121   1.233
 9692TIP3    H129033   7.858   4.160   1.275
 9692TIP3    H229034   7.918   4.131   1.139
 9693TIP3   OH229035   5.386   4.222   1.652
 9693TIP3    H129036   5.337   4.172   1.588
 9693TIP3    H229037   5.444   4.278   1.601
 9694TIP3   OH229038   4.714   5.051   2.353
 9694TIP3    H129039   4.743   4.975   2.404
 9694TIP3    H229040   4.676   5.111   2.418
 9695TIP3   OH229041   3.930   2.883   4.372
 9695TIP3    H129042   3.974   2.820   4.429
 9695TIP3    H229043   3.947   2.968   4.413
 9696TIP3   OH229044   8.255   5.700   5.539
 9696TIP3    H129045   8.274   5.729   5.628
 9696TIP3    H229046   8.275   5.607   5.539
 9697TIP3   OH229047   4.127   4.822   2.997
 9697TIP3    H129048   4.206   4.875   2.985
 9697TIP3    H229049   4.154   4.751   3.055
 9698TIP3   OH229050   0.582   7.296   2.832
 9698TIP3    H129051   0.488   7.283   2.843
 9698TIP3    H229052   0.597   7.291   2.738
 9699TIP3   OH229053   4.854   6.368   6.273
 9699TIP3    H129054   4.901   6.447   6.300
 9699TIP3    H229055   4.771   6.400   6.239
 9700TIP3   OH229056   6.048   3.934   0.186
 9700TIP3    H129057   5.995   3.883   0.247
 9700TIP3    H229058   5.997   4.013   0.170
 9701TIP3   OH229059   0.310   5.617   3.337
 9701TIP3    H129060   0.280   5.708   3.339
 9701TIP3    H229061   0.347   5.602   3.424
 9702TIP3   OH229062   0.227   4.334   2.434
 9702TIP3    H129063   0.246   4.367   2.346
 9702TIP3    H229064   0.142   4.291   2.426
 9703TIP3   OH229065   4.808   3.412   6.683
 9703TIP3    H129066   4.762   3.357   6.619
 9703TIP3    H229067   4.831   3.491   6.634
 9704TIP3   OH229068   3.986   7.836   4.708
 9704TIP3    H129069   3.966   7.792   4.791
 9704TIP3    H229070   3.919   7.805   4.648
 9705TIP3   OH229071   0.744   0.510   6.170
 9705TIP3    H129072   0.815   0.469   6.120
 9705TIP3    H229073   0.737   0.598   6.134
 9706TIP3   OH229074   2.146   7.833   1.693
 9706TIP3    H129075   2.133   7.752   1.742
 9706TIP3    H229076   2.059   7.855   1.659
 9707TIP3   OH229077   4.971   5.513   2.944
 9707TIP3    H129078   5.008   5.428   2.920
 9707TIP3    H229079   4.951   5.555   2.860
 9708TIP3   OH229080   5.597   0.869   5.288
 9708TIP3    H129081   5.507   0.876   5.319
 9708TIP3    H229082   5.651   0.903   5.360
 9709TIP3   OH229083   7.220   7.109   3.025
 9709TIP3    H129084   7.280   7.070   3.089
 9709TIP3    H229085   7.228   7.203   3.038
 9710TIP3   OH229086   2.662   5.501   6.200
 9710TIP3    H129087   2.735   5.563   6.192
 9710TIP3    H229088   2.704   5.415   6.208
 9711TIP3   OH229089   4.410   2.804   0.466
 9711TIP3    H129090   4.455   2.819   0.383
 9711TIP3    H229091   4.479   2.811   0.532
 9712TIP3   OH229092   7.527   4.921   4.100
 9712TIP3    H129093   7.604   4.868   4.121
 9712TIP3    H229094   7.476   4.867   4.040
 9713TIP3   OH229095   4.936   0.321   6.185
 9713TIP3    H129096   4.883   0.337   6.263
 9713TIP3    H229097   4.874   0.320   6.113
 9714TIP3   OH229098   5.842   2.392   0.850
 9714TIP3    H129099   5.872   2.424   0.935
 9714TIP3    H229100   5.871   2.459   0.788
 9715TIP3   OH229101   3.007   0.265   6.591
 9715TIP3    H129102   3.019   0.185   6.540
 9715TIP3    H229103   3.095   0.301   6.603
 9716TIP3   OH229104   7.274   1.066   3.029
 9716TIP3    H129105   7.318   0.984   3.006
 9716TIP3    H229106   7.333   1.135   3.000
 9717TIP3   OH229107   1.979   3.298   6.717
 9717TIP3    H129108   2.064   3.299   6.761
 9717TIP3    H229109   1.983   3.222   6.660
 9718TIP3   OH229110   2.184   0.240   5.407
 9718TIP3    H129111   2.108   0.234   5.465
 9718TIP3    H229112   2.235   0.162   5.427
 9719TIP3   OH229113   4.684   5.621   6.012
 9719TIP3    H129114   4.734   5.539   6.011
 9719TIP3    H229115   4.629   5.616   5.933
 9720TIP3   OH229116   8.066   0.451   3.836
 9720TIP3    H129117   8.051   0.533   3.882
 9720TIP3    H229118   8.153   0.423   3.865
 9721TIP3   OH229119   5.812   5.054   2.004
 9721TIP3    H129120   5.820   5.137   1.957
 9721TIP3    H229121   5.874   4.996   1.961
 9722TIP3   OH229122   2.879   2.125   1.687
 9722TIP3    H129123   2.879   2.067   1.764
 9722TIP3    H229124   2.790   2.119   1.652
 9723TIP3   OH229125   4.822   3.733   1.353
 9723TIP3    H129126   4.791   3.650   1.318
 9723TIP3    H229127   4.875   3.771   1.283
 9724TIP3   OH229128   2.688   4.272   6.342
 9724TIP3    H129129   2.606   4.288   6.388
 9724TIP3    H229130   2.665   4.285   6.249
 9725TIP3   OH229131   4.662   7.210   3.166
 9725TIP3    H129132   4.653   7.222   3.260
 9725TIP3    H229133   4.687   7.296   3.132
 9726TIP3   OH229134   5.935   5.854   1.322
 9726TIP3    H129135   5.946   5.809   1.405
 9726TIP3    H229136   5.899   5.940   1.346
 9727TIP3   OH229137   7.431   1.353   4.557
 9727TIP3    H129138   7.526   1.364   4.548
 9727TIP3    H229139   7.405   1.418   4.622
 9728TIP3   OH229140   5.353   4.511   2.766
 9728TIP3    H129141   5.322   4.560   2.690
 9728TIP3    H229142   5.291   4.438   2.775
 9729TIP3   OH229143   6.816   4.483   3.618
 9729TIP3    H129144   6.824   4.513   3.708
 9729TIP3    H229145   6.889   4.526   3.572
 9730TIP3   OH229146   6.769   0.450   4.825
 9730TIP3    H129147   6.778   0.523   4.764
 9730TIP3    H229148   6.782   0.372   4.771
 9731TIP3   OH229149   2.584   6.331   3.590
 9731TIP3    H129150   2.526   6.265   3.552
 9731TIP3    H229151   2.603   6.299   3.678
 9732TIP3   OH229152   1.991   3.053   3.445
 9732TIP3    H129153   1.931   3.123   3.471
 9732TIP3    H229154   2.001   2.999   3.523
 9733TIP3   OH229155   7.128   2.758   2.131
 9733TIP3    H129156   7.082   2.740   2.213
 9733TIP3    H229157   7.186   2.831   2.152
 9734TIP3   OH229158   5.906   4.274   4.765
 9734TIP3    H129159   5.925   4.208   4.698
 9734TIP3    H229160   5.811   4.287   4.759
 9735TIP3   OH229161   7.104   6.340   0.024
 9735TIP3    H129162   7.167   6.412   0.029
 9735TIP3    H229163   7.062   6.338   0.110
 9736TIP3   OH229164   2.937   5.276   5.397
 9736TIP3    H129165   2.959   5.223   5.321
 9736TIP3    H229166   2.961   5.366   5.372
 9737TIP3   OH229167   2.036   0.909   5.983
 9737TIP3    H129168   2.020   0.935   5.892
 9737TIP3    H229169   2.110   0.848   5.977
 9738TIP3   OH229170   6.240   0.454   5.121
 9738TIP3    H129171   6.186   0.409   5.187
 9738TIP3    H229172   6.301   0.386   5.091
 9739TIP3   OH229173   5.579   0.828   4.340
 9739TIP3    H129174   5.503   0.884   4.347
 9739TIP3    H229175   5.653   0.888   4.332
 9740TIP3   OH229176   6.063   7.425   3.629
 9740TIP3    H129177   6.009   7.485   3.577
 9740TIP3    H229178   6.136   7.478   3.659
 9741TIP3   OH229179   4.958   5.030   3.381
 9741TIP3    H129180   4.978   5.117   3.349
 9741TIP3    H229181   4.938   4.979   3.303
 9742TIP3   OH229182   1.921   0.350   0.322
 9742TIP3    H129183   1.921   0.443   0.345
 9742TIP3    H229184   1.937   0.304   0.404
 9743TIP3   OH229185   0.537   1.978   4.633
 9743TIP3    H129186   0.467   2.018   4.685
 9743TIP3    H229187   0.523   1.884   4.643
 9744TIP3   OH229188   6.237   3.136   5.561
 9744TIP3    H129189   6.294   3.072   5.603
 9744TIP3    H229190   6.181   3.084   5.503
 9745TIP3   OH229191   6.566   4.382   1.433
 9745TIP3    H129192   6.595   4.448   1.496
 9745TIP3    H229193   6.614   4.403   1.353
 9746TIP3   OH229194   2.061   1.638   1.646
 9746TIP3    H129195   2.043   1.651   1.553
 9746TIP3    H229196   2.027   1.550   1.665
 9747TIP3   OH229197   1.458   5.752   2.463
 9747TIP3    H129198   1.495   5.784   2.381
 9747TIP3    H229199   1.534   5.725   2.515
 9748TIP3   OH229200   6.245   3.007   3.612
 9748TIP3    H129201   6.163   3.054   3.596
 9748TIP3    H229202   6.300   3.031   3.537
 9749TIP3   OH229203   0.918   6.622   4.893
 9749TIP3    H129204   0.866   6.702   4.891
 9749TIP3    H229205   0.930   6.599   4.801
 9750TIP3   OH229206   3.750   0.298   6.419
 9750TIP3    H129207   3.762   0.360   6.491
 9750TIP3    H229208   3.820   0.234   6.432
 9751TIP3   OH229209   1.188   2.405   6.252
 9751TIP3    H129210   1.119   2.390   6.317
 9751TIP3    H229211   1.270   2.387   6.298
 9752TIP3   OH229212   2.940   3.407   4.746
 9752TIP3    H129213   2.854   3.424   4.783
 9752TIP3    H229214   2.984   3.492   4.745
 9753TIP3   OH229215   7.094   4.979   0.246
 9753TIP3    H129216   7.087   5.065   0.287
 9753TIP3    H229217   7.058   4.991   0.158
 9754TIP3   OH229218   5.699   7.117   2.564
 9754TIP3    H129219   5.719   7.162   2.646
 9754TIP3    H229220   5.624   7.062   2.585
 9755TIP3   OH229221   5.584   4.670   3.044
 9755TIP3    H129222   5.547   4.679   2.957
 9755TIP3    H229223   5.650   4.739   3.049
 9756TIP3   OH229224   5.948   1.819   3.878
 9756TIP3    H129225   5.917   1.895   3.926
 9756TIP3    H229226   6.021   1.852   3.825
 9757TIP3   OH229227   3.002   2.621   0.428
 9757TIP3    H129228   2.920   2.595   0.470
 9757TIP3    H229229   3.049   2.539   0.413
 9758TIP3   OH229230   3.680   7.528   0.642
 9758TIP3    H129231   3.683   7.446   0.692
 9758TIP3    H229232   3.770   7.560   0.645
 9759TIP3   OH229233   3.493   3.039   5.068
 9759TIP3    H129234   3.463   3.071   4.982
 9759TIP3    H229235   3.443   3.091   5.131
 9760TIP3   OH229236   5.124   4.904   0.584
 9760TIP3    H129237   5.109   4.811   0.599
 9760TIP3    H229238   5.088   4.947   0.662
 9761TIP3   OH229239   7.364   2.091   4.144
 9761TIP3    H129240   7.408   2.053   4.067
 9761TIP3    H229241   7.436   2.127   4.196
 9762TIP3   OH229242   1.597   0.205   3.919
 9762TIP3    H129243   1.664   0.258   3.963
 9762TIP3    H229244   1.635   0.185   3.833
 9763TIP3   OH229245   6.850   4.704   1.345
 9763TIP3    H129246   6.769   4.668   1.307
 9763TIP3    H229247   6.890   4.629   1.390
 9764TIP3   OH229248   5.274   2.792   6.654
 9764TIP3    H129249   5.204   2.840   6.699
 9764TIP3    H229250   5.244   2.701   6.652
 9765TIP3   OH229251   5.213   1.959   1.596
 9765TIP3    H129252   5.142   1.986   1.537
 9765TIP3    H229253   5.293   1.968   1.543
 9766TIP3   OH229254   3.734   0.801   3.771
 9766TIP3    H129255   3.681   0.754   3.707
 9766TIP3    H229256   3.734   0.746   3.848
 9767TIP3   OH229257   0.720   6.053   3.523
 9767TIP3    H129258   0.794   6.012   3.568
 9767TIP3    H229259   0.728   6.146   3.542
 9768TIP3   OH229260   4.919   2.846   4.990
 9768TIP3    H129261   4.927   2.754   5.016
 9768TIP3    H229262   4.832   2.852   4.950
 9769TIP3   OH229263   6.135   3.703   4.780
 9769TIP3    H129264   6.090   3.694   4.864
 9769TIP3    H229265   6.197   3.775   4.794
 9770TIP3   OH229266   8.073   4.384   1.578
 9770TIP3    H129267   8.076   4.395   1.483
 9770TIP3    H229268   8.111   4.298   1.593
 9771TIP3   OH229269   3.818   1.076   3.980
 9771TIP3    H129270   3.744   1.018   3.996
 9771TIP3    H229271   3.815   1.139   4.052
 9772TIP3   OH229272   2.238   6.094   3.851
 9772TIP3    H129273   2.165   6.059   3.799
 9772TIP3    H229274   2.271   6.019   3.900
 9773TIP3   OH229275   4.764   4.384   4.153
 9773TIP3    H129276   4.836   4.341   4.107
 9773TIP3    H229277   4.789   4.381   4.245
 9774TIP3   OH229278   2.103   3.753   3.681
 9774TIP3    H129279   2.175   3.804   3.642
 9774TIP3    H229280   2.132   3.662   3.672
 9775TIP3   OH229281   2.779   1.593   4.340
 9775TIP3    H129282   2.859   1.579   4.391
 9775TIP3    H229283   2.781   1.525   4.272
 9776TIP3   OH229284   3.361   6.207   4.510
 9776TIP3    H129285   3.374   6.189   4.417
 9776TIP3    H229286   3.353   6.121   4.550
 9777TIP3   OH229287   1.800   7.780   4.060
 9777TIP3    H129288   1.860   7.776   3.986
 9777TIP3    H229289   1.720   7.818   4.024
 9778TIP3   OH229290   3.462   4.533   4.211
 9778TIP3    H129291   3.457   4.500   4.121
 9778TIP3    H229292   3.554   4.521   4.236
 9779TIP3   OH229293   8.081   5.378   2.313
 9779TIP3    H129294   8.087   5.340   2.226
 9779TIP3    H229295   8.113   5.468   2.302
 9780TIP3   OH229296   0.757   5.821   6.225
 9780TIP3    H129297   0.687   5.806   6.288
 9780TIP3    H229298   0.712   5.831   6.141
 9781TIP3   OH229299   6.591   7.690   1.241
 9781TIP3    H129300   6.505   7.680   1.201
 9781TIP3    H229301   6.652   7.663   1.172
 9782TIP3   OH229302   5.567   5.610   1.794
 9782TIP3    H129303   5.606   5.624   1.707
 9782TIP3    H229304   5.626   5.655   1.854
 9783TIP3   OH229305   6.325   4.147   5.942
 9783TIP3    H129306   6.395   4.094   5.981
 9783TIP3    H229307   6.361   4.235   5.939
 9784TIP3   OH229308   6.177   6.993   0.711
 9784TIP3    H129309   6.147   7.023   0.797
 9784TIP3    H229310   6.269   7.020   0.707
 9785TIP3   OH229311   5.163   0.719   0.992
 9785TIP3    H129312   5.186   0.630   1.019
 9785TIP3    H229313   5.220   0.775   1.045
 9786TIP3   OH229314   5.265   4.697   1.230
 9786TIP3    H129315   5.328   4.643   1.182
 9786TIP3    H229316   5.313   4.777   1.251
 9787TIP3   OH229317   4.136   2.472   6.611
 9787TIP3    H129318   4.202   2.488   6.679
 9787TIP3    H229319   4.076   2.409   6.651
 9788TIP3   OH229320   3.949   4.114   6.738
 9788TIP3    H129321   3.943   4.047   6.806
 9788TIP3    H229322   3.995   4.071   6.666
 9789TIP3   OH229323   2.104   0.695   2.292
 9789TIP3    H129324   2.059   0.689   2.207
 9789TIP3    H229325   2.094   0.787   2.318
 9790TIP3   OH229326   6.404   5.951   2.929
 9790TIP3    H129327   6.496   5.958   2.954
 9790TIP3    H229328   6.377   6.041   2.910
 9791TIP3   OH229329   1.503   6.934   3.929
 9791TIP3    H129330   1.521   6.905   4.019
 9791TIP3    H229331   1.408   6.935   3.923
 9792TIP3   OH229332   1.276   6.587   3.579
 9792TIP3    H129333   1.265   6.585   3.484
 9792TIP3    H229334   1.347   6.650   3.593
 9793TIP3   OH229335   7.690   2.683   2.339
 9793TIP3    H129336   7.692   2.600   2.290
 9793TIP3    H229337   7.776   2.722   2.323
 9794TIP3   OH229338   7.775   1.365   0.468
 9794TIP3    H129339   7.709   1.421   0.509
 9794TIP3    H229340   7.753   1.276   0.498
 9795TIP3   OH229341   2.184   4.508   3.268
 9795TIP3    H129342   2.139   4.436   3.313
 9795TIP3    H229343   2.275   4.501   3.296
 9796TIP3   OH229344   0.650   7.631   6.086
 9796TIP3    H129345   0.662   7.666   5.997
 9796TIP3    H229346   0.735   7.592   6.107
 9797TIP3   OH229347   2.963   1.472   5.312
 9797TIP3    H129348   2.988   1.392   5.359
 9797TIP3    H229349   2.967   1.447   5.219
 9798TIP3   OH229350   8.088   5.478   0.547
 9798TIP3    H129351   8.156   5.495   0.482
 9798TIP3    H229352   8.098   5.385   0.569
 9799TIP3   OH229353   4.122   3.024   2.904
 9799TIP3    H129354   4.176   2.956   2.863
 9799TIP3    H229355   4.071   3.060   2.831
 9800TIP3   OH229356   0.273   0.691   5.794
 9800TIP3    H129357   0.331   0.616   5.806
 9800TIP3    H229358   0.274   0.707   5.700
 9801TIP3   OH229359   8.251   5.533   2.700
 9801TIP3    H129360   8.322   5.504   2.758
 9801TIP3    H229361   8.197   5.590   2.754
 9802TIP3   OH229362   7.914   6.326   6.396
 9802TIP3    H129363   7.873   6.299   6.478
 9802TIP3    H229364   7.992   6.272   6.389
 9803TIP3   OH229365   6.909   6.948   1.098
 9803TIP3    H129366   6.852   6.900   1.158
 9803TIP3    H229367   6.954   7.012   1.153
 9804TIP3   OH229368   6.356   0.320   0.182
 9804TIP3    H129369   6.294   0.353   0.247
 9804TIP3    H229370   6.384   0.235   0.215
 9805TIP3   OH229371   5.818   4.912   0.367
 9805TIP3    H129372   5.913   4.912   0.381
 9805TIP3    H229373   5.781   4.890   0.452
 9806TIP3   OH229374   3.656   2.885   4.038
 9806TIP3    H129375   3.746   2.891   4.007
 9806TIP3    H229376   3.620   2.809   3.992
 9807TIP3   OH229377   2.141   1.825   4.833
 9807TIP3    H129378   2.110   1.855   4.918
 9807TIP3    H229379   2.093   1.743   4.817
 9808TIP3   OH229380   0.279   0.310   6.623
 9808TIP3    H129381   0.356   0.365   6.626
 9808TIP3    H229382   0.302   0.233   6.675
 9809TIP3   OH229383   1.893   6.324   1.981
 9809TIP3    H129384   1.838   6.290   1.910
 9809TIP3    H229385   1.878   6.419   1.980
 9810TIP3   OH229386   7.337   4.421   5.885
 9810TIP3    H129387   7.428   4.391   5.887
 9810TIP3    H229388   7.285   4.340   5.878
 9811TIP3   OH229389   4.817   1.701   5.377
 9811TIP3    H129390   4.866   1.689   5.459
 9811TIP3    H229391   4.735   1.743   5.404
 9812TIP3   OH229392   7.975   5.487   0.091
 9812TIP3    H129393   7.890   5.468   0.052
 9812TIP3    H229394   7.978   5.432   0.169
 9813TIP3   OH229395   7.488   1.598   5.030
 9813TIP3    H129396   7.522   1.521   5.076
 9813TIP3    H229397   7.560   1.624   4.971
 9814TIP3   OH229398   0.489   1.420   1.164
 9814TIP3    H129399   0.552   1.484   1.133
 9814TIP3    H229400   0.406   1.445   1.121
 9815TIP3   OH229401   3.172   5.224   2.559
 9815TIP3    H129402   3.146   5.132   2.546
 9815TIP3    H229403   3.218   5.224   2.643
 9816TIP3   OH229404   7.076   3.627   6.762
 9816TIP3    H129405   7.076   3.575   6.682
 9816TIP3    H229406   7.121   3.573   6.826
 9817TIP3   OH229407   7.252   0.849   1.663
 9817TIP3    H129408   7.253   0.941   1.690
 9817TIP3    H229409   7.216   0.802   1.739
 9818TIP3   OH229410   2.723   7.733   4.230
 9818TIP3    H129411   2.722   7.739   4.135
 9818TIP3    H229412   2.731   7.824   4.260
 9819TIP3   OH229413   4.250   3.715   5.781
 9819TIP3    H129414   4.205   3.631   5.782
 9819TIP3    H229415   4.280   3.727   5.871
 9820TIP3   OH229416   0.548   6.863   0.182
 9820TIP3    H129417   0.560   6.776   0.143
 9820TIP3    H229418   0.455   6.867   0.204
 9821TIP3   OH229419   2.904   4.021  -0.004
 9821TIP3    H129420   2.909   3.989   0.086
 9821TIP3    H229421   2.851   4.101   0.002
 9822TIP3   OH229422   0.892   3.088   4.457
 9822TIP3    H129423   0.892   3.184   4.453
 9822TIP3    H229424   0.831   3.067   4.527
 9823TIP3   OH229425   7.679   0.398   4.190
 9823TIP3    H129426   7.719   0.480   4.217
 9823TIP3    H229427   7.707   0.335   4.256
 9824TIP3   OH229428   4.813   4.201   5.039
 9824TIP3    H129429   4.729   4.248   5.037
 9824TIP3    H229430   4.789   4.111   5.062
 9825TIP3   OH229431   4.462   0.091   5.508
 9825TIP3    H129432   4.417   0.013   5.540
 9825TIP3    H229433   4.406   0.125   5.438
 9826TIP3   OH229434   1.516   2.267   3.784
 9826TIP3    H129435   1.472   2.239   3.703
 9826TIP3    H229436   1.524   2.362   3.774
 9827TIP3   OH229437   2.671   4.003   5.700
 9827TIP3    H129438   2.767   4.000   5.693
 9827TIP3    H229439   2.649   4.096   5.697
 9828TIP3   OH229440   4.054   0.454   5.242
 9828TIP3    H129441   3.969   0.444   5.284
 9828TIP3    H229442   4.065   0.375   5.190
 9829TIP3   OH229443   2.136   5.440   0.427
 9829TIP3    H129444   2.225   5.474   0.436
 9829TIP3    H229445   2.080   5.515   0.447
 9830TIP3   OH229446   6.948   7.644   2.554
 9830TIP3    H129447   6.905   7.583   2.614
 9830TIP3    H229448   7.035   7.606   2.541
 9831TIP3   OH229449   3.999   4.901   6.434
 9831TIP3    H129450   3.979   4.994   6.421
 9831TIP3    H229451   4.087   4.891   6.397
 9832TIP3   OH229452   1.632   7.077   3.364
 9832TIP3    H129453   1.708   7.113   3.408
 9832TIP3    H229454   1.662   6.995   3.325
 9833TIP3   OH229455   6.668   4.157   5.508
 9833TIP3    H129456   6.592   4.184   5.559
 9833TIP3    H229457   6.680   4.064   5.529
 9834TIP3   OH229458   6.719   5.391   3.436
 9834TIP3    H129459   6.767   5.474   3.434
 9834TIP3    H229460   6.628   5.415   3.418
 9835TIP3   OH229461   3.484   6.043   5.933
 9835TIP3    H129462   3.435   6.111   5.979
 9835TIP3    H229463   3.418   5.978   5.910
 9836TIP3   OH229464   4.151   5.323   0.368
 9836TIP3    H129465   4.232   5.288   0.331
 9836TIP3    H229466   4.173   5.343   0.459
 9837TIP3   OH229467   6.877   3.964   5.380
 9837TIP3    H129468   6.810   3.982   5.446
 9837TIP3    H229469   6.900   3.872   5.393
 9838TIP3   OH229470   5.266   1.693   2.264
 9838TIP3    H129471   5.251   1.782   2.232
 9838TIP3    H229472   5.358   1.693   2.291
 9839TIP3   OH229473   7.114   6.977   6.065
 9839TIP3    H129474   7.031   6.971   6.112
 9839TIP3    H229475   7.100   7.045   5.999
 9840TIP3   OH229476   5.754   1.683   3.738
 9840TIP3    H129477   5.727   1.753   3.679
 9840TIP3    H229478   5.829   1.718   3.786
 9841TIP3   OH229479   1.713   4.810   3.824
 9841TIP3    H129480   1.704   4.772   3.737
 9841TIP3    H229481   1.637   4.868   3.833
 9842TIP3   OH229482   5.349   6.623   0.885
 9842TIP3    H129483   5.370   6.637   0.978
 9842TIP3    H229484   5.331   6.530   0.879
 9843TIP3   OH229485   1.373   3.198   2.007
 9843TIP3    H129486   1.333   3.213   2.092
 9843TIP3    H229487   1.413   3.111   2.014
 9844TIP3   OH229488   4.145   1.778   5.615
 9844TIP3    H129489   4.121   1.728   5.694
 9844TIP3    H229490   4.144   1.869   5.644
 9845TIP3   OH229491   0.732   0.751   1.764
 9845TIP3    H129492   0.795   0.741   1.836
 9845TIP3    H229493   0.657   0.795   1.803
 9846TIP3   OH229494   3.963   7.679   4.326
 9846TIP3    H129495   3.990   7.589   4.344
 9846TIP3    H229496   4.033   7.733   4.364
 9847TIP3   OH229497   2.061   4.307   5.543
 9847TIP3    H129498   1.987   4.366   5.556
 9847TIP3    H229499   2.022   4.220   5.535
 9848TIP3   OH229500   1.536   7.458   6.718
 9848TIP3    H129501   1.498   7.399   6.653
 9848TIP3    H229502   1.593   7.516   6.666
 9849TIP3   OH229503   7.521   6.664   3.517
 9849TIP3    H129504   7.496   6.646   3.608
 9849TIP3    H229505   7.598   6.610   3.501
 9850TIP3   OH229506   8.094   3.000   4.468
 9850TIP3    H129507   8.085   2.914   4.427
 9850TIP3    H229508   8.005   3.035   4.470
 9851TIP3   OH229509   0.448   3.585   3.300
 9851TIP3    H129510   0.480   3.495   3.297
 9851TIP3    H229511   0.472   3.617   3.387
 9852TIP3   OH229512   0.623   0.605   6.799
 9852TIP3    H129513   0.570   0.539   6.754
 9852TIP3    H229514   0.642   0.670   6.732
 9853TIP3   OH229515   2.405   6.727   2.737
 9853TIP3    H129516   2.387   6.814   2.703
 9853TIP3    H229517   2.392   6.735   2.832
 9854TIP3   OH229518   4.173   4.637   4.379
 9854TIP3    H129519   4.086   4.600   4.387
 9854TIP3    H229520   4.222   4.574   4.325
 9855TIP3   OH229521   1.534   2.039   4.937
 9855TIP3    H129522   1.490   1.971   4.887
 9855TIP3    H229523   1.475   2.114   4.933
 9856TIP3   OH229524   4.403   3.895   1.731
 9856TIP3    H129525   4.454   3.824   1.692
 9856TIP3    H229526   4.372   3.858   1.814
 9857TIP3   OH229527   0.782   4.762   6.401
 9857TIP3    H129528   0.829   4.726   6.476
 9857TIP3    H229529   0.847   4.763   6.330
 9858TIP3   OH229530   6.969   0.108   3.287
 9858TIP3    H129531   6.879   0.093   3.258
 9858TIP3    H229532   6.962   0.170   3.359
 9859TIP3   OH229533   0.385   6.806   1.185
 9859TIP3    H129534   0.331   6.873   1.143
 9859TIP3    H229535   0.378   6.824   1.279
 9860TIP3   OH229536   2.521   6.940   1.184
 9860TIP3    H129537   2.550   7.032   1.185
 9860TIP3    H229538   2.441   6.940   1.237
 9861TIP3   OH229539   3.923   1.904   0.071
 9861TIP3    H129540   3.880   1.892   0.155
 9861TIP3    H229541   3.864   1.961   0.021
 9862TIP3   OH229542   6.777   7.318   0.733
 9862TIP3    H129543   6.872   7.330   0.740
 9862TIP3    H229544   6.763   7.297   0.640
 9863TIP3   OH229545   0.945   6.080   0.358
 9863TIP3    H129546   0.989   6.164   0.376
 9863TIP3    H229547   0.870   6.080   0.417
 9864TIP3   OH229548   2.268   7.006   5.400
 9864TIP3    H129549   2.238   6.976   5.314
 9864TIP3    H229550   2.188   7.033   5.445
 9865TIP3   OH229551   0.815   5.302   0.848
 9865TIP3    H129552   0.820   5.373   0.784
 9865TIP3    H229553   0.849   5.226   0.802
 9866TIP3   OH229554   7.886   7.629   3.654
 9866TIP3    H129555   7.885   7.721   3.629
 9866TIP3    H229556   7.796   7.599   3.640
 9867TIP3   OH229557   6.431   7.635   6.212
 9867TIP3    H129558   6.518   7.601   6.234
 9867TIP3    H229559   6.388   7.644   6.297
 9868TIP3   OH229560   4.602   5.617   2.651
 9868TIP3    H129561   4.556   5.691   2.690
 9868TIP3    H229562   4.588   5.627   2.556
 9869TIP3   OH229563   5.328   2.309   3.978
 9869TIP3    H129564   5.332   2.215   3.992
 9869TIP3    H229565   5.277   2.342   4.053
 9870TIP3   OH229566   4.232   5.730   6.554
 9870TIP3    H129567   4.244   5.795   6.623
 9870TIP3    H229568   4.307   5.671   6.563
 9871TIP3   OH229569   2.128   2.738   2.974
 9871TIP3    H129570   2.138   2.808   2.910
 9871TIP3    H229571   2.213   2.733   3.017
 9872TIP3   OH229572   4.874   4.045   2.627
 9872TIP3    H129573   4.871   4.004   2.713
 9872TIP3    H229574   4.916   3.980   2.571
 9873TIP3   OH229575   3.479   3.934   2.616
 9873TIP3    H129576   3.470   3.973   2.529
 9873TIP3    H229577   3.538   3.993   2.663
 9874TIP3   OH229578   1.684   0.774   1.778
 9874TIP3    H129579   1.691   0.775   1.683
 9874TIP3    H229580   1.593   0.751   1.795
 9875TIP3   OH229581   3.060   3.753   4.946
 9875TIP3    H129582   3.049   3.671   4.994
 9875TIP3    H229583   3.154   3.759   4.931
 9876TIP3   OH229584   7.712   2.635   1.994
 9876TIP3    H129585   7.792   2.633   1.942
 9876TIP3    H229586   7.681   2.726   1.987
 9877TIP3   OH229587   1.861   7.416   6.138
 9877TIP3    H129588   1.922   7.487   6.118
 9877TIP3    H229589   1.902   7.338   6.099
 9878TIP3   OH229590   0.356   6.545   4.376
 9878TIP3    H129591   0.428   6.581   4.324
 9878TIP3    H229592   0.376   6.452   4.384
 9879TIP3   OH229593   2.265   1.453   0.085
 9879TIP3    H129594   2.354   1.486   0.079
 9879TIP3    H229595   2.265   1.372   0.035
 9880TIP3   OH229596   3.771   5.444   5.147
 9880TIP3    H129597   3.697   5.504   5.142
 9880TIP3    H229598   3.827   5.479   5.216
 9881TIP3   OH229599   1.851   3.889   1.991
 9881TIP3    H129600   1.757   3.895   2.008
 9881TIP3    H229601   1.867   3.796   1.978
 9882TIP3   OH229602   4.361   0.978   5.822
 9882TIP3    H129603   4.420   1.022   5.760
 9882TIP3    H229604   4.408   0.899   5.848
 9883TIP3   OH229605   6.914   1.368   1.137
 9883TIP3    H129606   6.978   1.391   1.205
 9883TIP3    H229607   6.908   1.447   1.083
 9884TIP3   OH229608   4.831   1.195   0.749
 9884TIP3    H129609   4.787   1.268   0.793
 9884TIP3    H229610   4.897   1.238   0.693
 9885TIP3   OH229611   1.848   2.286   5.658
 9885TIP3    H129612   1.846   2.374   5.696
 9885TIP3    H229613   1.902   2.235   5.719
 9886TIP3   OH229614   1.114   4.460   4.712
 9886TIP3    H129615   1.189   4.452   4.653
 9886TIP3    H229616   1.087   4.551   4.704
 9887TIP3   OH229617   8.155   7.479   3.267
 9887TIP3    H129618   8.109   7.528   3.335
 9887TIP3    H229619   8.090   7.416   3.235
 9888TIP3   OH229620   1.460   0.633   3.706
 9888TIP3    H129621   1.410   0.714   3.699
 9888TIP3    H229622   1.397   0.564   3.685
 9889TIP3   OH229623   8.066   0.809   5.472
 9889TIP3    H129624   8.154   0.809   5.434
 9889TIP3    H229625   8.076   0.762   5.555
 9890TIP3   OH229626   2.319   1.273   5.802
 9890TIP3    H129627   2.230   1.281   5.837
 9890TIP3    H229628   2.343   1.181   5.816
 9891TIP3   OH229629   4.634   6.896   1.716
 9891TIP3    H129630   4.616   6.848   1.797
 9891TIP3    H229631   4.606   6.836   1.646
 9892TIP3   OH229632   5.711   0.272   4.987
 9892TIP3    H129633   5.628   0.311   4.961
 9892TIP3    H229634   5.715   0.285   5.082
 9893TIP3   OH229635   1.178   1.601   6.741
 9893TIP3    H129636   1.198   1.586   6.649
 9893TIP3    H229637   1.132   1.522   6.770
 9894TIP3   OH229638   6.143   3.657   3.465
 9894TIP3    H129639   6.192   3.595   3.520
 9894TIP3    H229640   6.088   3.602   3.409
 9895TIP3   OH229641   0.125   6.598   0.647
 9895TIP3    H129642   0.170   6.631   0.725
 9895TIP3    H229643   0.115   6.675   0.591
 9896TIP3   OH229644   0.425   7.622   5.519
 9896TIP3    H129645   0.488   7.564   5.476
 9896TIP3    H229646   0.424   7.594   5.610
 9897TIP3   OH229647   4.277   5.239   2.920
 9897TIP3    H129648   4.222   5.290   2.979
 9897TIP3    H229649   4.295   5.297   2.847
 9898TIP3   OH229650   1.264   5.546   6.047
 9898TIP3    H129651   1.359   5.556   6.040
 9898TIP3    H229652   1.252   5.459   6.085
 9899TIP3   OH229653   1.677   3.020   4.124
 9899TIP3    H129654   1.714   3.096   4.169
 9899TIP3    H229655   1.597   3.000   4.173
 9900TIP3   OH229656   1.599   6.126   4.268
 9900TIP3    H129657   1.617   6.110   4.175
 9900TIP3    H229658   1.658   6.197   4.292
 9901TIP3   OH229659   3.853   5.056   3.434
 9901TIP3    H129660   3.918   5.020   3.374
 9901TIP3    H229661   3.900   5.123   3.484
 9902TIP3   OH229662   0.258   6.044   5.888
 9902TIP3    H129663   0.349   6.067   5.869
 9902TIP3    H229664   0.264   5.961   5.935
 9903TIP3   OH229665   0.271   2.206   3.486
 9903TIP3    H129666   0.363   2.180   3.486
 9903TIP3    H229667   0.226   2.135   3.441
 9904TIP3   OH229668   1.408   5.503   4.787
 9904TIP3    H129669   1.323   5.474   4.822
 9904TIP3    H229670   1.440   5.566   4.852
 9905TIP3   OH229671   1.173   2.421   0.047
 9905TIP3    H129672   1.169   2.356  -0.023
 9905TIP3    H229673   1.088   2.465   0.043
 9906TIP3   OH229674   3.805   3.739   4.854
 9906TIP3    H129675   3.887   3.696   4.880
 9906TIP3    H229676   3.807   3.738   4.758
 9907TIP3   OH229677   3.544   1.641   3.019
 9907TIP3    H129678   3.601   1.642   3.097
 9907TIP3    H229679   3.488   1.718   3.029
 9908TIP3   OH229680   8.109   0.407   2.389
 9908TIP3    H129681   8.046   0.479   2.395
 9908TIP3    H229682   8.122   0.379   2.480
 9909TIP3   OH229683   2.182   6.859   0.775
 9909TIP3    H129684   2.099   6.834   0.815
 9909TIP3    H229685   2.167   6.948   0.742
 9910TIP3   OH229686   6.807   4.024   1.018
 9910TIP3    H129687   6.893   4.063   1.031
 9910TIP3    H229688   6.779   3.998   1.106
 9911TIP3   OH229689   0.386   7.761   2.298
 9911TIP3    H129690   0.371   7.827   2.365
 9911TIP3    H229691   0.437   7.693   2.342
 9912TIP3   OH229692   3.419   0.479   1.924
 9912TIP3    H129693   3.414   0.571   1.951
 9912TIP3    H229694   3.404   0.429   2.005
 9913TIP3   OH229695   3.383   4.130   6.026
 9913TIP3    H129696   3.320   4.067   5.990
 9913TIP3    H229697   3.467   4.084   6.022
 9914TIP3   OH229698   3.402   3.421   4.180
 9914TIP3    H129699   3.361   3.336   4.166
 9914TIP3    H229700   3.496   3.405   4.171
 9915TIP3   OH229701   3.670   7.504   5.064
 9915TIP3    H129702   3.763   7.490   5.043
 9915TIP3    H229703   3.670   7.578   5.123
 9916TIP3   OH229704   0.268   4.893   4.940
 9916TIP3    H129705   0.275   4.825   5.007
 9916TIP3    H229706   0.273   4.975   4.989
 9917TIP3   OH229707   0.235   5.518   1.343
 9917TIP3    H129708   0.293   5.464   1.289
 9917TIP3    H229709   0.281   5.601   1.353
 9918TIP3   OH229710   0.404   1.338   1.799
 9918TIP3    H129711   0.415   1.323   1.705
 9918TIP3    H229712   0.309   1.341   1.812
 9919TIP3   OH229713   1.275   5.504   0.306
 9919TIP3    H129714   1.198   5.468   0.351
 9919TIP3    H229715   1.344   5.440   0.323
 9920TIP3   OH229716   4.056   5.648   2.949
 9920TIP3    H129717   4.019   5.711   2.887
 9920TIP3    H229718   4.149   5.645   2.928
 9921TIP3   OH229719   7.230   7.750   2.545
 9921TIP3    H129720   7.243   7.655   2.544
 9921TIP3    H229721   7.256   7.780   2.458
 9922TIP3   OH229722   6.563   7.504   1.913
 9922TIP3    H129723   6.481   7.524   1.869
 9922TIP3    H229724   6.629   7.505   1.844
 9923TIP3   OH229725   2.013   4.737   1.572
 9923TIP3    H129726   1.940   4.744   1.634
 9923TIP3    H229727   1.991   4.663   1.517
 9924TIP3   OH229728   3.853   4.221   5.878
 9924TIP3    H129729   3.927   4.201   5.822
 9924TIP3    H229730   3.777   4.218   5.819
 9925TIP3   OH229731   5.717   4.239   0.135
 9925TIP3    H129732   5.803   4.200   0.119
 9925TIP3    H229733   5.730   4.333   0.118
 9926TIP3   OH229734   0.883   3.638   4.455
 9926TIP3    H129735   0.921   3.651   4.542
 9926TIP3    H229736   0.959   3.634   4.397
 9927TIP3   OH229737   2.012   4.995   6.082
 9927TIP3    H129738   2.046   4.987   6.171
 9927TIP3    H229739   2.088   5.022   6.030
 9928TIP3   OH229740   1.245   2.006   6.741
 9928TIP3    H129741   1.301   1.931   6.719
 9928TIP3    H229742   1.253   2.014   6.836
 9929TIP3   OH229743   2.629   4.126   0.312
 9929TIP3    H129744   2.609   4.159   0.225
 9929TIP3    H229745   2.723   4.142   0.323
 9930TIP3   OH229746   5.099   3.996   0.935
 9930TIP3    H129747   5.056   4.080   0.916
 9930TIP3    H229748   5.156   3.981   0.859
 9931TIP3   OH229749   3.067   1.733   4.120
 9931TIP3    H129750   2.981   1.765   4.147
 9931TIP3    H229751   3.124   1.750   4.195
 9932TIP3   OH229752   2.975   0.367   1.947
 9932TIP3    H129753   3.017   0.293   1.903
 9932TIP3    H229754   2.999   0.357   2.039
 9933TIP3   OH229755   0.202   0.332   3.600
 9933TIP3    H129756   0.202   0.422   3.633
 9933TIP3    H229757   0.205   0.341   3.505
 9934TIP3   OH229758   0.723   7.737   2.791
 9934TIP3    H129759   0.688   7.809   2.740
 9934TIP3    H229760   0.815   7.731   2.764
 9935TIP3   OH229761   0.732   5.724   3.292
 9935TIP3    H129762   0.650   5.762   3.324
 9935TIP3    H229763   0.764   5.788   3.228
 9936TIP3   OH229764   8.033   5.953   6.379
 9936TIP3    H129765   7.999   5.962   6.290
 9936TIP3    H229766   7.962   5.986   6.435
 9937TIP3   OH229767   1.514   5.085   4.700
 9937TIP3    H129768   1.501   4.991   4.701
 9937TIP3    H229769   1.437   5.119   4.654
 9938TIP3   OH229770   8.029   2.836   3.173
 9938TIP3    H129771   8.059   2.877   3.254
 9938TIP3    H229772   8.014   2.745   3.196
 9939TIP3   OH229773   4.985   0.427   1.845
 9939TIP3    H129774   4.979   0.337   1.814
 9939TIP3    H229775   4.899   0.465   1.828
 9940TIP3   OH229776   4.676   0.703   2.783
 9940TIP3    H129777   4.603   0.652   2.820
 9940TIP3    H229778   4.638   0.747   2.708
 9941TIP3   OH229779   2.373   1.313   2.971
 9941TIP3    H129780   2.398   1.356   3.053
 9941TIP3    H229781   2.449   1.258   2.950
 9942TIP3   OH229782   3.352   2.029   4.616
 9942TIP3    H129783   3.422   2.000   4.675
 9942TIP3    H229784   3.342   2.122   4.636
 9943TIP3   OH229785   6.510   1.858   4.586
 9943TIP3    H129786   6.559   1.826   4.661
 9943TIP3    H229787   6.494   1.780   4.532
 9944TIP3   OH229788   5.422   0.060   5.080
 9944TIP3    H129789   5.392   0.148   5.056
 9944TIP3    H229790   5.381   0.042   5.164
 9945TIP3   OH229791   1.837   1.235   4.107
 9945TIP3    H129792   1.918   1.256   4.062
 9945TIP3    H229793   1.795   1.169   4.052
 9946TIP3   OH229794   2.125   1.037   2.588
 9946TIP3    H129795   2.136   0.967   2.652
 9946TIP3    H229796   2.199   1.096   2.605
 9947TIP3   OH229797   4.563   0.816   0.992
 9947TIP3    H129798   4.556   0.815   1.088
 9947TIP3    H229799   4.531   0.730   0.965
 9948TIP3   OH229800   6.463   6.599   1.402
 9948TIP3    H129801   6.385   6.544   1.403
 9948TIP3    H229802   6.498   6.593   1.491
 9949TIP3   OH229803   7.934   3.756   3.573
 9949TIP3    H129804   7.902   3.733   3.660
 9949TIP3    H229805   7.988   3.834   3.588
 9950TIP3   OH229806   7.714   1.720   3.668
 9950TIP3    H129807   7.635   1.753   3.711
 9950TIP3    H229808   7.698   1.732   3.574
 9951TIP3   OH229809   0.307   5.673   0.912
 9951TIP3    H129810   0.347   5.586   0.906
 9951TIP3    H229811   0.233   5.662   0.972
 9952TIP3   OH229812   2.947   0.819   5.951
 9952TIP3    H129813   2.987   0.811   5.864
 9952TIP3    H229814   2.870   0.874   5.936
 9953TIP3   OH229815   2.201   4.031   0.612
 9953TIP3    H129816   2.107   4.050   0.614
 9953TIP3    H229817   2.213   3.963   0.679
 9954TIP3   OH229818   7.026   5.555   6.714
 9954TIP3    H129819   7.035   5.460   6.706
 9954TIP3    H229820   7.052   5.574   6.804
 9955TIP3   OH229821   6.579   3.018   0.423
 9955TIP3    H129822   6.517   3.081   0.387
 9955TIP3    H229823   6.649   3.072   0.461
 9956TIP3   OH229824   2.713   4.027   4.593
 9956TIP3    H129825   2.765   4.089   4.644
 9956TIP3    H229826   2.743   3.941   4.623
 9957TIP3   OH229827   6.921   2.467   1.196
 9957TIP3    H129828   6.943   2.485   1.287
 9957TIP3    H229829   6.924   2.372   1.189
 9958TIP3   OH229830   4.621   3.879   4.518
 9958TIP3    H129831   4.638   3.969   4.489
 9958TIP3    H229832   4.657   3.824   4.448
 9959TIP3   OH229833   0.867   1.855   5.817
 9959TIP3    H129834   0.886   1.929   5.760
 9959TIP3    H229835   0.775   1.835   5.802
 9960TIP3   OH229836   7.221   2.453   4.758
 9960TIP3    H129837   7.243   2.448   4.665
 9960TIP3    H229838   7.142   2.507   4.761
 9961TIP3   OH229839   2.255   0.410   4.461
 9961TIP3    H129840   2.170   0.381   4.428
 9961TIP3    H229841   2.245   0.412   4.556
 9962TIP3   OH229842   0.223   0.899   0.384
 9962TIP3    H129843   0.148   0.842   0.370
 9962TIP3    H229844   0.188   0.975   0.430
 9963TIP3   OH229845   5.001   6.963   4.127
 9963TIP3    H129846   4.944   6.916   4.067
 9963TIP3    H229847   5.053   6.895   4.169
 9964TIP3   OH229848   4.970   4.224   0.283
 9964TIP3    H129849   4.967   4.313   0.248
 9964TIP3    H229850   4.970   4.168   0.205
 9965TIP3   OH229851   5.203   7.167   5.721
 9965TIP3    H129852   5.158   7.112   5.785
 9965TIP3    H229853   5.136   7.229   5.692
 9966TIP3   OH229854   7.339   5.997   1.188
 9966TIP3    H129855   7.394   6.041   1.253
 9966TIP3    H229856   7.285   5.937   1.239
 9967TIP3   OH229857   4.108   6.458   5.425
 9967TIP3    H129858   4.141   6.491   5.508
 9967TIP3    H229859   4.015   6.442   5.441
 9968TIP3   OH229860   2.068   1.539   3.374
 9968TIP3    H129861   2.065   1.497   3.288
 9968TIP3    H229862   2.091   1.630   3.356
 9969TIP3   OH229863   3.031   2.454   1.226
 9969TIP3    H129864   3.011   2.370   1.267
 9969TIP3    H229865   2.957   2.510   1.248
 9970TIP3   OH229866   1.034   1.562   0.124
 9970TIP3    H129867   1.075   1.485   0.085
 9970TIP3    H229868   1.016   1.621   0.051
 9971TIP3   OH229869   7.451   5.926   4.696
 9971TIP3    H129870   7.374   5.906   4.750
 9971TIP3    H229871   7.522   5.877   4.737
 9972TIP3   OH229872   0.231   7.349   5.222
 9972TIP3    H129873   0.173   7.278   5.197
 9972TIP3    H229874   0.259   7.388   5.139
 9973TIP3   OH229875   7.523   2.801   6.739
 9973TIP3    H129876   7.600   2.751   6.766
 9973TIP3    H229877   7.507   2.773   6.648
 9974TIP3   OH229878   6.696   2.698   4.139
 9974TIP3    H129879   6.641   2.644   4.082
 9974TIP3    H229880   6.708   2.645   4.218
 9975TIP3   OH229881   3.832   2.941   1.088
 9975TIP3    H129882   3.810   2.922   0.997
 9975TIP3    H229883   3.748   2.955   1.132
 9976TIP3   OH229884   6.266   4.460   0.919
 9976TIP3    H129885   6.199   4.403   0.882
 9976TIP3    H229886   6.348   4.416   0.900
 9977TIP3   OH229887   7.377   5.762   6.037
 9977TIP3    H129888   7.336   5.685   6.077
 9977TIP3    H229889   7.469   5.754   6.061
 9978TIP3   OH229890   2.701   6.892   6.020
 9978TIP3    H129891   2.777   6.886   5.963
 9978TIP3    H229892   2.673   6.801   6.033
 9979TIP3   OH229893   2.010   4.327   4.358
 9979TIP3    H129894   2.092   4.341   4.405
 9979TIP3    H229895   1.976   4.246   4.394
 9980TIP3   OH229896   7.593   0.789   1.609
 9980TIP3    H129897   7.528   0.847   1.647
 9980TIP3    H229898   7.657   0.775   1.679
 9981TIP3   OH229899   3.498   0.639   3.917
 9981TIP3    H129900   3.467   0.582   3.846
 9981TIP3    H229901   3.589   0.613   3.931
 9982TIP3   OH229902   0.730   1.415   2.914
 9982TIP3    H129903   0.669   1.418   2.987
 9982TIP3    H229904   0.787   1.340   2.932
 9983TIP3   OH229905   2.561   4.261   5.640
 9983TIP3    H129906   2.514   4.343   5.627
 9983TIP3    H229907   2.620   4.255   5.565
 9984TIP3   OH229908   7.089   6.125   5.314
 9984TIP3    H129909   7.139   6.176   5.378
 9984TIP3    H229910   7.106   6.033   5.338
 9985TIP3   OH229911   1.435   4.959   3.144
 9985TIP3    H129912   1.384   4.925   3.071
 9985TIP3    H229913   1.526   4.948   3.117
 9986TIP3   OH229914   5.791   6.971   3.985
 9986TIP3    H129915   5.779   7.052   4.034
 9986TIP3    H229916   5.801   6.999   3.894
 9987TIP3   OH229917   0.739   6.495   6.515
 9987TIP3    H129918   0.723   6.560   6.447
 9987TIP3    H229919   0.825   6.460   6.495
 9988TIP3   OH229920   1.796   0.905   2.001
 9988TIP3    H129921   1.827   0.834   2.057
 9988TIP3    H229922   1.760   0.860   1.924
 9989TIP3   OH229923   2.862   5.725   6.112
 9989TIP3    H129924   2.916   5.803   6.103
 9989TIP3    H229925   2.886   5.669   6.038
 9990TIP3   OH229926   1.203   4.575   2.189
 9990TIP3    H129927   1.144   4.639   2.231
 9990TIP3    H229928   1.240   4.526   2.262
 9991TIP3   OH229929   3.274   0.417   3.845
 9991TIP3    H129930   3.215   0.345   3.819
 9991TIP3    H229931   3.297   0.397   3.936
 9992TIP3   OH229932   2.575   3.456   0.245
 9992TIP3    H129933   2.591   3.485   0.155
 9992TIP3    H229934   2.585   3.536   0.298
 9993TIP3   OH229935   0.324   3.204   6.053
 9993TIP3    H129936   0.311   3.190   5.959
 9993TIP3    H229937   0.237   3.224   6.087
 9994TIP3   OH229938   7.156   1.162   0.551
 9994TIP3    H129939   7.118   1.120   0.474
 9994TIP3    H229940   7.118   1.251   0.550
 9995TIP3   OH229941   7.460   1.537   1.402
 9995TIP3    H129942   7.406   1.467   1.367
 9995TIP3    H229943   7.478   1.594   1.327
 9996TIP3   OH229944   7.110   2.194   5.315
 9996TIP3    H129945   7.149   2.278   5.337
 9996TIP3    H229946   7.171   2.129   5.352
 9997TIP3   OH229947   4.857   7.244   3.634
 9997TIP3    H129948   4.817   7.328   3.655
 9997TIP3    H229949   4.873   7.203   3.719
 9998TIP3   OH229950   6.373   0.133   2.665
 9998TIP3    H129951   6.464   0.151   2.688
 9998TIP3    H229952   6.338   0.084   2.740
 9999TIP3   OH229953   5.742   3.776   4.642
 9999TIP3    H129954   5.778   3.721   4.572
 9999TIP3    H229955   5.741   3.719   4.719
10000TIP3   OH229956   3.107   2.203   2.167
10000TIP3    H129957   3.097   2.133   2.103
10000TIP3    H229958   3.190   2.245   2.144
10001TIP3   OH229959   1.561   7.239   1.850
10001TIP3    H129960   1.621   7.168   1.826
10001TIP3    H229961   1.474   7.202   1.838
10002TIP3   OH229962   3.975   4.124   6.118
10002TIP3    H129963   3.916   4.131   6.043
10002TIP3    H229964   3.982   4.030   6.134
10003TIP3   OH229965   1.482   5.322   0.347
10003TIP3    H129966   1.545   5.366   0.405
10003TIP3    H229967   1.498   5.361   0.261
10004TIP3   OH229968   4.224   3.497   3.500
10004TIP3    H129969   4.246   3.413   3.460
10004TIP3    H229970   4.306   3.527   3.539
10005TIP3   OH229971   5.266   3.924   4.286
10005TIP3    H129972   5.271   3.879   4.370
10005TIP3    H229973   5.309   4.008   4.301
10006TIP3   OH229974   4.764   0.446   2.034
10006TIP3    H129975   4.836   0.488   2.081
10006TIP3    H229976   4.750   0.502   1.957
10007TIP3   OH229977   2.588   0.951   6.749
10007TIP3    H129978   2.583   0.998   6.832
10007TIP3    H229979   2.536   1.004   6.689
10008TIP3   OH229980   0.567   4.451   0.599
10008TIP3    H129981   0.580   4.404   0.681
10008TIP3    H229982   0.532   4.536   0.626
10009TIP3   OH229983   4.299   0.814   1.197
10009TIP3    H129984   4.386   0.827   1.235
10009TIP3    H229985   4.251   0.767   1.264
10010TIP3   OH229986   0.570   0.547   3.131
10010TIP3    H129987   0.503   0.543   3.063
10010TIP3    H229988   0.522   0.532   3.213
10011TIP3   OH229989   1.099   7.627   6.402
10011TIP3    H129990   1.169   7.577   6.360
10011TIP3    H229991   1.139   7.712   6.422
10012TIP3   OH229992   3.916   4.358   5.458
10012TIP3    H129993   3.965   4.302   5.399
10012TIP3    H229994   3.826   4.324   5.456
10013TIP3   OH229995   2.732   0.398   4.193
10013TIP3    H129996   2.701   0.362   4.110
10013TIP3    H229997   2.657   0.387   4.252
10014TIP3   OH229998   6.427   1.881   5.979
10014TIP3    H129999   6.504   1.927   5.944
10014TIP3    H230000   6.463   1.820   6.043
10015TIP3   OH230001   7.771   6.365   4.970
10015TIP3    H130002   7.684   6.347   4.936
10015TIP3    H230003   7.824   6.290   4.941
10016TIP3   OH230004   5.012   0.498   5.213
10016TIP3    H130005   5.035   0.591   5.218
10016TIP3    H230006   4.948   0.485   5.283
10017TIP3   OH230007   2.399   4.621   5.131
10017TIP3    H130008   2.489   4.655   5.134
10017TIP3    H230009   2.372   4.615   5.222
10018TIP3   OH230010   1.780   3.623   2.084
10018TIP3    H130011   1.829   3.687   2.135
10018TIP3    H230012   1.703   3.603   2.136
10019TIP3   OH230013   0.678   4.028   5.695
10019TIP3    H130014   0.754   4.059   5.744
10019TIP3    H230015   0.706   4.029   5.603
10020TIP3   OH230016   4.670   3.887   6.571
10020TIP3    H130017   4.698   3.968   6.613
10020TIP3    H230018   4.663   3.823   6.642
10021TIP3   OH230019   8.035   6.172   5.763
10021TIP3    H130020   8.020   6.215   5.848
10021TIP3    H230021   8.117   6.210   5.732
10022TIP3   OH230022   5.796   3.360   3.629
10022TIP3    H130023   5.805   3.265   3.635
10022TIP3    H230024   5.884   3.391   3.612
10023TIP3   OH230025   2.058   1.327   2.529
10023TIP3    H130026   2.071   1.243   2.571
10023TIP3    H230027   1.967   1.325   2.499
10024TIP3   OH230028   2.931   0.507   5.740
10024TIP3    H130029   2.926   0.491   5.645
10024TIP3    H230030   3.024   0.518   5.758
10025TIP3   OH230031   6.321   7.259   2.417
10025TIP3    H130032   6.244   7.301   2.381
10025TIP3    H230033   6.376   7.331   2.448
10026TIP3   OH230034   3.345   5.717   1.382
10026TIP3    H130035   3.367   5.625   1.367
10026TIP3    H230036   3.376   5.762   1.304
10027TIP3   OH230037   5.050   2.639   2.529
10027TIP3    H130038   5.090   2.583   2.595
10027TIP3    H230039   5.006   2.579   2.469
10028TIP3   OH230040   7.613   1.021   1.797
10028TIP3    H130041   7.570   1.027   1.712
10028TIP3    H230042   7.551   1.059   1.859
10029TIP3   OH230043   6.149   7.562   0.588
10029TIP3    H130044   6.227   7.606   0.556
10029TIP3    H230045   6.148   7.479   0.540
10030TIP3   OH230046   0.413   2.963   6.619
10030TIP3    H130047   0.419   3.041   6.563
10030TIP3    H230048   0.481   2.976   6.685
10031TIP3   OH230049   6.690   3.428   6.687
10031TIP3    H130050   6.606   3.397   6.721
10031TIP3    H230051   6.755   3.368   6.723
10032TIP3   OH230052   6.448   2.123   6.146
10032TIP3    H130053   6.537   2.140   6.177
10032TIP3    H230054   6.455   2.040   6.099
10033TIP3   OH230055   6.051   7.338   6.492
10033TIP3    H130056   6.017   7.292   6.569
10033TIP3    H230057   6.003   7.420   6.489
10034TIP3   OH230058   1.578   3.519   5.698
10034TIP3    H130059   1.540   3.518   5.785
10034TIP3    H230060   1.663   3.561   5.709
10035TIP3   OH230061   2.256   3.224   3.340
10035TIP3    H130062   2.319   3.281   3.297
10035TIP3    H230063   2.247   3.149   3.281
10036TIP3   OH230064   4.192   0.467   4.555
10036TIP3    H130065   4.109   0.467   4.508
10036TIP3    H230066   4.170   0.441   4.644
10037TIP3   OH230067   7.007   7.710   2.276
10037TIP3    H130068   7.038   7.625   2.244
10037TIP3    H230069   6.976   7.692   2.364
10038TIP3   OH230070   4.194   2.998   5.242
10038TIP3    H130071   4.219   2.974   5.331
10038TIP3    H230072   4.218   2.922   5.189
10039TIP3   OH230073   5.477   2.981   3.805
10039TIP3    H130074   5.411   2.943   3.862
10039TIP3    H230075   5.466   3.076   3.815
10040TIP3   OH230076   6.785   4.262   2.416
10040TIP3    H130077   6.812   4.250   2.507
10040TIP3    H230078   6.691   4.276   2.420
10041TIP3   OH230079   5.539   1.717   3.340
10041TIP3    H130080   5.478   1.780   3.302
10041TIP3    H230081   5.562   1.660   3.267
10042TIP3   OH230082   7.395   0.475   2.076
10042TIP3    H130083   7.424   0.384   2.081
10042TIP3    H230084   7.326   0.482   2.142
10043TIP3   OH230085   5.871   0.592   6.704
10043TIP3    H130086   5.963   0.618   6.696
10043TIP3    H230087   5.827   0.639   6.633
10044TIP3   OH230088   7.166   1.898   5.179
10044TIP3    H130089   7.214   1.980   5.191
10044TIP3    H230090   7.148   1.895   5.085
10045TIP3   OH230091   5.154   6.219   5.709
10045TIP3    H130092   5.095   6.281   5.752
10045TIP3    H230093   5.194   6.270   5.638
10046TIP3   OH230094   0.470   0.054   2.310
10046TIP3    H130095   0.540   0.116   2.289
10046TIP3    H230096   0.476  -0.013   2.242
10047TIP3   OH230097   1.406   0.103   2.635
10047TIP3    H130098   1.412   0.154   2.554
10047TIP3    H230099   1.437   0.015   2.611
10048TIP3   OH230100   3.948   0.552   4.729
10048TIP3    H130101   3.899   0.490   4.784
10048TIP3    H230102   4.033   0.559   4.772
10049TIP3   OH230103   5.065   0.420   4.039
10049TIP3    H130104   5.100   0.443   3.953
10049TIP3    H230105   5.135   0.370   4.081
10050TIP3   OH230106   3.326   3.788   2.099
10050TIP3    H130107   3.266   3.862   2.103
10050TIP3    H230108   3.280   3.723   2.046
10051TIP3   OH230109   4.422   3.229   0.574
10051TIP3    H130110   4.444   3.278   0.495
10051TIP3    H230111   4.369   3.289   0.626
10052TIP3   OH230112   2.290   6.786   1.834
10052TIP3    H130113   2.291   6.877   1.806
10052TIP3    H230114   2.256   6.739   1.758
10053TIP3   OH230115   5.482   5.837   6.777
10053TIP3    H130116   5.434   5.841   6.694
10053TIP3    H230117   5.572   5.814   6.752
10054TIP3   OH230118   4.451   5.592   4.631
10054TIP3    H130119   4.463   5.629   4.719
10054TIP3    H230120   4.540   5.586   4.596
10055TIP3   OH230121   2.219   2.023   1.641
10055TIP3    H130122   2.143   2.046   1.587
10055TIP3    H230123   2.280   2.096   1.631
10056TIP3   OH230124   6.937   7.690   0.501
10056TIP3    H130125   6.850   7.706   0.536
10056TIP3    H230126   6.958   7.769   0.451
10057TIP3   OH230127   2.903   0.900   5.371
10057TIP3    H130128   2.892   0.894   5.466
10057TIP3    H230129   2.926   0.991   5.355
10058TIP3   OH230130   0.194   3.370   5.162
10058TIP3    H130131   0.224   3.401   5.077
10058TIP3    H230132   0.113   3.419   5.179
10059TIP3   OH230133   5.509   7.172   1.757
10059TIP3    H130134   5.570   7.100   1.774
10059TIP3    H230135   5.486   7.163   1.664
10060TIP3   OH230136   5.769   4.565   0.075
10060TIP3    H130137   5.718   4.602   0.148
10060TIP3    H230138   5.720   4.592  -0.003
10061TIP3   OH230139   0.160   2.996   5.484
10061TIP3    H130140   0.158   3.028   5.574
10061TIP3    H230141   0.178   3.074   5.431
10062TIP3   OH230142   0.998   4.749   1.258
10062TIP3    H130143   1.085   4.721   1.228
10062TIP3    H230144   0.967   4.678   1.313
10063TIP3   OH230145   5.969   6.657   5.611
10063TIP3    H130146   5.948   6.729   5.551
10063TIP3    H230147   5.956   6.578   5.559
10064TIP3   OH230148   5.611   6.663   5.389
10064TIP3    H130149   5.523   6.662   5.353
10064TIP3    H230150   5.616   6.582   5.441
10065TIP3   OH230151   0.838   3.858   2.862
10065TIP3    H130152   0.894   3.787   2.830
10065TIP3    H230153   0.860   3.933   2.806
10066TIP3   OH230154   7.209   5.000   3.372
10066TIP3    H130155   7.231   5.081   3.325
10066TIP3    H230156   7.292   4.971   3.409
10067TIP3   OH230157   0.738   7.008   0.928
10067TIP3    H130158   0.709   6.936   0.983
10067TIP3    H230159   0.706   6.987   0.841
10068TIP3   OH230160   1.477   1.912   4.675
10068TIP3    H130161   1.519   1.828   4.658
10068TIP3    H230162   1.548   1.975   4.677
10069TIP3   OH230163   0.827   0.174   5.502
10069TIP3    H130164   0.858   0.196   5.590
10069TIP3    H230165   0.732   0.183   5.508
10070TIP3   OH230166   5.833   0.363   0.993
10070TIP3    H130167   5.781   0.442   1.009
10070TIP3    H230168   5.854   0.367   0.900
10071TIP3   OH230169   3.470   7.111   2.117
10071TIP3    H130170   3.516   7.098   2.200
10071TIP3    H230171   3.383   7.143   2.143
10072TIP3   OH230172   1.040   4.833   2.267
10072TIP3    H130173   1.112   4.895   2.280
10072TIP3    H230174   0.961   4.888   2.265
10073TIP3   OH230175   6.086   0.931   5.889
10073TIP3    H130176   6.118   1.018   5.914
10073TIP3    H230177   6.166   0.881   5.872
10074TIP3   OH230178   2.390   1.599   4.734
10074TIP3    H130179   2.334   1.641   4.799
10074TIP3    H230180   2.455   1.666   4.711
10075TIP3   OH230181   7.849   3.167   0.192
10075TIP3    H130182   7.833   3.116   0.271
10075TIP3    H230183   7.901   3.109   0.136
10076TIP3   OH230184   5.684   1.302   5.247
10076TIP3    H130185   5.714   1.227   5.196
10076TIP3    H230186   5.750   1.370   5.231
10077TIP3   OH230187   4.059   5.950   3.252
10077TIP3    H130188   4.088   6.011   3.319
10077TIP3    H230189   4.079   5.993   3.169
10078TIP3   OH230190   0.838   4.658   3.705
10078TIP3    H130191   0.748   4.666   3.672
10078TIP3    H230192   0.889   4.628   3.630
10079TIP3   OH230193   2.026   3.841   3.065
10079TIP3    H130194   1.966   3.789   3.119
10079TIP3    H230195   1.977   3.859   2.985
10080TIP3   OH230196   3.354   5.198   5.881
10080TIP3    H130197   3.315   5.132   5.823
10080TIP3    H230198   3.280   5.231   5.933
10081TIP3   OH230199   6.629   7.707   4.604
10081TIP3    H130200   6.608   7.692   4.512
10081TIP3    H230201   6.719   7.740   4.603
10082TIP3   OH230202   7.390   7.375   6.740
10082TIP3    H130203   7.390   7.469   6.720
10082TIP3    H230204   7.300   7.358   6.768
10083TIP3   OH230205   3.401   7.794   3.543
10083TIP3    H130206   3.334   7.763   3.604
10083TIP3    H230207   3.371   7.765   3.457
10084TIP3   OH230208   7.107   2.848   5.946
10084TIP3    H130209   7.027   2.890   5.977
10084TIP3    H230210   7.162   2.840   6.024
10085TIP3   OH230211   6.464   7.084   6.030
10085TIP3    H130212   6.449   7.062   5.938
10085TIP3    H230213   6.400   7.153   6.049
10086TIP3   OH230214   0.240   4.256   1.821
10086TIP3    H130215   0.246   4.201   1.743
10086TIP3    H230216   0.263   4.199   1.894
10087TIP3   OH230217   6.339   6.567   3.799
10087TIP3    H130218   6.422   6.602   3.765
10087TIP3    H230219   6.320   6.493   3.742
10088TIP3   OH230220   0.046   0.314   4.755
10088TIP3    H130221   0.113   0.248   4.736
10088TIP3    H230222  -0.008   0.316   4.676
10089TIP3   OH230223   1.031   5.651   2.459
10089TIP3    H130224   1.047   5.560   2.484
10089TIP3    H230225   1.081   5.702   2.523
10090TIP3   OH230226   5.435   4.504   5.389
10090TIP3    H130227   5.477   4.446   5.453
10090TIP3    H230228   5.363   4.451   5.353
10091TIP3   OH230229   3.949   2.217   1.926
10091TIP3    H130230   3.907   2.217   2.011
10091TIP3    H230231   4.040   2.238   1.944
10092TIP3   OH230232   0.513   4.986   3.192
10092TIP3    H130233   0.489   4.975   3.284
10092TIP3    H230234   0.534   4.897   3.162
10093TIP3   OH230235   0.511   0.933   2.879
10093TIP3    H130236   0.594   0.886   2.888
10093TIP3    H230237   0.456   0.874   2.828
10094TIP3   OH230238   0.132   0.722   2.791
10094TIP3    H130239   0.227   0.710   2.789
10094TIP3    H230240   0.120   0.817   2.786
10095TIP3   OH230241   2.972   0.703   3.086
10095TIP3    H130242   3.007   0.756   3.015
10095TIP3    H230243   3.047   0.650   3.115
10096TIP3   OH230244   1.655   4.079   1.070
10096TIP3    H130245   1.736   4.129   1.062
10096TIP3    H230246   1.670   4.000   1.018
10097TIP3   OH230247   6.822   7.703   5.593
10097TIP3    H130248   6.856   7.721   5.681
10097TIP3    H230249   6.734   7.740   5.594
10098TIP3   OH230250   2.230   0.013   1.906
10098TIP3    H130251   2.326   0.012   1.912
10098TIP3    H230252   2.212   0.064   1.827
10099TIP3   OH230253   3.943   0.002   2.625
10099TIP3    H130254   3.920   0.095   2.618
10099TIP3    H230255   3.867  -0.038   2.668
10100TIP3   OH230256   1.129   4.643   2.504
10100TIP3    H130257   1.220   4.629   2.532
10100TIP3    H230258   1.117   4.738   2.507
10101TIP3   OH230259   2.826   1.823   1.470
10101TIP3    H130260   2.738   1.860   1.475
10101TIP3    H230261   2.838   1.779   1.554
10102TIP3   OH230262   3.419   7.031   4.597
10102TIP3    H130263   3.365   6.958   4.566
10102TIP3    H230264   3.368   7.109   4.576
10103TIP3   OH230265   5.615   5.804   1.531
10103TIP3    H130266   5.637   5.860   1.606
10103TIP3    H230267   5.529   5.837   1.502
10104TIP3   OH230268   0.496   6.759   3.977
10104TIP3    H130269   0.547   6.781   4.055
10104TIP3    H230270   0.409   6.736   4.012
10105TIP3   OH230271   1.782   1.975   0.319
10105TIP3    H130272   1.694   1.966   0.354
10105TIP3    H230273   1.838   1.929   0.381
10106TIP3   OH230274   2.204   5.822   0.503
10106TIP3    H130275   2.232   5.792   0.417
10106TIP3    H230276   2.209   5.918   0.498
10107TIP3   OH230277   2.928   7.189   2.348
10107TIP3    H130278   3.010   7.150   2.316
10107TIP3    H230279   2.900   7.246   2.276
10108TIP3   OH230280   4.413   3.433   5.646
10108TIP3    H130281   4.326   3.472   5.655
10108TIP3    H230282   4.397   3.339   5.648
10109TIP3   OH230283   7.508   2.109   3.834
10109TIP3    H130284   7.493   2.056   3.756
10109TIP3    H230285   7.457   2.189   3.820
10110TIP3   OH230286   4.705   0.163   4.838
10110TIP3    H130287   4.670   0.079   4.807
10110TIP3    H230288   4.750   0.141   4.920
10111TIP3   OH230289   4.297   4.566   4.135
10111TIP3    H130290   4.269   4.485   4.092
10111TIP3    H230291   4.280   4.634   4.070
10112TIP3   OH230292   7.483   5.515   0.322
10112TIP3    H130293   7.437   5.434   0.298
10112TIP3    H230294   7.420   5.585   0.304
10113TIP3   OH230295   7.086   0.169   5.235
10113TIP3    H130296   7.010   0.222   5.258
10113TIP3    H230297   7.158   0.232   5.229
10114TIP3   OH230298   3.373   3.651   0.403
10114TIP3    H130299   3.371   3.625   0.495
10114TIP3    H230300   3.340   3.741   0.403
10115TIP3   OH230301   6.049   6.729   3.027
10115TIP3    H130302   6.007   6.747   3.110
10115TIP3    H230303   6.126   6.676   3.049
10116TIP3   OH230304   7.263   5.502   6.133
10116TIP3    H130305   7.276   5.462   6.047
10116TIP3    H230306   7.269   5.429   6.194
10117TIP3   OH230307   0.032   4.756   0.765
10117TIP3    H130308   0.060   4.739   0.855
10117TIP3    H230309   0.009   4.669   0.731
10118TIP3   OH230310   7.848   2.918   4.658
10118TIP3    H130311   7.833   2.832   4.698
10118TIP3    H230312   7.769   2.935   4.607
10119TIP3   OH230313   4.336   6.367   3.140
10119TIP3    H130314   4.409   6.429   3.136
10119TIP3    H230315   4.293   6.385   3.224
10120TIP3   OH230316   7.170   5.420   3.886
10120TIP3    H130317   7.179   5.432   3.981
10120TIP3    H230318   7.089   5.371   3.876
10121TIP3   OH230319   1.156   1.288   4.160
10121TIP3    H130320   1.220   1.284   4.231
10121TIP3    H230321   1.208   1.284   4.080
10122TIP3   OH230322   8.167   0.662   0.537
10122TIP3    H130323   8.220   0.712   0.475
10122TIP3    H230324   8.079   0.662   0.499
10123TIP3   OH230325   3.493   6.533   4.048
10123TIP3    H130326   3.434   6.505   4.118
10123TIP3    H230327   3.520   6.452   4.004
10124TIP3   OH230328   2.439   7.371   2.457
10124TIP3    H130329   2.518   7.415   2.489
10124TIP3    H230330   2.432   7.292   2.511
10125TIP3   OH230331   8.162   3.321   1.435
10125TIP3    H130332   8.120   3.354   1.515
10125TIP3    H230333   8.255   3.319   1.456
10126TIP3   OH230334   1.325   6.458   3.102
10126TIP3    H130335   1.267   6.420   3.036
10126TIP3    H230336   1.318   6.399   3.177
10127TIP3   OH230337   3.239   4.912   5.402
10127TIP3    H130338   3.272   4.990   5.356
10127TIP3    H230339   3.152   4.898   5.365
10128TIP3   OH230340   5.037   3.686   4.793
10128TIP3    H130341   5.127   3.720   4.789
10128TIP3    H230342   5.046   3.598   4.829
10129TIP3   OH230343   7.592   4.367   5.942
10129TIP3    H130344   7.671   4.389   5.992
10129TIP3    H230345   7.599   4.272   5.927
10130TIP3   OH230346   2.316   6.386   6.078
10130TIP3    H130347   2.288   6.297   6.057
10130TIP3    H230348   2.339   6.424   5.993
10131TIP3   OH230349   0.555   4.932   6.427
10131TIP3    H130350   0.567   5.027   6.418
10131TIP3    H230351   0.639   4.894   6.401
10132TIP3   OH230352   7.806   7.589   2.497
10132TIP3    H130353   7.819   7.653   2.427
10132TIP3    H230354   7.880   7.529   2.488
10133TIP3   OH230355   1.081   6.850   5.603
10133TIP3    H130356   1.100   6.771   5.653
10133TIP3    H230357   1.108   6.829   5.514
10134TIP3   OH230358   3.050   4.422   3.462
10134TIP3    H130359   3.145   4.434   3.457
10134TIP3    H230360   3.039   4.328   3.476
10135TIP3   OH230361   6.716   1.771   1.446
10135TIP3    H130362   6.734   1.694   1.391
10135TIP3    H230363   6.635   1.807   1.410
10136TIP3   OH230364   5.745   3.477   0.943
10136TIP3    H130365   5.673   3.515   0.893
10136TIP3    H230366   5.750   3.387   0.912
10137TIP3   OH230367   5.638   2.998   5.023
10137TIP3    H130368   5.547   3.028   5.025
10137TIP3    H230369   5.689   3.074   5.052
10138TIP3   OH230370   6.920   1.324   1.699
10138TIP3    H130371   6.978   1.398   1.719
10138TIP3    H230372   6.954   1.288   1.618
10139TIP3   OH230373   1.631   2.925   2.652
10139TIP3    H130374   1.580   2.989   2.702
10139TIP3    H230375   1.583   2.916   2.569
10140TIP3   OH230376   0.805   2.641   6.640
10140TIP3    H130377   0.849   2.557   6.655
10140TIP3    H230378   0.835   2.669   6.554
10141TIP3   OH230379   1.117   6.450   1.506
10141TIP3    H130380   1.209   6.427   1.500
10141TIP3    H230381   1.110   6.535   1.463
10142TIP3   OH230382   6.933   5.794   2.019
10142TIP3    H130383   6.996   5.834   2.080
10142TIP3    H230384   6.917   5.707   2.055
10143TIP3   OH230385   7.600   3.509   6.139
10143TIP3    H130386   7.616   3.572   6.209
10143TIP3    H230387   7.652   3.433   6.163
10144TIP3   OH230388   4.977   0.375   6.635
10144TIP3    H130389   4.898   0.336   6.598
10144TIP3    H230390   5.045   0.360   6.569
10145TIP3   OH230391   5.977   6.417   1.127
10145TIP3    H130392   5.979   6.330   1.167
10145TIP3    H230393   5.934   6.404   1.043
10146TIP3   OH230394   4.005   0.036   0.265
10146TIP3    H130395   4.012   0.073   0.177
10146TIP3    H230396   3.998   0.112   0.323
10147TIP3   OH230397   1.755   5.439   2.395
10147TIP3    H130398   1.742   5.360   2.447
10147TIP3    H230399   1.688   5.434   2.327
10148TIP3   OH230400   2.247   4.562   1.401
10148TIP3    H130401   2.157   4.530   1.389
10148TIP3    H230402   2.293   4.488   1.440
10149TIP3   OH230403   2.692   0.666   3.040
10149TIP3    H130404   2.765   0.680   3.101
10149TIP3    H230405   2.664   0.576   3.056
10150TIP3   OH230406   0.314   3.121   5.241
10150TIP3    H130407   0.399   3.162   5.224
10150TIP3    H230408   0.250   3.189   5.221
10151TIP3   OH230409   1.542   3.421   3.291
10151TIP3    H130410   1.553   3.407   3.197
10151TIP3    H230411   1.567   3.513   3.305
10152TIP3   OH230412   5.877   0.686   3.814
10152TIP3    H130413   5.840   0.605   3.781
10152TIP3    H230414   5.966   0.688   3.779
10153TIP3   OH230415   4.751   6.520   5.728
10153TIP3    H130416   4.698   6.596   5.753
10153TIP3    H230417   4.808   6.506   5.803
10154TIP3   OH230418   7.239   7.344  -0.005
10154TIP3    H130419   7.335   7.346  -0.010
10154TIP3    H230420   7.218   7.256   0.026
10155TIP3   OH230421   3.236   0.134   1.430
10155TIP3    H130422   3.320   0.094   1.411
10155TIP3    H230423   3.224   0.199   1.361
10156TIP3   OH230424   4.386   5.912   2.365
10156TIP3    H130425   4.451   5.861   2.316
10156TIP3    H230426   4.374   5.992   2.315
10157TIP3   OH230427   6.779   1.298   0.272
10157TIP3    H130428   6.740   1.286   0.359
10157TIP3    H230429   6.712   1.265   0.212
10158TIP3   OH230430   7.072   3.473   4.918
10158TIP3    H130431   7.149   3.421   4.942
10158TIP3    H230432   7.043   3.435   4.835
10159TIP3   OH230433   0.256   2.008   3.105
10159TIP3    H130434   0.300   1.924   3.120
10159TIP3    H230435   0.241   2.042   3.193
10160TIP3   OH230436   5.163   3.514   4.221
10160TIP3    H130437   5.175   3.422   4.245
10160TIP3    H230438   5.207   3.563   4.290
10161TIP3   OH230439   7.377   6.884   6.071
10161TIP3    H130440   7.354   6.795   6.043
10161TIP3    H230441   7.293   6.927   6.086
10162TIP3   OH230442   0.503   0.238   4.888
10162TIP3    H130443   0.577   0.228   4.828
10162TIP3    H230444   0.462   0.151   4.892
10163TIP3   OH230445   1.874   2.438   3.649
10163TIP3    H130446   1.908   2.364   3.599
10163TIP3    H230447   1.813   2.481   3.590
10164TIP3   OH230448   1.450   3.477   0.021
10164TIP3    H130449   1.363   3.487  -0.017
10164TIP3    H230450   1.486   3.565   0.021
10165TIP3   OH230451   3.038   3.406   4.223
10165TIP3    H130452   3.090   3.396   4.302
10165TIP3    H230453   3.033   3.318   4.186
10166TIP3   OH230454   7.905   3.522   1.835
10166TIP3    H130455   7.995   3.491   1.848
10166TIP3    H230456   7.856   3.445   1.807
10167TIP3   OH230457   0.589   7.567   4.556
10167TIP3    H130458   0.654   7.577   4.487
10167TIP3    H230459   0.523   7.510   4.519
10168TIP3   OH230460   5.634   2.002   5.137
10168TIP3    H130461   5.581   1.998   5.057
10168TIP3    H230462   5.660   2.094   5.144
10169TIP3   OH230463   7.223   4.249   2.835
10169TIP3    H130464   7.153   4.192   2.867
10169TIP3    H230465   7.219   4.241   2.740
10170TIP3   OH230466   6.844   1.894   5.307
10170TIP3    H130467   6.804   1.981   5.308
10170TIP3    H230468   6.919   1.904   5.248
10171TIP3   OH230469   1.881   1.301   3.559
10171TIP3    H130470   1.859   1.377   3.506
10171TIP3    H230471   1.955   1.330   3.612
10172TIP3   OH230472   7.936   3.012   2.113
10172TIP3    H130473   8.025   2.977   2.105
10172TIP3    H230474   7.896   2.961   2.183
10173TIP3   OH230475   0.632   7.591   3.209
10173TIP3    H130476   0.548   7.570   3.167
10173TIP3    H230477   0.673   7.506   3.224
10174TIP3   OH230478   7.336   6.647   2.315
10174TIP3    H130479   7.428   6.643   2.343
10174TIP3    H230480   7.338   6.623   2.222
10175TIP3   OH230481   2.865   6.676   2.117
10175TIP3    H130482   2.913   6.593   2.109
10175TIP3    H230483   2.868   6.696   2.210
10176TIP3   OH230484   6.923   3.262   4.452
10176TIP3    H130485   6.908   3.168   4.459
10176TIP3    H230486   6.858   3.293   4.389
10177TIP3   OH230487   2.543   0.747   3.468
10177TIP3    H130488   2.583   0.822   3.425
10177TIP3    H230489   2.449   0.756   3.451
10178TIP3   OH230490   0.868   1.484   1.418
10178TIP3    H130491   0.790   1.429   1.423
10178TIP3    H230492   0.839   1.569   1.452
10179TIP3   OH230493   3.834   2.222   0.817
10179TIP3    H130494   3.761   2.164   0.837
10179TIP3    H230495   3.879   2.234   0.900
10180TIP3   OH230496   6.087   4.206   1.080
10180TIP3    H130497   6.088   4.258   0.999
10180TIP3    H230498   6.162   4.147   1.071
10181TIP3   OH230499   1.244   5.859   4.814
10181TIP3    H130500   1.225   5.939   4.862
10181TIP3    H230501   1.164   5.840   4.765
10182TIP3   OH230502   2.219   4.373   2.361
10182TIP3    H130503   2.229   4.467   2.348
10182TIP3    H230504   2.169   4.344   2.285
10183TIP3   OH230505   2.370   1.282   5.527
10183TIP3    H130506   2.323   1.267   5.609
10183TIP3    H230507   2.352   1.205   5.474
10184TIP3   OH230508   5.404   0.692   4.668
10184TIP3    H130509   5.324   0.655   4.631
10184TIP3    H230510   5.471   0.674   4.603
10185TIP3   OH230511   1.634   6.025   6.544
10185TIP3    H130512   1.641   5.972   6.464
10185TIP3    H230513   1.539   6.032   6.559
10186TIP3   OH230514   1.549   3.906   5.707
10186TIP3    H130515   1.500   3.912   5.790
10186TIP3    H230516   1.617   3.841   5.725
10187TIP3   OH230517   1.923   7.827   0.667
10187TIP3    H130518   1.860   7.805   0.598
10187TIP3    H230519   1.887   7.784   0.745
10188TIP3   OH230520   1.952   0.339   0.619
10188TIP3    H130521   1.947   0.400   0.693
10188TIP3    H230522   2.042   0.307   0.621
10189TIP3   OH230523   5.323   0.892   1.808
10189TIP3    H130524   5.309   0.903   1.902
10189TIP3    H230525   5.343   0.980   1.777
10190TIP3   OH230526   8.114   4.053   2.991
10190TIP3    H130527   8.107   3.959   2.974
10190TIP3    H230528   8.039   4.072   3.048
10191TIP3   OH230529   1.766   1.933   6.254
10191TIP3    H130530   1.693   1.988   6.280
10191TIP3    H230531   1.829   1.993   6.215
10192TIP3   OH230532   8.172   4.240   4.077
10192TIP3    H130533   8.208   4.208   4.160
10192TIP3    H230534   8.152   4.161   4.027
10193TIP3   OH230535   4.565   7.438   4.005
10193TIP3    H130536   4.488   7.490   3.980
10193TIP3    H230537   4.529   7.367   4.058
10194TIP3   OH230538   4.193   1.706   0.517
10194TIP3    H130539   4.170   1.798   0.500
10194TIP3    H230540   4.109   1.661   0.523
10195TIP3   OH230541   0.955   7.747   6.030
10195TIP3    H130542   0.894   7.744   5.957
10195TIP3    H230543   0.973   7.656   6.051
10196TIP3   OH230544   5.697   4.256   3.712
10196TIP3    H130545   5.751   4.189   3.670
10196TIP3    H230546   5.739   4.272   3.796
10197TIP3   OH230547   1.329   5.101   2.777
10197TIP3    H130548   1.243   5.139   2.758
10197TIP3    H230549   1.331   5.092   2.872
10198TIP3   OH230550   3.549   1.397   6.587
10198TIP3    H130551   3.573   1.371   6.676
10198TIP3    H230552   3.589   1.330   6.531
10199TIP3   OH230553   0.578   2.729   1.968
10199TIP3    H130554   0.567   2.804   1.910
10199TIP3    H230555   0.612   2.766   2.049
10200TIP3   OH230556   7.837   0.434   0.495
10200TIP3    H130557   7.750   0.408   0.464
10200TIP3    H230558   7.831   0.529   0.503
10201TIP3   OH230559   6.709   6.130   2.214
10201TIP3    H130560   6.621   6.166   2.222
10201TIP3    H230561   6.697   6.040   2.186
10202TIP3   OH230562   2.144   0.978   3.957
10202TIP3    H130563   2.059   0.935   3.968
10202TIP3    H230564   2.123   1.063   3.918
10203TIP3   OH230565   7.411   0.300   4.282
10203TIP3    H130566   7.352   0.260   4.218
10203TIP3    H230567   7.490   0.322   4.232
10204TIP3   OH230568   4.178   2.545   2.109
10204TIP3    H130569   4.190   2.494   2.029
10204TIP3    H230570   4.223   2.495   2.177
10205TIP3   OH230571   3.581   2.122   1.999
10205TIP3    H130572   3.621   2.190   1.945
10205TIP3    H230573   3.501   2.098   1.951
10206TIP3   OH230574   3.370   0.125   2.181
10206TIP3    H130575   3.316   0.051   2.208
10206TIP3    H230576   3.444   0.123   2.241
10207TIP3   OH230577   4.651   4.148   2.934
10207TIP3    H130578   4.616   4.131   3.022
10207TIP3    H230579   4.638   4.065   2.887
10208TIP3   OH230580   5.736   6.430   6.600
10208TIP3    H130581   5.740   6.526   6.602
10208TIP3    H230582   5.781   6.402   6.679
10209TIP3   OH230583   5.118   0.254   2.568
10209TIP3    H130584   5.129   0.349   2.575
10209TIP3    H230585   5.150   0.233   2.480
10210TIP3   OH230586   0.121   1.450   2.958
10210TIP3    H130587   0.048   1.388   2.962
10210TIP3    H230588   0.170   1.425   2.880
10211TIP3   OH230589   0.924   6.384   6.063
10211TIP3    H130590   1.015   6.377   6.094
10211TIP3    H230591   0.930   6.372   5.968
10212TIP3   OH230592   2.809   3.676   4.472
10212TIP3    H130593   2.793   3.618   4.398
10212TIP3    H230594   2.850   3.753   4.434
10213TIP3   OH230595   4.204   6.294   0.978
10213TIP3    H130596   4.270   6.349   0.935
10213TIP3    H230597   4.125   6.307   0.926
10214TIP3   OH230598   5.079   6.964   5.395
10214TIP3    H130599   5.159   6.994   5.352
10214TIP3    H230600   5.013   6.965   5.325
10215TIP3   OH230601   6.984   5.537   1.389
10215TIP3    H130602   7.071   5.498   1.391
10215TIP3    H230603   6.974   5.568   1.299
10216TIP3   OH230604   2.949   6.493   2.876
10216TIP3    H130605   2.912   6.484   2.964
10216TIP3    H230606   2.904   6.426   2.824
10217TIP3   OH230607   2.382   4.619   6.471
10217TIP3    H130608   2.471   4.654   6.476
10217TIP3    H230609   2.351   4.621   6.562
10218TIP3   OH230610   6.073   1.185   6.727
10218TIP3    H130611   5.997   1.240   6.748
10218TIP3    H230612   6.038   1.096   6.730
10219TIP3   OH230613   2.559   6.821   1.513
10219TIP3    H130614   2.546   6.780   1.428
10219TIP3    H230615   2.577   6.913   1.493
10220TIP3   OH230616   5.975   2.158   6.267
10220TIP3    H130617   6.066   2.146   6.293
10220TIP3    H230618   5.947   2.070   6.239
10221TIP3   OH230619   6.271   6.031   3.238
10221TIP3    H130620   6.363   6.054   3.246
10221TIP3    H230621   6.233   6.053   3.323
10222TIP3   OH230622   3.064   0.271   2.750
10222TIP3    H130623   3.082   0.178   2.764
10222TIP3    H230624   2.968   0.276   2.749
10223TIP3   OH230625   2.472   2.914   2.629
10223TIP3    H130626   2.545   2.866   2.667
10223TIP3    H230627   2.486   3.005   2.655
10224TIP3   OH230628   6.164   2.800   0.938
10224TIP3    H130629   6.225   2.732   0.966
10224TIP3    H230630   6.206   2.882   0.964
10225TIP3   OH230631   0.912   4.070   5.825
10225TIP3    H130632   0.889   3.981   5.852
10225TIP3    H230633   0.912   4.120   5.907
10226TIP3   OH230634   5.895   6.709   0.374
10226TIP3    H130635   5.893   6.654   0.296
10226TIP3    H230636   5.804   6.715   0.401
10227TIP3   OH230637   1.867   6.830   5.164
10227TIP3    H130638   1.903   6.745   5.188
10227TIP3    H230639   1.772   6.818   5.169
10228TIP3   OH230640   6.492   5.645   0.457
10228TIP3    H130641   6.485   5.633   0.362
10228TIP3    H230642   6.585   5.633   0.475
10229TIP3   OH230643   4.973   0.790   3.169
10229TIP3    H130644   4.893   0.747   3.199
10229TIP3    H230645   4.990   0.858   3.235
10230TIP3   OH230646   0.115   2.558   0.125
10230TIP3    H130647   0.137   2.484   0.181
10230TIP3    H230648   0.100   2.520   0.039
10231TIP3   OH230649   5.373   5.052   0.589
10231TIP3    H130650   5.296   4.996   0.579
10231TIP3    H230651   5.340   5.133   0.628
10232TIP3   OH230652   8.141   7.111   5.661
10232TIP3    H130653   8.210   7.177   5.650
10232TIP3    H230654   8.107   7.127   5.749
10233TIP3   OH230655   3.804   2.602   4.386
10233TIP3    H130656   3.888   2.607   4.432
10233TIP3    H230657   3.795   2.688   4.344
10234TIP3   OH230658   2.004   6.087   5.130
10234TIP3    H130659   1.969   6.080   5.218
10234TIP3    H230660   2.009   5.997   5.098
10235TIP3   OH230661   4.716   4.042   5.620
10235TIP3    H130662   4.712   3.985   5.697
10235TIP3    H230663   4.629   4.035   5.581
10236TIP3   OH230664   0.998   7.365   3.035
10236TIP3    H130665   0.959   7.309   3.102
10236TIP3    H230666   0.924   7.398   2.985
10237TIP3   OH230667   2.266   4.193   0.370
10237TIP3    H130668   2.221   4.173   0.452
10237TIP3    H230669   2.296   4.283   0.380
10238TIP3   OH230670   5.296   6.038   0.143
10238TIP3    H130671   5.205   6.066   0.130
10238TIP3    H230672   5.311   5.972   0.075
10239TIP3   OH230673   6.720   2.718   1.245
10239TIP3    H130674   6.692   2.627   1.246
10239TIP3    H230675   6.695   2.750   1.159
10240TIP3   OH230676   1.876   5.914   6.628
10240TIP3    H130677   1.852   5.916   6.721
10240TIP3    H230678   1.798   5.948   6.583
10241TIP3   OH230679   5.195   2.297   5.241
10241TIP3    H130680   5.244   2.215   5.241
10241TIP3    H230681   5.116   2.278   5.292
10242TIP3   OH230682   6.167   6.379   2.161
10242TIP3    H130683   6.183   6.363   2.254
10242TIP3    H230684   6.211   6.462   2.143
10243TIP3   OH230685   3.182   3.147   6.607
10243TIP3    H130686   3.214   3.061   6.633
10243TIP3    H230687   3.220   3.161   6.520
10244TIP3   OH230688   0.715   2.847   5.758
10244TIP3    H130689   0.806   2.875   5.772
10244TIP3    H230690   0.723   2.756   5.729
10245TIP3   OH230691   2.246   5.664   1.998
10245TIP3    H130692   2.233   5.758   1.982
10245TIP3    H230693   2.243   5.656   2.093
10246TIP3   OH230694   4.192   5.914   0.719
10246TIP3    H130695   4.164   5.928   0.628
10246TIP3    H230696   4.109   5.908   0.768
10247TIP3   OH230697   2.236   7.113   2.049
10247TIP3    H130698   2.163   7.095   1.991
10247TIP3    H230699   2.309   7.134   1.990
10248TIP3   OH230700   6.781   5.571   2.091
10248TIP3    H130701   6.743   5.560   2.004
10248TIP3    H230702   6.714   5.540   2.151
10249TIP3   OH230703   0.200   3.293   0.150
10249TIP3    H130704   0.111   3.325   0.137
10249TIP3    H230705   0.248   3.368   0.186
10250TIP3   OH230706   1.811   7.110   2.049
10250TIP3    H130707   1.820   7.079   2.139
10250TIP3    H230708   1.735   7.062   2.015
10251TIP3   OH230709   7.323   4.465   2.089
10251TIP3    H130710   7.338   4.558   2.075
10251TIP3    H230711   7.367   4.446   2.172
10252TIP3   OH230712   3.478   7.367   1.624
10252TIP3    H130713   3.438   7.356   1.710
10252TIP3    H230714   3.532   7.445   1.632
10253TIP3   OH230715   1.362   6.297   5.664
10253TIP3    H130716   1.284   6.242   5.661
10253TIP3    H230717   1.364   6.342   5.579
10254TIP3   OH230718   0.756   3.625   6.286
10254TIP3    H130719   0.836   3.573   6.276
10254TIP3    H230720   0.766   3.667   6.372
10255TIP3   OH230721   4.548   6.030   4.090
10255TIP3    H130722   4.625   5.978   4.068
10255TIP3    H230723   4.583   6.116   4.113
10256TIP3   OH230724   8.077   4.993   6.397
10256TIP3    H130725   8.125   4.995   6.314
10256TIP3    H230726   8.118   5.061   6.450
10257TIP3   OH230727   2.195   4.477   5.345
10257TIP3    H130728   2.150   4.395   5.367
10257TIP3    H230729   2.157   4.542   5.405
10258TIP3   OH230730   7.001   4.101   2.932
10258TIP3    H130731   6.933   4.134   2.990
10258TIP3    H230732   7.041   4.028   2.980
10259TIP3   OH230733   7.492   6.038   2.507
10259TIP3    H130734   7.520   5.950   2.533
10259TIP3    H230735   7.397   6.033   2.503
10260TIP3   OH230736   5.197   4.646   1.602
10260TIP3    H130737   5.161   4.697   1.530
10260TIP3    H230738   5.133   4.577   1.618
10261TIP3   OH230739   3.686   6.117   4.049
10261TIP3    H130740   3.779   6.095   4.052
10261TIP3    H230741   3.677   6.196   4.103
10262TIP3   OH230742   2.464   5.684   2.609
10262TIP3    H130743   2.452   5.597   2.570
10262TIP3    H230744   2.424   5.744   2.546
10263TIP3   OH230745   0.702   5.130   6.640
10263TIP3    H130746   0.663   5.179   6.712
10263TIP3    H230747   0.663   5.169   6.561
10264TIP3   OH230748   1.458   4.081   3.950
10264TIP3    H130749   1.536   4.126   3.918
10264TIP3    H230750   1.415   4.144   4.008
10265TIP3   OH230751   6.633   3.267   1.970
10265TIP3    H130752   6.620   3.283   2.063
10265TIP3    H230753   6.718   3.222   1.965
10266TIP3   OH230754   4.886   5.683   5.010
10266TIP3    H130755   4.914   5.592   5.012
10266TIP3    H230756   4.871   5.705   5.102
10267TIP3   OH230757   1.295   0.235   3.565
10267TIP3    H130758   1.325   0.302   3.504
10267TIP3    H230759   1.290   0.280   3.649
10268TIP3   OH230760   0.589   5.611   0.746
10268TIP3    H130761   0.641   5.581   0.672
10268TIP3    H230762   0.552   5.531   0.783
10269TIP3   OH230763   4.249   5.440   0.586
10269TIP3    H130764   4.172   5.485   0.621
10269TIP3    H230765   4.312   5.510   0.567
10270TIP3   OH230766   6.859   5.609   4.201
10270TIP3    H130767   6.846   5.571   4.288
10270TIP3    H230768   6.952   5.592   4.181
10271TIP3   OH230769   6.941   2.980   4.445
10271TIP3    H130770   6.872   2.912   4.444
10271TIP3    H230771   6.948   3.007   4.354
10272TIP3   OH230772   4.988   5.554   0.348
10272TIP3    H130773   5.011   5.645   0.328
10272TIP3    H230774   4.893   5.551   0.336
10273TIP3   OH230775   4.715   5.840   1.341
10273TIP3    H130776   4.654   5.769   1.323
10273TIP3    H230777   4.770   5.846   1.262
10274TIP3   OH230778   2.965   6.956   0.051
10274TIP3    H130779   3.004   6.872   0.076
10274TIP3    H230780   3.038   7.006   0.014
10275TIP3   OH230781   1.502   6.782   4.543
10275TIP3    H130782   1.487   6.692   4.572
10275TIP3    H230783   1.443   6.834   4.596
10276TIP3   OH230784   7.437   3.236   5.686
10276TIP3    H130785   7.447   3.258   5.593
10276TIP3    H230786   7.495   3.161   5.699
10277TIP3   OH230787   7.169   2.863   3.139
10277TIP3    H130788   7.231   2.933   3.121
10277TIP3    H230789   7.162   2.815   3.056
10278TIP3   OH230790   6.755   6.461   6.246
10278TIP3    H130791   6.696   6.469   6.321
10278TIP3    H230792   6.800   6.377   6.259
10279TIP3   OH230793   4.166   6.705   6.048
10279TIP3    H130794   4.087   6.736   6.003
10279TIP3    H230795   4.212   6.653   5.982
10280TIP3   OH230796   1.633   0.479   5.097
10280TIP3    H130797   1.581   0.534   5.156
10280TIP3    H230798   1.663   0.538   5.028
10281TIP3   OH230799   0.429   4.026   5.172
10281TIP3    H130800   0.436   4.084   5.096
10281TIP3    H230801   0.479   4.069   5.241
10282TIP3   OH230802   4.468   7.497   1.207
10282TIP3    H130803   4.493   7.587   1.225
10282TIP3    H230804   4.375   7.492   1.229
10283TIP3   OH230805   5.180   4.311   2.867
10283TIP3    H130806   5.105   4.279   2.817
10283TIP3    H230807   5.213   4.234   2.914
10284TIP3   OH230808   1.544   3.689   5.141
10284TIP3    H130809   1.615   3.746   5.112
10284TIP3    H230810   1.496   3.741   5.205
10285TIP3   OH230811   0.239   6.119   4.737
10285TIP3    H130812   0.171   6.161   4.790
10285TIP3    H230813   0.234   6.026   4.761
10286TIP3   OH230814   5.823   2.602   3.679
10286TIP3    H130815   5.855   2.673   3.624
10286TIP3    H230816   5.729   2.616   3.685
10287TIP3   OH230817   6.618   5.801   5.646
10287TIP3    H130818   6.578   5.833   5.727
10287TIP3    H230819   6.635   5.880   5.594
10288TIP3   OH230820   8.146   5.825   2.115
10288TIP3    H130821   8.109   5.781   2.038
10288TIP3    H230822   8.200   5.895   2.078
10289TIP3   OH230823   7.278   5.706   1.708
10289TIP3    H130824   7.242   5.618   1.717
10289TIP3    H230825   7.298   5.732   1.798
10290TIP3   OH230826   5.830   5.805   2.920
10290TIP3    H130827   5.910   5.846   2.886
10290TIP3    H230828   5.838   5.713   2.894
10291TIP3   OH230829   3.978   3.561   4.976
10291TIP3    H130830   4.016   3.553   4.889
10291TIP3    H230831   4.053   3.549   5.035
10292TIP3   OH230832   1.352   3.572   4.770
10292TIP3    H130833   1.301   3.491   4.766
10292TIP3    H230834   1.383   3.577   4.860
10293TIP3   OH230835   1.023   1.838   0.454
10293TIP3    H130836   0.944   1.786   0.471
10293TIP3    H230837   0.996   1.903   0.389
10294TIP3   OH230838   7.926   4.959   0.446
10294TIP3    H130839   7.834   4.983   0.461
10294TIP3    H230840   7.938   4.879   0.497
10295TIP3   OH230841   0.496   1.289   5.919
10295TIP3    H130842   0.537   1.242   5.847
10295TIP3    H230843   0.488   1.379   5.887
10296TIP3   OH230844   7.773   1.435   6.376
10296TIP3    H130845   7.747   1.357   6.427
10296TIP3    H230846   7.754   1.411   6.286
10297TIP3   OH230847   3.105   7.692   4.196
10297TIP3    H130848   3.129   7.698   4.104
10297TIP3    H230849   3.132   7.775   4.234
10298TIP3   OH230850   0.454   3.006   0.298
10298TIP3    H130851   0.472   3.059   0.220
10298TIP3    H230852   0.366   3.033   0.325
10299TIP3   OH230853   2.893   4.784   0.780
10299TIP3    H130854   2.817   4.767   0.836
10299TIP3    H230855   2.910   4.701   0.737
10300TIP3   OH230856   1.406   2.710   5.092
10300TIP3    H130857   1.358   2.721   5.174
10300TIP3    H230858   1.346   2.741   5.024
10301TIP3   OH230859   2.865   3.090   5.904
10301TIP3    H130860   2.947   3.066   5.859
10301TIP3    H230861   2.892   3.151   5.972
10302TIP3   OH230862   4.687   6.482   4.676
10302TIP3    H130863   4.609   6.532   4.650
10302TIP3    H230864   4.744   6.547   4.716
10303TIP3   OH230865   2.520   6.338   2.458
10303TIP3    H130866   2.565   6.387   2.527
10303TIP3    H230867   2.587   6.282   2.421
10304TIP3   OH230868   0.437   6.337   3.400
10304TIP3    H130869   0.516   6.389   3.413
10304TIP3    H230870   0.379   6.363   3.472
10305TIP3   OH230871   1.152   2.988   4.417
10305TIP3    H130872   1.057   2.974   4.407
10305TIP3    H230873   1.190   2.901   4.405
10306TIP3   OH230874   1.018   3.805   1.458
10306TIP3    H130875   0.986   3.722   1.423
10306TIP3    H230876   1.113   3.792   1.466
10307TIP3   OH230877   4.148   0.035   1.992
10307TIP3    H130878   4.160   0.104   2.058
10307TIP3    H230879   4.234   0.026   1.951
10308TIP3   OH230880   4.916   2.650   3.730
10308TIP3    H130881   4.900   2.634   3.637
10308TIP3    H230882   4.829   2.664   3.768
10309TIP3   OH230883   5.008   6.219   6.039
10309TIP3    H130884   5.093   6.188   6.070
10309TIP3    H230885   5.005   6.311   6.064
10310TIP3   OH230886   2.456   3.359   4.699
10310TIP3    H130887   2.491   3.425   4.639
10310TIP3    H230888   2.494   3.382   4.784
10311TIP3   OH230889   7.423   7.663   6.088
10311TIP3    H130890   7.404   7.747   6.130
10311TIP3    H230891   7.517   7.652   6.099
10312TIP3   OH230892   3.305   6.649   3.876
10312TIP3    H130893   3.336   6.620   3.962
10312TIP3    H230894   3.338   6.738   3.867
10313TIP3   OH230895   1.256   4.156   6.709
10313TIP3    H130896   1.214   4.183   6.627
10313TIP3    H230897   1.350   4.173   6.695
10314TIP3   OH230898   2.848   5.536   0.360
10314TIP3    H130899   2.896   5.615   0.384
10314TIP3    H230900   2.888   5.507   0.278
10315TIP3   OH230901   3.746   3.128   3.725
10315TIP3    H130902   3.803   3.089   3.792
10315TIP3    H230903   3.662   3.085   3.737
10316TIP3   OH230904   6.004   3.594   6.240
10316TIP3    H130905   5.928   3.593   6.182
10316TIP3    H230906   6.066   3.532   6.201
10317TIP3   OH230907   7.324   6.485   0.589
10317TIP3    H130908   7.411   6.448   0.579
10317TIP3    H230909   7.266   6.424   0.544
10318TIP3   OH230910   3.455   6.671   3.185
10318TIP3    H130911   3.404   6.743   3.147
10318TIP3    H230912   3.546   6.698   3.174
10319TIP3   OH230913   7.039   4.146   1.063
10319TIP3    H130914   7.032   4.204   0.987
10319TIP3    H230915   7.116   4.178   1.110
10320TIP3   OH230916   4.832   4.450   2.129
10320TIP3    H130917   4.799   4.467   2.217
10320TIP3    H230918   4.767   4.489   2.071
10321TIP3   OH230919   4.892   2.545   6.645
10321TIP3    H130920   4.810   2.558   6.598
10321TIP3    H230921   4.875   2.468   6.701
10322TIP3   OH230922   2.382   1.733   5.822
10322TIP3    H130923   2.303   1.691   5.854
10322TIP3    H230924   2.452   1.698   5.877
10323TIP3   OH230925   3.113   1.996   1.608
10323TIP3    H130926   3.032   2.027   1.648
10323TIP3    H230927   3.098   1.903   1.593
10324TIP3   OH230928   0.088   0.756   3.260
10324TIP3    H130929   0.174   0.795   3.243
10324TIP3    H230930   0.036   0.776   3.183
10325TIP3   OH230931   5.968   3.894   0.637
10325TIP3    H130932   5.928   3.864   0.718
10325TIP3    H230933   6.060   3.870   0.646
10326TIP3   OH230934   5.608   4.612   4.772
10326TIP3    H130935   5.567   4.627   4.857
10326TIP3    H230936   5.634   4.520   4.774
10327TIP3   OH230937   4.559   4.298   0.619
10327TIP3    H130938   4.634   4.346   0.584
10327TIP3    H230939   4.541   4.341   0.703
10328TIP3   OH230940   7.851   1.335   2.589
10328TIP3    H130941   7.856   1.400   2.658
10328TIP3    H230942   7.937   1.293   2.588
10329TIP3   OH230943   0.197   6.704   5.637
10329TIP3    H130944   0.279   6.692   5.589
10329TIP3    H230945   0.213   6.780   5.693
10330TIP3   OH230946   3.572   1.722   5.368
10330TIP3    H130947   3.593   1.793   5.307
10330TIP3    H230948   3.476   1.713   5.362
10331TIP3   OH230949   4.270   1.466   1.979
10331TIP3    H130950   4.351   1.517   1.985
10331TIP3    H230951   4.237   1.483   1.891
10332TIP3   OH230952   4.366   2.337   6.039
10332TIP3    H130953   4.332   2.421   6.010
10332TIP3    H230954   4.418   2.357   6.116
10333TIP3   OH230955   2.619   7.039   3.250
10333TIP3    H130956   2.599   6.946   3.255
10333TIP3    H230957   2.630   7.057   3.157
10334TIP3   OH230958   4.186   4.127   1.639
10334TIP3    H130959   4.269   4.118   1.593
10334TIP3    H230960   4.131   4.057   1.603
10335TIP3   OH230961   2.184   6.531   6.527
10335TIP3    H130962   2.239   6.455   6.546
10335TIP3    H230963   2.146   6.513   6.441
10336TIP3   OH230964   2.326   1.659   5.063
10336TIP3    H130965   2.253   1.597   5.066
10336TIP3    H230966   2.367   1.652   5.149
10337TIP3   OH230967   3.396   5.901   6.176
10337TIP3    H130968   3.332   5.966   6.148
10337TIP3    H230969   3.457   5.950   6.231
10338TIP3   OH230970   0.944   1.236   6.647
10338TIP3    H130971   0.909   1.150   6.668
10338TIP3    H230972   0.884   1.271   6.580
10339TIP3   OH230973   0.252   4.736   1.984
10339TIP3    H130974   0.288   4.811   1.937
10339TIP3    H230975   0.274   4.751   2.076
10340TIP3   OH230976   5.997   4.691   1.621
10340TIP3    H130977   6.065   4.631   1.588
10340TIP3    H230978   5.917   4.663   1.575
10341TIP3   OH230979   0.324   0.785   0.855
10341TIP3    H130980   0.261   0.775   0.926
10341TIP3    H230981   0.285   0.850   0.796
10342TIP3   OH230982   8.283   3.711   4.916
10342TIP3    H130983   8.206   3.656   4.923
10342TIP3    H230984   8.316   3.719   5.006
10343TIP3   OH230985   4.340   5.618   2.893
10343TIP3    H130986   4.412   5.563   2.925
10343TIP3    H230987   4.379   5.705   2.885
10344TIP3   OH230988   3.688   2.048   4.987
10344TIP3    H130989   3.744   2.072   4.913
10344TIP3    H230990   3.743   2.059   5.064
10345TIP3   OH230991   5.615   0.750   3.781
10345TIP3    H130992   5.647   0.763   3.691
10345TIP3    H230993   5.627   0.657   3.797
10346TIP3   OH230994   1.192   4.583   0.925
10346TIP3    H130995   1.236   4.594   1.010
10346TIP3    H230996   1.225   4.499   0.892
10347TIP3   OH230997   7.733   4.387   3.716
10347TIP3    H130998   7.761   4.401   3.625
10347TIP3    H230999   7.764   4.299   3.737
10348TIP3   OH231000   5.016   6.034   6.583
10348TIP3    H131001   4.964   6.072   6.512
10348TIP3    H231002   5.035   6.108   6.641
10349TIP3   OH231003   7.050   1.649   1.413
10349TIP3    H131004   6.990   1.598   1.468
10349TIP3    H231005   7.100   1.584   1.364
10350TIP3   OH231006   4.487   5.683   0.179
10350TIP3    H131007   4.471   5.773   0.208
10350TIP3    H231008   4.410   5.635   0.210
10351TIP3   OH231009   5.926   1.340   0.481
10351TIP3    H131010   5.985   1.398   0.529
10351TIP3    H231011   5.862   1.398   0.441
10352TIP3   OH231012   4.562   5.821   2.179
10352TIP3    H131013   4.534   5.871   2.103
10352TIP3    H231014   4.648   5.787   2.156
10353TIP3   OH231015   0.731   5.226   0.112
10353TIP3    H131016   0.818   5.191   0.091
10353TIP3    H231017   0.674   5.187   0.046
10354TIP3   OH231018   4.720   0.196   1.900
10354TIP3    H131019   4.783   0.147   1.953
10354TIP3    H231020   4.724   0.285   1.934
10355TIP3   OH231021   3.479   6.203   3.466
10355TIP3    H131022   3.478   6.290   3.506
10355TIP3    H231023   3.401   6.201   3.411
10356TIP3   OH231024   5.692   7.716   1.817
10356TIP3    H131025   5.705   7.796   1.868
10356TIP3    H231026   5.609   7.681   1.850
10357TIP3   OH231027   6.846   3.720   0.654
10357TIP3    H131028   6.794   3.685   0.582
10357TIP3    H231029   6.857   3.646   0.715
10358TIP3   OH231030   3.433   1.683   3.983
10358TIP3    H131031   3.516   1.659   3.942
10358TIP3    H231032   3.443   1.655   4.074
10359TIP3   OH231033   7.696   0.239   3.171
10359TIP3    H131034   7.739   0.154   3.161
10359TIP3    H231035   7.737   0.278   3.249
10360TIP3   OH231036   5.885   7.458   0.967
10360TIP3    H131037   5.952   7.425   0.907
10360TIP3    H231038   5.853   7.380   1.012
10361TIP3   OH231039   3.526   4.554   1.164
10361TIP3    H131040   3.505   4.558   1.258
10361TIP3    H231041   3.468   4.619   1.125
10362TIP3   OH231042   0.637   6.046   1.836
10362TIP3    H131043   0.731   6.030   1.838
10362TIP3    H231044   0.627   6.123   1.780
10363TIP3   OH231045   0.370   1.280   3.652
10363TIP3    H131046   0.435   1.226   3.607
10363TIP3    H231047   0.307   1.217   3.688
10364TIP3   OH231048   5.836   2.467   1.138
10364TIP3    H131049   5.840   2.391   1.197
10364TIP3    H231050   5.899   2.529   1.175
10365TIP3   OH231051   0.810   7.230   3.209
10365TIP3    H131052   0.813   7.223   3.305
10365TIP3    H231053   0.717   7.245   3.190
10366TIP3   OH231054   3.733   5.865   4.291
10366TIP3    H131055   3.639   5.864   4.307
10366TIP3    H231056   3.769   5.921   4.361
10367TIP3   OH231057   4.851   6.014   6.146
10367TIP3    H131058   4.827   6.033   6.236
10367TIP3    H231059   4.885   6.096   6.112
10368TIP3   OH231060   2.724   2.567   5.697
10368TIP3    H131061   2.751   2.576   5.606
10368TIP3    H231062   2.797   2.605   5.747
10369TIP3   OH231063   1.461   7.085   2.430
10369TIP3    H131064   1.407   7.162   2.441
10369TIP3    H231065   1.404   7.021   2.386
10370TIP3   OH231066   1.174   7.421   0.255
10370TIP3    H131067   1.099   7.374   0.220
10370TIP3    H231068   1.140   7.507   0.279
10371TIP3   OH231069   0.438   5.380   5.787
10371TIP3    H131070   0.350   5.382   5.823
10371TIP3    H231071   0.426   5.399   5.694
10372TIP3   OH231072   7.516   5.197   3.954
10372TIP3    H131073   7.554   5.110   3.968
10372TIP3    H231074   7.464   5.214   4.032
10373TIP3   OH231075   2.233   2.623   2.179
10373TIP3    H131076   2.318   2.628   2.224
10373TIP3    H231077   2.180   2.566   2.234
10374TIP3   OH231078   7.545   7.421   1.117
10374TIP3    H131079   7.595   7.494   1.153
10374TIP3    H231080   7.573   7.345   1.167
10375TIP3   OH231081   3.718   3.686   4.162
10375TIP3    H131082   3.696   3.610   4.215
10375TIP3    H231083   3.759   3.650   4.083
10376TIP3   OH231084   4.505   1.900   2.775
10376TIP3    H131085   4.521   1.857   2.859
10376TIP3    H231086   4.448   1.839   2.727
10377TIP3   OH231087   6.470   3.083   3.459
10377TIP3    H131088   6.548   3.028   3.449
10377TIP3    H231089   6.480   3.151   3.392
10378TIP3   OH231090   3.873   2.623   3.526
10378TIP3    H131091   3.811   2.686   3.565
10378TIP3    H231092   3.817   2.557   3.485
10379TIP3   OH231093   2.567   2.256   3.268
10379TIP3    H131094   2.493   2.316   3.282
10379TIP3    H231095   2.635   2.288   3.327
10380TIP3   OH231096   8.213   0.527   1.760
10380TIP3    H131097   8.140   0.565   1.712
10380TIP3    H231098   8.288   0.535   1.702
10381TIP3   OH231099   2.558   2.577   3.306
10381TIP3    H131100   2.594   2.537   3.385
10381TIP3    H231101   2.487   2.633   3.337
10382TIP3   OH231102   3.924   0.394   4.397
10382TIP3    H131103   3.890   0.380   4.485
10382TIP3    H231104   3.875   0.331   4.343
10383TIP3   OH231105   6.881   5.682   1.157
10383TIP3    H131106   6.848   5.772   1.152
10383TIP3    H231107   6.812   5.630   1.116
10384TIP3   OH231108   0.176   5.493   5.861
10384TIP3    H131109   0.081   5.484   5.862
10384TIP3    H231110   0.194   5.554   5.789
10385TIP3   OH231111   1.065   2.667   6.189
10385TIP3    H131112   1.071   2.596   6.124
10385TIP3    H231113   1.143   2.656   6.244
10386TIP3   OH231114   6.970   4.076   1.511
10386TIP3    H131115   6.963   3.988   1.473
10386TIP3    H231116   7.061   4.083   1.538
10387TIP3   OH231117   5.163   3.315   6.514
10387TIP3    H131118   5.113   3.340   6.436
10387TIP3    H231119   5.251   3.349   6.498
10388TIP3   OH231120   4.389   5.259   4.553
10388TIP3    H131121   4.357   5.284   4.640
10388TIP3    H231122   4.320   5.286   4.493
10389TIP3   OH231123   1.543   3.649   2.822
10389TIP3    H131124   1.477   3.598   2.774
10389TIP3    H231125   1.526   3.740   2.796
10390TIP3   OH231126   2.484   1.762   3.142
10390TIP3    H131127   2.514   1.846   3.174
10390TIP3    H231128   2.484   1.771   3.046
10391TIP3   OH231129   5.667   0.436   1.548
10391TIP3    H131130   5.728   0.492   1.500
10391TIP3    H231131   5.695   0.444   1.640
10392TIP3   OH231132   0.259   7.364   1.648
10392TIP3    H131133   0.192   7.304   1.681
10392TIP3    H231134   0.289   7.323   1.567
10393TIP3   OH231135   4.777   0.369   3.803
10393TIP3    H131136   4.803   0.449   3.848
10393TIP3    H231137   4.791   0.300   3.868
10394TIP3   OH231138   0.758   5.659   1.738
10394TIP3    H131139   0.732   5.668   1.646
10394TIP3    H231140   0.692   5.709   1.786
10395TIP3   OH231141   0.594   4.635   1.557
10395TIP3    H131142   0.503   4.657   1.538
10395TIP3    H231143   0.610   4.553   1.511
10396TIP3   OH231144   3.504   1.507   0.769
10396TIP3    H131145   3.550   1.463   0.841
10396TIP3    H231146   3.498   1.598   0.797
10397TIP3   OH231147   7.614   6.005   6.150
10397TIP3    H131148   7.639   6.055   6.228
10397TIP3    H231149   7.554   5.938   6.182
10398TIP3   OH231150   3.165   2.475   1.629
10398TIP3    H131151   3.168   2.459   1.535
10398TIP3    H231152   3.200   2.563   1.640
10399TIP3   OH231153   8.254   1.963   3.728
10399TIP3    H131154   8.173   1.939   3.683
10399TIP3    H231155   8.227   1.978   3.819
10400TIP3   OH231156   5.871   7.309   3.984
10400TIP3    H131157   5.817   7.336   4.058
10400TIP3    H231158   5.946   7.265   4.024
10401TIP3   OH231159   5.876   4.917   6.402
10401TIP3    H131160   5.810   4.926   6.470
10401TIP3    H231161   5.849   4.977   6.333
10402TIP3   OH231162   7.854   7.408   5.979
10402TIP3    H131163   7.842   7.503   5.982
10402TIP3    H231164   7.778   7.372   6.024
10403TIP3   OH231165   8.115   7.403   2.963
10403TIP3    H131166   8.046   7.375   3.023
10403TIP3    H231167   8.126   7.496   2.982
10404TIP3   OH231168   3.066   0.288   0.086
10404TIP3    H131169   3.085   0.219   0.023
10404TIP3    H231170   2.991   0.254   0.136
10405TIP3   OH231171   4.868   5.669   2.722
10405TIP3    H131172   4.917   5.669   2.640
10405TIP3    H231173   4.777   5.655   2.696
10406TIP3   OH231174   7.562   3.675   1.809
10406TIP3    H131175   7.484   3.620   1.805
10406TIP3    H231176   7.605   3.663   1.724
10407TIP3   OH231177   4.835   2.569   0.391
10407TIP3    H131178   4.810   2.639   0.452
10407TIP3    H231179   4.881   2.506   0.446
10408TIP3   OH231180   1.973   3.204   5.628
10408TIP3    H131181   2.012   3.244   5.550
10408TIP3    H231182   1.879   3.222   5.619
10409TIP3   OH231183   6.836   1.095   5.323
10409TIP3    H131184   6.783   1.015   5.313
10409TIP3    H231185   6.774   1.166   5.312
10410TIP3   OH231186   4.256   3.239   5.761
10410TIP3    H131187   4.222   3.210   5.677
10410TIP3    H231188   4.184   3.224   5.823
10411TIP3   OH231189   3.909   6.693   5.534
10411TIP3    H131190   3.976   6.633   5.567
10411TIP3    H231191   3.948   6.729   5.454
10412TIP3   OH231192   3.732   7.091   5.920
10412TIP3    H131193   3.689   7.007   5.933
10412TIP3    H231194   3.662   7.151   5.894
10413TIP3   OH231195   6.860   6.546   0.653
10413TIP3    H131196   6.766   6.556   0.670
10413TIP3    H231197   6.898   6.534   0.740
10414TIP3   OH231198   5.348   7.239   1.976
10414TIP3    H131199   5.406   7.182   1.926
10414TIP3    H231200   5.406   7.298   2.024
10415TIP3   OH231201   8.274   4.223   5.907
10415TIP3    H131202   8.242   4.312   5.894
10415TIP3    H231203   8.258   4.205   6.000
10416TIP3   OH231204   7.043   5.368   5.530
10416TIP3    H131205   7.072   5.283   5.564
10416TIP3    H231206   7.105   5.431   5.565
10417TIP3   OH231207   0.475   5.690   2.436
10417TIP3    H131208   0.389   5.703   2.477
10417TIP3    H231209   0.532   5.753   2.479
10418TIP3   OH231210   2.347   6.306   6.557
10418TIP3    H131211   2.434   6.310   6.516
10418TIP3    H231212   2.354   6.234   6.619
10419TIP3   OH231213   2.573   3.664   1.989
10419TIP3    H131214   2.498   3.609   1.965
10419TIP3    H231215   2.581   3.653   2.083
10420TIP3   OH231216   6.993   3.403   5.579
10420TIP3    H131217   6.939   3.380   5.504
10420TIP3    H231218   6.937   3.385   5.655
10421TIP3   OH231219   6.112   5.387   1.548
10421TIP3    H131220   6.119   5.313   1.487
10421TIP3    H231221   6.116   5.346   1.635
10422TIP3   OH231222   6.840   5.798   3.525
10422TIP3    H131223   6.892   5.746   3.587
10422TIP3    H231224   6.754   5.806   3.567
10423TIP3   OH231225   6.877   7.777   6.450
10423TIP3    H131226   6.902   7.752   6.539
10423TIP3    H231227   6.783   7.797   6.456
10424TIP3   OH231228   4.667   0.405   0.381
10424TIP3    H131229   4.711   0.373   0.460
10424TIP3    H231230   4.630   0.489   0.406
10425TIP3   OH231231   1.656   4.932   2.945
10425TIP3    H131232   1.663   4.867   2.876
10425TIP3    H231233   1.724   4.907   3.008
10426TIP3   OH231234   0.877   6.965   2.244
10426TIP3    H131235   0.880   6.968   2.148
10426TIP3    H231236   0.937   7.034   2.272
10427TIP3   OH231237   1.022   6.216   1.110
10427TIP3    H131238   1.046   6.190   1.198
10427TIP3    H231239   0.933   6.250   1.118
10428TIP3   OH231240   7.505   7.323   1.966
10428TIP3    H131241   7.559   7.376   1.909
10428TIP3    H231242   7.417   7.329   1.929
10429TIP3   OH231243   1.045   3.885   4.815
10429TIP3    H131244   1.091   3.851   4.739
10429TIP3    H231245   1.100   3.861   4.889
10430TIP3   OH231246   3.601   6.062   0.144
10430TIP3    H131247   3.683   6.108   0.131
10430TIP3    H231248   3.613   5.978   0.100
10431TIP3   OH231249   4.440   1.196   1.055
10431TIP3    H131250   4.512   1.150   1.100
10431TIP3    H231251   4.446   1.286   1.087
10432TIP3   OH231252   3.090   3.459   3.527
10432TIP3    H131253   3.084   3.444   3.433
10432TIP3    H231254   3.008   3.501   3.551
10433TIP3   OH231255   0.761   1.649   2.680
10433TIP3    H131256   0.711   1.606   2.610
10433TIP3    H231257   0.696   1.671   2.746
10434TIP3   OH231258   3.565   3.004   5.615
10434TIP3    H131259   3.657   3.022   5.599
10434TIP3    H231260   3.525   3.090   5.628
10435TIP3   OH231261   3.642   0.128   1.143
10435TIP3    H131262   3.551   0.106   1.160
10435TIP3    H231263   3.688   0.044   1.143
10436TIP3   OH231264   4.552   3.816   5.538
10436TIP3    H131265   4.604   3.802   5.617
10436TIP3    H231266   4.596   3.763   5.471
10437TIP3   OH231267   7.948   7.682   0.887
10437TIP3    H131268   7.924   7.770   0.857
10437TIP3    H231269   7.877   7.626   0.855
10438TIP3   OH231270   1.484   0.548   1.361
10438TIP3    H131271   1.411   0.583   1.310
10438TIP3    H231272   1.559   0.553   1.302
10439TIP3   OH231273   8.097   2.038   2.727
10439TIP3    H131274   8.084   2.111   2.666
10439TIP3    H231275   8.059   2.069   2.810
10440TIP3   OH231276   6.525   3.676   3.578
10440TIP3    H131277   6.439   3.718   3.587
10440TIP3    H231278   6.546   3.647   3.667
10441TIP3   OH231279   4.194   7.110   6.736
10441TIP3    H131280   4.100   7.124   6.743
10441TIP3    H231281   4.232   7.198   6.744
10442TIP3   OH231282   4.211   0.635   1.375
10442TIP3    H131283   4.127   0.624   1.420
10442TIP3    H231284   4.276   0.618   1.443
10443TIP3   OH231285   6.369   0.484   6.178
10443TIP3    H131286   6.428   0.445   6.114
10443TIP3    H231287   6.400   0.573   6.189
10444TIP3   OH231288   2.831   5.276   6.271
10444TIP3    H131289   2.903   5.331   6.241
10444TIP3    H231290   2.862   5.186   6.258
10445TIP3   OH231291   3.703   2.059   6.675
10445TIP3    H131292   3.704   2.016   6.589
10445TIP3    H231293   3.724   2.151   6.656
10446TIP3   OH231294   4.985   1.937   2.519
10446TIP3    H131295   5.041   1.893   2.583
10446TIP3    H231296   4.941   1.865   2.473
10447TIP3   OH231297   7.371   7.767   2.309
10447TIP3    H131298   7.320   7.697   2.269
10447TIP3    H231299   7.451   7.724   2.339
10448TIP3   OH231300   6.684   0.184   0.710
10448TIP3    H131301   6.626   0.256   0.736
10448TIP3    H231302   6.766   0.228   0.684
10449TIP3   OH231303   1.102   1.856   5.315
10449TIP3    H131304   1.024   1.858   5.259
10449TIP3    H231305   1.160   1.792   5.274
10450TIP3   OH231306   2.105   7.180   4.285
10450TIP3    H131307   2.162   7.177   4.208
10450TIP3    H231308   2.133   7.259   4.332
10451TIP3   OH231309   3.561   7.471   4.575
10451TIP3    H131310   3.567   7.376   4.571
10451TIP3    H231311   3.468   7.490   4.587
10452TIP3   OH231312   5.290   3.600   2.191
10452TIP3    H131313   5.380   3.614   2.221
10452TIP3    H231314   5.278   3.506   2.195
10453TIP3   OH231315   4.089   3.619   6.533
10453TIP3    H131316   3.994   3.634   6.530
10453TIP3    H231317   4.100   3.550   6.599
10454TIP3   OH231318   2.942   4.607   3.995
10454TIP3    H131319   2.865   4.649   4.033
10454TIP3    H231320   3.016   4.657   4.029
10455TIP3   OH231321   3.873   5.692   0.176
10455TIP3    H131322   3.917   5.643   0.246
10455TIP3    H231323   3.889   5.641   0.097
10456TIP3   OH231324   6.899   4.138   5.736
10456TIP3    H131325   6.945   4.095   5.808
10456TIP3    H231326   6.835   4.074   5.706
10457TIP3   OH231327   3.766   4.343   6.151
10457TIP3    H131328   3.812   4.417   6.190
10457TIP3    H231329   3.830   4.304   6.091
10458TIP3   OH231330   4.160   5.945   4.763
10458TIP3    H131331   4.129   5.974   4.677
10458TIP3    H231332   4.236   6.000   4.781
10459TIP3   OH231333   4.524   2.075   5.698
10459TIP3    H131334   4.605   2.120   5.722
10459TIP3    H231335   4.506   2.016   5.771
10460TIP3   OH231336   0.319   1.273   5.134
10460TIP3    H131337   0.400   1.232   5.106
10460TIP3    H231338   0.250   1.212   5.105
10461TIP3   OH231339   0.506   2.539   6.070
10461TIP3    H131340   0.585   2.519   6.121
10461TIP3    H231341   0.511   2.633   6.054
10462TIP3   OH231342   4.892   0.468   2.453
10462TIP3    H131343   4.816   0.449   2.398
10462TIP3    H231344   4.864   0.444   2.541
10463TIP3   OH231345   0.837   1.080   3.581
10463TIP3    H131346   0.828   1.169   3.614
10463TIP3    H231347   0.931   1.068   3.570
10464TIP3   OH231348   3.128   0.588   6.479
10464TIP3    H131349   3.179   0.553   6.552
10464TIP3    H231350   3.159   0.539   6.403
10465TIP3   OH231351   2.586   1.272   2.564
10465TIP3    H131352   2.498   1.301   2.542
10465TIP3    H231353   2.637   1.352   2.571
10466TIP3   OH231354   3.404   2.255   2.847
10466TIP3    H131355   3.359   2.233   2.765
10466TIP3    H231356   3.335   2.287   2.905
10467TIP3   OH231357   7.125   5.385   0.926
10467TIP3    H131358   7.091   5.432   0.850
10467TIP3    H231359   7.208   5.429   0.947
10468TIP3   OH231360   7.148   4.001   5.362
10468TIP3    H131361   7.053   4.014   5.371
10468TIP3    H231362   7.180   3.999   5.452
10469TIP3   OH231363   2.813   2.565   6.750
10469TIP3    H131364   2.809   2.567   6.654
10469TIP3    H231365   2.791   2.654   6.777
10470TIP3   OH231366   2.308   4.823   3.631
10470TIP3    H131367   2.330   4.903   3.583
10470TIP3    H231368   2.366   4.823   3.707
10471TIP3   OH231369   0.114   4.373   4.383
10471TIP3    H131370   0.107   4.336   4.471
10471TIP3    H231371   0.203   4.406   4.378
10472TIP3   OH231372   2.991   0.432   4.292
10472TIP3    H131373   2.906   0.414   4.253
10472TIP3    H231374   2.977   0.510   4.346
10473TIP3   OH231375   2.130   2.997   3.876
10473TIP3    H131376   2.035   3.011   3.873
10473TIP3    H231377   2.164   3.040   3.798
10474TIP3   OH231378   7.276   5.513   1.338
10474TIP3    H131379   7.265   5.451   1.409
10474TIP3    H231380   7.323   5.464   1.270
10475TIP3   OH231381   3.026   7.736   4.717
10475TIP3    H131382   3.059   7.813   4.672
10475TIP3    H231383   2.993   7.769   4.800
10476TIP3   OH231384   3.647   5.602   1.499
10476TIP3    H131385   3.647   5.685   1.451
10476TIP3    H231386   3.575   5.611   1.562
10477TIP3   OH231387   8.257   6.228   4.450
10477TIP3    H131388   8.208   6.297   4.493
10477TIP3    H231389   8.228   6.147   4.492
10478TIP3   OH231390   7.457   1.733   1.189
10478TIP3    H131391   7.488   1.686   1.111
10478TIP3    H231392   7.399   1.801   1.154
10479TIP3   OH231393   4.738   6.333   4.111
10479TIP3    H131394   4.765   6.418   4.146
10479TIP3    H231395   4.754   6.271   4.183
10480TIP3   OH231396   3.427   1.992   0.225
10480TIP3    H131397   3.381   2.026   0.149
10480TIP3    H231398   3.426   2.064   0.288
10481TIP3   OH231399   1.096   7.047   1.459
10481TIP3    H131400   1.064   7.012   1.542
10481TIP3    H231401   1.144   6.974   1.419
10482TIP3   OH231402   2.116   1.151   0.349
10482TIP3    H131403   2.054   1.165   0.420
10482TIP3    H231404   2.197   1.192   0.380
10483TIP3   OH231405   6.771   5.121   6.246
10483TIP3    H131406   6.785   5.073   6.164
10483TIP3    H231407   6.797   5.059   6.315
10484TIP3   OH231408   3.595   6.933   3.414
10484TIP3    H131409   3.530   6.967   3.352
10484TIP3    H231410   3.557   6.852   3.447
10485TIP3   OH231411   7.735   0.945   3.894
10485TIP3    H131412   7.811   1.002   3.900
10485TIP3    H231413   7.694   0.952   3.981
10486TIP3   OH231414   7.066   2.534   6.152
10486TIP3    H131415   7.155   2.566   6.168
10486TIP3    H231416   7.079   2.453   6.102
10487TIP3   OH231417   6.495   6.384   5.743
10487TIP3    H131418   6.456   6.468   5.719
10487TIP3    H231419   6.579   6.383   5.698
10488TIP3   OH231420   1.501   6.584   3.804
10488TIP3    H131421   1.529   6.671   3.776
10488TIP3    H231422   1.414   6.598   3.841
10489TIP3   OH231423   3.120   7.401   2.194
10489TIP3    H131424   3.083   7.454   2.124
10489TIP3    H231425   3.213   7.422   2.194
10490TIP3   OH231426   2.885   5.204   1.690
10490TIP3    H131427   2.948   5.219   1.761
10490TIP3    H231428   2.831   5.132   1.722
10491TIP3   OH231429   7.311   6.912   3.555
10491TIP3    H131430   7.341   6.836   3.507
10491TIP3    H231431   7.354   6.986   3.513
10492TIP3   OH231432   1.825   2.945   3.006
10492TIP3    H131433   1.741   2.899   3.013
10492TIP3    H231434   1.880   2.887   2.953
10493TIP3   OH231435   5.627   0.485   4.597
10493TIP3    H131436   5.625   0.510   4.690
10493TIP3    H231437   5.575   0.405   4.593
10494TIP3   OH231438   1.179   3.402   4.131
10494TIP3    H131439   1.111   3.450   4.084
10494TIP3    H231440   1.207   3.461   4.200
10495TIP3   OH231441   5.949   3.880   6.296
10495TIP3    H131442   5.878   3.907   6.354
10495TIP3    H231443   5.956   3.786   6.309
10496TIP3   OH231444   7.482   6.736   0.907
10496TIP3    H131445   7.497   6.645   0.881
10496TIP3    H231446   7.477   6.784   0.825
10497TIP3   OH231447   0.845   6.464   5.528
10497TIP3    H131448   0.783   6.394   5.550
10497TIP3    H231449   0.858   6.511   5.610
10498TIP3   OH231450   7.386   6.862   2.093
10498TIP3    H131451   7.430   6.785   2.057
10498TIP3    H231452   7.429   6.936   2.051
10499TIP3   OH231453   7.696   4.262   2.146
10499TIP3    H131454   7.735   4.331   2.200
10499TIP3    H231455   7.721   4.181   2.190
10500TIP3   OH231456   5.540   0.511   6.382
10500TIP3    H131457   5.493   0.437   6.345
10500TIP3    H231458   5.509   0.517   6.472
10501TIP3   OH231459   0.805   5.625   2.875
10501TIP3    H131460   0.734   5.573   2.913
10501TIP3    H231461   0.836   5.572   2.801
10502TIP3   OH231462   0.749   1.847   1.791
10502TIP3    H131463   0.715   1.759   1.810
10502TIP3    H231464   0.821   1.831   1.730
10503TIP3   OH231465   6.232   0.798   2.330
10503TIP3    H131466   6.308   0.805   2.272
10503TIP3    H231467   6.171   0.740   2.284
10504TIP3   OH231468   5.981   6.689   1.759
10504TIP3    H131469   5.916   6.625   1.789
10504TIP3    H231470   5.931   6.751   1.706
10505TIP3   OH231471   3.982   6.360   1.117
10505TIP3    H131472   4.061   6.309   1.097
10505TIP3    H231473   3.925   6.299   1.163
10506TIP3   OH231474   6.573   1.720   2.516
10506TIP3    H131475   6.607   1.735   2.428
10506TIP3    H231476   6.608   1.634   2.541
10507TIP3   OH231477   0.085   0.133   3.747
10507TIP3    H131478   0.122   0.206   3.697
10507TIP3    H231479   0.019   0.095   3.689
10508TIP3   OH231480   7.574   2.225   2.039
10508TIP3    H131481   7.581   2.131   2.057
10508TIP3    H231482   7.617   2.237   1.955
10509TIP3   OH231483   2.576   3.919   5.961
10509TIP3    H131484   2.597   3.826   5.956
10509TIP3    H231485   2.611   3.956   5.880
10510TIP3   OH231486   5.067   1.667   3.430
10510TIP3    H131487   5.072   1.625   3.516
10510TIP3    H231488   5.017   1.606   3.376
10511TIP3   OH231489   8.093   4.605   3.615
10511TIP3    H131490   8.179   4.600   3.573
10511TIP3    H231491   8.047   4.526   3.585
10512TIP3   OH231492   4.425   0.562   1.586
10512TIP3    H131493   4.376   0.484   1.611
10512TIP3    H231494   4.467   0.592   1.667
10513TIP3   OH231495   1.282   7.226   0.636
10513TIP3    H131496   1.308   7.318   0.639
10513TIP3    H231497   1.287   7.203   0.543
10514TIP3   OH231498   8.214   2.717   4.071
10514TIP3    H131499   8.193   2.624   4.079
10514TIP3    H231500   8.294   2.719   4.019
10515TIP3   OH231501   5.276   5.394   1.684
10515TIP3    H131502   5.249   5.304   1.670
10515TIP3    H231503   5.276   5.405   1.779
10516TIP3   OH231504   5.958   2.650   4.858
10516TIP3    H131505   5.906   2.731   4.860
10516TIP3    H231506   5.894   2.581   4.840
10517TIP3   OH231507   2.131   4.388   2.735
10517TIP3    H131508   2.079   4.344   2.668
10517TIP3    H231509   2.123   4.333   2.813
10518TIP3   OH231510   4.811   5.354   1.009
10518TIP3    H131511   4.722   5.376   1.034
10518TIP3    H231512   4.821   5.262   1.031
10519TIP3   OH231513   0.803   0.211   0.055
10519TIP3    H131514   0.801   0.196  -0.040
10519TIP3    H231515   0.789   0.305   0.065
10520TIP3   OH231516   0.556   1.704   2.074
10520TIP3    H131517   0.630   1.700   2.135
10520TIP3    H231518   0.491   1.759   2.118
10521TIP3   OH231519   3.676   4.936   4.225
10521TIP3    H131520   3.640   5.024   4.238
10521TIP3    H231521   3.769   4.950   4.210
10522TIP3   OH231522   0.476   4.389   0.363
10522TIP3    H131523   0.483   4.376   0.457
10522TIP3    H231524   0.562   4.367   0.329
10523TIP3   OH231525   2.533   6.659   0.641
10523TIP3    H131526   2.622   6.636   0.667
10523TIP3    H231527   2.524   6.624   0.552
10524TIP3   OH231528   7.566   3.046   4.806
10524TIP3    H131529   7.586   3.139   4.800
10524TIP3    H231530   7.552   3.018   4.716
10525TIP3   OH231531   5.219   1.749   3.216
10525TIP3    H131532   5.163   1.768   3.291
10525TIP3    H231533   5.262   1.833   3.196
10526TIP3   OH231534   3.118   3.157   4.495
10526TIP3    H131535   3.072   3.147   4.579
10526TIP3    H231536   3.146   3.249   4.494
10527TIP3   OH231537   3.580   0.654   4.728
10527TIP3    H131538   3.634   0.675   4.652
10527TIP3    H231539   3.502   0.612   4.691
10528TIP3   OH231540   0.878   3.023   2.197
10528TIP3    H131541   0.969   3.031   2.169
10528TIP3    H231542   0.876   2.941   2.247
10529TIP3   OH231543   6.678   3.982   3.803
10529TIP3    H131544   6.605   3.985   3.741
10529TIP3    H231545   6.741   4.046   3.768
10530TIP3   OH231546   2.565   6.865   4.808
10530TIP3    H131547   2.543   6.863   4.901
10530TIP3    H231548   2.576   6.958   4.788
10531TIP3   OH231549   0.134   5.473   4.004
10531TIP3    H131550   0.064   5.411   4.023
10531TIP3    H231551   0.095   5.559   4.018
10532TIP3   OH231552   7.061   2.174   1.122
10532TIP3    H131553   6.981   2.123   1.112
10532TIP3    H231554   7.092   2.154   1.210
10533TIP3   OH231555   1.947   1.808   5.591
10533TIP3    H131556   1.993   1.892   5.593
10533TIP3    H231557   1.879   1.818   5.525
10534TIP3   OH231558   2.506   0.394   4.394
10534TIP3    H131559   2.414   0.392   4.422
10534TIP3    H231560   2.533   0.302   4.397
10535TIP3   OH231561   4.243   7.021   0.124
10535TIP3    H131562   4.230   7.020   0.029
10535TIP3    H231563   4.326   6.974   0.137
10536TIP3   OH231564   5.068   6.504   2.411
10536TIP3    H131565   5.053   6.434   2.348
10536TIP3    H231566   5.005   6.488   2.482
10537TIP3   OH231567   3.645   3.847   1.770
10537TIP3    H131568   3.583   3.790   1.725
10537TIP3    H231569   3.721   3.850   1.712
10538TIP3   OH231570   1.398   4.970   1.027
10538TIP3    H131571   1.325   5.018   0.989
10538TIP3    H231572   1.396   4.990   1.120
10539TIP3   OH231573   3.137   6.086   5.622
10539TIP3    H131574   3.049   6.115   5.644
10539TIP3    H231575   3.181   6.165   5.589
10540TIP3   OH231576   6.067   5.804   5.568
10540TIP3    H131577   6.029   5.818   5.482
10540TIP3    H231578   6.108   5.718   5.564
10541TIP3   OH231579   1.270   5.008   2.187
10541TIP3    H131580   1.226   5.059   2.119
10541TIP3    H231581   1.343   5.063   2.215
10542TIP3   OH231582   3.225   2.813   6.513
10542TIP3    H131583   3.236   2.887   6.453
10542TIP3    H231584   3.288   2.747   6.482
10543TIP3   OH231585   7.462   5.534   5.469
10543TIP3    H131586   7.543   5.585   5.475
10543TIP3    H231587   7.455   5.490   5.554
10544TIP3   OH231588   4.395   5.131   3.558
10544TIP3    H131589   4.436   5.060   3.608
10544TIP3    H231590   4.462   5.157   3.495
10545TIP3   OH231591   0.884   4.657   6.652
10545TIP3    H131592   0.827   4.723   6.693
10545TIP3    H231593   0.912   4.602   6.725
10546TIP3   OH231594   5.591   2.130   6.598
10546TIP3    H131595   5.615   2.197   6.534
10546TIP3    H231596   5.664   2.127   6.659
10547TIP3   OH231597   3.913   4.359   4.497
10547TIP3    H131598   3.895   4.446   4.463
10547TIP3    H231599   3.861   4.300   4.442
10548TIP3   OH231600   4.946   0.305   5.034
10548TIP3    H131601   4.924   0.369   4.966
10548TIP3    H231602   4.996   0.355   5.098
10549TIP3   OH231603   6.423   5.701   3.027
10549TIP3    H131604   6.484   5.655   2.969
10549TIP3    H231605   6.431   5.793   3.003
10550TIP3   OH231606   0.456   2.270   4.977
10550TIP3    H131607   0.431   2.355   5.014
10550TIP3    H231608   0.417   2.206   5.037
10551TIP3   OH231609   4.654   5.908   5.561
10551TIP3    H131610   4.588   5.912   5.492
10551TIP3    H231611   4.610   5.941   5.639
10552TIP3   OH231612   4.517   5.042   5.549
10552TIP3    H131613   4.562   5.106   5.494
10552TIP3    H231614   4.443   5.090   5.586
10553TIP3   OH231615   7.335   4.635   0.274
10553TIP3    H131616   7.327   4.543   0.298
10553TIP3    H231617   7.288   4.682   0.343
10554TIP3   OH231618   0.394   5.108   3.976
10554TIP3    H131619   0.442   5.111   3.894
10554TIP3    H231620   0.303   5.127   3.952
10555TIP3   OH231621   6.373   0.324   3.927
10555TIP3    H131622   6.413   0.243   3.958
10555TIP3    H231623   6.281   0.302   3.913
10556TIP3   OH231624   3.577   0.092   3.949
10556TIP3    H131625   3.525   0.103   3.869
10556TIP3    H231626   3.514   0.068   4.016
10557TIP3   OH231627   1.881   0.796   2.510
10557TIP3    H131628   1.939   0.853   2.560
10557TIP3    H231629   1.876   0.715   2.560
10558TIP3   OH231630   6.429   3.815   2.036
10558TIP3    H131631   6.521   3.840   2.027
10558TIP3    H231632   6.430   3.721   2.050
10559TIP3   OH231633   4.008   6.218   2.816
10559TIP3    H131634   4.000   6.191   2.724
10559TIP3    H231635   4.090   6.267   2.819
10560TIP3   OH231636   1.530   1.375   5.632
10560TIP3    H131637   1.613   1.378   5.681
10560TIP3    H231638   1.540   1.443   5.565
10561TIP3   OH231639   4.061   6.597   5.780
10561TIP3    H131640   4.085   6.505   5.791
10561TIP3    H231641   3.972   6.603   5.814
10562TIP3   OH231642   2.921   2.097   4.476
10562TIP3    H131643   2.920   2.143   4.560
10562TIP3    H231644   2.922   2.004   4.501
10563TIP3   OH231645   4.934   3.360   3.123
10563TIP3    H131646   4.970   3.342   3.209
10563TIP3    H231647   4.898   3.449   3.130
10564TIP3   OH231648   6.423   1.053   3.591
10564TIP3    H131649   6.418   1.106   3.671
10564TIP3    H231650   6.335   1.056   3.554
10565TIP3   OH231651   1.256   7.220   3.026
10565TIP3    H131652   1.176   7.267   3.051
10565TIP3    H231653   1.236   7.183   2.940
10566TIP3   OH231654   4.179   5.015   0.388
10566TIP3    H131655   4.145   5.050   0.305
10566TIP3    H231656   4.223   4.934   0.363
10567TIP3   OH231657   2.061   3.413   5.858
10567TIP3    H131658   1.972   3.432   5.886
10567TIP3    H231659   2.052   3.343   5.794
10568TIP3   OH231660   5.296   0.039   5.357
10568TIP3    H131661   5.230   0.103   5.383
10568TIP3    H231662   5.257  -0.046   5.380
10569TIP3   OH231663   1.865   2.468   2.538
10569TIP3    H131664   1.906   2.461   2.624
10569TIP3    H231665   1.807   2.392   2.533
10570TIP3   OH231666   4.552   3.831   3.671
10570TIP3    H131667   4.580   3.801   3.758
10570TIP3    H231668   4.493   3.904   3.688
10571TIP3   OH231669   2.641   5.575   0.550
10571TIP3    H131670   2.645   5.665   0.581
10571TIP3    H231671   2.719   5.564   0.497
10572TIP3   OH231672   7.628   7.211   1.617
10572TIP3    H131673   7.700   7.161   1.655
10572TIP3    H231674   7.650   7.303   1.635
10573TIP3   OH231675   0.085   3.280   5.853
10573TIP3    H131676   0.016   3.213   5.855
10573TIP3    H231677   0.059   3.339   5.782
10574TIP3   OH231678   6.120   6.481   6.295
10574TIP3    H131679   6.202   6.524   6.270
10574TIP3    H231680   6.128   6.468   6.389
10575TIP3   OH231681   2.579   5.665   3.638
10575TIP3    H131682   2.653   5.610   3.617
10575TIP3    H231683   2.574   5.728   3.566
10576TIP3   OH231684   1.385   1.555   2.249
10576TIP3    H131685   1.433   1.477   2.221
10576TIP3    H231686   1.293   1.532   2.238
10577TIP3   OH231687   6.777   6.095   1.680
10577TIP3    H131688   6.836   6.169   1.695
10577TIP3    H231689   6.825   6.019   1.712
10578TIP3   OH231690   0.815   1.692   0.273
10578TIP3    H131691   0.761   1.748   0.217
10578TIP3    H231692   0.895   1.677   0.222
10579TIP3   OH231693   6.036   6.834   4.565
10579TIP3    H131694   5.943   6.818   4.580
10579TIP3    H231695   6.042   6.929   4.554
10580TIP3   OH231696   3.827   1.019   1.551
10580TIP3    H131697   3.839   0.928   1.578
10580TIP3    H231698   3.901   1.037   1.494
10581TIP3   OH231699   6.840   7.263   1.039
10581TIP3    H131700   6.906   7.308   0.986
10581TIP3    H231701   6.889   7.198   1.089
10582TIP3   OH231702   7.456   4.609   6.131
10582TIP3    H131703   7.490   4.537   6.078
10582TIP3    H231704   7.367   4.622   6.100
10583TIP3   OH231705   0.077   7.189   2.672
10583TIP3    H131706   0.050   7.259   2.732
10583TIP3    H231707   0.069   7.228   2.585
10584TIP3   OH231708   7.736   2.670   2.720
10584TIP3    H131709   7.812   2.726   2.709
10584TIP3    H231710   7.751   2.596   2.662
10585TIP3   OH231711   5.915   3.782   0.380
10585TIP3    H131712   5.981   3.714   0.375
10585TIP3    H231713   5.932   3.826   0.463
10586TIP3   OH231714   3.412   3.180   6.401
10586TIP3    H131715   3.394   3.273   6.421
10586TIP3    H231716   3.506   3.177   6.387
10587TIP3   OH231717   5.229   3.134   0.377
10587TIP3    H131718   5.259   3.183   0.301
10587TIP3    H231719   5.308   3.090   0.409
10588TIP3   OH231720   4.424   3.945   0.740
10588TIP3    H131721   4.439   4.036   0.767
10588TIP3    H231722   4.361   3.912   0.805
10589TIP3   OH231723   1.583   2.796   5.452
10589TIP3    H131724   1.527   2.850   5.396
10589TIP3    H231725   1.608   2.722   5.396
10590TIP3   OH231726   6.327   1.867   5.720
10590TIP3    H131727   6.375   1.833   5.795
10590TIP3    H231728   6.256   1.805   5.706
10591TIP3   OH231729   5.728   7.281   4.780
10591TIP3    H131730   5.757   7.308   4.867
10591TIP3    H231731   5.720   7.363   4.731
10592TIP3   OH231732   4.203   0.574   5.750
10592TIP3    H131733   4.241   0.508   5.807
10592TIP3    H231734   4.278   0.621   5.714
10593TIP3   OH231735   0.269   5.433   3.776
10593TIP3    H131736   0.248   5.430   3.869
10593TIP3    H231737   0.191   5.470   3.735
10594TIP3   OH231738   5.879   4.644   1.887
10594TIP3    H131739   5.936   4.659   1.812
10594TIP3    H231740   5.792   4.630   1.850
10595TIP3   OH231741   1.595   6.689   4.244
10595TIP3    H131742   1.522   6.640   4.280
10595TIP3    H231743   1.622   6.639   4.167
10596TIP3   OH231744   5.780   3.372   3.119
10596TIP3    H131745   5.847   3.348   3.182
10596TIP3    H231746   5.815   3.342   3.035
10597TIP3   OH231747   7.575   7.390   3.406
10597TIP3    H131748   7.585   7.297   3.426
10597TIP3    H231749   7.492   7.396   3.359
10598TIP3   OH231750   2.344   0.223   2.675
10598TIP3    H131751   2.276   0.203   2.611
10598TIP3    H231752   2.380   0.307   2.646
10599TIP3   OH231753   5.518   3.219   1.769
10599TIP3    H131754   5.513   3.219   1.864
10599TIP3    H231755   5.610   3.202   1.749
10600TIP3   OH231756   7.940   3.176   1.899
10600TIP3    H131757   7.865   3.235   1.899
10600TIP3    H231758   7.932   3.127   1.980
10601TIP3   OH231759   1.909   0.859   3.359
10601TIP3    H131760   1.952   0.944   3.350
10601TIP3    H231761   1.931   0.812   3.279
10602TIP3   OH231762   5.529   5.701   0.859
10602TIP3    H131763   5.454   5.751   0.829
10602TIP3    H231764   5.502   5.666   0.944
10603TIP3   OH231765   1.705   2.588   3.483
10603TIP3    H131766   1.650   2.525   3.435
10603TIP3    H231767   1.745   2.642   3.415
10604TIP3   OH231768   3.219   5.325   1.421
10604TIP3    H131769   3.187   5.236   1.406
10604TIP3    H231770   3.223   5.333   1.516
10605TIP3   OH231771   0.730   3.440   2.819
10605TIP3    H131772   0.713   3.385   2.896
10605TIP3    H231773   0.824   3.456   2.823
10606TIP3   OH231774   6.482   6.463   4.545
10606TIP3    H131775   6.397   6.434   4.512
10606TIP3    H231776   6.462   6.542   4.595
10607TIP3   OH231777   5.425   4.319   5.949
10607TIP3    H131778   5.446   4.275   6.032
10607TIP3    H231779   5.510   4.332   5.907
10608TIP3   OH231780   1.804   4.685   1.139
10608TIP3    H131781   1.763   4.746   1.200
10608TIP3    H231782   1.801   4.730   1.054
10609TIP3   OH231783   7.784   4.857   4.049
10609TIP3    H131784   7.860   4.799   4.055
10609TIP3    H231785   7.818   4.944   4.067
10610TIP3   OH231786   4.016   5.089   6.065
10610TIP3    H131787   3.978   5.003   6.080
10610TIP3    H231788   3.997   5.138   6.145
10611TIP3   OH231789   2.035   2.697   1.759
10611TIP3    H131790   2.025   2.603   1.770
10611TIP3    H231791   2.101   2.722   1.823
10612TIP3   OH231792   5.514   1.524   0.866
10612TIP3    H131793   5.510   1.532   0.961
10612TIP3    H231794   5.430   1.486   0.841
10613TIP3   OH231795   3.393   0.669   5.589
10613TIP3    H131796   3.350   0.722   5.522
10613TIP3    H231797   3.373   0.578   5.565
10614TIP3   OH231798   3.555   2.074   5.604
10614TIP3    H131799   3.526   2.069   5.513
10614TIP3    H231800   3.476   2.099   5.652
10615TIP3   OH231801   1.617   4.521   6.629
10615TIP3    H131802   1.525   4.510   6.605
10615TIP3    H231803   1.617   4.595   6.691
10616TIP3   OH231804   4.173   3.813   0.199
10616TIP3    H131805   4.226   3.893   0.202
10616TIP3    H231806   4.084   3.843   0.218
10617TIP3   OH231807   3.333   2.683   1.626
10617TIP3    H131808   3.375   2.725   1.551
10617TIP3    H231809   3.348   2.743   1.699
10618TIP3   OH231810   2.337   5.208   3.163
10618TIP3    H131811   2.300   5.119   3.162
10618TIP3    H231812   2.293   5.251   3.237
10619TIP3   OH231813   7.214   0.476   5.453
10619TIP3    H131814   7.176   0.480   5.366
10619TIP3    H231815   7.291   0.533   5.449
10620TIP3   OH231816   3.208   6.275   3.431
10620TIP3    H131817   3.121   6.245   3.402
10620TIP3    H231818   3.193   6.363   3.466
10621TIP3   OH231819   5.197   3.106   2.758
10621TIP3    H131820   5.186   3.026   2.706
10621TIP3    H231821   5.114   3.153   2.749
10622TIP3   OH231822   0.643   4.300   1.621
10622TIP3    H131823   0.705   4.292   1.549
10622TIP3    H231824   0.559   4.321   1.579
10623TIP3   OH231825   1.022   2.707   0.740
10623TIP3    H131826   1.034   2.784   0.684
10623TIP3    H231827   0.977   2.740   0.817
10624TIP3   OH231828   3.150   3.238   5.044
10624TIP3    H131829   3.065   3.239   5.088
10624TIP3    H231830   3.205   3.295   5.097
10625TIP3   OH231831   0.163   3.625   0.047
10625TIP3    H131832   0.098   3.587  -0.013
10625TIP3    H231833   0.244   3.626  -0.003
10626TIP3   OH231834   7.167   0.864   0.071
10626TIP3    H131835   7.121   0.930   0.020
10626TIP3    H231836   7.198   0.910   0.149
10627TIP3   OH231837   4.602   1.087   4.058
10627TIP3    H131838   4.696   1.093   4.043
10627TIP3    H231839   4.586   0.993   4.071
10628TIP3   OH231840   1.117   2.383   4.724
10628TIP3    H131841   1.162   2.412   4.645
10628TIP3    H231842   1.140   2.291   4.732
10629TIP3   OH231843   2.171   6.183   5.787
10629TIP3    H131844   2.100   6.140   5.739
10629TIP3    H231845   2.186   6.127   5.863
10630TIP3   OH231846   2.137   5.558   5.442
10630TIP3    H131847   2.102   5.554   5.531
10630TIP3    H231848   2.174   5.647   5.435
10631TIP3   OH231849   7.000   4.002   2.256
10631TIP3    H131850   7.095   4.008   2.263
10631TIP3    H231851   6.970   3.986   2.345
10632TIP3   OH231852   5.493   4.996   2.697
10632TIP3    H131853   5.424   4.985   2.633
10632TIP3    H231854   5.461   4.950   2.775
10633TIP3   OH231855   2.705   3.320   2.924
10633TIP3    H131856   2.643   3.390   2.946
10633TIP3    H231857   2.779   3.365   2.884
10634TIP3   OH231858   0.588   3.761   5.738
10634TIP3    H131859   0.602   3.717   5.654
10634TIP3    H231860   0.635   3.845   5.728
10635TIP3   OH231861   2.067   5.013   6.354
10635TIP3    H131862   1.989   5.063   6.377
10635TIP3    H231863   2.094   4.971   6.436
10636TIP3   OH231864   2.274   6.091   6.010
10636TIP3    H131865   2.366   6.068   6.008
10636TIP3    H231866   2.238   6.042   6.084
10637TIP3   OH231867   4.443   7.629   6.643
10637TIP3    H131868   4.419   7.715   6.607
10637TIP3    H231869   4.408   7.567   6.579
10638TIP3   OH231870   1.208   7.434   0.868
10638TIP3    H131871   1.281   7.443   0.807
10638TIP3    H231872   1.130   7.427   0.813
10639TIP3   OH231873   6.783   6.613   2.381
10639TIP3    H131874   6.688   6.621   2.387
10639TIP3    H231875   6.811   6.588   2.469
10640TIP3   OH231876   1.601   1.105   1.953
10640TIP3    H131877   1.644   1.191   1.963
10640TIP3    H231878   1.667   1.042   1.981
10641TIP3   OH231879   4.272   4.503   3.385
10641TIP3    H131880   4.322   4.564   3.439
10641TIP3    H231881   4.276   4.420   3.433
10642TIP3   OH231882   3.101   3.624   6.655
10642TIP3    H131883   3.181   3.602   6.704
10642TIP3    H231884   3.040   3.553   6.676
10643TIP3   OH231885   2.534   3.312   0.708
10643TIP3    H131886   2.612   3.347   0.752
10643TIP3    H231887   2.506   3.382   0.649
10644TIP3   OH231888   2.516   0.132   6.551
10644TIP3    H131889   2.506   0.074   6.627
10644TIP3    H231890   2.609   0.125   6.527
10645TIP3   OH231891   8.210   6.389   0.787
10645TIP3    H131892   8.253   6.453   0.729
10645TIP3    H231893   8.129   6.433   0.814
10646TIP3   OH231894   5.584   0.954   2.040
10646TIP3    H131895   5.600   0.965   1.946
10646TIP3    H231896   5.660   0.906   2.072
10647TIP3   OH231897   7.091   1.570   4.048
10647TIP3    H131898   7.087   1.652   3.999
10647TIP3    H231899   7.128   1.594   4.132
10648TIP3   OH231900   1.580   4.068   1.503
10648TIP3    H131901   1.493   4.036   1.523
10648TIP3    H231902   1.595   4.138   1.567
10649TIP3   OH231903   5.099   6.888   6.080
10649TIP3    H131904   5.155   6.857   6.151
10649TIP3    H231905   5.011   6.857   6.103
10650TIP3   OH231906   7.473   0.012   6.614
10650TIP3    H131907   7.429  -0.023   6.691
10650TIP3    H231908   7.540   0.071   6.649
10651TIP3   OH231909   7.283   3.132   3.923
10651TIP3    H131910   7.266   3.188   3.998
10651TIP3    H231911   7.291   3.044   3.960
10652TIP3   OH231912   0.492   5.978   3.114
10652TIP3    H131913   0.515   5.942   3.200
10652TIP3    H231914   0.396   5.976   3.113
10653TIP3   OH231915   4.586   5.705   1.820
10653TIP3    H131916   4.616   5.676   1.733
10653TIP3    H231917   4.658   5.683   1.879
10654TIP3   OH231918   0.947   0.057   0.698
10654TIP3    H131919   0.880   0.104   0.748
10654TIP3    H231920   0.898   0.005   0.635
10655TIP3   OH231921   7.807   1.489   0.122
10655TIP3    H131922   7.866   1.547   0.170
10655TIP3    H231923   7.725   1.492   0.170
10656TIP3   OH231924   6.321   3.090   3.198
10656TIP3    H131925   6.343   3.169   3.149
10656TIP3    H231926   6.236   3.062   3.162
10657TIP3   OH231927   3.660   2.797   3.347
10657TIP3    H131928   3.602   2.863   3.308
10657TIP3    H231929   3.604   2.750   3.409
10658TIP3   OH231930   4.624   6.708   4.094
10658TIP3    H131931   4.591   6.747   4.175
10658TIP3    H231932   4.548   6.706   4.036
10659TIP3   OH231933   1.561   4.189   0.763
10659TIP3    H131934   1.562   4.181   0.668
10659TIP3    H231935   1.653   4.195   0.788
10660TIP3   OH231936   4.738   4.498   3.528
10660TIP3    H131937   4.729   4.546   3.446
10660TIP3    H231938   4.650   4.499   3.566
10661TIP3   OH231939   1.067   3.542   3.935
10661TIP3    H131940   0.975   3.550   3.958
10661TIP3    H231941   1.072   3.571   3.844
10662TIP3   OH231942   3.691   7.790   3.318
10662TIP3    H131943   3.608   7.760   3.355
10662TIP3    H231944   3.681   7.778   3.224
10663TIP3   OH231945   5.122   1.757   5.926
10663TIP3    H131946   5.159   1.693   5.987
10663TIP3    H231947   5.029   1.735   5.923
10664TIP3   OH231948   2.407   1.025   3.962
10664TIP3    H131949   2.324   0.980   3.943
10664TIP3    H231950   2.438   0.986   4.044
10665TIP3   OH231951   6.839   6.715   0.027
10665TIP3    H131952   6.896   6.773  -0.024
10665TIP3    H231953   6.898   6.646   0.059
10666TIP3   OH231954   6.737   3.291   0.706
10666TIP3    H131955   6.752   3.360   0.771
10666TIP3    H231956   6.659   3.321   0.658
10667TIP3   OH231957   6.260   4.261   2.172
10667TIP3    H131958   6.174   4.292   2.201
10667TIP3    H231959   6.257   4.166   2.184
10668TIP3   OH231960   2.235   2.794   1.937
10668TIP3    H131961   2.293   2.859   1.976
10668TIP3    H231962   2.231   2.724   2.002
10669TIP3   OH231963   5.826   3.675   2.333
10669TIP3    H131964   5.881   3.729   2.277
10669TIP3    H231965   5.815   3.726   2.413
10670TIP3   OH231966   1.929   5.936   5.354
10670TIP3    H131967   1.909   5.995   5.427
10670TIP3    H231968   1.891   5.852   5.380
10671TIP3   OH231969   5.526   0.316   5.883
10671TIP3    H131970   5.488   0.352   5.803
10671TIP3    H231971   5.451   0.286   5.934
10672TIP3   OH231972   5.613   4.327   2.449
10672TIP3    H131973   5.536   4.283   2.486
10672TIP3    H231974   5.637   4.273   2.374
10673TIP3   OH231975   4.914   6.780   5.537
10673TIP3    H131976   4.977   6.832   5.487
10673TIP3    H231977   4.965   6.706   5.570
10674TIP3   OH231978   8.036   7.821   1.953
10674TIP3    H131979   8.085   7.787   1.877
10674TIP3    H231980   8.077   7.778   2.028
10675TIP3   OH231981   8.248   0.005   0.081
10675TIP3    H131982   8.196   0.045   0.150
10675TIP3    H231983   8.336  -0.003   0.119
10676TIP3   OH231984   1.997   3.529   0.133
10676TIP3    H131985   1.915   3.562   0.167
10676TIP3    H231986   2.064   3.562   0.193
10677TIP3   OH231987   7.363   6.296   2.640
10677TIP3    H131988   7.341   6.379   2.681
10677TIP3    H231989   7.457   6.285   2.658
10678TIP3   OH231990   8.041   2.444   6.118
10678TIP3    H131991   8.035   2.436   6.213
10678TIP3    H231992   8.109   2.510   6.103
10679TIP3   OH231993   2.512   2.372   5.712
10679TIP3    H131994   2.589   2.422   5.685
10679TIP3    H231995   2.544   2.283   5.725
10680TIP3   OH231996   6.717   3.214   5.948
10680TIP3    H131997   6.646   3.263   5.990
10680TIP3    H231998   6.675   3.135   5.914
10681TIP3   OH231999   5.082   7.574   0.547
10681TIP3    H132000   5.024   7.504   0.574
10681TIP3    H232001   5.125   7.603   0.628
10682TIP3   OH232002   1.429   2.440   2.390
10682TIP3    H132003   1.441   2.374   2.458
10682TIP3    H232004   1.478   2.516   2.421
10683TIP3   OH232005   7.834   1.105   2.941
10683TIP3    H132006   7.850   1.192   2.904
10683TIP3    H232007   7.888   1.103   3.020
10684TIP3   OH232008   2.287   1.792   1.486
10684TIP3    H132009   2.217   1.729   1.472
10684TIP3    H232010   2.246   1.864   1.533
10685TIP3   OH232011   1.308   7.519   6.262
10685TIP3    H132012   1.338   7.606   6.235
10685TIP3    H232013   1.377   7.460   6.232
10686TIP3   OH232014   1.469   0.636   2.532
10686TIP3    H132015   1.446   0.661   2.622
10686TIP3    H232016   1.403   0.572   2.507
10687TIP3   OH232017   0.930   1.445   5.436
10687TIP3    H132018   0.853   1.418   5.386
10687TIP3    H232019   0.982   1.497   5.375
10688TIP3   OH232020   5.273   7.142   0.599
10688TIP3    H132021   5.204   7.204   0.622
10688TIP3    H232022   5.309   7.176   0.517
10689TIP3   OH232023   2.813   6.665   4.852
10689TIP3    H132024   2.766   6.738   4.812
10689TIP3    H232025   2.895   6.703   4.884
10690TIP3   OH232026   7.313   3.004   5.832
10690TIP3    H132027   7.243   2.958   5.786
10690TIP3    H232028   7.322   3.087   5.785
10691TIP3   OH232029   4.923   6.517   5.953
10691TIP3    H132030   4.935   6.559   6.038
10691TIP3    H232031   5.010   6.484   5.930
10692TIP3   OH232032   7.881   7.041   5.589
10692TIP3    H132033   7.897   6.949   5.607
10692TIP3    H232034   7.966   7.083   5.600
10693TIP3   OH232035   7.324   1.507   2.767
10693TIP3    H132036   7.280   1.463   2.694
10693TIP3    H232037   7.277   1.589   2.777
10694TIP3   OH232038   4.347   0.680   4.919
10694TIP3    H132039   4.387   0.646   4.839
10694TIP3    H232040   4.360   0.775   4.913
10695TIP3   OH232041   5.482   6.738   4.859
10695TIP3    H132042   5.453   6.654   4.895
10695TIP3    H232043   5.416   6.801   4.887
10696TIP3   OH232044   1.319   7.292   5.582
10696TIP3    H132045   1.234   7.285   5.539
10696TIP3    H232046   1.317   7.377   5.626
10697TIP3   OH232047   6.272   6.321   5.899
10697TIP3    H132048   6.196   6.365   5.863
10697TIP3    H232049   6.345   6.350   5.844
10698TIP3   OH232050   1.377   5.189   6.640
10698TIP3    H132051   1.291   5.207   6.603
10698TIP3    H232052   1.359   5.143   6.722
10699TIP3   OH232053   5.750   3.459   5.232
10699TIP3    H132054   5.714   3.544   5.258
10699TIP3    H232055   5.753   3.409   5.313
10700TIP3   OH232056   4.577   1.383   5.686
10700TIP3    H132057   4.526   1.449   5.733
10700TIP3    H232058   4.661   1.426   5.669
10701TIP3   OH232059   4.777   4.781   3.874
10701TIP3    H132060   4.868   4.774   3.845
10701TIP3    H232061   4.772   4.725   3.952
10702TIP3   OH232062   2.754   6.261   1.902
10702TIP3    H132063   2.775   6.352   1.881
10702TIP3    H232064   2.716   6.226   1.822
10703TIP3   OH232065   5.671   0.785   3.509
10703TIP3    H132066   5.722   0.735   3.445
10703TIP3    H232067   5.611   0.838   3.455
10704TIP3   OH232068   2.938   0.764   2.441
10704TIP3    H132069   2.929   0.833   2.508
10704TIP3    H232070   2.848   0.741   2.418
10705TIP3   OH232071   7.730   1.524   0.886
10705TIP3    H132072   7.726   1.430   0.865
10705TIP3    H232073   7.691   1.531   0.973
10706TIP3   OH232074   5.864   6.928   6.244
10706TIP3    H132075   5.802   6.957   6.311
10706TIP3    H232076   5.816   6.936   6.162
10707TIP3   OH232077   0.126   2.744   6.663
10707TIP3    H132078   0.086   2.811   6.718
10707TIP3    H232079   0.180   2.793   6.601
10708TIP3   OH232080   6.300   4.265   3.133
10708TIP3    H132081   6.275   4.310   3.214
10708TIP3    H232082   6.384   4.305   3.109
10709TIP3   OH232083   1.468   0.400   6.717
10709TIP3    H132084   1.556   0.370   6.697
10709TIP3    H232085   1.480   0.481   6.765
10710TIP3   OH232086   1.429   6.159   3.757
10710TIP3    H132087   1.359   6.220   3.732
10710TIP3    H232088   1.409   6.135   3.848
10711TIP3   OH232089   3.653   3.162   3.455
10711TIP3    H132090   3.666   3.254   3.478
10711TIP3    H232091   3.698   3.113   3.524
10712TIP3   OH232092   6.976   0.433   0.910
10712TIP3    H132093   6.913   0.503   0.929
10712TIP3    H232094   6.930   0.352   0.933
10713TIP3   OH232095   8.072   2.507   4.735
10713TIP3    H132096   8.020   2.490   4.657
10713TIP3    H232097   8.162   2.489   4.708
10714TIP3   OH232098   2.039   7.467   4.628
10714TIP3    H132099   2.038   7.394   4.690
10714TIP3    H232100   1.959   7.456   4.577
10715TIP3   OH232101   7.792   3.789   3.848
10715TIP3    H132102   7.746   3.748   3.922
10715TIP3    H232103   7.736   3.862   3.822
10716TIP3   OH232104   2.665   6.359   0.511
10716TIP3    H132105   2.722   6.419   0.559
10716TIP3    H232106   2.706   6.350   0.425
10717TIP3   OH232107   4.090   3.260   4.839
10717TIP3    H132108   4.095   3.350   4.805
10717TIP3    H232109   4.119   3.267   4.930
10718TIP3   OH232110   7.729   6.620   4.016
10718TIP3    H132111   7.667   6.554   3.987
10718TIP3    H232112   7.722   6.619   4.112
10719TIP3   OH232113   0.535   4.365   3.640
10719TIP3    H132114   0.475   4.337   3.571
10719TIP3    H232115   0.555   4.456   3.620
10720TIP3   OH232116   7.032   5.187   2.154
10720TIP3    H132117   7.033   5.118   2.220
10720TIP3    H232118   7.068   5.264   2.198
10721TIP3   OH232119   1.070   7.592   0.549
10721TIP3    H132120   1.060   7.627   0.638
10721TIP3    H232121   1.139   7.526   0.557
10722TIP3   OH232122   8.021   1.793   1.424
10722TIP3    H132123   8.085   1.784   1.354
10722TIP3    H232124   8.049   1.729   1.490
10723TIP3   OH232125   1.936   1.594   4.236
10723TIP3    H132126   1.905   1.684   4.232
10723TIP3    H232127   1.966   1.582   4.326
10724TIP3   OH232128   1.925   0.660   5.314
10724TIP3    H132129   1.942   0.627   5.226
10724TIP3    H232130   1.915   0.582   5.368
10725TIP3   OH232131   5.315   2.027   3.997
10725TIP3    H132132   5.235   1.998   3.954
10725TIP3    H232133   5.382   1.964   3.970
10726TIP3   OH232134   7.479   3.892   5.394
10726TIP3    H132135   7.488   3.889   5.489
10726TIP3    H232136   7.418   3.820   5.374
10727TIP3   OH232137   4.047   2.731   6.425
10727TIP3    H132138   4.028   2.798   6.492
10727TIP3    H232139   4.013   2.650   6.462
10728TIP3   OH232140   1.626   0.464   5.991
10728TIP3    H132141   1.562   0.395   5.977
10728TIP3    H232142   1.577   0.535   6.032
10729TIP3   OH232143   1.462   2.683   2.793
10729TIP3    H132144   1.423   2.624   2.856
10729TIP3    H232145   1.402   2.758   2.789
10730TIP3   OH232146   1.044   0.536   0.227
10730TIP3    H132147   1.057   0.441   0.231
10730TIP3    H232148   0.975   0.548   0.162
10731TIP3   OH232149   6.348   3.798   4.906
10731TIP3    H132150   6.430   3.842   4.924
10731TIP3    H232151   6.365   3.705   4.924
10732TIP3   OH232152   1.179   1.676   3.818
10732TIP3    H132153   1.183   1.580   3.811
10732TIP3    H232154   1.264   1.701   3.855
10733TIP3   OH232155   8.027   5.919   2.571
10733TIP3    H132156   8.029   5.865   2.492
10733TIP3    H232157   8.027   6.009   2.540
10734TIP3   OH232158   4.877   0.956   0.991
10734TIP3    H132159   4.937   0.949   0.917
10734TIP3    H232160   4.849   0.866   1.009
10735TIP3   OH232161   3.523   6.995   4.328
10735TIP3    H132162   3.461   6.994   4.401
10735TIP3    H232163   3.516   7.084   4.292
10736TIP3   OH232164   5.872   1.080   3.909
10736TIP3    H132165   5.915   0.997   3.933
10736TIP3    H232166   5.931   1.120   3.846
10737TIP3   OH232167   4.445   5.467   5.070
10737TIP3    H132168   4.519   5.509   5.114
10737TIP3    H232169   4.418   5.398   5.130
10738TIP3   OH232170   5.561   2.626   1.518
10738TIP3    H132171   5.508   2.702   1.542
10738TIP3    H232172   5.591   2.646   1.429
10739TIP3   OH232173   3.679   6.443   2.161
10739TIP3    H132174   3.714   6.485   2.082
10739TIP3    H232175   3.755   6.406   2.205
10740TIP3   OH232176   5.816   5.353   5.374
10740TIP3    H132177   5.766   5.378   5.297
10740TIP3    H232178   5.789   5.415   5.442
10741TIP3   OH232179   4.122   0.739   2.904
10741TIP3    H132180   4.157   0.781   2.826
10741TIP3    H232181   4.170   0.656   2.910
10742TIP3   OH232182   2.047   4.648   0.092
10742TIP3    H132183   2.008   4.608   0.170
10742TIP3    H232184   2.097   4.577   0.052
10743TIP3   OH232185   4.091   7.074   5.498
10743TIP3    H132186   4.028   7.042   5.563
10743TIP3    H232187   4.140   7.142   5.544
10744TIP3   OH232188   8.270   0.428   5.283
10744TIP3    H132189   8.181   0.417   5.251
10744TIP3    H232190   8.308   0.340   5.279
10745TIP3   OH232191   0.416   4.465   5.405
10745TIP3    H132192   0.326   4.451   5.374
10745TIP3    H232193   0.441   4.381   5.443
10746TIP3   OH232194   8.134   1.471   5.900
10746TIP3    H132195   8.175   1.511   5.977
10746TIP3    H232196   8.081   1.399   5.935
10747TIP3   OH232197   0.579   4.771   3.814
10747TIP3    H132198   0.521   4.697   3.795
10747TIP3    H232199   0.542   4.844   3.765
10748TIP3   OH232200   3.143   7.495   0.473
10748TIP3    H132201   3.127   7.568   0.414
10748TIP3    H232202   3.225   7.456   0.442
10749TIP3   OH232203   5.818   3.252   2.493
10749TIP3    H132204   5.911   3.268   2.479
10749TIP3    H232205   5.782   3.242   2.405
10750TIP3   OH232206   1.877   2.336   3.907
10750TIP3    H132207   1.873   2.346   3.812
10750TIP3    H232208   1.940   2.401   3.936
10751TIP3   OH232209   1.971   5.191   3.859
10751TIP3    H132210   1.919   5.206   3.780
10751TIP3    H232211   2.018   5.110   3.842
10752TIP3   OH232212   3.372   7.439   1.109
10752TIP3    H132213   3.369   7.361   1.165
10752TIP3    H232214   3.334   7.410   1.026
10753TIP3   OH232215   8.147   7.627   2.121
10753TIP3    H132216   8.188   7.580   2.048
10753TIP3    H232217   8.219   7.648   2.179
10754TIP3   OH232218   2.035   2.473   2.798
10754TIP3    H132219   2.051   2.387   2.836
10754TIP3    H232220   2.039   2.533   2.873
10755TIP3   OH232221   1.951   1.935   0.530
10755TIP3    H132222   2.044   1.956   0.525
10755TIP3    H232223   1.948   1.843   0.556
10756TIP3   OH232224   6.454   3.034   5.342
10756TIP3    H132225   6.436   2.969   5.274
10756TIP3    H232226   6.417   3.115   5.308
10757TIP3   OH232227   3.233   0.763   2.926
10757TIP3    H132228   3.287   0.810   2.862
10757TIP3    H232229   3.295   0.736   2.994
10758TIP3   OH232230   2.400   1.480   4.128
10758TIP3    H132231   2.327   1.418   4.133
10758TIP3    H232232   2.405   1.518   4.216
10759TIP3   OH232233   7.735   4.447   5.420
10759TIP3    H132234   7.708   4.497   5.497
10759TIP3    H232235   7.829   4.434   5.432
10760TIP3   OH232236   4.969   1.423   2.937
10760TIP3    H132237   4.987   1.517   2.947
10760TIP3    H232238   4.959   1.391   3.027
10761TIP3   OH232239   3.114   2.495   0.067
10761TIP3    H132240   3.192   2.440   0.054
10761TIP3    H232241   3.149   2.578   0.098
10762TIP3   OH232242   2.843   6.216   4.780
10762TIP3    H132243   2.879   6.270   4.709
10762TIP3    H232244   2.859   6.268   4.859
10763TIP3   OH232245   3.321   0.398   2.197
10763TIP3    H132246   3.337   0.303   2.189
10763TIP3    H232247   3.226   0.406   2.197
10764TIP3   OH232248   2.841   7.396   4.938
10764TIP3    H132249   2.933   7.414   4.956
10764TIP3    H232250   2.794   7.452   5.000
10765TIP3   OH232251   4.077   1.840   4.874
10765TIP3    H132252   4.165   1.830   4.840
10765TIP3    H232253   4.031   1.760   4.847
10766TIP3   OH232254   4.505   6.887   5.765
10766TIP3    H132255   4.433   6.863   5.708
10766TIP3    H232256   4.576   6.911   5.706
10767TIP3   OH232257   7.601   0.250   2.466
10767TIP3    H132258   7.510   0.238   2.494
10767TIP3    H232259   7.595   0.273   2.373
10768TIP3   OH232260   0.964   1.387   6.241
10768TIP3    H132261   0.937   1.366   6.152
10768TIP3    H232262   0.903   1.456   6.268
10769TIP3   OH232263   4.465   1.215   1.397
10769TIP3    H132264   4.489   1.125   1.416
10769TIP3    H232265   4.373   1.210   1.372
10770TIP3   OH232266   5.605   1.517   0.613
10770TIP3    H132267   5.563   1.485   0.693
10770TIP3    H232268   5.695   1.534   0.638
10771TIP3   OH232269   6.435   1.799   0.033
10771TIP3    H132270   6.526   1.802   0.062
10771TIP3    H232271   6.432   1.855  -0.045
10772TIP3   OH232272   2.514   0.467   0.406
10772TIP3    H132273   2.533   0.376   0.381
10772TIP3    H232274   2.436   0.490   0.355
10773TIP3   OH232275   3.095   0.807   0.420
10773TIP3    H132276   3.108   0.822   0.513
10773TIP3    H232277   3.170   0.754   0.393
10774TIP3   OH232278   5.402   4.720   1.789
10774TIP3    H132279   5.370   4.708   1.878
10774TIP3    H232280   5.337   4.676   1.734
10775TIP3   OH232281   1.924   1.282   5.752
10775TIP3    H132282   1.906   1.315   5.841
10775TIP3    H232283   1.905   1.357   5.695
10776TIP3   OH232284   4.936   0.824   2.177
10776TIP3    H132285   4.923   0.909   2.219
10776TIP3    H232286   4.966   0.845   2.089
10777TIP3   OH232287   7.732   2.351   0.702
10777TIP3    H132288   7.667   2.422   0.694
10777TIP3    H232289   7.685   2.281   0.748
10778TIP3   OH232290   7.693   0.267   1.039
10778TIP3    H132291   7.759   0.206   1.074
10778TIP3    H232292   7.703   0.345   1.093
10779TIP3   OH232293   1.049   1.180   0.591
10779TIP3    H132294   1.104   1.113   0.631
10779TIP3    H232295   1.102   1.214   0.519
10780TIP3   OH232296   0.050   2.340   0.555
10780TIP3    H132297   0.057   2.255   0.512
10780TIP3    H232298   0.126   2.389   0.523
10781TIP3   OH232299   4.799   0.844   2.484
10781TIP3    H132300   4.822   0.826   2.392
10781TIP3    H232301   4.726   0.785   2.502
10782TIP3   OH232302   6.590   7.612   4.895
10782TIP3    H132303   6.632   7.608   4.981
10782TIP3    H232304   6.651   7.663   4.842
10783TIP3   OH232305   6.433   0.772   3.581
10783TIP3    H132306   6.415   0.859   3.615
10783TIP3    H232307   6.526   0.774   3.558
10784TIP3   OH232308   3.540   0.909   0.233
10784TIP3    H132309   3.548   0.928   0.327
10784TIP3    H232310   3.506   0.990   0.195
10785TIP3   OH232311   0.336   1.779   3.605
10785TIP3    H132312   0.266   1.723   3.571
10785TIP3    H232313   0.290   1.845   3.656
10786TIP3   OH232314   7.193   6.615   1.179
10786TIP3    H132315   7.109   6.599   1.223
10786TIP3    H232316   7.168   6.654   1.095
10787TIP3   OH232317   7.777   6.293   4.667
10787TIP3    H132318   7.696   6.246   4.686
10787TIP3    H232319   7.774   6.308   4.573
10788TIP3   OH232320   5.931   6.093   4.699
10788TIP3    H132321   5.881   6.053   4.628
10788TIP3    H232322   5.869   6.096   4.773
10789TIP3   OH232323   2.877   1.554   6.186
10789TIP3    H132324   2.921   1.610   6.121
10789TIP3    H232325   2.893   1.597   6.270
10790TIP3   OH232326   3.309   3.252   3.313
10790TIP3    H132327   3.350   3.313   3.374
10790TIP3    H232328   3.268   3.308   3.247
10791TIP3   OH232329   0.214   2.060   1.837
10791TIP3    H132330   0.133   2.030   1.795
10791TIP3    H232331   0.233   1.993   1.902
10792TIP3   OH232332   0.297   4.280   6.309
10792TIP3    H132333   0.313   4.220   6.382
10792TIP3    H232334   0.272   4.362   6.352
10793TIP3   OH232335   3.343   1.118   4.516
10793TIP3    H132336   3.435   1.142   4.524
10793TIP3    H232337   3.320   1.139   4.426
10794TIP3   OH232338   6.785   0.615   1.029
10794TIP3    H132339   6.711   0.607   1.089
10794TIP3    H232340   6.855   0.652   1.082
10795TIP3   OH232341   8.014   2.024   6.467
10795TIP3    H132342   7.918   2.025   6.472
10795TIP3    H232343   8.034   1.940   6.425
10796TIP3   OH232344   1.100   4.340   5.861
10796TIP3    H132345   1.184   4.366   5.899
10796TIP3    H232346   1.059   4.286   5.929
10797TIP3   OH232347   1.490   7.467   3.064
10797TIP3    H132348   1.531   7.489   3.147
10797TIP3    H232349   1.412   7.416   3.088
10798TIP3   OH232350   6.287   1.130   0.559
10798TIP3    H132351   6.378   1.108   0.535
10798TIP3    H232352   6.246   1.151   0.475
10799TIP3   OH232353   3.647   3.396   3.791
10799TIP3    H132354   3.650   3.466   3.727
10799TIP3    H232355   3.628   3.317   3.740
10800TIP3   OH232356   2.118   0.286   0.114
10800TIP3    H132357   2.048   0.293   0.178
10800TIP3    H232358   2.186   0.235   0.159
10801TIP3   OH232359   5.669   0.179   4.018
10801TIP3    H132360   5.758   0.157   3.992
10801TIP3    H232361   5.673   0.272   4.041
10802TIP3   OH232362   1.385   0.349   4.863
10802TIP3    H132363   1.371   0.263   4.901
10802TIP3    H232364   1.338   0.409   4.922
10803TIP3   OH232365   2.911   1.712   2.480
10803TIP3    H132366   3.003   1.707   2.507
10803TIP3    H232367   2.896   1.805   2.463
10804TIP3   OH232368   3.218   3.917   4.071
10804TIP3    H132369   3.147   3.969   4.108
10804TIP3    H232370   3.217   3.836   4.122
10805TIP3   OH232371   3.865   1.296   4.807
10805TIP3    H132372   3.832   1.223   4.859
10805TIP3    H232373   3.939   1.260   4.759
10806TIP3   OH232374   1.202   1.927   2.635
10806TIP3    H132375   1.151   1.992   2.683
10806TIP3    H232376   1.147   1.848   2.637
10807TIP3   OH232377   5.861   2.665   6.273
10807TIP3    H132378   5.895   2.649   6.362
10807TIP3    H232379   5.773   2.627   6.275
10808TIP3   OH232380   5.168   4.412   6.240
10808TIP3    H132381   5.186   4.447   6.153
10808TIP3    H232382   5.213   4.328   6.243
10809TIP3   OH232383   1.412   4.109   5.069
10809TIP3    H132384   1.505   4.126   5.055
10809TIP3    H232385   1.368   4.179   5.021
10810TIP3   OH232386   7.687   4.449   1.435
10810TIP3    H132387   7.712   4.406   1.517
10810TIP3    H232388   7.700   4.382   1.369
10811TIP3   OH232389   3.358   0.411   5.509
10811TIP3    H132390   3.405   0.329   5.522
10811TIP3    H232391   3.271   0.384   5.480
10812TIP3   OH232392   2.488   7.557   1.498
10812TIP3    H132393   2.424   7.618   1.462
10812TIP3    H232394   2.452   7.470   1.482
10813TIP3   OH232395   3.044   1.620   0.178
10813TIP3    H132396   3.000   1.579   0.253
10813TIP3    H232397   3.103   1.684   0.217
10814TIP3   OH232398   0.205   3.933   2.654
10814TIP3    H132399   0.135   3.908   2.715
10814TIP3    H232400   0.285   3.931   2.706
10815TIP3   OH232401   6.540   1.425   3.882
10815TIP3    H132402   6.604   1.475   3.831
10815TIP3    H232403   6.589   1.350   3.916
10816TIP3   OH232404   0.686   6.822   5.835
10816TIP3    H132405   0.628   6.764   5.785
10816TIP3    H232406   0.688   6.783   5.923
10817TIP3   OH232407   0.958   2.820   0.989
10817TIP3    H132408   1.027   2.786   1.045
10817TIP3    H232409   0.984   2.911   0.971
10818TIP3   OH232410   5.495   7.345   1.425
10818TIP3    H132411   5.429   7.385   1.368
10818TIP3    H232412   5.454   7.265   1.456
10819TIP3   OH232413   3.858   0.119   4.460
10819TIP3    H132414   3.869   0.125   4.555
10819TIP3    H232415   3.948   0.110   4.426
10820TIP3   OH232416   2.333   3.819   6.196
10820TIP3    H132417   2.355   3.755   6.128
10820TIP3    H232418   2.352   3.904   6.156
10821TIP3   OH232419   7.487   6.600   0.178
10821TIP3    H132420   7.561   6.548   0.209
10821TIP3    H232421   7.452   6.642   0.257
10822TIP3   OH232422   7.181   7.664   5.965
10822TIP3    H132423   7.181   7.759   5.964
10822TIP3    H232424   7.266   7.640   6.003
10823TIP3   OH232425   1.423   7.350   0.407
10823TIP3    H132426   1.481   7.329   0.334
10823TIP3    H232427   1.335   7.340   0.371
10824TIP3   OH232428   7.819   0.234   4.376
10824TIP3    H132429   7.848   0.201   4.291
10824TIP3    H232430   7.825   0.159   4.435
10825TIP3   OH232431   2.666   6.343   5.889
10825TIP3    H132432   2.627   6.287   5.822
10825TIP3    H232433   2.651   6.432   5.857
10826TIP3   OH232434   0.350   7.032   1.034
10826TIP3    H132435   0.334   6.982   0.954
10826TIP3    H232436   0.419   7.094   1.010
10827TIP3   OH232437   6.474   4.560   6.575
10827TIP3    H132438   6.427   4.592   6.499
10827TIP3    H232439   6.519   4.637   6.610
10828TIP3   OH232440   6.698   4.718   0.206
10828TIP3    H132441   6.626   4.668   0.165
10828TIP3    H232442   6.654   4.785   0.257
10829TIP3   OH232443   1.989   0.668   1.407
10829TIP3    H132444   2.080   0.670   1.378
10829TIP3    H232445   1.939   0.689   1.329
10830TIP3   OH232446   1.603   1.973   5.191
10830TIP3    H132447   1.518   1.961   5.234
10830TIP3    H232448   1.583   1.981   5.098
10831TIP3   OH232449   4.295   5.207   2.519
10831TIP3    H132450   4.210   5.163   2.522
10831TIP3    H232451   4.292   5.270   2.591
10832TIP3   OH232452   2.939   7.551   2.530
10832TIP3    H132453   2.921   7.617   2.464
10832TIP3    H232454   3.032   7.561   2.550
10833TIP3   OH232455   2.379   1.838   4.216
10833TIP3    H132456   2.318   1.857   4.144
10833TIP3    H232457   2.441   1.911   4.215
10834TIP3   OH232458   6.349   6.122   1.776
10834TIP3    H132459   6.432   6.154   1.809
10834TIP3    H232460   6.369   6.036   1.738
10835TIP3   OH232461   7.226   4.710   6.019
10835TIP3    H132462   7.213   4.791   5.969
10835TIP3    H232463   7.146   4.659   6.003
10836TIP3   OH232464   4.276   5.665   2.229
10836TIP3    H132465   4.238   5.595   2.281
10836TIP3    H232466   4.301   5.732   2.293
10837TIP3   OH232467   5.794   6.116   0.174
10837TIP3    H132468   5.877   6.082   0.140
10837TIP3    H232469   5.763   6.176   0.106
10838TIP3   OH232470   1.604   1.979   2.267
10838TIP3    H132471   1.563   1.908   2.318
10838TIP3    H232472   1.536   2.007   2.207
10839TIP3   OH232473   5.850   7.117   5.271
10839TIP3    H132474   5.814   7.199   5.305
10839TIP3    H232475   5.776   7.073   5.230
10840TIP3   OH232476   6.544   0.359   6.362
10840TIP3    H132477   6.487   0.403   6.299
10840TIP3    H232478   6.489   0.348   6.440
10841TIP3   OH232479   4.218   2.126   5.870
10841TIP3    H132480   4.251   2.066   5.937
10841TIP3    H232481   4.256   2.211   5.894
10842TIP3   OH232482   6.181   2.550   2.836
10842TIP3    H132483   6.112   2.484   2.837
10842TIP3    H232484   6.184   2.580   2.745
10843TIP3   OH232485   6.412   2.689   1.537
10843TIP3    H132486   6.404   2.757   1.470
10843TIP3    H232487   6.483   2.719   1.594
10844TIP3   OH232488   4.101   4.899   4.381
10844TIP3    H132489   4.029   4.890   4.318
10844TIP3    H232490   4.147   4.816   4.378
10845TIP3   OH232491   6.358   7.105   0.207
10845TIP3    H132492   6.361   7.054   0.126
10845TIP3    H232493   6.270   7.142   0.208
10846TIP3   OH232494   0.270   1.599   2.618
10846TIP3    H132495   0.345   1.555   2.657
10846TIP3    H232496   0.278   1.690   2.647
10847TIP3   OH232497   6.833   4.512   1.027
10847TIP3    H132498   6.893   4.586   1.022
10847TIP3    H232499   6.759   4.545   1.079
10848TIP3   OH232500   0.161   6.434   0.923
10848TIP3    H132501   0.073   6.431   0.884
10848TIP3    H232502   0.175   6.527   0.943
10849TIP3   OH232503   7.346   6.345   3.921
10849TIP3    H132504   7.284   6.356   3.992
10849TIP3    H232505   7.299   6.296   3.854
10850TIP3   OH232506   2.604   6.738   3.262
10850TIP3    H132507   2.608   6.716   3.355
10850TIP3    H232508   2.533   6.684   3.228
10851TIP3   OH232509   6.211   5.231   3.312
10851TIP3    H132510   6.125   5.244   3.271
10851TIP3    H232511   6.267   5.296   3.270
10852TIP3   OH232512   1.812   7.717   2.900
10852TIP3    H132513   1.766   7.637   2.874
10852TIP3    H232514   1.903   7.690   2.910
10853TIP3   OH232515   0.430   6.704   6.162
10853TIP3    H132516   0.385   6.651   6.227
10853TIP3    H232517   0.432   6.792   6.200
10854TIP3   OH232518   0.632   0.804   3.226
10854TIP3    H132519   0.681   0.769   3.300
10854TIP3    H232520   0.638   0.736   3.158
10855TIP3   OH232521   6.342   6.319   1.126
10855TIP3    H132522   6.270   6.331   1.187
10855TIP3    H232523   6.307   6.260   1.059
10856TIP3   OH232524   8.091   4.031   3.938
10856TIP3    H132525   8.037   3.981   3.999
10856TIP3    H232526   8.123   3.966   3.876
10857TIP3   OH232527   1.133   1.558   3.514
10857TIP3    H132528   1.109   1.565   3.606
10857TIP3    H232529   1.069   1.496   3.477
10858TIP3   OH232530   6.945   7.657   1.272
10858TIP3    H132531   6.949   7.661   1.368
10858TIP3    H232532   6.894   7.578   1.254
10859TIP3   OH232533   3.439   5.740   2.827
10859TIP3    H132534   3.378   5.675   2.792
10859TIP3    H232535   3.506   5.748   2.759
10860TIP3   OH232536   4.418   6.808   1.557
10860TIP3    H132537   4.379   6.774   1.637
10860TIP3    H232538   4.382   6.754   1.487
10861TIP3   OH232539   4.053   7.405   6.136
10861TIP3    H132540   4.023   7.395   6.226
10861TIP3    H232541   4.083   7.496   6.130
10862TIP3   OH232542   0.126   0.570   1.591
10862TIP3    H132543   0.144   0.552   1.499
10862TIP3    H232544   0.193   0.633   1.617
10863TIP3   OH232545   4.509   3.150   5.686
10863TIP3    H132546   4.441   3.151   5.754
10863TIP3    H232547   4.461   3.133   5.605
10864TIP3   OH232548   5.173   1.928   4.684
10864TIP3    H132549   5.116   2.005   4.682
10864TIP3    H232550   5.228   1.936   4.606
10865TIP3   OH232551   1.147   6.703   2.829
10865TIP3    H132552   1.228   6.701   2.879
10865TIP3    H232553   1.083   6.658   2.884
10866TIP3   OH232554   0.014   0.063   6.221
10866TIP3    H132555  -0.015   0.016   6.299
10866TIP3    H232556   0.075   0.129   6.255
10867TIP3   OH232557   0.910   4.533   2.605
10867TIP3    H132558   0.927   4.442   2.581
10867TIP3    H232559   0.973   4.584   2.554
10868TIP3   OH232560   5.709   4.164   1.030
10868TIP3    H132561   5.731   4.078   1.066
10868TIP3    H232562   5.614   4.169   1.035
10869TIP3   OH232563   0.987   2.276   3.268
10869TIP3    H132564   0.943   2.191   3.273
10869TIP3    H232565   0.918   2.338   3.248
10870TIP3   OH232566   0.835   1.837   2.466
10870TIP3    H132567   0.848   1.751   2.505
10870TIP3    H232568   0.742   1.855   2.478
10871TIP3   OH232569   3.931   3.055   6.293
10871TIP3    H132570   4.015   3.046   6.248
10871TIP3    H232571   3.868   3.010   6.237
10872TIP3   OH232572   3.627   5.760   0.757
10872TIP3    H132573   3.660   5.695   0.819
10872TIP3    H232574   3.545   5.724   0.725
10873TIP3   OH232575   4.493   6.510   1.159
10873TIP3    H132576   4.478   6.587   1.104
10873TIP3    H232577   4.577   6.475   1.128
10874TIP3   OH232578   2.787   2.173   4.223
10874TIP3    H132579   2.843   2.234   4.174
10874TIP3    H232580   2.836   2.154   4.302
10875TIP3   OH232581   1.755   2.197   4.911
10875TIP3    H132582   1.748   2.286   4.943
10875TIP3    H232583   1.680   2.152   4.949
10876TIP3   OH232584   4.900   4.877   3.158
10876TIP3    H132585   4.885   4.783   3.144
10876TIP3    H232586   4.917   4.912   3.070
10877TIP3   OH232587   3.229   5.381   4.224
10877TIP3    H132588   3.285   5.307   4.204
10877TIP3    H232589   3.202   5.368   4.315
10878TIP3   OH232590   3.624   5.468   5.533
10878TIP3    H132591   3.554   5.441   5.593
10878TIP3    H232592   3.634   5.561   5.548
10879TIP3   OH232593   5.047   2.211   2.492
10879TIP3    H132594   5.026   2.118   2.497
10879TIP3    H232595   5.142   2.215   2.495
10880TIP3   OH232596   1.500   5.299   2.763
10880TIP3    H132597   1.585   5.253   2.764
10880TIP3    H232598   1.435   5.228   2.768
10881TIP3   OH232599   6.888   5.088   1.780
10881TIP3    H132600   6.919   5.166   1.734
10881TIP3    H232601   6.943   5.083   1.858
10882TIP3   OH232602   0.495   1.843   1.054
10882TIP3    H132603   0.577   1.796   1.037
10882TIP3    H232604   0.450   1.845   0.970
10883TIP3   OH232605   2.777   1.086   3.261
10883TIP3    H132606   2.766   0.995   3.288
10883TIP3    H232607   2.860   1.087   3.212
10884TIP3   OH232608   2.437   6.320   0.327
10884TIP3    H132609   2.469   6.283   0.409
10884TIP3    H232610   2.357   6.271   0.308
10885TIP3   OH232611   1.428   5.011   0.683
10885TIP3    H132612   1.404   4.994   0.591
10885TIP3    H232613   1.395   4.935   0.730
10886TIP3   OH232614   1.360   4.419   5.948
10886TIP3    H132615   1.412   4.496   5.925
10886TIP3    H232616   1.420   4.346   5.937
10887TIP3   OH232617   0.820   1.004   0.514
10887TIP3    H132618   0.906   1.031   0.482
10887TIP3    H232619   0.835   0.980   0.606
10888TIP3   OH232620   7.445   5.870   0.397
10888TIP3    H132621   7.535   5.856   0.426
10888TIP3    H232622   7.412   5.940   0.454
10889TIP3   OH232623   2.140   5.806   5.864
10889TIP3    H132624   2.142   5.792   5.958
10889TIP3    H232625   2.232   5.813   5.838
10890TIP3   OH232626   6.504   0.609   0.409
10890TIP3    H132627   6.565   0.563   0.351
10890TIP3    H232628   6.554   0.685   0.441
10891TIP3   OH232629   2.458   7.569   1.136
10891TIP3    H132630   2.485   7.503   1.199
10891TIP3    H232631   2.514   7.644   1.155
10892TIP3   OH232632   3.108   2.270   3.843
10892TIP3    H132633   3.063   2.189   3.817
10892TIP3    H232634   3.047   2.340   3.817
10893TIP3   OH232635   6.963   7.446   2.950
10893TIP3    H132636   6.922   7.397   2.879
10893TIP3    H232637   6.980   7.380   3.018
10894TIP3   OH232638   6.289   1.300   6.573
10894TIP3    H132639   6.346   1.228   6.546
10894TIP3    H232640   6.213   1.257   6.612
10895TIP3   OH232641   0.675   6.767   6.429
10895TIP3    H132642   0.650   6.835   6.366
10895TIP3    H232643   0.747   6.721   6.387
10896TIP3   OH232644   4.979   3.283   2.102
10896TIP3    H132645   4.915   3.226   2.060
10896TIP3    H232646   4.968   3.368   2.058
10897TIP3   OH232647   4.587   2.947   2.200
10897TIP3    H132648   4.517   2.922   2.260
10897TIP3    H232649   4.549   3.017   2.147
10898TIP3   OH232650   0.269   7.716   5.928
10898TIP3    H132651   0.218   7.740   6.005
10898TIP3    H232652   0.305   7.799   5.897
10899TIP3   OH232653   0.974   2.112   0.898
10899TIP3    H132654   0.936   2.087   0.814
10899TIP3    H232655   0.911   2.081   0.963
10900TIP3   OH232656   4.958   4.297   2.702
10900TIP3    H132657   4.924   4.233   2.639
10900TIP3    H232658   4.950   4.381   2.656
10901TIP3   OH232659   0.072   6.780   4.198
10901TIP3    H132660   0.025   6.857   4.166
10901TIP3    H232661   0.010   6.737   4.257
10902TIP3   OH232662   1.868   6.858   1.518
10902TIP3    H132663   1.937   6.922   1.539
10902TIP3    H232664   1.855   6.809   1.600
10903TIP3   OH232665   2.007   7.460   2.895
10903TIP3    H132666   1.956   7.391   2.936
10903TIP3    H232667   2.074   7.482   2.960
10904TIP3   OH232668   8.055   5.191   5.646
10904TIP3    H132669   8.106   5.252   5.699
10904TIP3    H232670   7.980   5.168   5.701
10905TIP3   OH232671   0.767   1.822   4.116
10905TIP3    H132672   0.740   1.843   4.027
10905TIP3    H232673   0.719   1.741   4.137
10906TIP3   OH232674   5.130   6.129   5.428
10906TIP3    H132675   5.161   6.042   5.404
10906TIP3    H232676   5.111   6.123   5.522
10907TIP3   OH232677   7.225   4.065   4.144
10907TIP3    H132678   7.224   4.097   4.054
10907TIP3    H232679   7.133   4.062   4.170
10908TIP3   OH232680   7.482   6.142   4.295
10908TIP3    H132681   7.387   6.148   4.308
10908TIP3    H232682   7.494   6.065   4.240
10909TIP3   OH232683   7.694   7.674   6.095
10909TIP3    H132684   7.726   7.732   6.026
10909TIP3    H232685   7.728   7.713   6.176
10910TIP3   OH232686   0.679   1.309   1.348
10910TIP3    H132687   0.725   1.230   1.319
10910TIP3    H232688   0.613   1.324   1.281
10911TIP3   OH232689   3.907   0.200   1.082
10911TIP3    H132690   3.849   0.241   1.019
10911TIP3    H232691   3.869   0.114   1.098
10912TIP3   OH232692   7.105   6.721   1.708
10912TIP3    H132693   7.161   6.651   1.674
10912TIP3    H232694   7.057   6.752   1.631
10913TIP3   OH232695   6.178   5.069   6.138
10913TIP3    H132696   6.196   5.004   6.206
10913TIP3    H232697   6.103   5.034   6.091
10914TIP3   OH232698   3.436   7.659   4.799
10914TIP3    H132699   3.445   7.572   4.839
10914TIP3    H232700   3.385   7.644   4.719
10915TIP3   OH232701   2.407   3.666   4.809
10915TIP3    H132702   2.427   3.720   4.732
10915TIP3    H232703   2.324   3.623   4.787
10916TIP3   OH232704   6.924   2.407   2.305
10916TIP3    H132705   6.842   2.389   2.351
10916TIP3    H232706   6.967   2.322   2.299
10917TIP3   OH232707   0.254   7.047   6.219
10917TIP3    H132708   0.227   6.974   6.276
10917TIP3    H232709   0.213   7.027   6.135
10918TIP3   OH232710   8.273   2.611   4.441
10918TIP3    H132711   8.333   2.571   4.378
10918TIP3    H232712   8.246   2.539   4.497
10919TIP3   OH232713   3.217   0.287   4.385
10919TIP3    H132714   3.133   0.324   4.357
10919TIP3    H232715   3.202   0.192   4.384
10920TIP3   OH232716   4.448   5.489   3.672
10920TIP3    H132717   4.451   5.547   3.749
10920TIP3    H232718   4.440   5.549   3.598
10921TIP3   OH232719   2.406   3.711   2.463
10921TIP3    H132720   2.334   3.650   2.478
10921TIP3    H232721   2.372   3.796   2.491
10922TIP3   OH232722   1.746   3.814   2.335
10922TIP3    H132723   1.688   3.844   2.265
10922TIP3    H232724   1.698   3.743   2.377
10923TIP3   OH232725   0.618   5.829   1.539
10923TIP3    H132726   0.538   5.858   1.583
10923TIP3    H232727   0.667   5.909   1.523
10924TIP3   OH232728   0.872   3.329   5.375
10924TIP3    H132729   0.795   3.312   5.430
10924TIP3    H232730   0.942   3.280   5.417
10925TIP3   OH232731   7.273   7.656   3.383
10925TIP3    H132732   7.337   7.670   3.313
10925TIP3    H232733   7.305   7.710   3.456
10926TIP3   OH232734   8.134   5.278   2.608
10926TIP3    H132735   8.185   5.201   2.581
10926TIP3    H232736   8.199   5.348   2.615
10927TIP3   OH232737   5.249   5.157   0.018
10927TIP3    H132738   5.303   5.230   0.047
10927TIP3    H232739   5.208   5.124   0.099
10928TIP3   OH232740   4.580   3.526   1.428
10928TIP3    H132741   4.499   3.537   1.379
10928TIP3    H232742   4.604   3.615   1.455
10929TIP3   OH232743   7.688   1.434   1.841
10929TIP3    H132744   7.767   1.383   1.822
10929TIP3    H232745   7.642   1.439   1.757
10930TIP3   OH232746   0.698   7.514   4.803
10930TIP3    H132747   0.661   7.591   4.845
10930TIP3    H232748   0.694   7.533   4.709
10931TIP3   OH232749   0.567   5.955   4.911
10931TIP3    H132750   0.591   6.037   4.868
10931TIP3    H232751   0.646   5.928   4.958
10932TIP3   OH232752   7.309   0.981   4.905
10932TIP3    H132753   7.291   1.056   4.962
10932TIP3    H232754   7.229   0.969   4.854
10933TIP3   OH232755   7.378   7.341   0.405
10933TIP3    H132756   7.445   7.284   0.368
10933TIP3    H232757   7.361   7.407   0.338
10934TIP3   OH232758   6.109   6.061   2.335
10934TIP3    H132759   6.153   6.042   2.251
10934TIP3    H232760   6.173   6.036   2.401
10935TIP3   OH232761   5.049   2.406   3.972
10935TIP3    H132762   5.039   2.340   3.903
10935TIP3    H232763   4.976   2.388   4.031
10936TIP3   OH232764   6.060   7.684   6.727
10936TIP3    H132765   6.013   7.676   6.644
10936TIP3    H232766   6.040   7.604   6.774
10937TIP3   OH232767   2.693   0.953   3.941
10937TIP3    H132768   2.602   0.939   3.915
10937TIP3    H232769   2.726   0.866   3.963
10938TIP3   OH232770   1.416   0.674   1.607
10938TIP3    H132771   1.415   0.613   1.534
10938TIP3    H232772   1.388   0.622   1.682
10939TIP3   OH232773   4.111   7.620   0.791
10939TIP3    H132774   4.186   7.563   0.775
10939TIP3    H232775   4.108   7.629   0.887
10940TIP3   OH232776   8.291   6.722   2.710
10940TIP3    H132777   8.317   6.646   2.659
10940TIP3    H232778   8.281   6.792   2.645
10941TIP3   OH232779   1.837   4.549   4.310
10941TIP3    H132780   1.866   4.571   4.398
10941TIP3    H232781   1.867   4.459   4.296
10942TIP3   OH232782   7.573   5.915   3.606
10942TIP3    H132783   7.550   5.916   3.513
10942TIP3    H232784   7.645   5.852   3.612
10943TIP3   OH232785   1.170   2.990   1.817
10943TIP3    H132786   1.100   2.951   1.764
10943TIP3    H232787   1.165   3.083   1.797
10944TIP3   OH232788   6.934   3.824   3.642
10944TIP3    H132789   7.018   3.808   3.598
10944TIP3    H232790   6.958   3.866   3.724
10945TIP3   OH232791   3.869   5.228   4.111
10945TIP3    H132792   3.918   5.301   4.074
10945TIP3    H232793   3.901   5.151   4.064
10946TIP3   OH232794   7.831   0.434   1.807
10946TIP3    H132795   7.760   0.459   1.748
10946TIP3    H232796   7.911   0.443   1.755
10947TIP3   OH232797   0.636   5.191   2.170
10947TIP3    H132798   0.581   5.181   2.092
10947TIP3    H232799   0.681   5.274   2.158
10948TIP3   OH232800   5.768   5.240   1.082
10948TIP3    H132801   5.832   5.219   1.015
10948TIP3    H232802   5.726   5.320   1.051
10949TIP3   OH232803   2.412   5.941   3.167
10949TIP3    H132804   2.359   6.019   3.149
10949TIP3    H232805   2.418   5.896   3.083
10950TIP3   OH232806   2.141   4.036  -0.022
10950TIP3    H132807   2.206   4.003   0.040
10950TIP3    H232808   2.076   4.079   0.034
10951TIP3   OH232809   4.417   7.827   3.395
10951TIP3    H132810   4.414   7.747   3.447
10951TIP3    H232811   4.343   7.819   3.334
10952TIP3   OH232812   6.837   6.725   2.124
10952TIP3    H132813   6.897   6.655   2.101
10952TIP3    H232814   6.820   6.713   2.218
10953TIP3   OH232815   1.666   1.640   5.893
10953TIP3    H132816   1.590   1.586   5.918
10953TIP3    H232817   1.732   1.577   5.865
10954TIP3   OH232818   6.059   6.362   3.788
10954TIP3    H132819   6.142   6.317   3.777
10954TIP3    H232820   6.016   6.354   3.703
10955TIP3   OH232821   5.245   4.709   3.939
10955TIP3    H132822   5.167   4.762   3.958
10955TIP3    H232823   5.214   4.619   3.941
10956TIP3   OH232824   6.723   7.524   1.060
10956TIP3    H132825   6.749   7.432   1.060
10956TIP3    H232826   6.742   7.555   0.972
10957TIP3   OH232827   2.960   6.416   2.105
10957TIP3    H132828   2.918   6.347   2.157
10957TIP3    H232829   2.977   6.375   2.021
10958TIP3   OH232830   1.705   6.221   0.173
10958TIP3    H132831   1.699   6.299   0.118
10958TIP3    H232832   1.705   6.148   0.110
10959TIP3   OH232833   6.375   2.630   1.130
10959TIP3    H132834   6.407   2.593   1.047
10959TIP3    H232835   6.356   2.553   1.184
10960TIP3   OH232836   1.046   0.122   2.877
10960TIP3    H132837   0.978   0.132   2.945
10960TIP3    H232838   1.119   0.174   2.910
10961TIP3   OH232839   8.088   6.907   4.462
10961TIP3    H132840   8.133   6.988   4.486
10961TIP3    H232841   8.148   6.838   4.490
10962TIP3   OH232842   8.172   6.567   3.651
10962TIP3    H132843   8.174   6.561   3.747
10962TIP3    H232844   8.116   6.643   3.633
10963TIP3   OH232845   0.303   6.071   1.318
10963TIP3    H132846   0.391   6.109   1.312
10963TIP3    H232847   0.249   6.141   1.353
10964TIP3   OH232848   3.062   7.834   5.900
10964TIP3    H132849   2.984   7.862   5.947
10964TIP3    H232850   3.087   7.751   5.941
10965TIP3   OH232851   5.061   7.434   0.088
10965TIP3    H132852   5.047   7.344   0.060
10965TIP3    H232853   5.153   7.451   0.067
10966TIP3   OH232854   6.773   3.195   3.180
10966TIP3    H132855   6.812   3.258   3.120
10966TIP3    H232856   6.701   3.242   3.221
10967TIP3   OH232857   0.168   2.669   0.873
10967TIP3    H132858   0.144   2.672   0.966
10967TIP3    H232859   0.111   2.601   0.836
10968TIP3   OH232860   2.030   4.177   6.076
10968TIP3    H132861   2.030   4.086   6.106
10968TIP3    H232862   2.055   4.173   5.984
10969TIP3   OH232863   6.169   2.989   0.352
10969TIP3    H132864   6.198   3.026   0.435
10969TIP3    H232865   6.112   3.056   0.315
10970TIP3   OH232866   2.544   6.277   3.201
10970TIP3    H132867   2.527   6.250   3.292
10970TIP3    H232868   2.470   6.242   3.152
10971TIP3   OH232869   0.733   0.742   6.561
10971TIP3    H132870   0.823   0.754   6.591
10971TIP3    H232871   0.709   0.825   6.522
10972TIP3   OH232872   5.571   6.732   3.394
10972TIP3    H132873   5.606   6.645   3.410
10972TIP3    H232874   5.556   6.735   3.300
10973TIP3   OH232875   1.372   0.240   5.545
10973TIP3    H132876   1.423   0.180   5.598
10973TIP3    H232877   1.376   0.205   5.457
10974TIP3   OH232878   0.436   2.036   1.232
10974TIP3    H132879   0.521   2.036   1.276
10974TIP3    H232880   0.445   1.969   1.164
10975TIP3   OH232881   5.204   5.003   5.284
10975TIP3    H132882   5.168   5.063   5.351
10975TIP3    H232883   5.259   4.943   5.333
10976TIP3   OH232884   3.095   0.463   1.323
10976TIP3    H132885   3.188   0.459   1.300
10976TIP3    H232886   3.063   0.543   1.282
10977TIP3   OH232887   2.546   3.566   4.531
10977TIP3    H132888   2.465   3.608   4.503
10977TIP3    H232889   2.615   3.628   4.506
10978TIP3   OH232890   4.692   6.541   1.778
10978TIP3    H132891   4.726   6.575   1.696
10978TIP3    H232892   4.720   6.450   1.780
10979TIP3   OH232893   7.800   7.076   1.290
10979TIP3    H132894   7.889   7.087   1.324
10979TIP3    H232895   7.799   6.986   1.256
10980TIP3   OH232896   3.963   3.327   0.882
10980TIP3    H132897   3.961   3.370   0.968
10980TIP3    H232898   3.900   3.255   0.891
10981TIP3   OH232899   3.767   1.273   1.277
10981TIP3    H132900   3.859   1.279   1.255
10981TIP3    H232901   3.726   1.233   1.201
10982TIP3   OH232902   5.529   6.443   1.960
10982TIP3    H132903   5.512   6.461   2.052
10982TIP3    H232904   5.546   6.348   1.957
10983TIP3   OH232905   4.505   2.045   4.769
10983TIP3    H132906   4.500   2.124   4.715
10983TIP3    H232907   4.434   1.989   4.736
10984TIP3   OH232908   2.576   7.081   5.887
10984TIP3    H132909   2.642   7.148   5.867
10984TIP3    H232910   2.616   7.028   5.956
10985TIP3   OH232911   0.390   7.569   0.998
10985TIP3    H132912   0.483   7.570   1.020
10985TIP3    H232913   0.382   7.626   0.922
10986TIP3   OH232914   3.993   3.915   0.828
10986TIP3    H132915   3.903   3.891   0.808
10986TIP3    H232916   4.043   3.887   0.752
10987TIP3   OH232917   3.340   2.967   1.069
10987TIP3    H132918   3.314   2.910   1.142
10987TIP3    H232919   3.367   2.906   1.000
10988TIP3   OH232920   6.660   4.357   6.213
10988TIP3    H132921   6.617   4.404   6.284
10988TIP3    H232922   6.744   4.330   6.249
10989TIP3   OH232923   2.912   1.411   0.665
10989TIP3    H132924   2.959   1.470   0.724
10989TIP3    H232925   2.819   1.431   0.680
10990TIP3   OH232926   3.705   3.818   0.824
10990TIP3    H132927   3.734   3.793   0.736
10990TIP3    H232928   3.693   3.736   0.870
10991TIP3   OH232929   2.606   1.492   6.148
10991TIP3    H132930   2.696   1.517   6.169
10991TIP3    H232931   2.596   1.404   6.185
10992TIP3   OH232932   4.233   0.706   2.130
10992TIP3    H132933   4.216   0.645   2.201
10992TIP3    H232934   4.211   0.792   2.166
10993TIP3   OH232935   1.703   5.594   1.749
10993TIP3    H132936   1.799   5.604   1.747
10993TIP3    H232937   1.680   5.606   1.841
10994TIP3   OH232938   5.657   3.186   6.036
10994TIP3    H132939   5.577   3.238   6.041
10994TIP3    H232940   5.686   3.179   6.127
10995TIP3   OH232941   3.863   7.692   2.404
10995TIP3    H132942   3.933   7.732   2.352
10995TIP3    H232943   3.907   7.660   2.483
10996TIP3   OH232944   8.167   6.888   2.262
10996TIP3    H132945   8.108   6.912   2.333
10996TIP3    H232946   8.253   6.921   2.289
10997TIP3   OH232947   4.458   3.483   4.232
10997TIP3    H132948   4.461   3.514   4.142
10997TIP3    H232949   4.389   3.536   4.273
10998TIP3   OH232950   1.452   7.817   3.475
10998TIP3    H132951   1.415   7.813   3.386
10998TIP3    H232952   1.404   7.749   3.523
10999TIP3   OH232953   5.608   6.438   4.643
10999TIP3    H132954   5.692   6.400   4.671
10999TIP3    H232955   5.629   6.481   4.560
11000TIP3   OH232956   2.464   6.400   1.802
11000TIP3    H132957   2.526   6.463   1.766
11000TIP3    H232958   2.391   6.453   1.834
11001TIP3   OH232959   1.399   6.308   6.705
11001TIP3    H132960   1.455   6.383   6.683
11001TIP3    H232961   1.455   6.231   6.692
11002TIP3   OH232962   4.378   7.046   0.814
11002TIP3    H132963   4.303   7.095   0.782
11002TIP3    H232964   4.368   6.959   0.776
11003TIP3   OH232965   0.340   2.131   4.767
11003TIP3    H132966   0.393   2.195   4.814
11003TIP3    H232967   0.280   2.097   4.833
11004TIP3   OH232968   6.959   4.519   3.931
11004TIP3    H132969   6.875   4.506   3.975
11004TIP3    H232970   6.948   4.599   3.881
11005TIP3   OH232971   4.406   0.974   4.826
11005TIP3    H132972   4.428   1.067   4.825
11005TIP3    H232973   4.353   0.961   4.747
11006TIP3   OH232974   6.294   6.644   4.072
11006TIP3    H132975   6.294   6.563   4.125
11006TIP3    H232976   6.289   6.613   3.982
11007TIP3   OH232977   7.106   6.382   4.187
11007TIP3    H132978   7.180   6.442   4.192
11007TIP3    H232979   7.035   6.426   4.234
11008TIP3   OH232980   5.137   4.215   1.859
11008TIP3    H132981   5.076   4.189   1.790
11008TIP3    H232982   5.098   4.180   1.939
11009TIP3   OH232983   3.750   1.386   5.889
11009TIP3    H132984   3.807   1.313   5.912
11009TIP3    H232985   3.674   1.345   5.847
11010TIP3   OH232986   1.695   4.813   4.495
11010TIP3    H132987   1.760   4.748   4.520
11010TIP3    H232988   1.640   4.822   4.572
11011TIP3   OH232989   1.885   7.071   2.700
11011TIP3    H132990   1.888   7.074   2.605
11011TIP3    H232991   1.801   7.029   2.720
11012TIP3   OH232992   6.413   1.156   3.833
11012TIP3    H132993   6.414   1.125   3.924
11012TIP3    H232994   6.353   1.230   3.834
11013TIP3   OH232995   3.003   1.152   3.576
11013TIP3    H132996   2.953   1.232   3.588
11013TIP3    H232997   2.977   1.096   3.649
11014TIP3   OH232998   1.877   3.856   2.761
11014TIP3    H132999   1.863   3.883   2.670
11014TIP3    H233000   1.971   3.841   2.768
11015TIP3   OH233001   3.369   2.384   1.768
11015TIP3    H133002   3.388   2.463   1.819
11015TIP3    H233003   3.293   2.408   1.716
11016TIP3   OH233004   8.292   6.051   1.256
11016TIP3    H133005   8.206   6.056   1.298
11016TIP3    H233006   8.321   6.142   1.249
11017TIP3   OH233007   2.740   0.468   0.233
11017TIP3    H133008   2.794   0.454   0.311
11017TIP3    H233009   2.669   0.525   0.262
11018TIP3   OH233010   5.286   1.854   5.705
11018TIP3    H133011   5.324   1.777   5.662
11018TIP3    H233012   5.213   1.819   5.757
11019TIP3   OH233013   2.479   3.300   6.597
11019TIP3    H133014   2.406   3.362   6.603
11019TIP3    H233015   2.556   3.355   6.583
11020TIP3   OH233016   1.336   2.748   3.687
11020TIP3    H133017   1.365   2.764   3.597
11020TIP3    H233018   1.240   2.742   3.680
11021TIP3   OH233019   6.160   5.147   4.999
11021TIP3    H133020   6.232   5.148   4.935
11021TIP3    H233021   6.187   5.083   5.065
11022TIP3   OH233022   5.189   0.485   2.735
11022TIP3    H133023   5.228   0.399   2.744
11022TIP3    H233024   5.185   0.520   2.824
11023TIP3   OH233025   4.874   0.585   0.805
11023TIP3    H133026   4.920   0.505   0.782
11023TIP3    H233027   4.876   0.638   0.725
11024TIP3   OH233028   3.062   7.674   5.088
11024TIP3    H133029   3.039   7.756   5.046
11024TIP3    H233030   3.120   7.698   5.160
11025TIP3   OH233031   3.393   6.253   2.977
11025TIP3    H133032   3.420   6.161   2.979
11025TIP3    H233033   3.374   6.275   3.068
11026TIP3   OH233034   2.099   4.491   1.966
11026TIP3    H133035   2.042   4.460   1.896
11026TIP3    H233036   2.188   4.482   1.931
11027TIP3   OH233037   0.407   3.583   6.716
11027TIP3    H133038   0.499   3.577   6.691
11027TIP3    H233039   0.363   3.616   6.637
11028TIP3   OH233040   3.387   0.805   6.369
11028TIP3    H133041   3.356   0.744   6.302
11028TIP3    H233042   3.481   0.788   6.375
11029TIP3   OH233043   5.758   7.183   3.019
11029TIP3    H133044   5.724   7.110   2.966
11029TIP3    H233045   5.812   7.142   3.086
11030TIP3   OH233046   2.047   7.686   1.153
11030TIP3    H133047   2.016   7.659   1.240
11030TIP3    H233048   2.022   7.614   1.095
11031TIP3   OH233049   0.284   6.870   0.170
11031TIP3    H133050   0.226   6.888   0.244
11031TIP3    H233051   0.283   6.951   0.118
11032TIP3   OH233052   0.231   5.149   5.659
11032TIP3    H133053   0.325   5.166   5.666
11032TIP3    H233054   0.200   5.210   5.592
11033TIP3   OH233055   1.449   0.892   2.424
11033TIP3    H133056   1.541   0.908   2.407
11033TIP3    H233057   1.446   0.804   2.459
11034TIP3   OH233058   7.219   3.407   2.273
11034TIP3    H133059   7.256   3.357   2.200
11034TIP3    H233060   7.252   3.496   2.260
11035TIP3   OH233061   7.639   2.342   1.291
11035TIP3    H133062   7.669   2.381   1.373
11035TIP3    H233063   7.567   2.284   1.317
11036TIP3   OH233064   3.907   3.875   0.312
11036TIP3    H133065   3.874   3.916   0.232
11036TIP3    H233066   3.847   3.802   0.328
11037TIP3   OH233067   6.801   0.266   2.917
11037TIP3    H133068   6.745   0.292   2.990
11037TIP3    H233069   6.877   0.225   2.958
11038TIP3   OH233070   7.060   1.952   5.684
11038TIP3    H133071   7.025   2.033   5.645
11038TIP3    H233072   7.138   1.933   5.632
11039TIP3   OH233073   6.015   4.397   2.144
11039TIP3    H133074   5.952   4.412   2.214
11039TIP3    H233075   6.036   4.484   2.111
11040TIP3   OH233076   5.876   1.696   1.822
11040TIP3    H133077   5.800   1.746   1.792
11040TIP3    H233078   5.882   1.716   1.916
11041TIP3   OH233079   7.569   6.976   5.794
11041TIP3    H133080   7.542   6.973   5.886
11041TIP3    H233081   7.652   7.023   5.794
11042TIP3   OH233082   2.016   4.918   5.704
11042TIP3    H133083   2.099   4.956   5.675
11042TIP3    H233084   2.016   4.928   5.799
11043TIP3   OH233085   4.688   2.123   5.346
11043TIP3    H133086   4.763   2.169   5.385
11043TIP3    H233087   4.687   2.152   5.255
11044TIP3   OH233088   1.134   7.821   1.514
11044TIP3    H133089   1.146   7.746   1.456
11044TIP3    H233090   1.218   7.867   1.512
11045TIP3   OH233091   5.405   0.747   1.584
11045TIP3    H133092   5.353   0.799   1.645
11045TIP3    H233093   5.495   0.755   1.616
11046TIP3   OH233094   4.637   2.231   2.221
11046TIP3    H133095   4.590   2.306   2.186
11046TIP3    H233096   4.611   2.226   2.313
11047TIP3   OH233097   4.435   6.215   6.684
11047TIP3    H133098   4.396   6.161   6.753
11047TIP3    H233099   4.444   6.156   6.610
11048TIP3   OH233100   2.679   1.099   5.699
11048TIP3    H133101   2.605   1.100   5.760
11048TIP3    H233102   2.756   1.093   5.755
11049TIP3   OH233103   1.561   2.050   0.986
11049TIP3    H133104   1.481   2.056   1.039
11049TIP3    H233105   1.621   2.112   1.027
11050TIP3   OH233106   0.099   5.799   2.698
11050TIP3    H133107   0.021   5.760   2.737
11050TIP3    H233108   0.126   5.736   2.631
11051TIP3   OH233109   5.975   2.386   1.483
11051TIP3    H133110   5.882   2.386   1.458
11051TIP3    H233111   5.978   2.334   1.563
11052TIP3   OH233112   3.233   4.329   2.431
11052TIP3    H133113   3.151   4.378   2.437
11052TIP3    H233114   3.269   4.351   2.345
11053TIP3   OH233115   6.894   3.558   3.715
11053TIP3    H133116   6.895   3.650   3.689
11053TIP3    H233117   6.986   3.537   3.731
11054TIP3   OH233118   3.091   3.381   0.195
11054TIP3    H133119   3.148   3.458   0.184
11054TIP3    H233120   3.144   3.319   0.245
11055TIP3   OH233121   4.625   3.866   1.128
11055TIP3    H133122   4.608   3.772   1.123
11055TIP3    H233123   4.720   3.873   1.122
11056TIP3   OH233124   2.601   1.194   2.847
11056TIP3    H133125   2.581   1.214   2.755
11056TIP3    H233126   2.599   1.098   2.851
11057TIP3   OH233127   6.556   3.794   5.170
11057TIP3    H133128   6.511   3.866   5.125
11057TIP3    H233129   6.646   3.800   5.140
11058TIP3   OH233130   5.546   5.369   3.699
11058TIP3    H133131   5.634   5.347   3.727
11058TIP3    H233132   5.490   5.344   3.773
11059TIP3   OH233133   7.316   3.893   5.119
11059TIP3    H133134   7.241   3.841   5.149
11059TIP3    H233135   7.350   3.845   5.044
11060TIP3   OH233136   2.863   7.329   1.042
11060TIP3    H133137   2.874   7.239   1.012
11060TIP3    H233138   2.768   7.343   1.040
11061TIP3   OH233139   7.376   7.668   6.528
11061TIP3    H133140   7.327   7.731   6.475
11061TIP3    H233141   7.328   7.663   6.610
11062TIP3   OH233142   3.331   7.649   5.709
11062TIP3    H133143   3.269   7.684   5.772
11062TIP3    H233144   3.379   7.581   5.757
11063TIP3   OH233145   1.700   5.929   0.280
11063TIP3    H133146   1.736   5.840   0.281
11063TIP3    H233147   1.765   5.981   0.232
11064TIP3   OH233148   3.319   5.971   5.404
11064TIP3    H133149   3.286   5.972   5.315
11064TIP3    H233150   3.264   6.033   5.451
11065TIP3   OH233151   6.681   4.554   1.661
11065TIP3    H133152   6.772   4.524   1.661
11065TIP3    H233153   6.634   4.489   1.714
11066TIP3   OH233154   7.868   6.550   6.232
11066TIP3    H133155   7.774   6.563   6.220
11066TIP3    H233156   7.875   6.467   6.280
11067TIP3   OH233157   3.616   1.929   6.455
11067TIP3    H133158   3.536   1.981   6.447
11067TIP3    H233159   3.599   1.849   6.404
11068TIP3   OH233160   1.189   6.411   2.581
11068TIP3    H133161   1.267   6.467   2.580
11068TIP3    H233162   1.115   6.473   2.582
11069TIP3   OH233163   5.840   7.128   1.796
11069TIP3    H133164   5.817   7.177   1.717
11069TIP3    H233165   5.905   7.181   1.840
11070TIP3   OH233166   3.540   7.294   3.342
11070TIP3    H133167   3.619   7.271   3.293
11070TIP3    H233168   3.486   7.344   3.280
11071TIP3   OH233169   5.268   2.765   5.979
11071TIP3    H133170   5.275   2.853   5.942
11071TIP3    H233171   5.220   2.715   5.913
11072TIP3   OH233172   4.796   2.615   3.238
11072TIP3    H133173   4.799   2.680   3.167
11072TIP3    H233174   4.731   2.651   3.299
11073TIP3   OH233175   8.182   0.900   4.360
11073TIP3    H133176   8.250   0.909   4.427
11073TIP3    H233177   8.220   0.840   4.295
11074TIP3   OH233178   6.341   4.959   4.469
11074TIP3    H133179   6.339   4.868   4.499
11074TIP3    H233180   6.423   4.994   4.505
11075TIP3   OH233181   1.303   7.598   3.604
11075TIP3    H133182   1.354   7.550   3.670
11075TIP3    H233183   1.215   7.562   3.611
11076TIP3   OH233184   6.634   1.576   0.459
11076TIP3    H133185   6.565   1.635   0.427
11076TIP3    H233186   6.700   1.577   0.390
11077TIP3   OH233187   4.327   1.286   6.232
11077TIP3    H133188   4.300   1.376   6.214
11077TIP3    H233189   4.296   1.236   6.156
11078TIP3   OH233190   7.704   5.283   0.658
11078TIP3    H133191   7.616   5.280   0.695
11078TIP3    H233192   7.711   5.203   0.606
11079TIP3   OH233193   7.691   4.847   2.250
11079TIP3    H133194   7.654   4.901   2.180
11079TIP3    H233195   7.647   4.877   2.329
11080TIP3   OH233196   0.132   3.390   5.523
11080TIP3    H133197   0.077   3.443   5.580
11080TIP3    H233198   0.084   3.308   5.513
11081TIP3   OH233199   0.813   1.679   6.653
11081TIP3    H133200   0.842   1.600   6.698
11081TIP3    H233201   0.719   1.666   6.641
11082TIP3   OH233202   0.367   0.225   1.439
11082TIP3    H133203   0.279   0.237   1.473
11082TIP3    H233204   0.356   0.169   1.362
11083TIP3   OH233205   4.535   1.692   4.626
11083TIP3    H133206   4.508   1.743   4.703
11083TIP3    H233207   4.630   1.707   4.621
11084TIP3   OH233208   2.697   2.300   1.524
11084TIP3    H133209   2.665   2.219   1.563
11084TIP3    H233210   2.665   2.369   1.581
11085TIP3   OH233211   5.934   3.934   2.453
11085TIP3    H133212   5.979   4.019   2.453
11085TIP3    H233213   5.848   3.953   2.490
11086TIP3   OH233214   7.710   4.949   4.987
11086TIP3    H133215   7.745   4.878   5.041
11086TIP3    H233216   7.672   4.904   4.911
11087TIP3   OH233217   0.505   2.905   3.219
11087TIP3    H133218   0.432   2.946   3.266
11087TIP3    H233219   0.532   2.832   3.275
11088TIP3   OH233220   0.829   0.093   6.392
11088TIP3    H133221   0.783   0.011   6.408
11088TIP3    H233222   0.774   0.139   6.329
11089TIP3   OH233223   2.774   3.520   4.227
11089TIP3    H133224   2.860   3.481   4.214
11089TIP3    H233225   2.717   3.447   4.252
11090TIP3   OH233226   6.644   4.125   6.535
11090TIP3    H133227   6.639   4.148   6.627
11090TIP3    H233228   6.642   4.209   6.489
11091TIP3   OH233229   7.726   5.963   0.721
11091TIP3    H133230   7.659   6.031   0.716
11091TIP3    H233231   7.809   6.011   0.715
11092TIP3   OH233232   3.872   4.000   4.622
11092TIP3    H133233   3.833   4.084   4.649
11092TIP3    H233234   3.966   4.017   4.618
11093TIP3   OH233235   4.179   6.601   0.069
11093TIP3    H133236   4.089   6.626   0.049
11093TIP3    H233237   4.232   6.671   0.032
11094TIP3   OH233238   4.414   7.457   5.263
11094TIP3    H133239   4.459   7.391   5.315
11094TIP3    H233240   4.485   7.507   5.221
11095TIP3   OH233241   3.247   4.643   5.803
11095TIP3    H133242   3.196   4.689   5.736
11095TIP3    H233243   3.191   4.643   5.880
11096TIP3   OH233244   6.388   2.087   4.677
11096TIP3    H133245   6.414   2.010   4.626
11096TIP3    H233246   6.397   2.059   4.768
11097TIP3   OH233247   2.400   1.646   1.964
11097TIP3    H133248   2.423   1.566   1.918
11097TIP3    H233249   2.324   1.680   1.917
11098TIP3   OH233250   7.679   4.344   5.125
11098TIP3    H133251   7.589   4.364   5.101
11098TIP3    H233252   7.694   4.393   5.205
11099TIP3   OH233253   4.491   2.653   2.665
11099TIP3    H133254   4.553   2.627   2.596
11099TIP3    H233255   4.417   2.691   2.618
11100TIP3   OH233256   6.727   0.762   3.541
11100TIP3    H133257   6.742   0.832   3.478
11100TIP3    H233258   6.753   0.799   3.625
11101TIP3   OH233259   0.294   5.419   4.210
11101TIP3    H133260   0.243   5.401   4.289
11101TIP3    H233261   0.227   5.437   4.143
11102TIP3   OH233262   5.031   5.665   2.512
11102TIP3    H133263   5.120   5.634   2.528
11102TIP3    H233264   5.036   5.710   2.428
11103TIP3   OH233265   5.789   0.563   3.026
11103TIP3    H133266   5.863   0.510   3.056
11103TIP3    H233267   5.757   0.518   2.948
11104TIP3   OH233268   3.440   4.775   5.981
11104TIP3    H133269   3.511   4.775   5.917
11104TIP3    H233270   3.361   4.776   5.929
11105TIP3   OH233271   0.236   1.362   2.468
11105TIP3    H133272   0.293   1.306   2.521
11105TIP3    H233273   0.239   1.447   2.512
11106TIP3   OH233274   5.091   2.464   2.723
11106TIP3    H133275   5.101   2.456   2.817
11106TIP3    H233276   5.079   2.374   2.692
11107TIP3   OH233277   5.808   4.612   4.596
11107TIP3    H133278   5.877   4.662   4.640
11107TIP3    H233279   5.736   4.610   4.659
11108TIP3   OH233280   4.800   1.096   4.728
11108TIP3    H133281   4.835   1.060   4.810
11108TIP3    H233282   4.724   1.042   4.709
11109TIP3   OH233283   1.959   1.399   2.054
11109TIP3    H133284   1.980   1.490   2.030
11109TIP3    H233285   2.036   1.349   2.027
11110TIP3   OH233286   6.942   4.564   6.345
11110TIP3    H133287   6.905   4.594   6.429
11110TIP3    H233288   6.980   4.478   6.365
11111TIP3   OH233289   4.041   1.718   4.004
11111TIP3    H133290   4.128   1.745   3.976
11111TIP3    H233291   3.983   1.749   3.934
11112TIP3   OH233292   5.322   5.153   3.764
11112TIP3    H133293   5.322   5.065   3.799
11112TIP3    H233294   5.387   5.151   3.693
11113TIP3   OH233295   4.644   1.509   3.445
11113TIP3    H133296   4.550   1.490   3.452
11113TIP3    H233297   4.665   1.493   3.353
11114TIP3   OH233298   4.669   3.346   0.756
11114TIP3    H133299   4.594   3.403   0.738
11114TIP3    H233300   4.696   3.314   0.670
11115TIP3   OH233301   0.348   0.092   3.469
11115TIP3    H133302   0.354   0.183   3.498
11115TIP3    H233303   0.280   0.093   3.401
11116TIP3   OH233304   4.221   7.123   2.614
11116TIP3    H133305   4.200   7.217   2.616
11116TIP3    H233306   4.136   7.080   2.607
11117TIP3   OH233307   4.757   4.224   1.989
11117TIP3    H133308   4.806   4.142   1.982
11117TIP3    H233309   4.811   4.280   2.045
11118TIP3   OH233310   6.571   2.037   4.349
11118TIP3    H133311   6.638   1.973   4.328
11118TIP3    H233312   6.502   1.987   4.394
11119TIP3   OH233313   4.744   0.577   1.794
11119TIP3    H133314   4.791   0.629   1.729
11119TIP3    H233315   4.656   0.616   1.795
11120TIP3   OH233316   6.077   4.001   5.953
11120TIP3    H133317   6.130   4.081   5.952
11120TIP3    H233318   6.120   3.945   6.019
11121TIP3   OH233319   4.043   0.877   4.855
11121TIP3    H133320   3.987   0.923   4.792
11121TIP3    H233321   4.066   0.944   4.919
11122TIP3   OH233322   1.151   7.414   1.748
11122TIP3    H133323   1.083   7.431   1.812
11122TIP3    H233324   1.230   7.454   1.786
11123TIP3   OH233325   7.262   2.568   3.959
11123TIP3    H133326   7.350   2.556   3.922
11123TIP3    H233327   7.206   2.579   3.882
11124TIP3   OH233328   1.672   4.495   0.339
11124TIP3    H133329   1.671   4.589   0.356
11124TIP3    H233330   1.600   4.460   0.392
11125TIP3   OH233331   2.803   2.551   1.320
11125TIP3    H133332   2.815   2.544   1.415
11125TIP3    H233333   2.708   2.554   1.308
11126TIP3   OH233334   0.487   5.865   3.381
11126TIP3    H133335   0.503   5.870   3.476
11126TIP3    H233336   0.404   5.912   3.369
11127TIP3   OH233337   7.914   4.220   2.412
11127TIP3    H133338   8.003   4.254   2.403
11127TIP3    H233339   7.914   4.138   2.363
11128TIP3   OH233340   5.212   4.597   4.834
11128TIP3    H133341   5.238   4.594   4.926
11128TIP3    H233342   5.126   4.639   4.834
11129TIP3   OH233343   0.736   7.491   6.561
11129TIP3    H133344   0.760   7.583   6.571
11129TIP3    H233345   0.819   7.444   6.559
11130TIP3   OH233346   0.953   5.410   1.071
11130TIP3    H133347   0.938   5.388   0.979
11130TIP3    H233348   1.027   5.470   1.069
11131TIP3   OH233349   0.976   7.236   0.418
11131TIP3    H133350   0.947   7.233   0.509
11131TIP3    H233351   1.062   7.194   0.419
11132TIP3   OH233352   8.223   2.708   0.261
11132TIP3    H133353   8.274   2.636   0.222
11132TIP3    H233354   8.208   2.768   0.188
11133TIP3   OH233355   4.315   4.640   6.419
11133TIP3    H133356   4.242   4.624   6.358
11133TIP3    H233357   4.280   4.613   6.504
11134TIP3   OH233358   2.484   3.180   2.994
11134TIP3    H133359   2.559   3.237   2.979
11134TIP3    H233360   2.508   3.128   3.071
11135TIP3   OH233361   2.254   0.973   1.754
11135TIP3    H133362   2.317   0.984   1.825
11135TIP3    H233363   2.175   0.940   1.797
11136TIP3   OH233364   5.714   5.072   1.299
11136TIP3    H133365   5.749   5.134   1.236
11136TIP3    H233366   5.784   5.009   1.313
11137TIP3   OH233367   7.668   2.858   3.799
11137TIP3    H133368   7.756   2.819   3.801
11137TIP3    H233369   7.638   2.854   3.890
11138TIP3   OH233370   1.880   2.166   2.582
11138TIP3    H133371   1.806   2.107   2.568
11138TIP3    H233372   1.956   2.117   2.547
11139TIP3   OH233373   6.164   6.756   5.848
11139TIP3    H133374   6.223   6.681   5.851
11139TIP3    H233375   6.103   6.736   5.777
11140TIP3   OH233376   5.170   0.406   6.436
11140TIP3    H133377   5.176   0.471   6.365
11140TIP3    H233378   5.256   0.363   6.436
11141TIP3   OH233379   0.890   5.781   0.313
11141TIP3    H133380   0.926   5.863   0.281
11141TIP3    H233381   0.939   5.713   0.266
11142TIP3   OH233382   6.698   1.819   4.222
11142TIP3    H133383   6.754   1.796   4.296
11142TIP3    H233384   6.687   1.736   4.174
11143TIP3   OH233385   6.461   1.512   5.265
11143TIP3    H133386   6.410   1.569   5.323
11143TIP3    H233387   6.532   1.567   5.233
11144TIP3   OH233388   2.798   6.056   2.072
11144TIP3    H133389   2.724   5.994   2.071
11144TIP3    H233390   2.786   6.107   1.992
11145TIP3   OH233391   2.161   7.093   6.425
11145TIP3    H133392   2.178   7.028   6.357
11145TIP3    H233393   2.085   7.142   6.393
11146TIP3   OH233394   7.585   4.956   5.976
11146TIP3    H133395   7.643   4.981   6.047
11146TIP3    H233396   7.503   4.933   6.019
11147TIP3   OH233397   3.072   5.911   6.102
11147TIP3    H133398   3.060   5.975   6.032
11147TIP3    H233399   3.112   5.835   6.060
11148TIP3   OH233400   0.011   5.278   2.976
11148TIP3    H133401   0.028   5.193   2.935
11148TIP3    H233402   0.075   5.337   2.938
11149TIP3   OH233403   7.498   7.663   5.012
11149TIP3    H133404   7.431   7.717   5.052
11149TIP3    H233405   7.455   7.578   4.999
11150TIP3   OH233406   6.840   3.192   0.369
11150TIP3    H133407   6.856   3.285   0.385
11150TIP3    H233408   6.823   3.186   0.275
11151TIP3   OH233409   2.945   2.454   3.691
11151TIP3    H133410   2.854   2.483   3.701
11151TIP3    H233411   2.938   2.363   3.661
11152TIP3   OH233412   2.285   4.022   1.590
11152TIP3    H133413   2.374   4.039   1.622
11152TIP3    H233414   2.297   3.960   1.518
11153TIP3   OH233415   1.255   4.106   1.621
11153TIP3    H133416   1.201   4.183   1.602
11153TIP3    H233417   1.309   4.132   1.695
11154TIP3   OH233418   5.424   2.745   0.599
11154TIP3    H133419   5.370   2.726   0.523
11154TIP3    H233420   5.441   2.839   0.593
11155TIP3   OH233421   6.145   7.452   5.893
11155TIP3    H133422   6.111   7.493   5.813
11155TIP3    H233423   6.070   7.445   5.951
11156TIP3   OH233424   6.527   1.479   2.194
11156TIP3    H133425   6.576   1.401   2.218
11156TIP3    H233426   6.587   1.552   2.211
11157TIP3   OH233427   2.462   4.824   0.156
11157TIP3    H133428   2.389   4.869   0.197
11157TIP3    H233429   2.523   4.806   0.228
11158TIP3   OH233430   4.366   5.180   6.237
11158TIP3    H133431   4.313   5.260   6.230
11158TIP3    H233432   4.441   5.196   6.179
11159TIP3   OH233433   3.979   1.587   5.427
11159TIP3    H133434   3.949   1.658   5.483
11159TIP3    H233435   3.900   1.534   5.413
11160TIP3   OH233436   6.954   1.967   4.160
11160TIP3    H133437   6.908   2.018   4.094
11160TIP3    H233438   6.884   1.921   4.207
11161TIP3   OH233439   0.264   3.820   0.867
11161TIP3    H133440   0.246   3.726   0.879
11161TIP3    H233441   0.179   3.857   0.843
11162TIP3   OH233442   8.218   2.188   5.868
11162TIP3    H133443   8.250   2.259   5.923
11162TIP3    H233444   8.181   2.232   5.792
11163TIP3   OH233445   2.971   0.638   0.752
11163TIP3    H133446   3.037   0.601   0.694
11163TIP3    H233447   2.961   0.729   0.723
11164TIP3   OH233448   6.958   5.462   2.498
11164TIP3    H133449   6.866   5.485   2.511
11164TIP3    H233450   7.001   5.492   2.578
11165TIP3   OH233451   4.540   3.400   4.800
11165TIP3    H133452   4.500   3.434   4.720
11165TIP3    H233453   4.620   3.356   4.770
11166TIP3   OH233454   5.186   0.009   4.190
11166TIP3    H133455   5.184   0.073   4.262
11166TIP3    H233456   5.272  -0.031   4.198
11167TIP3   OH233457   5.443   2.113   0.026
11167TIP3    H133458   5.527   2.071   0.008
11167TIP3    H233459   5.455   2.204   0.001
11168TIP3   OH233460   6.608   7.407   3.752
11168TIP3    H133461   6.585   7.446   3.836
11168TIP3    H233462   6.654   7.477   3.705
11169TIP3   OH233463   2.020   3.918   1.314
11169TIP3    H133464   2.046   3.842   1.261
11169TIP3    H233465   2.095   3.935   1.371
11170TIP3   OH233466   5.526   0.450   4.294
11170TIP3    H133467   5.602   0.498   4.326
11170TIP3    H233468   5.452   0.487   4.342
11171TIP3   OH233469   7.907   5.185   1.383
11171TIP3    H133470   7.833   5.136   1.418
11171TIP3    H233471   7.885   5.277   1.401
11172TIP3   OH233472   1.806   5.135   6.225
11172TIP3    H133473   1.835   5.226   6.225
11172TIP3    H233474   1.857   5.093   6.156
11173TIP3   OH233475   4.455   6.783   4.286
11173TIP3    H133476   4.422   6.803   4.374
11173TIP3    H233477   4.379   6.797   4.229
11174TIP3   OH233478   7.500   7.708   4.082
11174TIP3    H133479   7.514   7.773   4.151
11174TIP3    H233480   7.529   7.752   4.002
11175TIP3   OH233481   6.253   6.018   0.271
11175TIP3    H133482   6.341   5.983   0.260
11175TIP3    H233483   6.265   6.097   0.324
11176TIP3   OH233484   5.225   2.203   2.720
11176TIP3    H133485   5.281   2.157   2.783
11176TIP3    H233486   5.286   2.230   2.651
11177TIP3   OH233487   6.398   4.767   0.103
11177TIP3    H133488   6.367   4.773   0.194
11177TIP3    H233489   6.373   4.851   0.064
11178TIP3   OH233490   5.499   6.251   1.147
11178TIP3    H133491   5.501   6.273   1.240
11178TIP3    H233492   5.570   6.303   1.109
11179TIP3   OH233493   6.626   5.743   4.392
11179TIP3    H133494   6.551   5.768   4.446
11179TIP3    H233495   6.702   5.779   4.438
11180TIP3   OH233496   0.772   3.877   6.178
11180TIP3    H133497   0.686   3.903   6.145
11180TIP3    H233498   0.760   3.788   6.210
11181TIP3   OH233499   4.618   4.835   0.216
11181TIP3    H133500   4.663   4.897   0.274
11181TIP3    H233501   4.638   4.866   0.128
11182TIP3   OH233502   3.624   0.928   4.385
11182TIP3    H133503   3.616   0.936   4.480
11182TIP3    H233504   3.534   0.920   4.354
11183TIP3   OH233505   4.445   4.172   4.772
11183TIP3    H133506   4.507   4.133   4.833
11183TIP3    H233507   4.417   4.253   4.815
11184TIP3   OH233508   7.082   5.442   4.540
11184TIP3    H133509   7.022   5.370   4.521
11184TIP3    H233510   7.108   5.429   4.631
11185TIP3   OH233511   3.542   5.585   2.252
11185TIP3    H133512   3.588   5.514   2.208
11185TIP3    H233513   3.471   5.542   2.299
11186TIP3   OH233514   4.158   0.738   3.543
11186TIP3    H133515   4.095   0.688   3.594
11186TIP3    H233516   4.240   0.689   3.550
11187TIP3   OH233517   4.773   0.299   5.249
11187TIP3    H133518   4.809   0.290   5.161
11187TIP3    H233519   4.706   0.231   5.254
11188TIP3   OH233520   7.050   2.491   3.762
11188TIP3    H133521   6.967   2.442   3.760
11188TIP3    H233522   7.034   2.567   3.705
11189TIP3   OH233523   3.139   3.008   5.402
11189TIP3    H133524   3.224   2.966   5.388
11189TIP3    H233525   3.095   3.002   5.317
11190TIP3   OH233526   0.747   7.544   2.174
11190TIP3    H133527   0.743   7.571   2.266
11190TIP3    H233528   0.664   7.573   2.137
11191TIP3   OH233529   7.394   2.420   0.774
11191TIP3    H133530   7.384   2.331   0.740
11191TIP3    H233531   7.445   2.466   0.707
11192TIP3   OH233532   5.878   2.465   2.897
11192TIP3    H133533   5.797   2.422   2.926
11192TIP3    H233534   5.879   2.548   2.945
11193TIP3   OH233535   2.980   6.624   5.181
11193TIP3    H133536   3.010   6.619   5.271
11193TIP3    H233537   2.887   6.604   5.185
11194TIP3   OH233538   2.423   1.899   0.422
11194TIP3    H133539   2.455   1.814   0.453
11194TIP3    H233540   2.442   1.900   0.328
11195TIP3   OH233541   1.117   0.394   5.126
11195TIP3    H133542   1.056   0.404   5.053
11195TIP3    H233543   1.181   0.463   5.114
11196TIP3   OH233544   2.269   2.868   1.290
11196TIP3    H133545   2.229   2.863   1.203
11196TIP3    H233546   2.250   2.784   1.331
11197TIP3   OH233547   7.208   0.321   1.302
11197TIP3    H133548   7.196   0.343   1.395
11197TIP3    H233549   7.297   0.287   1.296
11198TIP3   OH233550   3.485   2.927   2.990
11198TIP3    H133551   3.402   2.958   2.952
11198TIP3    H233552   3.509   2.996   3.052
11199TIP3   OH233553   3.745   2.436   1.044
11199TIP3    H133554   3.823   2.387   1.068
11199TIP3    H233555   3.767   2.478   0.961
11200TIP3   OH233556   4.724   1.400   6.585
11200TIP3    H133557   4.729   1.496   6.580
11200TIP3    H233558   4.641   1.378   6.545
11201TIP3   OH233559   3.826   6.509   1.469
11201TIP3    H133560   3.789   6.592   1.502
11201TIP3    H233561   3.915   6.532   1.442
11202TIP3   OH233562   4.070   6.825   1.641
11202TIP3    H133563   3.985   6.860   1.668
11202TIP3    H233564   4.114   6.900   1.600
11203TIP3   OH233565   5.949   2.816   5.718
11203TIP3    H133566   5.879   2.826   5.653
11203TIP3    H233567   5.967   2.722   5.718
11204TIP3   OH233568   6.445   0.269   2.027
11204TIP3    H133569   6.424   0.351   1.982
11204TIP3    H233570   6.540   0.260   2.019
11205TIP3   OH233571   1.839   2.117   1.117
11205TIP3    H133572   1.873   2.202   1.145
11205TIP3    H233573   1.913   2.057   1.127
11206TIP3   OH233574   0.096   2.990   1.260
11206TIP3    H133575   0.111   3.052   1.332
11206TIP3    H233576   0.002   2.996   1.243
11207TIP3   OH233577   2.575   6.689   2.456
11207TIP3    H133578   2.665   6.675   2.487
11207TIP3    H233579   2.524   6.623   2.503
11208TIP3   OH233580   4.255   4.735   6.071
11208TIP3    H133581   4.347   4.758   6.060
11208TIP3    H233582   4.219   4.805   6.126
11209TIP3   OH233583   5.528   2.137   3.301
11209TIP3    H133584   5.622   2.140   3.316
11209TIP3    H233585   5.499   2.227   3.317
11210TIP3   OH233586   1.106   5.376   2.024
11210TIP3    H133587   1.051   5.384   2.102
11210TIP3    H233588   1.056   5.421   1.955
11211TIP3   OH233589   5.946   2.400   0.284
11211TIP3    H133590   5.952   2.338   0.211
11211TIP3    H233591   5.976   2.483   0.248
11212TIP3   OH233592   7.860   4.687   1.655
11212TIP3    H133593   7.841   4.668   1.563
11212TIP3    H233594   7.775   4.689   1.697
11213TIP3   OH233595   2.424   4.349   1.507
11213TIP3    H133596   2.369   4.301   1.444
11213TIP3    H233597   2.460   4.281   1.564
11214TIP3   OH233598   3.046   1.901   1.352
11214TIP3    H133599   3.094   1.959   1.411
11214TIP3    H233600   2.966   1.880   1.399
11215TIP3   OH233601   4.785   7.693   4.166
11215TIP3    H133602   4.691   7.709   4.171
11215TIP3    H233603   4.820   7.724   4.249
11216TIP3   OH233604   1.742   4.108   4.850
11216TIP3    H133605   1.664   4.159   4.830
11216TIP3    H233606   1.776   4.081   4.765
11217TIP3   OH233607   1.836   4.461   5.282
11217TIP3    H133608   1.911   4.445   5.226
11217TIP3    H233609   1.815   4.375   5.319
11218TIP3   OH233610   6.855   6.117   3.673
11218TIP3    H133611   6.782   6.057   3.659
11218TIP3    H233612   6.888   6.095   3.759
11219TIP3   OH233613   6.345   0.767   2.576
11219TIP3    H133614   6.311   0.788   2.489
11219TIP3    H233615   6.422   0.712   2.559
11220TIP3   OH233616   1.253   6.628   0.507
11220TIP3    H133617   1.275   6.709   0.552
11220TIP3    H233618   1.158   6.621   0.516
11221TIP3   OH233619   7.093   6.778   0.986
11221TIP3    H133620   7.024   6.830   1.028
11221TIP3    H233621   7.091   6.806   0.894
11222TIP3   OH233622   6.381   2.851   1.298
11222TIP3    H133623   6.370   2.780   1.235
11222TIP3    H233624   6.302   2.904   1.287
11223TIP3   OH233625   5.907   4.666   2.551
11223TIP3    H133626   5.932   4.743   2.603
11223TIP3    H233627   5.835   4.696   2.496
11224TIP3   OH233628   2.176   0.135   2.144
11224TIP3    H133629   2.147   0.101   2.059
11224TIP3    H233630   2.102   0.187   2.175
11225TIP3   OH233631   0.132   7.158   1.761
11225TIP3    H133632   0.066   7.147   1.694
11225TIP3    H233633   0.174   7.072   1.768
11226TIP3   OH233634   7.341   5.800   4.451
11226TIP3    H133635   7.380   5.861   4.514
11226TIP3    H233636   7.381   5.824   4.367
11227TIP3   OH233637   1.690   0.230   5.239
11227TIP3    H133638   1.780   0.257   5.252
11227TIP3    H233639   1.644   0.311   5.217
11228TIP3   OH233640   0.054   3.529   0.462
11228TIP3    H133641   0.143   3.517   0.494
11228TIP3    H233642   0.034   3.621   0.482
11229TIP3   OH233643   0.271   3.925   5.428
11229TIP3    H133644   0.323   3.967   5.496
11229TIP3    H233645   0.329   3.919   5.353
11230TIP3   OH233646   2.308   3.947   2.228
11230TIP3    H133647   2.214   3.936   2.216
11230TIP3    H233648   2.344   3.946   2.140
11231TIP3   OH233649   2.531   1.072   5.937
11231TIP3    H133650   2.456   1.023   5.905
11231TIP3    H233651   2.580   1.010   5.990
11232TIP3   OH233652   5.634   2.309   0.689
11232TIP3    H133653   5.719   2.328   0.730
11232TIP3    H233654   5.656   2.263   0.608
11233TIP3   OH233655   5.000   7.065   0.250
11233TIP3    H133656   4.987   7.069   0.155
11233TIP3    H233657   5.093   7.086   0.263
11234TIP3   OH233658   3.925   4.401   4.062
11234TIP3    H133659   3.862   4.352   4.010
11234TIP3    H233660   4.006   4.350   4.058
11235TIP3   OH233661   4.070   6.206   6.257
11235TIP3    H133662   4.069   6.147   6.332
11235TIP3    H233663   3.978   6.227   6.242
11236TIP3   OH233664   4.620   4.999   0.472
11236TIP3    H133665   4.600   4.907   0.493
11236TIP3    H233666   4.606   5.046   0.554
11237TIP3   OH233667   5.607   1.591   3.107
11237TIP3    H133668   5.692   1.565   3.072
11237TIP3    H233669   5.543   1.556   3.046
11238TIP3   OH233670   2.630   7.775   2.949
11238TIP3    H133671   2.715   7.742   2.921
11238TIP3    H233672   2.567   7.712   2.914
11239TIP3   OH233673   0.148   6.382   5.491
11239TIP3    H133674   0.167   6.301   5.443
11239TIP3    H233675   0.077   6.359   5.550
11240TIP3   OH233676   2.283   4.105   4.309
11240TIP3    H133677   2.273   4.041   4.380
11240TIP3    H233678   2.288   4.189   4.354
11241TIP3   OH233679   0.659   6.479   4.939
11241TIP3    H133680   0.622   6.558   4.900
11241TIP3    H233681   0.736   6.509   4.987
11242TIP3   OH233682   0.122   0.155   5.941
11242TIP3    H133683   0.183   0.226   5.961
11242TIP3    H233684   0.041   0.182   5.984
11243TIP3   OH233685   1.285   2.300   3.386
11243TIP3    H133686   1.257   2.261   3.303
11243TIP3    H233687   1.204   2.309   3.436
11244TIP3   OH233688   2.618   3.631   0.713
11244TIP3    H133689   2.564   3.603   0.639
11244TIP3    H233690   2.581   3.714   0.740
11245TIP3   OH233691   4.142   1.500   1.349
11245TIP3    H133692   4.145   1.412   1.312
11245TIP3    H233693   4.148   1.487   1.444
11246TIP3   OH233694   7.644   6.729   1.290
11246TIP3    H133695   7.624   6.790   1.361
11246TIP3    H233696   7.565   6.675   1.283
11247TIP3   OH233697   6.319   1.307   1.679
11247TIP3    H133698   6.395   1.347   1.637
11247TIP3    H233699   6.323   1.215   1.653
11248TIP3   OH233700   3.820   0.366   4.948
11248TIP3    H133701   3.775   0.292   4.987
11248TIP3    H233702   3.798   0.440   5.004
11249TIP3   OH233703   6.892   2.737   1.442
11249TIP3    H133704   6.827   2.737   1.372
11249TIP3    H233705   6.966   2.787   1.407
11250TIP3   OH233706   4.969   5.202   5.157
11250TIP3    H133707   4.876   5.206   5.181
11250TIP3    H233708   5.015   5.214   5.240
11251TIP3   OH233709   4.644   1.625   1.669
11251TIP3    H133710   4.610   1.709   1.638
11251TIP3    H233711   4.631   1.565   1.596
11252TIP3   OH233712   3.764   3.579   6.216
11252TIP3    H133713   3.829   3.509   6.216
11252TIP3    H233714   3.762   3.610   6.126
11253TIP3   OH233715   6.697   4.653   1.923
11253TIP3    H133716   6.729   4.638   1.834
11253TIP3    H233717   6.691   4.566   1.961
11254TIP3   OH233718   3.821   1.287   1.651
11254TIP3    H133719   3.829   1.288   1.746
11254TIP3    H233720   3.827   1.194   1.627
11255TIP3   OH233721   2.541   7.252   6.349
11255TIP3    H133722   2.623   7.262   6.302
11255TIP3    H233723   2.474   7.282   6.288
11256TIP3   OH233724   6.195   7.093   1.588
11256TIP3    H133725   6.281   7.075   1.552
11256TIP3    H233726   6.192   7.189   1.595
11257TIP3   OH233727   0.618   0.101   0.368
11257TIP3    H133728   0.686   0.161   0.400
11257TIP3    H233729   0.645   0.015   0.401
11258TIP3   OH233730   0.470   0.924   0.594
11258TIP3    H133731   0.385   0.955   0.624
11258TIP3    H233732   0.506   0.998   0.543
11259TIP3   OH233733   5.359   1.774   2.760
11259TIP3    H133734   5.264   1.775   2.771
11259TIP3    H233735   5.379   1.685   2.730
11260TIP3   OH233736   0.154   5.115   2.316
11260TIP3    H133737   0.246   5.135   2.332
11260TIP3    H233738   0.135   5.153   2.231
11261TIP3   OH233739   7.505   1.693   5.434
11261TIP3    H133740   7.537   1.750   5.504
11261TIP3    H233741   7.584   1.652   5.399
11262TIP3   OH233742   7.456   1.259   0.329
11262TIP3    H133743   7.394   1.187   0.316
11262TIP3    H233744   7.420   1.309   0.402
11263TIP3   OH233745   1.173   0.863   5.976
11263TIP3    H133746   1.107   0.903   5.920
11263TIP3    H233747   1.238   0.828   5.916
11264TIP3   OH233748   0.149   5.911   0.179
11264TIP3    H133749   0.065   5.914   0.134
11264TIP3    H233750   0.153   5.992   0.230
11265TIP3   OH233751   1.407   5.707   0.118
11265TIP3    H133752   1.430   5.617   0.140
11265TIP3    H233753   1.490   5.749   0.098
11266TIP3   OH233754   8.251   4.753   5.895
11266TIP3    H133755   8.260   4.826   5.957
11266TIP3    H233756   8.306   4.684   5.932
11267TIP3   OH233757   3.598   7.594   0.351
11267TIP3    H133758   3.631   7.572   0.438
11267TIP3    H233759   3.676   7.608   0.298
11268TIP3   OH233760   7.051   6.160   1.751
11268TIP3    H133761   7.142   6.186   1.764
11268TIP3    H233762   7.027   6.114   1.832
11269TIP3   OH233763   7.208   1.727   0.660
11269TIP3    H133764   7.174   1.638   0.652
11269TIP3    H233765   7.288   1.717   0.712
11270TIP3   OH233766   3.623   4.911   3.521
11270TIP3    H133767   3.538   4.954   3.515
11270TIP3    H233768   3.683   4.968   3.473
11271TIP3   OH233769   4.333   1.380   2.601
11271TIP3    H133770   4.404   1.379   2.537
11271TIP3    H233771   4.254   1.393   2.549
11272TIP3   OH233772   0.912   2.335   2.293
11272TIP3    H133773   0.943   2.277   2.223
11272TIP3    H233774   0.953   2.419   2.274
11273TIP3   OH233775   5.697   1.940   3.030
11273TIP3    H133776   5.712   1.987   2.948
11273TIP3    H233777   5.690   2.009   3.096
11274TIP3   OH233778   8.012   4.399   3.919
11274TIP3    H133779   7.956   4.332   3.881
11274TIP3    H233780   8.084   4.350   3.960
11275TIP3   OH233781   7.139   5.749   3.973
11275TIP3    H133782   7.069   5.687   3.950
11275TIP3    H233783   7.220   5.703   3.949
11276TIP3   OH233784   4.313   2.280   1.288
11276TIP3    H133785   4.398   2.273   1.330
11276TIP3    H233786   4.265   2.202   1.317
11277TIP3   OH233787   7.911   7.150   4.589
11277TIP3    H133788   7.818   7.152   4.567
11277TIP3    H233789   7.913   7.151   4.685
11278TIP3   OH233790   0.949   0.894   3.338
11278TIP3    H133791   0.925   0.970   3.285
11278TIP3    H233792   0.988   0.833   3.275
11279TIP3   OH233793   0.286   6.828   4.866
11279TIP3    H133794   0.218   6.778   4.821
11279TIP3    H233795   0.244   6.857   4.948
11280TIP3   OH233796   7.883   2.340   5.238
11280TIP3    H133797   7.826   2.415   5.227
11280TIP3    H233798   7.899   2.309   5.149
11281TIP3   OH233799   2.076   5.208   0.263
11281TIP3    H133800   2.132   5.213   0.185
11281TIP3    H233801   2.083   5.294   0.304
11282TIP3   OH233802   1.125   4.614   2.796
11282TIP3    H133803   1.073   4.631   2.717
11282TIP3    H233804   1.061   4.605   2.866
11283TIP3   OH233805   6.852   4.340   4.822
11283TIP3    H133806   6.784   4.296   4.872
11283TIP3    H233807   6.807   4.371   4.743
11284TIP3   OH233808   1.923   2.144   4.178
11284TIP3    H133809   1.957   2.177   4.095
11284TIP3    H233810   2.001   2.120   4.228
11285TIP3   OH233811   0.454   7.542   5.793
11285TIP3    H133812   0.447   7.465   5.851
11285TIP3    H233813   0.391   7.604   5.829
11286TIP3   OH233814   2.469   6.589   4.210
11286TIP3    H133815   2.459   6.545   4.294
11286TIP3    H233816   2.386   6.634   4.195
11287TIP3   OH233817   5.026   2.326   6.406
11287TIP3    H133818   4.970   2.362   6.336
11287TIP3    H233819   4.982   2.245   6.432
11288TIP3   OH233820   4.695   6.966   5.255
11288TIP3    H133821   4.701   6.943   5.348
11288TIP3    H233822   4.667   6.886   5.212
11289TIP3   OH233823   1.030   1.030   4.800
11289TIP3    H133824   0.956   1.081   4.767
11289TIP3    H233825   1.058   1.076   4.879
11290TIP3   OH233826   8.291   1.310   3.449
11290TIP3    H133827   8.291   1.348   3.537
11290TIP3    H233828   8.306   1.217   3.463
11291TIP3   OH233829   2.799   4.699   4.413
11291TIP3    H133830   2.742   4.775   4.430
11291TIP3    H233831   2.888   4.736   4.413
11292TIP3   OH233832   2.659   3.980   2.124
11292TIP3    H133833   2.669   3.953   2.216
11292TIP3    H233834   2.576   3.941   2.097
11293TIP3   OH233835   6.777   2.837   3.521
11293TIP3    H133836   6.761   2.846   3.428
11293TIP3    H233837   6.779   2.926   3.555
11294TIP3   OH233838   4.165   1.867   3.199
11294TIP3    H133839   4.169   1.785   3.148
11294TIP3    H233840   4.241   1.916   3.169
11295TIP3   OH233841   3.740   2.085   5.257
11295TIP3    H133842   3.784   2.003   5.278
11295TIP3    H233843   3.674   2.094   5.326
11296TIP3   OH233844   0.700   2.215   0.550
11296TIP3    H133845   0.755   2.292   0.562
11296TIP3    H233846   0.627   2.228   0.610
11297TIP3   OH233847   6.303   2.155   4.433
11297TIP3    H133848   6.311   2.149   4.528
11297TIP3    H233849   6.307   2.249   4.414
11298TIP3   OH233850   4.362   1.992   0.112
11298TIP3    H133851   4.416   2.060   0.153
11298TIP3    H233852   4.420   1.948   0.051
11299TIP3   OH233853   5.368   6.564   1.444
11299TIP3    H133854   5.383   6.563   1.539
11299TIP3    H233855   5.281   6.526   1.433
11300TIP3   OH233856   5.196   1.748   4.269
11300TIP3    H133857   5.107   1.714   4.276
11300TIP3    H233858   5.249   1.672   4.243
11301TIP3   OH233859   5.662   7.586   3.708
11301TIP3    H133860   5.708   7.662   3.743
11301TIP3    H233861   5.728   7.516   3.707
11302TIP3   OH233862   0.984   0.026   1.832
11302TIP3    H133863   1.023  -0.028   1.764
11302TIP3    H233864   0.979   0.113   1.792
11303TIP3   OH233865   0.016   0.405   6.664
11303TIP3    H133866   0.096   0.354   6.657
11303TIP3    H233867   0.043   0.495   6.646
11304TIP3   OH233868   1.744   3.920   1.344
11304TIP3    H133869   1.821   3.969   1.315
11304TIP3    H233870   1.684   3.987   1.377
11305TIP3   OH233871   7.847   7.487   1.311
11305TIP3    H133872   7.858   7.430   1.235
11305TIP3    H233873   7.765   7.534   1.294
11306TIP3   OH233874   5.360   7.692   5.736
11306TIP3    H133875   5.319   7.703   5.651
11306TIP3    H233876   5.322   7.761   5.791
11307TIP3   OH233877   6.017   3.903   4.052
11307TIP3    H133878   6.091   3.844   4.070
11307TIP3    H233879   5.946   3.870   4.107
11308TIP3   OH233880   6.964   1.780   3.710
11308TIP3    H133881   7.033   1.815   3.766
11308TIP3    H233882   6.973   1.828   3.627
11309TIP3   OH233883   3.318   2.106   1.830
11309TIP3    H133884   3.309   2.062   1.745
11309TIP3    H233885   3.355   2.192   1.809
11310TIP3   OH233886   1.619   5.786   3.733
11310TIP3    H133887   1.637   5.709   3.680
11310TIP3    H233888   1.524   5.785   3.746
11311TIP3   OH233889   7.022   7.066   6.602
11311TIP3    H133890   7.009   7.021   6.519
11311TIP3    H233891   7.117   7.068   6.614
11312TIP3   OH233892   4.170   3.244   5.103
11312TIP3    H133893   4.165   3.319   5.163
11312TIP3    H233894   4.165   3.167   5.160
11313TIP3   OH233895   2.524   2.752   5.472
11313TIP3    H133896   2.437   2.751   5.433
11313TIP3    H233897   2.517   2.816   5.544
11314TIP3   OH233898   8.059   5.135   0.207
11314TIP3    H133899   7.991   5.069   0.224
11314TIP3    H233900   8.036   5.208   0.265
11315TIP3   OH233901   7.642   0.536   2.243
11315TIP3    H133902   7.581   0.497   2.180
11315TIP3    H233903   7.586   0.584   2.305
11316TIP3   OH233904   3.411   0.723   2.042
11316TIP3    H133905   3.337   0.701   2.097
11316TIP3    H233906   3.458   0.792   2.090
11317TIP3   OH233907   3.333   5.043   0.065
11317TIP3    H133908   3.424   5.037   0.035
11317TIP3    H233909   3.301   4.953   0.063
11318TIP3   OH233910   3.535   7.289   6.268
11318TIP3    H133911   3.525   7.371   6.317
11318TIP3    H233912   3.451   7.277   6.224
11319TIP3   OH233913   6.811   4.597   5.202
11319TIP3    H133914   6.726   4.625   5.167
11319TIP3    H233915   6.827   4.512   5.163
11320TIP3   OH233916   6.285   7.649   6.433
11320TIP3    H133917   6.193   7.625   6.423
11320TIP3    H233918   6.310   7.611   6.517
11321TIP3   OH233919   4.152   3.317   0.156
11321TIP3    H133920   4.083   3.303   0.092
11321TIP3    H233921   4.116   3.382   0.217
11322TIP3   OH233922   3.478   6.891   6.198
11322TIP3    H133923   3.500   6.967   6.253
11322TIP3    H233924   3.543   6.892   6.128
11323TIP3   OH233925   0.344   4.203   3.804
11323TIP3    H133926   0.298   4.208   3.721
11323TIP3    H233927   0.436   4.220   3.783
11324TIP3   OH233928   4.640   4.416   2.660
11324TIP3    H133929   4.619   4.336   2.612
11324TIP3    H233930   4.558   4.464   2.662
11325TIP3   OH233931   7.364   0.613   1.537
11325TIP3    H133932   7.349   0.680   1.603
11325TIP3    H233933   7.409   0.658   1.465
11326TIP3   OH233934   0.973   2.093   0.340
11326TIP3    H133935   0.922   2.115   0.262
11326TIP3    H233936   0.995   2.177   0.379
11327TIP3   OH233937   4.051   3.679   1.829
11327TIP3    H133938   4.011   3.602   1.788
11327TIP3    H233939   4.070   3.737   1.755
11328TIP3   OH233940   3.535   3.137   0.389
11328TIP3    H133941   3.583   3.069   0.341
11328TIP3    H233942   3.528   3.103   0.478
11329TIP3   OH233943   4.062   5.576   1.891
11329TIP3    H133944   4.015   5.623   1.823
11329TIP3    H233945   4.135   5.535   1.844
11330TIP3   OH233946   0.982   5.575   1.878
11330TIP3    H133947   0.905   5.620   1.844
11330TIP3    H233948   1.029   5.643   1.927
11331TIP3   OH233949   0.110   7.527   1.136
11331TIP3    H133950   0.148   7.615   1.138
11331TIP3    H233951   0.111   7.503   1.043
11332TIP3   OH233952   8.130   1.172   1.509
11332TIP3    H133953   8.062   1.172   1.576
11332TIP3    H233954   8.110   1.248   1.454
11333TIP3   OH233955   6.355   7.055   2.610
11333TIP3    H133956   6.430   7.106   2.641
11333TIP3    H233957   6.327   7.097   2.529
11334TIP3   OH233958   4.265   0.319   1.606
11334TIP3    H133959   4.216   0.268   1.670
11334TIP3    H233960   4.347   0.271   1.595
11335TIP3   OH233961   2.341   2.024   2.263
11335TIP3    H133962   2.373   1.940   2.296
11335TIP3    H233963   2.248   2.025   2.284
11336TIP3   OH233964   0.878   2.819   2.402
11336TIP3    H133965   0.964   2.791   2.434
11336TIP3    H233966   0.821   2.815   2.479
11337TIP3   OH233967   4.129   2.355   5.282
11337TIP3    H133968   4.113   2.373   5.189
11337TIP3    H233969   4.154   2.262   5.284
11338TIP3   OH233970   8.092   2.261   0.341
11338TIP3    H133971   8.166   2.271   0.401
11338TIP3    H233972   8.023   2.316   0.378
11339TIP3   OH233973   7.304   5.733   0.198
11339TIP3    H133974   7.261   5.812   0.167
11339TIP3    H233975   7.372   5.764   0.258
11340TIP3   OH233976   0.166   2.227   2.055
11340TIP3    H133977   0.237   2.187   2.105
11340TIP3    H233978   0.175   2.190   1.967
11341TIP3   OH233979   5.263   3.400   4.573
11341TIP3    H133980   5.173   3.416   4.600
11341TIP3    H233981   5.311   3.385   4.655
11342TIP3   OH233982   7.116   6.196   3.613
11342TIP3    H133983   7.026   6.168   3.595
11342TIP3    H233984   7.130   6.172   3.705
11343TIP3   OH233985   1.355   6.829   2.707
11343TIP3    H133986   1.263   6.843   2.683
11343TIP3    H233987   1.361   6.864   2.796
11344TIP3   OH233988   1.720   2.364   6.000
11344TIP3    H133989   1.710   2.270   6.011
11344TIP3    H233990   1.814   2.378   5.994
11345TIP3   OH233991   7.889   2.008   3.924
11345TIP3    H133992   7.856   1.965   4.003
11345TIP3    H233993   7.887   1.939   3.857
11346TIP3   OH233994   7.681   5.876   5.046
11346TIP3    H133995   7.636   5.960   5.043
11346TIP3    H233996   7.631   5.824   5.108
11347TIP3   OH233997   2.706   2.761   4.820
11347TIP3    H133998   2.671   2.710   4.747
11347TIP3    H233999   2.631   2.809   4.854
11348TIP3   OH234000   1.941   1.160   6.475
11348TIP3    H134001   1.983   1.127   6.396
11348TIP3    H234002   2.009   1.209   6.521
11349TIP3   OH234003   5.519   1.524   3.808
11349TIP3    H134004   5.508   1.531   3.713
11349TIP3    H234005   5.607   1.559   3.824
11350TIP3   OH234006   7.219   5.591   2.086
11350TIP3    H134007   7.240   5.516   2.031
11350TIP3    H234008   7.148   5.559   2.143
11351TIP3   OH234009   3.382   6.457   4.293
11351TIP3    H134010   3.401   6.364   4.304
11351TIP3    H234011   3.287   6.461   4.286
11352TIP3   OH234012   8.209   1.957   4.531
11352TIP3    H134013   8.237   1.902   4.604
11352TIP3    H234014   8.212   1.900   4.455
11353TIP3   OH234015   7.824   2.708   0.265
11353TIP3    H134016   7.825   2.772   0.195
11353TIP3    H234017   7.898   2.650   0.246
11354TIP3   OH234018   5.326   2.013   3.189
11354TIP3    H134019   5.402   2.065   3.215
11354TIP3    H234020   5.337   2.000   3.094
11355TIP3   OH234021   3.180   5.781   2.669
11355TIP3    H134022   3.133   5.760   2.750
11355TIP3    H234023   3.178   5.700   2.618
11356TIP3   OH234024   1.266   1.936   2.211
11356TIP3    H134025   1.227   1.943   2.124
11356TIP3    H234026   1.234   1.852   2.245
11357TIP3   OH234027   7.617   5.655   4.210
11357TIP3    H134028   7.587   5.586   4.151
11357TIP3    H234029   7.693   5.617   4.254
11358TIP3   OH234030   2.379   3.148   5.786
11358TIP3    H134031   2.458   3.186   5.747
11358TIP3    H234032   2.328   3.117   5.711
11359TIP3   OH234033   1.803   1.082   6.750
11359TIP3    H134034   1.832   1.154   6.804
11359TIP3    H234035   1.721   1.112   6.711
11360TIP3   OH234036   6.647   5.869   2.118
11360TIP3    H134037   6.611   5.906   2.037
11360TIP3    H234038   6.714   5.808   2.088
11361TIP3   OH234039   5.294   0.226   2.345
11361TIP3    H134040   5.332   0.314   2.352
11361TIP3    H234041   5.370   0.168   2.336
11362TIP3   OH234042   3.442   4.066   5.106
11362TIP3    H134043   3.527   4.045   5.069
11362TIP3    H234044   3.457   4.145   5.157
11363TIP3   OH234045   7.727   0.083   1.552
11363TIP3    H134046   7.649   0.139   1.555
11363TIP3    H234047   7.758   0.080   1.643
11364TIP3   OH234048   1.695   4.202   5.111
11364TIP3    H134049   1.778   4.159   5.090
11364TIP3    H234050   1.708   4.293   5.083
11365TIP3   OH234051   1.365   1.291   3.971
11365TIP3    H134052   1.413   1.219   4.013
11365TIP3    H234053   1.426   1.364   3.972
11366TIP3   OH234054   7.520   3.550   4.287
11366TIP3    H134055   7.458   3.622   4.295
11366TIP3    H234056   7.545   3.530   4.377
11367TIP3   OH234057   0.902   4.643   0.949
11367TIP3    H134058   0.875   4.683   1.032
11367TIP3    H234059   0.990   4.611   0.965
11368TIP3   OH234060   4.419   1.457   3.184
11368TIP3    H134061   4.415   1.389   3.252
11368TIP3    H234062   4.389   1.537   3.227
11369TIP3   OH234063   3.847   4.394   0.423
11369TIP3    H134064   3.762   4.351   0.425
11369TIP3    H234065   3.874   4.398   0.515
11370TIP3   OH234066   0.681   2.858   5.200
11370TIP3    H134067   0.752   2.900   5.152
11370TIP3    H234068   0.683   2.767   5.172
11371TIP3   OH234069   3.156   4.676   4.143
11371TIP3    H134070   3.108   4.724   4.210
11371TIP3    H234071   3.197   4.744   4.089
11372TIP3   OH234072   6.314   5.140   5.305
11372TIP3    H134073   6.308   5.137   5.401
11372TIP3    H234074   6.317   5.234   5.284
11373TIP3   OH234075   1.103   7.493   5.866
11373TIP3    H134076   1.079   7.448   5.785
11373TIP3    H234077   1.129   7.422   5.925
11374TIP3   OH234078   7.942   6.557   1.506
11374TIP3    H134079   8.002   6.507   1.452
11374TIP3    H234080   7.965   6.535   1.596
11375TIP3   OH234081   6.050   6.032   0.091
11375TIP3    H134082   6.118   6.023   0.158
11375TIP3    H234083   6.091   6.083   0.022
11376TIP3   OH234084   8.100   0.759   6.574
11376TIP3    H134085   8.083   0.671   6.541
11376TIP3    H234086   8.186   0.753   6.615
11377TIP3   OH234087   1.591   2.758   1.886
11377TIP3    H134088   1.676   2.755   1.841
11377TIP3    H234089   1.598   2.691   1.954
11378TIP3   OH234090   6.395   5.762   1.739
11378TIP3    H134091   6.350   5.801   1.664
11378TIP3    H234092   6.393   5.668   1.722
11379TIP3   OH234093   5.002   5.775   0.683
11379TIP3    H134094   4.940   5.838   0.720
11379TIP3    H234095   4.991   5.783   0.589
11380TIP3   OH234096   6.041   5.951   1.892
11380TIP3    H134097   6.065   5.931   1.802
11380TIP3    H234098   6.041   6.046   1.896
11381TIP3   OH234099   4.178   6.638   6.383
11381TIP3    H134100   4.158   6.638   6.477
11381TIP3    H234101   4.208   6.549   6.365
11382TIP3   OH234102   2.250   4.354   6.173
11382TIP3    H134103   2.169   4.306   6.187
11382TIP3    H234104   2.237   4.400   6.090
11383TIP3   OH234105   3.068   6.527   5.459
11383TIP3    H134106   3.020   6.507   5.539
11383TIP3    H234107   3.151   6.564   5.489
11384TIP3   OH234108   1.869   6.103   5.960
11384TIP3    H134109   1.783   6.105   5.918
11384TIP3    H234110   1.929   6.075   5.890
11385TIP3   OH234111   0.805   6.969   3.083
11385TIP3    H134112   0.831   7.056   3.112
11385TIP3    H234113   0.835   6.910   3.152
11386TIP3   OH234114   5.816   5.389   0.221
11386TIP3    H134115   5.830   5.461   0.282
11386TIP3    H234116   5.745   5.338   0.259
11387TIP3   OH234117   1.827   2.354   1.990
11387TIP3    H134118   1.739   2.343   2.027
11387TIP3    H234119   1.886   2.332   2.063
11388TIP3   OH234120   5.246   2.817   5.629
11388TIP3    H134121   5.185   2.829   5.702
11388TIP3    H234122   5.194   2.774   5.561
11389TIP3   OH234123   1.442   7.580   2.281
11389TIP3    H134124   1.392   7.503   2.308
11389TIP3    H234125   1.526   7.544   2.251
11390TIP3   OH234126   2.061   2.051   3.288
11390TIP3    H134127   2.146   2.061   3.330
11390TIP3    H234128   2.068   1.968   3.240
11391TIP3   OH234129   8.030   1.370   5.013
11391TIP3    H134130   7.987   1.364   5.099
11391TIP3    H234131   8.120   1.342   5.030
11392TIP3   OH234132   7.861   6.901  -0.012
11392TIP3    H134133   7.891   6.957   0.059
11392TIP3    H234134   7.799   6.841   0.029
11393TIP3   OH234135   1.714   5.415   4.080
11393TIP3    H134136   1.710   5.426   4.175
11393TIP3    H234137   1.645   5.351   4.061
11394TIP3   OH234138   3.048   1.291   2.565
11394TIP3    H134139   2.966   1.331   2.594
11394TIP3    H234140   3.053   1.313   2.471
11395TIP3   OH234141   2.222   1.431   6.295
11395TIP3    H134142   2.239   1.518   6.331
11395TIP3    H234143   2.245   1.370   6.365
11396TIP3   OH234144   3.858   3.041   4.169
11396TIP3    H134145   3.884   2.984   4.241
11396TIP3    H234146   3.894   3.127   4.192
11397TIP3   OH234147   2.480   0.710   2.408
11397TIP3    H134148   2.515   0.783   2.460
11397TIP3    H234149   2.438   0.653   2.473
11398TIP3   OH234150   7.186   1.383   6.558
11398TIP3    H134151   7.144   1.425   6.483
11398TIP3    H234152   7.175   1.289   6.542
11399TIP3   OH234153   6.654   6.904   6.513
11399TIP3    H134154   6.711   6.896   6.436
11399TIP3    H234155   6.578   6.850   6.492
11400TIP3   OH234156   5.683   1.725   2.827
11400TIP3    H134157   5.708   1.779   2.752
11400TIP3    H234158   5.691   1.783   2.903
11401TIP3   OH234159   7.362   0.077   1.810
11401TIP3    H134160   7.419   0.109   1.740
11401TIP3    H234161   7.274   0.101   1.782
11402TIP3   OH234162   7.108   3.015   4.960
11402TIP3    H134163   7.057   3.065   5.023
11402TIP3    H234164   7.127   3.078   4.890
11403TIP3   OH234165   5.944   4.187   5.108
11403TIP3    H134166   6.009   4.132   5.063
11403TIP3    H234167   5.914   4.133   5.181
11404TIP3   OH234168   5.013   1.586   6.398
11404TIP3    H134169   5.061   1.582   6.316
11404TIP3    H234170   5.076   1.559   6.465
11405TIP3   OH234171   3.856   3.070   5.658
11405TIP3    H134172   3.940   3.051   5.615
11405TIP3    H234173   3.880   3.122   5.735
11406TIP3   OH234174   0.100   0.599   2.419
11406TIP3    H134175   0.061   0.545   2.488
11406TIP3    H234176   0.080   0.689   2.446
11407TIP3   OH234177   0.846   7.613   1.367
11407TIP3    H134178   0.823   7.529   1.406
11407TIP3    H234179   0.903   7.591   1.294
11408TIP3   OH234180   4.479   5.015   1.450
11408TIP3    H134181   4.531   4.983   1.377
11408TIP3    H234182   4.412   4.948   1.464
11409TIP3   OH234183   4.258   4.480   5.864
11409TIP3    H134184   4.176   4.471   5.912
11409TIP3    H234185   4.247   4.563   5.816
11410TIP3   OH234186   5.843   6.611   0.125
11410TIP3    H134187   5.881   6.523   0.118
11410TIP3    H234188   5.771   6.611   0.062
11411TIP3   OH234189   3.401   6.947   0.011
11411TIP3    H134190   3.450   6.908   0.083
11411TIP3    H234191   3.458   7.016  -0.023
11412TIP3   OH234192   6.858   5.860   5.960
11412TIP3    H134193   6.841   5.881   6.052
11412TIP3    H234194   6.797   5.915   5.911
11413TIP3   OH234195   4.459   0.600   2.238
11413TIP3    H134196   4.392   0.586   2.171
11413TIP3    H234197   4.508   0.675   2.207
11414TIP3   OH234198   6.581   3.923   0.852
11414TIP3    H134199   6.550   4.003   0.809
11414TIP3    H234200   6.659   3.951   0.900
11415TIP3   OH234201   3.641   1.660   5.995
11415TIP3    H134202   3.719   1.606   5.981
11415TIP3    H234203   3.578   1.629   5.929
11416TIP3   OH234204   0.978   3.202   4.110
11416TIP3    H134205   0.899   3.254   4.126
11416TIP3    H234206   1.050   3.259   4.135
11417TIP3   OH234207   1.405   6.109   3.227
11417TIP3    H134208   1.344   6.036   3.224
11417TIP3    H234209   1.399   6.149   3.140
11418TIP3   OH234210   0.476   2.675   0.205
11418TIP3    H134211   0.474   2.707   0.115
11418TIP3    H234212   0.423   2.737   0.254
11419TIP3   OH234213   1.864   2.807   3.542
11419TIP3    H134214   1.789   2.749   3.559
11419TIP3    H234215   1.831   2.870   3.478
11420TIP3   OH234216   7.903   4.885   0.107
11420TIP3    H134217   7.920   4.837   0.188
11420TIP3    H234218   7.816   4.925   0.120
11421TIP3   OH234219   4.870   0.645   1.525
11421TIP3    H134220   4.873   0.551   1.508
11421TIP3    H234221   4.782   0.671   1.499
11422TIP3   OH234222   6.068   3.159   2.715
11422TIP3    H134223   6.152   3.202   2.730
11422TIP3    H234224   6.087   3.066   2.714
11423TIP3   OH234225   7.131   2.861   3.418
11423TIP3    H134226   7.224   2.863   3.439
11423TIP3    H234227   7.128   2.855   3.322
11424TIP3   OH234228   7.443   4.473   5.097
11424TIP3    H134229   7.373   4.432   5.146
11424TIP3    H234230   7.460   4.555   5.143
11425TIP3   OH234231   7.043   2.346   3.088
11425TIP3    H134232   7.085   2.333   3.003
11425TIP3    H234233   7.020   2.439   3.089
11426TIP3   OH234234   7.203   1.896   6.027
11426TIP3    H134235   7.287   1.879   6.068
11426TIP3    H234236   7.225   1.921   5.937
11427TIP3   OH234237   1.718   0.832   1.487
11427TIP3    H134238   1.689   0.741   1.494
11427TIP3    H234239   1.752   0.839   1.397
11428TIP3   OH234240   2.431   0.246   1.993
11428TIP3    H134241   2.368   0.196   2.044
11428TIP3    H234242   2.475   0.181   1.938
11429TIP3   OH234243   4.230   6.405   2.309
11429TIP3    H134244   4.165   6.405   2.238
11429TIP3    H234245   4.265   6.316   2.309
11430TIP3   OH234246   7.459   4.438   4.822
11430TIP3    H134247   7.459   4.461   4.915
11430TIP3    H234248   7.447   4.522   4.776
11431TIP3   OH234249   2.086   4.953   2.031
11431TIP3    H134250   2.006   4.905   2.009
11431TIP3    H234251   2.156   4.890   2.015
11432TIP3   OH234252   3.785   6.765   2.862
11432TIP3    H134253   3.862   6.722   2.825
11432TIP3    H234254   3.779   6.731   2.952
11433TIP3   OH234255   7.118   1.044   6.223
11433TIP3    H134256   7.187   1.020   6.285
11433TIP3    H234257   7.057   1.097   6.274
11434TIP3   OH234258   4.508   4.014   5.298
11434TIP3    H134259   4.535   4.076   5.366
11434TIP3    H234260   4.536   3.929   5.331
11435TIP3   OH234261   0.850   2.431   0.621
11435TIP3    H134262   0.789   2.500   0.594
11435TIP3    H234263   0.925   2.441   0.563
11436TIP3   OH234264   5.719   3.660   6.352
11436TIP3    H134265   5.694   3.581   6.303
11436TIP3    H234266   5.675   3.731   6.307
11437TIP3   OH234267   4.833   3.867   3.844
11437TIP3    H134268   4.782   3.947   3.854
11437TIP3    H234269   4.880   3.878   3.761
11438TIP3   OH234270   5.948   6.159   3.322
11438TIP3    H134271   6.001   6.226   3.280
11438TIP3    H234272   5.917   6.104   3.250
11439TIP3   OH234273   0.130   2.028   4.869
11439TIP3    H134274   0.070   2.017   4.943
11439TIP3    H234275   0.084   2.087   4.809
11440TIP3   OH234276   6.284   3.292   2.113
11440TIP3    H134277   6.298   3.198   2.098
11440TIP3    H234278   6.301   3.304   2.206
11441TIP3   OH234279   5.801   7.427   5.557
11441TIP3    H134280   5.795   7.441   5.652
11441TIP3    H234281   5.869   7.360   5.547
11442TIP3   OH234282   0.585   1.853   5.755
11442TIP3    H134283   0.515   1.793   5.778
11442TIP3    H234284   0.552   1.939   5.781
11443TIP3   OH234285   1.927   7.069   3.546
11443TIP3    H134286   1.885   7.153   3.565
11443TIP3    H234287   2.020   7.084   3.562
11444TIP3   OH234288   3.737   0.149   0.145
11444TIP3    H134289   3.710   0.117   0.231
11444TIP3    H234290   3.798   0.083   0.112
11445TIP3   OH234291   5.196   6.124   1.399
11445TIP3    H134292   5.150   6.198   1.441
11445TIP3    H234293   5.281   6.160   1.373
11446TIP3   OH234294   6.453   4.889   5.251
11446TIP3    H134295   6.410   4.973   5.268
11446TIP3    H234296   6.421   4.863   5.164
11447TIP3   OH234297   5.834   4.749   3.354
11447TIP3    H134298   5.748   4.713   3.373
11447TIP3    H234299   5.871   4.688   3.289
11448TIP3   OH234300   0.366   7.269   6.391
11448TIP3    H134301   0.325   7.185   6.373
11448TIP3    H234302   0.339   7.325   6.319
11449TIP3   OH234303   0.381   5.464   5.243
11449TIP3    H134304   0.292   5.494   5.229
11449TIP3    H234305   0.375   5.369   5.240
11450TIP3   OH234306   4.202   4.580   3.131
11450TIP3    H134307   4.289   4.560   3.097
11450TIP3    H234308   4.211   4.574   3.226
11451TIP3   OH234309   5.448   2.802   4.453
11451TIP3    H134310   5.462   2.847   4.369
11451TIP3    H234311   5.511   2.843   4.512
11452TIP3   OH234312   4.288   2.333   2.320
11452TIP3    H134313   4.342   2.284   2.382
11452TIP3    H234314   4.350   2.387   2.271
11453TIP3   OH234315   0.167   4.801   6.695
11453TIP3    H134316   0.262   4.809   6.683
11453TIP3    H234317   0.133   4.795   6.606
11454TIP3   OH234318   4.112   0.042   4.388
11454TIP3    H134319   4.199   0.019   4.421
11454TIP3    H234320   4.121   0.037   4.293
11455TIP3   OH234321   3.270   6.340   5.661
11455TIP3    H134322   3.307   6.318   5.575
11455TIP3    H234323   3.307   6.426   5.681
11456TIP3   OH234324   6.197   7.631   3.749
11456TIP3    H134325   6.154   7.669   3.672
11456TIP3    H234326   6.291   7.639   3.730
11457TIP3   OH234327   6.357   3.917   4.322
11457TIP3    H134328   6.347   3.928   4.417
11457TIP3    H234329   6.351   4.005   4.287
11458TIP3   OH234330   2.414   7.695   6.183
11458TIP3    H134331   2.486   7.724   6.239
11458TIP3    H234332   2.354   7.770   6.181
11459TIP3   OH234333   7.188   6.377   5.382
11459TIP3    H134334   7.117   6.397   5.443
11459TIP3    H234335   7.250   6.449   5.392
11460TIP3   OH234336   4.089   4.400   4.683
11460TIP3    H134337   4.052   4.359   4.605
11460TIP3    H234338   4.017   4.452   4.719
11461TIP3   OH234339   5.381   2.757   6.393
11461TIP3    H134340   5.349   2.768   6.482
11461TIP3    H234341   5.460   2.811   6.389
11462TIP3   OH234342   1.747   1.366   2.497
11462TIP3    H134343   1.746   1.429   2.569
11462TIP3    H234344   1.665   1.317   2.507
11463TIP3   OH234345   7.783   6.204   1.859
11463TIP3    H134346   7.811   6.198   1.950
11463TIP3    H234347   7.827   6.130   1.816
11464TIP3   OH234348   8.319   0.519   4.406
11464TIP3    H134349   8.265   0.514   4.327
11464TIP3    H234350   8.256   0.535   4.477
11465TIP3   OH234351   1.809   5.685   0.300
11465TIP3    H134352   1.883   5.696   0.360
11465TIP3    H234353   1.849   5.674   0.214
11466TIP3   OH234354   4.003   3.820   3.009
11466TIP3    H134355   4.017   3.889   2.945
11466TIP3    H234356   3.964   3.865   3.084
11467TIP3   OH234357   1.142   0.988   3.520
11467TIP3    H134358   1.095   0.936   3.455
11467TIP3    H234359   1.217   1.024   3.473
11468TIP3   OH234360   0.382   3.603   3.850
11468TIP3    H134361   0.395   3.665   3.921
11468TIP3    H234362   0.414   3.520   3.884
11469TIP3   OH234363   6.881   5.347   5.930
11469TIP3    H134364   6.819   5.276   5.920
11469TIP3    H234365   6.833   5.415   5.977
11470TIP3   OH234366   3.799   2.940   2.423
11470TIP3    H134367   3.762   2.915   2.508
11470TIP3    H234368   3.868   2.875   2.407
11471TIP3   OH234369   2.719   6.759   1.227
11471TIP3    H134370   2.701   6.852   1.212
11471TIP3    H234371   2.804   6.744   1.185
11472TIP3   OH234372   1.170   4.485   6.703
11472TIP3    H134373   1.150   4.393   6.686
11472TIP3    H234374   1.255   4.500   6.663
11473TIP3   OH234375   3.013   6.913   5.393
11473TIP3    H134376   3.105   6.938   5.397
11473TIP3    H234377   2.989   6.925   5.301
11474TIP3   OH234378   6.055   0.651   2.197
11474TIP3    H134379   6.068   0.635   2.103
11474TIP3    H234380   5.982   0.713   2.201
11475TIP3   OH234381   2.227   1.512   0.775
11475TIP3    H134382   2.151   1.454   0.775
11475TIP3    H234383   2.236   1.539   0.867
11476TIP3   OH234384   5.863   7.577   1.983
11476TIP3    H134385   5.902   7.503   1.936
11476TIP3    H234386   5.799   7.614   1.922
11477TIP3   OH234387   2.083   3.955   5.219
11477TIP3    H134388   2.123   3.890   5.162
11477TIP3    H234389   2.137   3.955   5.298
11478TIP3   OH234390   6.259   2.323   2.028
11478TIP3    H134391   6.241   2.400   1.974
11478TIP3    H234392   6.176   2.305   2.073
11479TIP3   OH234393   6.895   0.573   4.387
11479TIP3    H134394   6.801   0.569   4.370
11479TIP3    H234395   6.902   0.588   4.482
11480TIP3   OH234396   2.971   0.253   1.130
11480TIP3    H134397   2.983   0.325   1.192
11480TIP3    H234398   2.895   0.279   1.078
11481TIP3   OH234399   6.126   1.743   0.701
11481TIP3    H134400   6.148   1.660   0.743
11481TIP3    H234401   6.068   1.787   0.763
11482TIP3   OH234402   8.094   2.020   0.219
11482TIP3    H134403   8.126   1.949   0.276
11482TIP3    H234404   8.070   2.090   0.280
11483TIP3   OH234405   1.850   0.123   6.208
11483TIP3    H134406   1.773   0.126   6.265
11483TIP3    H234407   1.923   0.147   6.265
11484TIP3   OH234408   7.443   6.613   1.539
11484TIP3    H134409   7.478   6.624   1.628
11484TIP3    H234410   7.493   6.540   1.503
11485TIP3   OH234411   5.393   2.735   2.813
11485TIP3    H134412   5.316   2.792   2.808
11485TIP3    H234413   5.404   2.701   2.724
11486TIP3   OH234414   5.109   6.319   0.090
11486TIP3    H134415   5.062   6.384   0.037
11486TIP3    H234416   5.119   6.244   0.031
11487TIP3   OH234417   5.793   6.360   3.940
11487TIP3    H134418   5.870   6.379   3.994
11487TIP3    H234419   5.827   6.356   3.851
11488TIP3   OH234420   1.937   3.762   5.488
11488TIP3    H134421   1.856   3.725   5.452
11488TIP3    H234422   2.006   3.705   5.454
11489TIP3   OH234423   8.031   7.752   4.085
11489TIP3    H134424   8.104   7.712   4.132
11489TIP3    H234425   7.980   7.678   4.053
11490TIP3   OH234426   6.757   2.542   4.369
11490TIP3    H134427   6.837   2.516   4.323
11490TIP3    H234428   6.712   2.459   4.385
11491TIP3   OH234429   2.042   3.719   2.363
11491TIP3    H134430   2.089   3.669   2.430
11491TIP3    H234431   1.984   3.777   2.413
11492TIP3   OH234432   3.948   0.783   2.640
11492TIP3    H134433   4.002   0.842   2.692
11492TIP3    H234434   3.957   0.698   2.683
11493TIP3   OH234435   7.163   4.160   4.404
11493TIP3    H134436   7.140   4.181   4.495
11493TIP3    H234437   7.090   4.194   4.353
11494TIP3   OH234438   3.491   5.112   2.699
11494TIP3    H134439   3.489   5.058   2.778
11494TIP3    H234440   3.474   5.201   2.730
11495TIP3   OH234441   3.420   5.406   5.685
11495TIP3    H134442   3.330   5.420   5.657
11495TIP3    H234443   3.413   5.354   5.765
11496TIP3   OH234444   2.601   4.973   5.459
11496TIP3    H134445   2.619   5.061   5.491
11496TIP3    H234446   2.635   4.973   5.369
11497TIP3   OH234447   6.715   2.333   3.118
11497TIP3    H134448   6.790   2.289   3.079
11497TIP3    H234449   6.646   2.267   3.120
11498TIP3   OH234450   8.127   0.431   2.861
11498TIP3    H134451   8.077   0.383   2.795
11498TIP3    H234452   8.218   0.425   2.831
11499TIP3   OH234453   2.454   5.385   4.731
11499TIP3    H134454   2.531   5.409   4.784
11499TIP3    H234455   2.380   5.397   4.790
11500TIP3   OH234456   4.694   5.013   4.199
11500TIP3    H134457   4.653   5.074   4.260
11500TIP3    H234458   4.624   4.986   4.141
11501TIP3   OH234459   2.768   1.864   0.374
11501TIP3    H134460   2.705   1.815   0.321
11501TIP3    H234461   2.768   1.819   0.458
11502TIP3   OH234462   2.964   5.964   3.418
11502TIP3    H134463   2.906   5.943   3.492
11502TIP3    H234464   2.957   6.059   3.409
11503TIP3   OH234465   4.651   4.921   3.300
11503TIP3    H134466   4.733   4.879   3.274
11503TIP3    H234467   4.668   5.014   3.291
11504TIP3   OH234468   3.978   5.033   4.833
11504TIP3    H134469   4.067   5.025   4.867
11504TIP3    H234470   3.961   5.127   4.834
11505TIP3   OH234471   6.938   0.435   1.608
11505TIP3    H134472   6.903   0.405   1.524
11505TIP3    H234473   6.914   0.527   1.612
11506TIP3   OH234474   1.123   5.291   1.392
11506TIP3    H134475   1.052   5.233   1.367
11506TIP3    H234476   1.081   5.375   1.410
11507TIP3   OH234477   3.981   3.134   4.455
11507TIP3    H134478   3.967   3.208   4.396
11507TIP3    H234479   4.065   3.153   4.497
11508TIP3   OH234480   1.981   4.889   2.900
11508TIP3    H134481   2.044   4.816   2.896
11508TIP3    H234482   2.030   4.964   2.868
11509TIP3   OH234483   5.240   1.960   0.848
11509TIP3    H134484   5.303   1.989   0.913
11509TIP3    H234485   5.171   1.917   0.900
11510TIP3   OH234486   3.543   6.947   1.120
11510TIP3    H134487   3.572   6.960   1.210
11510TIP3    H234488   3.624   6.941   1.069
11511TIP3   OH234489   4.399   5.612   5.890
11511TIP3    H134490   4.321   5.573   5.928
11511TIP3    H234491   4.386   5.707   5.901
11512TIP3   OH234492   6.862   7.683   4.230
11512TIP3    H134493   6.913   7.607   4.202
11512TIP3    H234494   6.885   7.752   4.168
11513TIP3   OH234495   3.175   3.985   3.706
11513TIP3    H134496   3.138   3.897   3.712
11513TIP3    H234497   3.113   4.040   3.755
11514TIP3   OH234498   7.966   3.869   4.145
11514TIP3    H134499   8.023   3.794   4.166
11514TIP3    H234500   7.899   3.867   4.213
11515TIP3   OH234501   2.520   1.045   2.436
11515TIP3    H134502   2.559   1.127   2.468
11515TIP3    H234503   2.471   1.072   2.358
11516TIP3   OH234504   4.800   6.162   0.054
11516TIP3    H134505   4.764   6.149   0.142
11516TIP3    H234506   4.887   6.122   0.058
11517TIP3   OH234507   4.061   5.941   0.485
11517TIP3    H134508   4.017   5.859   0.460
11517TIP3    H234509   4.001   6.010   0.457
11518TIP3   OH234510   6.815   5.293   4.128
11518TIP3    H134511   6.794   5.201   4.144
11518TIP3    H234512   6.744   5.341   4.170
11519TIP3   OH234513   0.163   1.649   2.233
11519TIP3    H134514   0.076   1.668   2.268
11519TIP3    H234515   0.171   1.553   2.239
11520TIP3   OH234516   3.119   4.626   0.633
11520TIP3    H134517   3.068   4.546   0.623
11520TIP3    H234518   3.123   4.641   0.727
11521TIP3   OH234519   1.273   7.129   6.575
11521TIP3    H134520   1.203   7.064   6.568
11521TIP3    H234521   1.353   7.081   6.552
11522TIP3   OH234522   2.897   6.491   1.718
11522TIP3    H134523   2.815   6.503   1.671
11522TIP3    H234524   2.923   6.579   1.744
11523TIP3   OH234525   6.520   5.146   0.792
11523TIP3    H134526   6.609   5.122   0.818
11523TIP3    H234527   6.528   5.237   0.764
11524TIP3   OH234528   5.035   3.604   3.950
11524TIP3    H134529   5.103   3.605   4.018
11524TIP3    H234530   5.075   3.650   3.876
11525TIP3   OH234531   6.072   7.273   5.499
11525TIP3    H134532   6.089   7.352   5.551
11525TIP3    H234533   6.100   7.201   5.556
11526TIP3   OH234534   5.625   2.479   2.431
11526TIP3    H134535   5.603   2.467   2.339
11526TIP3    H234536   5.683   2.555   2.432
11527TIP3   OH234537   0.124   5.275   0.772
11527TIP3    H134538   0.129   5.183   0.798
11527TIP3    H234539   0.129   5.273   0.676
11528TIP3   OH234540   1.742   0.647   2.833
11528TIP3    H134541   1.805   0.717   2.821
11528TIP3    H234542   1.759   0.613   2.921
11529TIP3   OH234543   6.937   1.977   5.945
11529TIP3    H134544   6.973   1.985   5.857
11529TIP3    H234545   7.007   1.938   5.997
11530TIP3   OH234546   2.473   7.601   4.979
11530TIP3    H134547   2.379   7.587   4.989
11530TIP3    H234548   2.481   7.667   4.911
11531TIP3   OH234549   5.019   4.233   0.840
11531TIP3    H134550   4.926   4.211   0.830
11531TIP3    H234551   5.048   4.257   0.752
11532TIP3   OH234552   7.211   6.458   1.574
11532TIP3    H134553   7.236   6.420   1.658
11532TIP3    H234554   7.285   6.513   1.550
11533TIP3   OH234555   1.598   1.161   2.890
11533TIP3    H134556   1.660   1.088   2.894
11533TIP3    H234557   1.645   1.234   2.929
11534TIP3   OH234558   4.483   4.182   5.511
11534TIP3    H134559   4.504   4.254   5.570
11534TIP3    H234560   4.388   4.169   5.522
11535TIP3   OH234561   5.604   4.865   1.015
11535TIP3    H134562   5.548   4.935   1.050
11535TIP3    H234563   5.568   4.848   0.927
11536TIP3   OH234564   1.461   4.911   3.629
11536TIP3    H134565   1.466   5.005   3.613
11536TIP3    H234566   1.408   4.877   3.557
11537TIP3   OH234567   1.049   0.957   2.077
11537TIP3    H134568   1.142   0.964   2.057
11537TIP3    H234569   1.042   0.989   2.167
11538TIP3   OH234570   6.096   1.948   1.676
11538TIP3    H134571   6.035   1.969   1.605
11538TIP3    H234572   6.153   2.025   1.682
11539TIP3   OH234573   6.149   0.864   1.959
11539TIP3    H134574   6.213   0.919   1.915
11539TIP3    H234575   6.179   0.774   1.944
11540TIP3   OH234576   8.176   5.168   1.386
11540TIP3    H134577   8.197   5.116   1.309
11540TIP3    H234578   8.081   5.176   1.385
11541TIP3   OH234579   6.770   4.826   0.808
11541TIP3    H134580   6.757   4.902   0.865
11541TIP3    H234581   6.683   4.785   0.803
11542TIP3   OH234582   2.822   2.942   1.646
11542TIP3    H134583   2.851   2.972   1.560
11542TIP3    H234584   2.893   2.887   1.678
11543TIP3   OH234585   6.933   2.129   4.365
11543TIP3    H134586   6.920   2.219   4.334
11543TIP3    H234587   6.962   2.081   4.288
11544TIP3   OH234588   0.041   5.318   5.557
11544TIP3    H134589   0.013   5.360   5.639
11544TIP3    H234590  -0.005   5.366   5.489
11545TIP3   OH234591   0.425   0.184   2.550
11545TIP3    H134592   0.414   0.126   2.475
11545TIP3    H234593   0.463   0.129   2.618
11546TIP3   OH234594   2.448   1.001   5.116
11546TIP3    H134595   2.417   0.984   5.027
11546TIP3    H234596   2.542   1.018   5.106
11547TIP3   OH234597   1.471   7.302   4.292
11547TIP3    H134598   1.488   7.378   4.236
11547TIP3    H234599   1.487   7.334   4.381
11548TIP3   OH234600   7.149   3.449   3.680
11548TIP3    H134601   7.158   3.361   3.643
11548TIP3    H234602   7.216   3.453   3.749
11549TIP3   OH234603   0.959   6.007   6.009
11549TIP3    H134604   1.008   5.976   6.085
11549TIP3    H234605   0.991   5.954   5.936
11550TIP3   OH234606   7.168   2.920   1.811
11550TIP3    H134607   7.115   2.941   1.734
11550TIP3    H234608   7.118   2.953   1.885
11551TIP3   OH234609   7.840   2.734   0.690
11551TIP3    H134610   7.764   2.732   0.747
11551TIP3    H234611   7.905   2.786   0.737
11552TIP3   OH234612   5.524   6.013   0.812
11552TIP3    H134613   5.456   6.016   0.879
11552TIP3    H234614   5.603   5.985   0.858
11553TIP3   OH234615   6.181   4.009   2.996
11553TIP3    H134616   6.123   3.948   3.042
11553TIP3    H234617   6.163   3.994   2.903
11554TIP3   OH234618   3.653   5.546   3.164
11554TIP3    H134619   3.720   5.614   3.166
11554TIP3    H234620   3.571   5.594   3.161
11555TIP3   OH234621   2.481   2.925   4.835
11555TIP3    H134622   2.437   2.953   4.755
11555TIP3    H234623   2.416   2.870   4.880
11556TIP3   OH234624   5.815   3.773   3.556
11556TIP3    H134625   5.884   3.833   3.527
11556TIP3    H234626   5.808   3.709   3.485
11557TIP3   OH234627   5.093   0.048   5.854
11557TIP3    H134628   5.163  -0.017   5.864
11557TIP3    H234629   5.052   0.052   5.941
11558TIP3   OH234630   0.284   4.392   2.145
11558TIP3    H134631   0.232   4.409   2.066
11558TIP3    H234632   0.355   4.456   2.141
11559TIP3   OH234633   4.484   2.764   5.423
11559TIP3    H134634   4.515   2.764   5.514
11559TIP3    H234635   4.421   2.692   5.419
11560TIP3   OH234636   3.088   7.491   2.973
11560TIP3    H134637   3.176   7.455   2.984
11560TIP3    H234638   3.029   7.420   3.000
11561TIP3   OH234639   6.345   4.749   2.796
11561TIP3    H134640   6.368   4.658   2.777
11561TIP3    H234641   6.418   4.782   2.848
11562TIP3   OH234642   5.133   1.231   2.565
11562TIP3    H134643   5.110   1.146   2.604
11562TIP3    H234644   5.208   1.211   2.508
11563TIP3   OH234645   6.963   5.868   5.541
11563TIP3    H134646   7.049   5.884   5.503
11563TIP3    H234647   6.967   5.780   5.576
11564TIP3   OH234648   2.415   5.485   0.423
11564TIP3    H134649   2.462   5.541   0.484
11564TIP3    H234650   2.466   5.487   0.343
11565TIP3   OH234651   2.286   1.546   5.554
11565TIP3    H134652   2.357   1.609   5.564
11565TIP3    H234653   2.329   1.461   5.557
11566TIP3   OH234654   5.372   3.991   0.661
11566TIP3    H134655   5.383   4.083   0.686
11566TIP3    H234656   5.299   3.991   0.600
11567TIP3   OH234657   4.411   2.545   4.026
11567TIP3    H134658   4.336   2.572   3.973
11567TIP3    H234659   4.388   2.572   4.115
11568TIP3   OH234660   8.244   3.185   4.158
11568TIP3    H134661   8.329   3.156   4.193
11568TIP3    H234662   8.202   3.106   4.126
11569TIP3   OH234663   6.827   7.401   2.668
11569TIP3    H134664   6.902   7.342   2.678
11569TIP3    H234665   6.772   7.358   2.602
11570TIP3   OH234666   3.226   3.408   4.845
11570TIP3    H134667   3.167   3.406   4.769
11570TIP3    H234668   3.192   3.340   4.903
11571TIP3   OH234669   5.545   1.346   4.971
11571TIP3    H134670   5.575   1.410   5.036
11571TIP3    H234671   5.463   1.312   5.008
11572TIP3   OH234672   8.094   2.420   1.448
11572TIP3    H134673   8.187   2.403   1.438
11572TIP3    H234674   8.063   2.436   1.359
11573TIP3   OH234675   0.869   4.974   6.087
11573TIP3    H134676   0.927   4.944   6.157
11573TIP3    H234677   0.885   5.069   6.081
11574TIP3   OH234678   0.856   0.619   5.242
11574TIP3    H134679   0.894   0.685   5.300
11574TIP3    H234680   0.872   0.536   5.286
11575TIP3   OH234681   5.838   3.181   4.635
11575TIP3    H134682   5.902   3.246   4.608
11575TIP3    H234683   5.885   3.098   4.631
11576TIP3   OH234684   4.281   5.061   5.976
11576TIP3    H134685   4.346   5.104   6.032
11576TIP3    H234686   4.197   5.100   6.001
11577TIP3   OH234687   3.611   4.752   4.826
11577TIP3    H134688   3.650   4.777   4.910
11577TIP3    H234689   3.631   4.826   4.767
11578TIP3   OH234690   0.202   0.556   5.210
11578TIP3    H134691   0.264   0.483   5.213
11578TIP3    H234692   0.118   0.518   5.236
11579TIP3   OH234693   5.630   4.449   2.685
11579TIP3    H134694   5.620   4.423   2.594
11579TIP3    H234695   5.540   4.467   2.715
11580TIP3   OH234696   1.452   0.282   5.942
11580TIP3    H134697   1.400   0.347   5.896
11580TIP3    H234698   1.392   0.243   6.005
11581TIP3   OH234699   1.451   3.755   1.019
11581TIP3    H134700   1.413   3.667   1.014
11581TIP3    H234701   1.544   3.741   0.999
11582TIP3   OH234702   6.956   4.919   1.472
11582TIP3    H134703   7.048   4.924   1.496
11582TIP3    H234704   6.941   4.827   1.451
11583TIP3   OH234705   4.021   5.168   2.119
11583TIP3    H134706   4.011   5.080   2.155
11583TIP3    H234707   3.952   5.220   2.161
11584TIP3   OH234708   0.180   5.499   6.432
11584TIP3    H134709   0.183   5.428   6.496
11584TIP3    H234710   0.108   5.475   6.373
11585TIP3   OH234711   4.170   4.431   1.974
11585TIP3    H134712   4.236   4.470   1.916
11585TIP3    H234713   4.220   4.373   2.031
11586TIP3   OH234714   6.207   6.957   5.177
11586TIP3    H134715   6.116   6.980   5.198
11586TIP3    H234716   6.257   7.035   5.200
11587TIP3   OH234717   5.736   5.080   3.628
11587TIP3    H134718   5.657   5.127   3.652
11587TIP3    H234719   5.714   4.988   3.638
11588TIP3   OH234720   7.165   3.058   0.579
11588TIP3    H134721   7.124   3.144   0.591
11588TIP3    H234722   7.257   3.072   0.601
11589TIP3   OH234723   5.179   5.866   2.759
11589TIP3    H134724   5.120   5.846   2.831
11589TIP3    H234725   5.190   5.961   2.762
11590TIP3   OH234726   7.737   1.530   1.158
11590TIP3    H134727   7.827   1.509   1.183
11590TIP3    H234728   7.711   1.601   1.217
11591TIP3   OH234729   3.670   3.944   4.972
11591TIP3    H134730   3.635   3.970   4.887
11591TIP3    H234731   3.728   3.871   4.953
11592TIP3   OH234732   3.711   7.394   5.941
11592TIP3    H134733   3.643   7.343   5.896
11592TIP3    H234734   3.791   7.374   5.893
11593TIP3   OH234735   7.559   1.376   2.057
11593TIP3    H134736   7.478   1.349   2.013
11593TIP3    H234737   7.611   1.417   1.987
11594TIP3   OH234738   2.762   0.796   6.460
11594TIP3    H134739   2.747   0.814   6.553
11594TIP3    H234740   2.717   0.713   6.444
11595TIP3   OH234741   8.285   5.060   2.512
11595TIP3    H134742   8.353   5.069   2.445
11595TIP3    H234743   8.251   4.971   2.501
11596TIP3   OH234744   3.202   1.882   2.457
11596TIP3    H134745   3.180   1.931   2.378
11596TIP3    H234746   3.229   1.949   2.520
11597TIP3   OH234747   2.866   4.162   0.519
11597TIP3    H134748   2.932   4.119   0.574
11597TIP3    H234749   2.790   4.172   0.576
11598TIP3   OH234750   0.565   6.434   3.051
11598TIP3    H134751   0.486   6.441   3.105
11598TIP3    H234752   0.580   6.340   3.043
11599TIP3   OH234753   7.458   5.824   5.370
11599TIP3    H134754   7.479   5.872   5.290
11599TIP3    H234755   7.470   5.732   5.347
11600TIP3   OH234756   2.876   7.786   1.638
11600TIP3    H134757   2.902   7.699   1.605
11600TIP3    H234758   2.956   7.820   1.678
11601TIP3   OH234759   6.347   1.280   0.938
11601TIP3    H134760   6.305   1.248   0.858
11601TIP3    H234761   6.432   1.313   0.908
11602TIP3   OH234762   1.723   3.871   5.013
11602TIP3    H134763   1.697   3.958   4.983
11602TIP3    H234764   1.762   3.830   4.936
11603TIP3   OH234765   4.328   4.512   4.597
11603TIP3    H134766   4.275   4.515   4.517
11603TIP3    H234767   4.300   4.432   4.641
11604TIP3   OH234768   3.120   0.555   0.982
11604TIP3    H134769   3.128   0.634   1.035
11604TIP3    H234770   3.086   0.586   0.898
11605TIP3   OH234771   6.425   2.917   2.507
11605TIP3    H134772   6.503   2.958   2.471
11605TIP3    H234773   6.406   2.844   2.448
11606TIP3   OH234774   7.698   3.492   5.161
11606TIP3    H134775   7.688   3.398   5.152
11606TIP3    H234776   7.621   3.520   5.211
11607TIP3   OH234777   7.740   0.195   5.584
11607TIP3    H134778   7.771   0.280   5.555
11607TIP3    H234779   7.659   0.181   5.536
11608TIP3   OH234780   7.575   7.076   6.095
11608TIP3    H134781   7.531   6.993   6.115
11608TIP3    H234782   7.512   7.144   6.118
11609TIP3   OH234783   7.306   6.825   1.402
11609TIP3    H134784   7.354   6.747   1.429
11609TIP3    H234785   7.321   6.832   1.308
11610TIP3   OH234786   6.958   1.106   1.209
11610TIP3    H134787   7.036   1.063   1.176
11610TIP3    H234788   6.956   1.191   1.165
11611TIP3   OH234789   1.846   6.997   0.280
11611TIP3    H134790   1.880   6.980   0.368
11611TIP3    H234791   1.911   6.957   0.222
11612TIP3   OH234792   7.282   7.448   4.584
11612TIP3    H134793   7.274   7.445   4.679
11612TIP3    H234794   7.373   7.476   4.569
11613TIP3   OH234795   3.204   1.399   4.697
11613TIP3    H134796   3.210   1.316   4.649
11613TIP3    H234797   3.200   1.466   4.629
11614TIP3   OH234798   7.876   1.514   5.789
11614TIP3    H134799   7.813   1.570   5.835
11614TIP3    H234800   7.953   1.513   5.846
11615TIP3   OH234801   6.883   5.870   1.760
11615TIP3    H134802   6.872   5.776   1.742
11615TIP3    H234803   6.921   5.873   1.848
11616TIP3   OH234804   3.244   2.600   3.370
11616TIP3    H134805   3.183   2.618   3.442
11616TIP3    H234806   3.328   2.633   3.401
11617TIP3   OH234807   6.699   7.086   6.739
11617TIP3    H134808   6.726   7.015   6.796
11617TIP3    H234809   6.667   7.043   6.659
11618TIP3   OH234810   5.635   1.247   6.612
11618TIP3    H134811   5.626   1.342   6.600
11618TIP3    H234812   5.569   1.210   6.554
11619TIP3   OH234813   2.631   6.093   4.491
11619TIP3    H134814   2.624   6.189   4.495
11619TIP3    H234815   2.639   6.073   4.398
11620TIP3   OH234816   6.719   0.858   5.311
11620TIP3    H134817   6.702   0.778   5.361
11620TIP3    H234818   6.723   0.830   5.220
11621TIP3   OH234819   4.243   1.316   2.987
11621TIP3    H134820   4.333   1.346   3.001
11621TIP3    H234821   4.201   1.387   2.940
11622TIP3   OH234822   6.226   5.501   1.254
11622TIP3    H134823   6.281   5.578   1.246
11622TIP3    H234824   6.167   5.521   1.327
11623TIP3   OH234825   0.851   0.987   6.668
11623TIP3    H134826   0.902   0.978   6.748
11623TIP3    H234827   0.903   0.942   6.601
11624TIP3   OH234828   5.096  -0.025   0.790
11624TIP3    H134829   5.035   0.028   0.841
11624TIP3    H234830   5.085   0.007   0.700
11625TIP3   OH234831   3.981   3.958   5.162
11625TIP3    H134832   4.007   4.013   5.088
11625TIP3    H234833   4.062   3.919   5.193
11626TIP3   OH234834   1.025   2.364   0.396
11626TIP3    H134835   1.099   2.383   0.453
11626TIP3    H234836   1.055   2.388   0.308
11627TIP3   OH234837   6.223   5.569   6.186
11627TIP3    H134838   6.170   5.617   6.122
11627TIP3    H234839   6.303   5.547   6.139
11628TIP3   OH234840   2.397   0.157   4.674
11628TIP3    H134841   2.354   0.091   4.728
11628TIP3    H234842   2.486   0.163   4.710
11629TIP3   OH234843   6.304   1.156   2.210
11629TIP3    H134844   6.240   1.103   2.162
11629TIP3    H234845   6.296   1.243   2.170
11630TIP3   OH234846   1.262   0.250   0.469
11630TIP3    H134847   1.328   0.189   0.435
11630TIP3    H234848   1.182   0.227   0.422
11631TIP3   OH234849   3.458   2.100   5.357
11631TIP3    H134850   3.392   2.169   5.346
11631TIP3    H234851   3.440   2.038   5.287
11632TIP3   OH234852   4.714   4.767   2.805
11632TIP3    H134853   4.626   4.759   2.842
11632TIP3    H234854   4.755   4.837   2.855
11633TIP3   OH234855   1.607   0.694   1.045
11633TIP3    H134856   1.565   0.624   0.996
11633TIP3    H234857   1.569   0.775   1.010
11634TIP3   OH234858   7.049   2.142   0.715
11634TIP3    H134859   7.034   2.122   0.622
11634TIP3    H234860   7.089   2.229   0.714
11635TIP3   OH234861   0.335   6.102   5.087
11635TIP3    H134862   0.345   6.197   5.079
11635TIP3    H234863   0.343   6.069   4.997
11636TIP3   OH234864   4.413   6.955   6.791
11636TIP3    H134865   4.430   6.874   6.742
11636TIP3    H234866   4.338   6.994   6.747
11637TIP3   OH234867   7.942   6.857   6.322
11637TIP3    H134868   7.945   6.764   6.298
11637TIP3    H234869   8.034   6.884   6.322
11638TIP3   OH234870   3.838   3.354   3.567
11638TIP3    H134871   3.882   3.417   3.624
11638TIP3    H234872   3.810   3.284   3.625
11639TIP3   OH234873   2.365   1.439   2.519
11639TIP3    H134874   2.384   1.455   2.427
11639TIP3    H234875   2.286   1.386   2.519
11640TIP3   OH234876   0.079   0.744   1.866
11640TIP3    H134877   0.029   0.793   1.801
11640TIP3    H234878   0.051   0.653   1.853
11641TIP3   OH234879   0.497   2.805   0.480
11641TIP3    H134880   0.426   2.818   0.542
11641TIP3    H234881   0.482   2.871   0.412
11642TIP3   OH234882   1.815   4.435   5.571
11642TIP3    H134883   1.770   4.351   5.564
11642TIP3    H234884   1.755   4.489   5.623
11643TIP3   OH234885   1.101   4.844   3.695
11643TIP3    H134886   1.096   4.938   3.683
11643TIP3    H234887   1.013   4.818   3.721
11644TIP3   OH234888   1.342   3.979   3.331
11644TIP3    H134889   1.405   4.048   3.349
11644TIP3    H234890   1.294   4.009   3.254
11645TIP3   OH234891   6.457   3.589   5.721
11645TIP3    H134892   6.395   3.519   5.704
11645TIP3    H234893   6.403   3.668   5.727
11646TIP3   OH234894   3.082   1.558   6.568
11646TIP3    H134895   3.130   1.606   6.501
11646TIP3    H234896   3.131   1.573   6.648
11647TIP3   OH234897   8.078   6.167   5.380
11647TIP3    H134898   8.058   6.260   5.389
11647TIP3    H234899   8.010   6.133   5.322
11648TIP3   OH234900   0.307   6.413   4.691
11648TIP3    H134901   0.392   6.417   4.646
11648TIP3    H234902   0.285   6.320   4.691
11649TIP3   OH234903   1.927   1.875   5.923
11649TIP3    H134904   1.947   1.965   5.898
11649TIP3    H234905   1.855   1.850   5.864
11650TIP3   OH234906   4.875   5.844   1.068
11650TIP3    H134907   4.961   5.874   1.039
11650TIP3    H234908   4.828   5.924   1.090
11651TIP3   OH234909   4.004   3.445   5.405
11651TIP3    H134910   3.955   3.526   5.391
11651TIP3    H234911   3.937   3.380   5.428
11652TIP3   OH234912   5.417   1.001   0.991
11652TIP3    H134913   5.392   0.944   1.063
11652TIP3    H234914   5.501   1.038   1.017
11653TIP3   OH234915   2.360   0.134   0.898
11653TIP3    H134916   2.423   0.142   0.826
11653TIP3    H234917   2.400   0.183   0.970
11654TIP3   OH234918   5.941   0.306   6.622
11654TIP3    H134919   5.931   0.336   6.712
11654TIP3    H234920   5.897   0.373   6.569
11655TIP3   OH234921   2.661   7.544   3.431
11655TIP3    H134922   2.749   7.511   3.449
11655TIP3    H234923   2.622   7.556   3.517
11656TIP3   OH234924   1.888   6.277   4.059
11656TIP3    H134925   1.822   6.214   4.030
11656TIP3    H234926   1.853   6.313   4.141
11657TIP3   OH234927   6.958   0.917   3.987
11657TIP3    H134928   6.978   0.840   4.041
11657TIP3    H234929   6.962   0.991   4.048
11658TIP3   OH234930   8.131   7.524   3.725
11658TIP3    H134931   8.117   7.452   3.787
11658TIP3    H234932   8.046   7.536   3.684
11659TIP3   OH234933   6.680   2.271   4.426
11659TIP3    H134934   6.654   2.269   4.518
11659TIP3    H234935   6.645   2.190   4.390
11660TIP3   OH234936   3.325   6.040   0.885
11660TIP3    H134937   3.327   6.016   0.793
11660TIP3    H234938   3.309   6.135   0.885
11661TIP3   OH234939   7.794   2.055   2.491
11661TIP3    H134940   7.726   2.005   2.446
11661TIP3    H234941   7.857   2.076   2.422
11662TIP3   OH234942   3.298   7.509   4.572
11662TIP3    H134943   3.284   7.566   4.496
11662TIP3    H234944   3.242   7.433   4.556
11663TIP3   OH234945   2.074   5.153   0.994
11663TIP3    H134946   2.018   5.128   0.920
11663TIP3    H234947   2.042   5.101   1.067
11664TIP3   OH234948   4.084   5.372   3.091
11664TIP3    H134949   4.117   5.392   3.178
11664TIP3    H234950   4.050   5.455   3.058
11665TIP3   OH234951   2.450   0.913   4.205
11665TIP3    H134952   2.455   0.918   4.301
11665TIP3    H234953   2.505   0.839   4.182
11666TIP3   OH234954   3.110   4.487   1.892
11666TIP3    H134955   3.159   4.500   1.812
11666TIP3    H234956   3.105   4.573   1.932
11667TIP3   OH234957   8.019   3.892   4.938
11667TIP3    H134958   8.093   3.832   4.951
11667TIP3    H234959   7.965   3.880   5.016
11668TIP3   OH234960   0.525   7.627   4.042
11668TIP3    H134961   0.607   7.648   4.089
11668TIP3    H234962   0.486   7.712   4.024
11669TIP3   OH234963   3.640   7.661   5.327
11669TIP3    H134964   3.732   7.651   5.348
11669TIP3    H234965   3.638   7.728   5.259
11670TIP3   OH234966   3.127   5.047   1.422
11670TIP3    H134967   3.037   5.079   1.408
11670TIP3    H234968   3.125   5.007   1.509
11671TIP3   OH234969   3.671   5.846   1.351
11671TIP3    H134970   3.696   5.901   1.425
11671TIP3    H234971   3.622   5.904   1.293
11672TIP3   OH234972   5.025   2.570   3.402
11672TIP3    H134973   5.013   2.477   3.382
11672TIP3    H234974   4.942   2.611   3.377
11673TIP3   OH234975   5.018   6.182   5.129
11673TIP3    H134976   5.059   6.218   5.207
11673TIP3    H234977   4.929   6.218   5.129
11674TIP3   OH234978   6.579   6.279   0.502
11674TIP3    H134979   6.599   6.186   0.489
11674TIP3    H234980   6.649   6.325   0.455
11675TIP3   OH234981   0.548   4.112   0.750
11675TIP3    H134982   0.595   4.080   0.673
11675TIP3    H234983   0.460   4.131   0.718
11676TIP3   OH234984   3.585   4.801   0.780
11676TIP3    H134985   3.586   4.863   0.707
11676TIP3    H234986   3.656   4.832   0.838
11677TIP3   OH234987   3.075   4.236   5.328
11677TIP3    H134988   3.050   4.147   5.352
11677TIP3    H234989   3.132   4.265   5.400
11678TIP3   OH234990   1.794   3.267   3.460
11678TIP3    H134991   1.746   3.314   3.392
11678TIP3    H234992   1.865   3.326   3.485
11679TIP3   OH234993   2.820   2.335   6.305
11679TIP3    H134994   2.761   2.307   6.234
11679TIP3    H234995   2.875   2.402   6.265
11680TIP3   OH234996   5.236   6.088   3.312
11680TIP3    H134997   5.186   6.165   3.287
11680TIP3    H234998   5.316   6.092   3.259
11681TIP3   OH234999   3.972   4.674   2.402
11681TIP3    H135000   3.968   4.731   2.326
11681TIP3    H235001   3.927   4.723   2.471
11682TIP3   OH235002   0.374   2.251   0.408
11682TIP3    H135003   0.457   2.226   0.367
11682TIP3    H235004   0.387   2.233   0.501
11683TIP3   OH235005   4.430   7.705   2.652
11683TIP3    H135006   4.493   7.706   2.724
11683TIP3    H235007   4.406   7.613   2.642
11684TIP3   OH235008   3.895   5.713   4.856
11684TIP3    H135009   3.885   5.804   4.884
11684TIP3    H235010   3.989   5.705   4.838
11685TIP3   OH235011   8.297   0.291   1.898
11685TIP3    H135012   8.266   0.376   1.867
11685TIP3    H235013   8.242   0.272   1.974
11686TIP3   OH235014   2.232   5.811   5.406
11686TIP3    H135015   2.165   5.878   5.420
11686TIP3    H235016   2.303   5.857   5.363
11687TIP3   OH235017   8.135   7.665   1.746
11687TIP3    H135018   8.094   7.686   1.662
11687TIP3    H235019   8.228   7.652   1.724
11688TIP3   OH235020   1.270   3.905   0.888
11688TIP3    H135021   1.266   3.969   0.959
11688TIP3    H235022   1.333   3.839   0.918
11689TIP3   OH235023   7.905   0.972   5.790
11689TIP3    H135024   7.914   1.067   5.787
11689TIP3    H235025   7.983   0.939   5.747
11690TIP3   OH235026   4.304   0.678   5.182
11690TIP3    H135027   4.381   0.632   5.216
11690TIP3    H235028   4.310   0.666   5.088
11691TIP3   OH235029   8.131   5.568   4.591
11691TIP3    H135030   8.107   5.484   4.631
11691TIP3    H235031   8.178   5.615   4.660
11692TIP3   OH235032   5.765   5.695   4.038
11692TIP3    H135033   5.849   5.738   4.051
11692TIP3    H235034   5.706   5.765   4.011
11693TIP3   OH235035   4.796   3.228   1.232
11693TIP3    H135036   4.751   3.206   1.151
11693TIP3    H235037   4.835   3.146   1.262
11694TIP3   OH235038   1.779   2.668   0.708
11694TIP3    H135039   1.713   2.685   0.642
11694TIP3    H235040   1.733   2.678   0.791
11695TIP3   OH235041   1.969   0.814   0.940
11695TIP3    H135042   2.051   0.845   0.980
11695TIP3    H235043   1.996   0.781   0.854
11696TIP3   OH235044   1.986   4.643   0.358
11696TIP3    H135045   2.021   4.667   0.444
11696TIP3    H235046   1.916   4.707   0.343
11697TIP3   OH235047   2.273   4.392   0.682
11697TIP3    H135048   2.180   4.370   0.674
11697TIP3    H235049   2.278   4.485   0.661
11698TIP3   OH235050   3.118   6.141   4.395
11698TIP3    H135051   3.128   6.074   4.328
11698TIP3    H235052   3.207   6.159   4.425
11699TIP3   OH235053   7.660   7.309   2.368
11699TIP3    H135054   7.693   7.278   2.453
11699TIP3    H235055   7.734   7.295   2.308
11700TIP3   OH235056   1.568   7.785   1.780
11700TIP3    H135057   1.534   7.729   1.711
11700TIP3    H235058   1.648   7.741   1.809
11701TIP3   OH235059   2.532   4.823   0.434
11701TIP3    H135060   2.436   4.829   0.438
11701TIP3    H235061   2.556   4.781   0.517
11702TIP3   OH235062   7.560   2.128   1.465
11702TIP3    H135063   7.491   2.065   1.446
11702TIP3    H235064   7.632   2.076   1.501
11703TIP3   OH235065   4.080   0.980   3.939
11703TIP3    H135066   4.069   0.894   3.982
11703TIP3    H235067   3.996   1.023   3.950
11704TIP3   OH235068   2.660   7.104   6.794
11704TIP3    H135069   2.612   7.065   6.721
11704TIP3    H235070   2.675   7.195   6.767
11705TIP3   OH235071   4.651   1.785   3.479
11705TIP3    H135072   4.568   1.804   3.523
11705TIP3    H235073   4.651   1.691   3.466
11706TIP3   OH235074   1.629   1.862   2.921
11706TIP3    H135075   1.557   1.800   2.934
11706TIP3    H235076   1.694   1.836   2.986
11707TIP3   OH235077   4.370   3.195   5.382
11707TIP3    H135078   4.445   3.224   5.330
11707TIP3    H235079   4.332   3.123   5.332
11708TIP3   OH235080   4.136   1.347   6.651
11708TIP3    H135081   4.116   1.411   6.719
11708TIP3    H235082   4.210   1.296   6.686
11709TIP3   OH235083   2.556   6.057   4.760
11709TIP3    H135084   2.567   6.062   4.665
11709TIP3    H235085   2.638   6.090   4.795
11710TIP3   OH235086   7.486   7.810   4.495
11710TIP3    H135087   7.515   7.719   4.489
11710TIP3    H235088   7.482   7.840   4.404
11711TIP3   OH235089   6.164   1.969   6.036
11711TIP3    H135090   6.184   2.059   6.010
11711TIP3    H235091   6.241   1.919   6.010
11712TIP3   OH235092   7.663   3.614   3.487
11712TIP3    H135093   7.638   3.540   3.432
11712TIP3    H235094   7.737   3.581   3.538
11713TIP3   OH235095   4.446   0.255   0.645
11713TIP3    H135096   4.419   0.249   0.553
11713TIP3    H235097   4.539   0.277   0.641
11714TIP3   OH235098   5.787   2.752   2.950
11714TIP3    H135099   5.732   2.816   2.905
11714TIP3    H235100   5.873   2.793   2.955
11715TIP3   OH235101   0.680   7.840   3.054
11715TIP3    H135102   0.682   7.809   2.964
11715TIP3    H235103   0.681   7.761   3.107
11716TIP3   OH235104   6.448   4.869   6.683
11716TIP3    H135105   6.360   4.851   6.716
11716TIP3    H235106   6.452   4.964   6.676
11717TIP3   OH235107   2.565   3.390   3.509
11717TIP3    H135108   2.644   3.437   3.481
11717TIP3    H235109   2.519   3.370   3.427
11718TIP3   OH235110   3.183   6.708   3.585
11718TIP3    H135111   3.117   6.774   3.568
11718TIP3    H235112   3.151   6.661   3.661
11719TIP3   OH235113   0.172  -0.023   2.574
11719TIP3    H135114   0.125   0.053   2.541
11719TIP3    H235115   0.187  -0.003   2.667
11720TIP3   OH235116   6.329   7.408   0.170
11720TIP3    H135117   6.384   7.355   0.112
11720TIP3    H235118   6.313   7.352   0.246
11721TIP3   OH235119   5.869   6.468   2.504
11721TIP3    H135120   5.943   6.476   2.565
11721TIP3    H235121   5.874   6.378   2.472
11722TIP3   OH235122   1.876   1.330   4.673
11722TIP3    H135123   1.851   1.269   4.603
11722TIP3    H235124   1.914   1.274   4.741
11723TIP3   OH235125   6.792   1.283   5.730
11723TIP3    H135126   6.760   1.213   5.673
11723TIP3    H235127   6.887   1.280   5.721
11724TIP3   OH235128   6.505   0.744   6.130
11724TIP3    H135129   6.582   0.701   6.169
11724TIP3    H235130   6.532   0.835   6.119
11725TIP3   OH235131   3.869   7.430   6.475
11725TIP3    H135132   3.810   7.496   6.437
11725TIP3    H235133   3.928   7.481   6.531
11726TIP3   OH235134   3.289   7.670   2.138
11726TIP3    H135135   3.263   7.753   2.097
11726TIP3    H235136   3.305   7.692   2.230
11727TIP3   OH235137   2.707   4.357   1.406
11727TIP3    H135138   2.689   4.300   1.332
11727TIP3    H235139   2.621   4.367   1.449
11728TIP3   OH235140   3.874   7.403   4.164
11728TIP3    H135141   3.801   7.458   4.136
11728TIP3    H235142   3.951   7.459   4.153
11729TIP3   OH235143   4.372   1.460   0.530
11729TIP3    H135144   4.335   1.548   0.532
11729TIP3    H235145   4.436   1.459   0.602
11730TIP3   OH235146   5.262   1.712   4.813
11730TIP3    H135147   5.247   1.712   4.908
11730TIP3    H235148   5.231   1.798   4.784
11731TIP3   OH235149   2.047   6.871   4.182
11731TIP3    H135150   2.045   6.938   4.114
11731TIP3    H235151   2.107   6.906   4.248
11732TIP3   OH235152   7.652   3.408   1.983
11732TIP3    H135153   7.653   3.503   1.972
11732TIP3    H235154   7.646   3.374   1.894
11733TIP3   OH235155   7.749   5.228   5.360
11733TIP3    H135156   7.733   5.269   5.445
11733TIP3    H235157   7.844   5.232   5.349
11734TIP3   OH235158   6.904   0.570   3.112
11734TIP3    H135159   6.869   0.658   3.124
11734TIP3    H235160   6.998   0.583   3.099
11735TIP3   OH235161   7.954   5.697   5.439
11735TIP3    H135162   8.037   5.681   5.484
11735TIP3    H235163   7.945   5.624   5.378
11736TIP3   OH235164   6.704   4.352   3.399
11736TIP3    H135165   6.730   4.414   3.468
11736TIP3    H235166   6.624   4.312   3.432
11737TIP3   OH235167   1.128   3.402   0.843
11737TIP3    H135168   1.126   3.345   0.766
11737TIP3    H235169   1.040   3.439   0.848
11738TIP3   OH235170   4.895   4.926   2.162
11738TIP3    H135171   4.959   4.879   2.109
11738TIP3    H235172   4.810   4.891   2.134
11739TIP3   OH235173   7.870   2.213   0.143
11739TIP3    H135174   7.938   2.281   0.146
11739TIP3    H235175   7.915   2.135   0.113
11740TIP3   OH235176   6.768   3.987   0.649
11740TIP3    H135177   6.677   3.959   0.661
11740TIP3    H235178   6.820   3.908   0.662
11741TIP3   OH235179   3.409   5.429   0.895
11741TIP3    H135180   3.454   5.352   0.862
11741TIP3    H235181   3.339   5.394   0.950
11742TIP3   OH235182   2.361   6.355   1.424
11742TIP3    H135183   2.306   6.339   1.500
11742TIP3    H235184   2.405   6.438   1.442
11743TIP3   OH235185   6.243   7.237   4.404
11743TIP3    H135186   6.244   7.331   4.387
11743TIP3    H235187   6.332   7.216   4.431
11744TIP3   OH235188   5.390   5.669   6.459
11744TIP3    H135189   5.376   5.744   6.517
11744TIP3    H235190   5.391   5.707   6.371
11745TIP3   OH235191   5.138   5.400   4.603
11745TIP3    H135192   5.183   5.427   4.523
11745TIP3    H235193   5.090   5.477   4.631
11746TIP3   OH235194   0.538   5.664   2.743
11746TIP3    H135195   0.550   5.570   2.758
11746TIP3    H235196   0.626   5.697   2.724
11747TIP3   OH235197   8.051   7.025   5.126
11747TIP3    H135198   8.053   7.081   5.203
11747TIP3    H235199   7.999   6.949   5.152
11748TIP3   OH235200   5.820   0.980   4.264
11748TIP3    H135201   5.818   0.941   4.177
11748TIP3    H235202   5.908   0.960   4.297
11749TIP3   OH235203   3.286   3.811   4.678
11749TIP3    H135204   3.333   3.750   4.735
11749TIP3    H235205   3.318   3.790   4.590
11750TIP3   OH235206   6.405   1.444   4.800
11750TIP3    H135207   6.310   1.432   4.794
11750TIP3    H235208   6.441   1.381   4.738
11751TIP3   OH235209   1.834   6.737   5.786
11751TIP3    H135210   1.774   6.690   5.844
11751TIP3    H235211   1.780   6.803   5.744
11752TIP3   OH235212   6.758   5.988   6.602
11752TIP3    H135213   6.840   5.939   6.608
11752TIP3    H235214   6.742   6.019   6.691
11753TIP3   OH235215   0.601   6.848   4.205
11753TIP3    H135216   0.592   6.809   4.292
11753TIP3    H235217   0.625   6.939   4.221
11754TIP3   OH235218   5.149   4.064   0.476
11754TIP3    H135219   5.087   4.083   0.405
11754TIP3    H235220   5.140   4.138   0.535
11755TIP3   OH235221   4.941   5.638   5.278
11755TIP3    H135222   5.009   5.574   5.254
11755TIP3    H235223   4.973   5.677   5.360
11756TIP3   OH235224   2.614   1.860   6.148
11756TIP3    H135225   2.524   1.828   6.138
11756TIP3    H235226   2.609   1.953   6.130
11757TIP3   OH235227   4.796   7.408   3.030
11757TIP3    H135228   4.748   7.428   2.950
11757TIP3    H235229   4.877   7.458   3.022
11758TIP3   OH235230   6.710   6.858   3.992
11758TIP3    H135231   6.755   6.908   4.060
11758TIP3    H235232   6.618   6.856   4.020
11759TIP3   OH235233   6.958   6.131   2.025
11759TIP3    H135234   6.911   6.197   2.077
11759TIP3    H235235   6.939   6.048   2.069
11760TIP3   OH235236   0.080   1.153   4.484
11760TIP3    H135237   0.074   1.215   4.556
11760TIP3    H235238   0.118   1.074   4.524
11761TIP3   OH235239   1.944   0.202   2.264
11761TIP3    H135240   1.927   0.253   2.343
11761TIP3    H235241   1.921   0.112   2.288
11762TIP3   OH235242   4.789   7.354   5.154
11762TIP3    H135243   4.754   7.266   5.171
11762TIP3    H235244   4.714   7.412   5.164
11763TIP3   OH235245   2.542   2.972   3.348
11763TIP3    H135246   2.480   3.017   3.291
11763TIP3    H235247   2.505   2.885   3.360
11764TIP3   OH235248   6.549   0.136   1.601
11764TIP3    H135249   6.501   0.121   1.682
11764TIP3    H235250   6.602   0.057   1.590
11765TIP3   OH235251   0.101   5.104   5.400
11765TIP3    H135252   0.077   5.171   5.463
11765TIP3    H235253   0.197   5.104   5.399
11766TIP3   OH235254   5.555   1.441   1.517
11766TIP3    H135255   5.505   1.396   1.585
11766TIP3    H235256   5.641   1.455   1.555
11767TIP3   OH235257   0.358   6.040   1.816
11767TIP3    H135258   0.443   6.054   1.857
11767TIP3    H235259   0.318   6.127   1.815
11768TIP3   OH235260   4.272   0.533   6.215
11768TIP3    H135261   4.302   0.614   6.256
11768TIP3    H235262   4.176   0.538   6.220
11769TIP3   OH235263   2.012   2.707   4.213
11769TIP3    H135264   2.006   2.800   4.190
11769TIP3    H235265   2.063   2.705   4.294
11770TIP3   OH235266   6.248   4.615   5.278
11770TIP3    H135267   6.191   4.552   5.322
11770TIP3    H235268   6.229   4.699   5.321
11771TIP3   OH235269   2.261   5.086   5.316
11771TIP3    H135270   2.279   5.057   5.406
11771TIP3    H235271   2.279   5.180   5.317
11772TIP3   OH235272   1.067   6.929   1.178
11772TIP3    H135273   1.025   7.014   1.174
11772TIP3    H235274   1.013   6.872   1.123
11773TIP3   OH235275   3.357   0.093   1.026
11773TIP3    H135276   3.385   0.183   1.011
11773TIP3    H235277   3.262   0.094   1.008
11774TIP3   OH235278   6.537   1.175   2.425
11774TIP3    H135279   6.531   1.083   2.403
11774TIP3    H235280   6.486   1.220   2.357
11775TIP3   OH235281   7.318   6.256   5.115
11775TIP3    H135282   7.391   6.315   5.132
11775TIP3    H235283   7.261   6.266   5.191
11776TIP3   OH235284   4.840   0.799   4.890
11776TIP3    H135285   4.927   0.835   4.873
11776TIP3    H235286   4.784   0.837   4.823
11777TIP3   OH235287   2.988   6.735   0.425
11777TIP3    H135288   3.026   6.811   0.470
11777TIP3    H235289   2.916   6.772   0.374
11778TIP3   OH235290   3.298   1.525   4.924
11778TIP3    H135291   3.350   1.591   4.879
11778TIP3    H235292   3.252   1.479   4.853
11779TIP3   OH235293   2.370   6.387   5.495
11779TIP3    H135294   2.425   6.459   5.526
11779TIP3    H235295   2.432   6.320   5.467
11780TIP3   OH235296   1.674   0.069   0.267
11780TIP3    H135297   1.709   0.155   0.246
11780TIP3    H235298   1.698   0.055   0.359
11781TIP3   OH235299   0.879   4.095   2.702
11781TIP3    H135300   0.861   4.157   2.631
11781TIP3    H235301   0.975   4.088   2.704
11782TIP3   OH235302   7.629   3.336   0.135
11782TIP3    H135303   7.693   3.265   0.134
11782TIP3    H235304   7.662   3.397   0.201
11783TIP3   OH235305   0.772   5.783   2.620
11783TIP3    H135306   0.823   5.703   2.611
11783TIP3    H235307   0.770   5.821   2.532
11784TIP3   OH235308   5.114   0.061   3.262
11784TIP3    H135309   5.022   0.036   3.262
11784TIP3    H235310   5.121   0.130   3.328
11785TIP3   OH235311   0.118   6.502   5.842
11785TIP3    H135312   0.164   6.582   5.815
11785TIP3    H235313   0.028   6.515   5.813
11786TIP3   OH235314   1.664   5.071   1.019
11786TIP3    H135315   1.638   5.135   0.953
11786TIP3    H235316   1.583   5.045   1.062
11787TIP3   OH235317   4.040   5.932   3.910
11787TIP3    H135318   3.974   5.873   3.947
11787TIP3    H235319   4.011   6.020   3.935
11788TIP3   OH235320   5.723   5.442   5.132
11788TIP3    H135321   5.677   5.411   5.055
11788TIP3    H235322   5.814   5.416   5.118
11789TIP3   OH235323   3.202   1.839   0.283
11789TIP3    H135324   3.256   1.911   0.253
11789TIP3    H235325   3.118   1.879   0.307
11790TIP3   OH235326   5.850   4.794   1.086
11790TIP3    H135327   5.902   4.828   1.013
11790TIP3    H235328   5.762   4.784   1.050
11791TIP3   OH235329   6.453   4.098   2.474
11791TIP3    H135330   6.390   4.071   2.407
11791TIP3    H235331   6.521   4.031   2.472
11792TIP3   OH235332   3.221   2.967   1.347
11792TIP3    H135333   3.157   2.997   1.411
11792TIP3    H235334   3.297   3.023   1.360
11793TIP3   OH235335   1.129   5.187   6.579
11793TIP3    H135336   1.106   5.259   6.638
11793TIP3    H235337   1.063   5.192   6.509
11794TIP3   OH235338   8.300   6.852   0.601
11794TIP3    H135339   8.294   6.899   0.684
11794TIP3    H235340   8.210   6.826   0.582
11795TIP3   OH235341   6.015   0.602   0.667
11795TIP3    H135342   6.084   0.630   0.606
11795TIP3    H235343   5.944   0.666   0.654
11796TIP3   OH235344   3.049   0.844   6.487
11796TIP3    H135345   2.958   0.816   6.480
11796TIP3    H235346   3.099   0.763   6.496
11797TIP3   OH235347   7.745   2.172   0.401
11797TIP3    H135348   7.764   2.260   0.432
11797TIP3    H235349   7.794   2.164   0.319
11798TIP3   OH235350   1.006   1.838   6.066
11798TIP3    H135351   0.937   1.820   6.003
11798TIP3    H235352   0.996   1.931   6.088
11799TIP3   OH235353   2.837   7.060   1.219
11799TIP3    H135354   2.774   7.131   1.230
11799TIP3    H235355   2.922   7.099   1.239
11800TIP3   OH235356   0.830   7.043   4.254
11800TIP3    H135357   0.808   7.116   4.196
11800TIP3    H235358   0.829   7.081   4.342
11801TIP3   OH235359   7.979   1.737   0.848
11801TIP3    H135360   7.952   1.784   0.927
11801TIP3    H235361   7.933   1.653   0.854
11802TIP3   OH235362   3.310   0.866   3.729
11802TIP3    H135363   3.336   0.951   3.693
11802TIP3    H235364   3.336   0.803   3.662
11803TIP3   OH235365   4.183   3.967   3.337
11803TIP3    H135366   4.163   3.875   3.319
11803TIP3    H235367   4.179   4.009   3.252
11804TIP3   OH235368   1.642   7.611   2.538
11804TIP3    H135369   1.611   7.698   2.512
11804TIP3    H235370   1.737   7.620   2.542
11805TIP3   OH235371   6.036   2.841   0.143
11805TIP3    H135372   6.062   2.921   0.189
11805TIP3    H235373   5.947   2.824   0.172
11806TIP3   OH235374   7.763   0.336   2.088
11806TIP3    H135375   7.807   0.337   2.003
11806TIP3    H235376   7.806   0.406   2.138
11807TIP3   OH235377   3.629   6.225   5.578
11807TIP3    H135378   3.672   6.237   5.662
11807TIP3    H235379   3.580   6.144   5.588
11808TIP3   OH235380   0.932   2.358   6.395
11808TIP3    H135381   0.901   2.288   6.454
11808TIP3    H235382   0.914   2.324   6.307
11809TIP3   OH235383   2.150   1.656   0.249
11809TIP3    H135384   2.165   1.619   0.336
11809TIP3    H235385   2.201   1.601   0.190
11810TIP3   OH235386   6.543   2.123   3.122
11810TIP3    H135387   6.470   2.173   3.159
11810TIP3    H235388   6.546   2.043   3.173
11811TIP3   OH235389   8.049   0.848   2.160
11811TIP3    H135390   8.125   0.906   2.149
11811TIP3    H235391   8.036   0.808   2.074
11812TIP3   OH235392   2.097   6.503   3.671
11812TIP3    H135393   2.171   6.470   3.721
11812TIP3    H235394   2.036   6.430   3.668
11813TIP3   OH235395   5.518   6.057   3.217
11813TIP3    H135396   5.602   6.044   3.172
11813TIP3    H235397   5.487   5.968   3.236
11814TIP3   OH235398   1.011   5.474   5.521
11814TIP3    H135399   0.949   5.429   5.464
11814TIP3    H235400   1.024   5.560   5.480
11815TIP3   OH235401   5.583   3.199   2.036
11815TIP3    H135402   5.609   3.117   2.078
11815TIP3    H235403   5.665   3.247   2.025
11816TIP3   OH235404   5.486   1.879   0.638
11816TIP3    H135405   5.449   1.900   0.724
11816TIP3    H235406   5.581   1.884   0.651
11817TIP3   OH235407   6.234   6.072   5.048
11817TIP3    H135408   6.232   6.107   5.137
11817TIP3    H235409   6.303   6.006   5.050
11818TIP3   OH235410   7.654   0.040   4.878
11818TIP3    H135411   7.702   0.014   4.956
11818TIP3    H235412   7.717   0.033   4.807
11819TIP3   OH235413   6.955   7.618   3.489
11819TIP3    H135414   7.044   7.591   3.510
11819TIP3    H235415   6.961   7.712   3.473
11820TIP3   OH235416   1.580   2.427   4.208
11820TIP3    H135417   1.605   2.371   4.135
11820TIP3    H235418   1.661   2.472   4.232
11821TIP3   OH235419   2.925   5.130   2.993
11821TIP3    H135420   2.885   5.051   3.028
11821TIP3    H235421   2.886   5.201   3.045
11822TIP3   OH235422   6.882   7.815   1.040
11822TIP3    H135423   6.843   7.759   0.972
11822TIP3    H235424   6.910   7.754   1.107
11823TIP3   OH235425   0.445   2.210   3.788
11823TIP3    H135426   0.478   2.126   3.822
11823TIP3    H235427   0.468   2.209   3.695
11824TIP3   OH235428   4.410   4.579   5.132
11824TIP3    H135429   4.340   4.632   5.169
11824TIP3    H235430   4.490   4.627   5.153
11825TIP3   OH235431   8.175   6.427   5.237
11825TIP3    H135432   8.091   6.408   5.194
11825TIP3    H235433   8.151   6.446   5.327
11826TIP3   OH235434   1.679   3.136   3.149
11826TIP3    H135435   1.624   3.208   3.121
11826TIP3    H235436   1.619   3.075   3.193
11827TIP3   OH235437   1.694   6.892   2.771
11827TIP3    H135438   1.636   6.845   2.711
11827TIP3    H235439   1.635   6.946   2.824
11828TIP3   OH235440   1.213   3.175   6.332
11828TIP3    H135441   1.150   3.161   6.262
11828TIP3    H235442   1.253   3.089   6.346
11829TIP3   OH235443   6.810   5.337   0.540
11829TIP3    H135444   6.822   5.341   0.445
11829TIP3    H235445   6.796   5.428   0.567
11830TIP3   OH235446   1.703   4.032   6.016
11830TIP3    H135447   1.768   3.994   5.957
11830TIP3    H235448   1.749   4.043   6.099
11831TIP3   OH235449   1.321   3.082   5.542
11831TIP3    H135450   1.396   3.073   5.483
11831TIP3    H235451   1.311   2.996   5.581
11832TIP3   OH235452   7.325   5.320   2.291
11832TIP3    H135453   7.264   5.271   2.346
11832TIP3    H235454   7.356   5.390   2.348
11833TIP3   OH235455   2.464   4.345   5.253
11833TIP3    H135456   2.383   4.394   5.266
11833TIP3    H235457   2.531   4.395   5.300
11834TIP3   OH235458   1.568   0.053   6.661
11834TIP3    H135459   1.478   0.060   6.693
11834TIP3    H235460   1.601  -0.029   6.697
11835TIP3   OH235461   6.751   2.450   4.701
11835TIP3    H135462   6.668   2.405   4.683
11835TIP3    H235463   6.726   2.526   4.754
11836TIP3   OH235464   7.063   7.543   5.711
11836TIP3    H135465   7.008   7.470   5.741
11836TIP3    H235466   7.122   7.560   5.785
11837TIP3   OH235467   6.424   1.753   0.442
11837TIP3    H135468   6.360   1.758   0.371
11837TIP3    H235469   6.401   1.826   0.500
11838TIP3   OH235470   0.721   3.446   0.269
11838TIP3    H135471   0.777   3.428   0.344
11838TIP3    H235472   0.662   3.371   0.265
11839TIP3   OH235473   7.918   3.059   2.681
11839TIP3    H135474   7.905   2.969   2.650
11839TIP3    H235475   7.918   3.112   2.601
11840TIP3   OH235476   2.497   6.929   0.622
11840TIP3    H135477   2.465   6.840   0.605
11840TIP3    H235478   2.591   6.925   0.602
11841TIP3   OH235479   3.718   7.214   3.140
11841TIP3    H135480   3.672   7.156   3.079
11841TIP3    H235481   3.757   7.281   3.084
11842TIP3   OH235482   3.432   5.635   5.992
11842TIP3    H135483   3.517   5.643   5.947
11842TIP3    H235484   3.383   5.711   5.963
11843TIP3   OH235485  -0.004   2.936   0.489
11843TIP3    H135486  -0.012   3.007   0.426
11843TIP3    H235487   0.084   2.946   0.525
11844TIP3   OH235488   2.315   4.630   0.601
11844TIP3    H135489   2.392   4.663   0.647
11844TIP3    H235490   2.248   4.697   0.616
11845TIP3   OH235491   1.293   6.477   5.848
11845TIP3    H135492   1.251   6.438   5.924
11845TIP3    H235493   1.331   6.403   5.800
11846TIP3   OH235494   2.041   7.101   1.863
11846TIP3    H135495   1.961   7.108   1.915
11846TIP3    H235496   2.012   7.112   1.772
11847TIP3   OH235497   4.530   5.426   2.997
11847TIP3    H135498   4.601   5.430   3.061
11847TIP3    H235499   4.469   5.361   3.033
11848TIP3   OH235500   5.635   7.588   0.627
11848TIP3    H135501   5.579   7.643   0.573
11848TIP3    H235502   5.721   7.596   0.587
11849TIP3   OH235503   1.499   4.439   4.978
11849TIP3    H135504   1.590   4.444   5.007
11849TIP3    H235505   1.457   4.515   5.016
11850TIP3   OH235506   2.006   7.337   3.667
11850TIP3    H135507   2.057   7.354   3.746
11850TIP3    H235508   2.060   7.369   3.595
11851TIP3   OH235509   3.464   2.839   0.343
11851TIP3    H135510   3.549   2.796   0.352
11851TIP3    H235511   3.423   2.831   0.428
11852TIP3   OH235512   8.239   7.460   2.734
11852TIP3    H135513   8.170   7.468   2.667
11852TIP3    H235514   8.191   7.455   2.817
11853TIP3   OH235515   1.002   4.241   1.287
11853TIP3    H135516   1.079   4.252   1.231
11853TIP3    H235517   1.037   4.241   1.376
11854TIP3   OH235518   6.898   4.029   3.384
11854TIP3    H135519   6.954   3.957   3.358
11854TIP3    H235520   6.839   3.992   3.449
11855TIP3   OH235521   7.791   6.084   2.171
11855TIP3    H135522   7.818   6.042   2.090
11855TIP3    H235523   7.782   6.013   2.234
11856TIP3   OH235524   0.074   3.806   4.252
11856TIP3    H135525   0.118   3.826   4.169
11856TIP3    H235526   0.096   3.880   4.309
11857TIP3   OH235527   8.260   7.269   2.225
11857TIP3    H135528   8.319   7.298   2.155
11857TIP3    H235529   8.205   7.203   2.185
11858TIP3   OH235530   4.024   4.418   2.349
11858TIP3    H135531   4.010   4.512   2.356
11858TIP3    H235532   3.975   4.391   2.271
11859TIP3   OH235533   1.916   7.454   0.110
11859TIP3    H135534   1.836   7.405   0.132
11859TIP3    H235535   1.893   7.502   0.030
11860TIP3   OH235536   2.683   0.597   1.939
11860TIP3    H135537   2.704   0.645   1.860
11860TIP3    H235538   2.592   0.569   1.927
11861TIP3   OH235539   6.289   4.568   3.869
11861TIP3    H135540   6.261   4.603   3.785
11861TIP3    H235541   6.279   4.640   3.931
11862TIP3   OH235542   3.615   2.756   4.830
11862TIP3    H135543   3.663   2.723   4.906
11862TIP3    H235544   3.621   2.851   4.838
11863TIP3   OH235545   0.028   2.541   2.622
11863TIP3    H135546  -0.057   2.497   2.629
11863TIP3    H235547   0.090   2.470   2.606
11864TIP3   OH235548   0.346   6.688   1.566
11864TIP3    H135549   0.256   6.657   1.565
11864TIP3    H235550   0.341   6.777   1.529
11865TIP3   OH235551   4.101   7.070   0.415
11865TIP3    H135552   4.026   7.128   0.395
11865TIP3    H235553   4.089   6.995   0.356
11866TIP3   OH235554   6.334   5.246   1.909
11866TIP3    H135555   6.330   5.198   1.826
11866TIP3    H235556   6.414   5.214   1.951
11867TIP3   OH235557   2.596   6.601   3.535
11867TIP3    H135558   2.689   6.599   3.514
11867TIP3    H235559   2.568   6.509   3.533
11868TIP3   OH235560   1.321   0.177   5.081
11868TIP3    H135561   1.266   0.249   5.111
11868TIP3    H235562   1.377   0.156   5.155
11869TIP3   OH235563   4.775   0.803   0.183
11869TIP3    H135564   4.747   0.741   0.251
11869TIP3    H235565   4.856   0.841   0.217
11870TIP3   OH235566   5.998   6.601   0.613
11870TIP3    H135567   5.941   6.646   0.550
11870TIP3    H235568   5.996   6.509   0.585
11871TIP3   OH235569   8.197   0.691   3.598
11871TIP3    H135570   8.185   0.626   3.529
11871TIP3    H235571   8.125   0.753   3.587
11872TIP3   OH235572   5.746   3.030   6.610
11872TIP3    H135573   5.682   3.041   6.680
11872TIP3    H235574   5.785   3.117   6.600
11873TIP3   OH235575   4.306   7.333   1.488
11873TIP3    H135576   4.315   7.247   1.447
11873TIP3    H235577   4.396   7.362   1.504
11874TIP3   OH235578   4.302   7.774   2.939
11874TIP3    H135579   4.391   7.748   2.915
11874TIP3    H235580   4.310   7.867   2.963
11875TIP3   OH235581   3.027   7.220   1.349
11875TIP3    H135582   3.056   7.278   1.278
11875TIP3    H235583   3.046   7.269   1.429
11876TIP3   OH235584   1.038   0.713   3.927
11876TIP3    H135585   1.100   0.774   3.966
11876TIP3    H235586   1.041   0.733   3.833
11877TIP3   OH235587   0.946   7.389   0.752
11877TIP3    H135588   0.856   7.395   0.722
11877TIP3    H235589   0.947   7.316   0.814
11878TIP3   OH235590   2.775   2.058   2.708
11878TIP3    H135591   2.771   2.133   2.767
11878TIP3    H235592   2.686   2.048   2.676
11879TIP3   OH235593   6.763   1.596   5.535
11879TIP3    H135594   6.815   1.517   5.520
11879TIP3    H235595   6.683   1.565   5.578
11880TIP3   OH235596   5.354   6.419   5.587
11880TIP3    H135597   5.426   6.399   5.527
11880TIP3    H235598   5.397   6.443   5.669
11881TIP3   OH235599   1.613   2.497   6.345
11881TIP3    H135600   1.707   2.480   6.357
11881TIP3    H235601   1.607   2.593   6.344
11882TIP3   OH235602   1.840   7.756   4.765
11882TIP3    H135603   1.759   7.709   4.787
11882TIP3    H235604   1.907   7.688   4.764
11883TIP3   OH235605   6.144   6.322   4.153
11883TIP3    H135606   6.202   6.372   4.210
11883TIP3    H235607   6.073   6.383   4.133
11884TIP3   OH235608   1.539   3.347   1.823
11884TIP3    H135609   1.530   3.283   1.893
11884TIP3    H235610   1.512   3.430   1.864
11885TIP3   OH235611   5.439   3.499   5.505
11885TIP3    H135612   5.416   3.440   5.433
11885TIP3    H235613   5.472   3.441   5.573
11886TIP3   OH235614   1.082   0.080   2.082
11886TIP3    H135615   1.040   0.055   2.000
11886TIP3    H235616   1.167   0.035   2.080
11887TIP3   OH235617   5.231   1.480   6.569
11887TIP3    H135618   5.307   1.462   6.513
11887TIP3    H235619   5.236   1.414   6.638
11888TIP3   OH235620   5.267   0.404   5.387
11888TIP3    H135621   5.193   0.376   5.440
11888TIP3    H235622   5.294   0.488   5.425
11889TIP3   OH235623   7.102   3.151   3.509
11889TIP3    H135624   7.100   3.094   3.432
11889TIP3    H235625   7.170   3.114   3.565
11890TIP3   OH235626   3.440   7.417   0.077
11890TIP3    H135627   3.517   7.464   0.107
11890TIP3    H235628   3.367   7.455   0.125
11891TIP3   OH235629   0.870   3.882   3.631
11891TIP3    H135630   0.854   3.896   3.538
11891TIP3    H235631   0.964   3.894   3.642
11892TIP3   OH235632   1.115   4.472   3.885
11892TIP3    H135633   1.173   4.547   3.898
11892TIP3    H235634   1.027   4.507   3.898
11893TIP3   OH235635   2.599   0.589   6.100
11893TIP3    H135636   2.688   0.555   6.095
11893TIP3    H235637   2.568   0.564   6.187
11894TIP3   OH235638   6.629   2.322   5.659
11894TIP3    H135639   6.605   2.375   5.583
11894TIP3    H235640   6.555   2.331   5.719
11895TIP3   OH235641   0.186   7.395   0.856
11895TIP3    H135642   0.272   7.434   0.870
11895TIP3    H235643   0.204   7.310   0.815
11896TIP3   OH235644   1.600   1.809   3.436
11896TIP3    H135645   1.644   1.809   3.521
11896TIP3    H235646   1.515   1.767   3.454
11897TIP3   OH235647   1.453   0.838   2.762
11897TIP3    H135648   1.440   0.852   2.855
11897TIP3    H235649   1.386   0.890   2.719
11898TIP3   OH235650   3.573   0.655   5.784
11898TIP3    H135651   3.579   0.741   5.825
11898TIP3    H235652   3.502   0.664   5.721
11899TIP3   OH235653   0.737   5.640   1.367
11899TIP3    H135654   0.699   5.711   1.420
11899TIP3    H235655   0.726   5.669   1.277
11900TIP3   OH235656   2.003   0.546   5.081
11900TIP3    H135657   1.996   0.451   5.093
11900TIP3    H235658   2.091   0.559   5.048
11901TIP3   OH235659   4.099   4.592   6.233
11901TIP3    H135660   4.162   4.632   6.174
11901TIP3    H235661   4.127   4.500   6.240
11902TIP3   OH235662   1.138   6.014   3.825
11902TIP3    H135663   1.229   6.005   3.851
11902TIP3    H235664   1.105   5.924   3.824
11903TIP3   OH235665   6.098   3.762   1.780
11903TIP3    H135666   6.185   3.727   1.761
11903TIP3    H235667   6.041   3.726   1.712
11904TIP3   OH235668   0.269   3.267   3.740
11904TIP3    H135669   0.259   3.269   3.835
11904TIP3    H235670   0.360   3.242   3.726
11905TIP3   OH235671   7.129   7.181   0.927
11905TIP3    H135672   7.140   7.276   0.929
11905TIP3    H235673   7.180   7.149   1.001
11906TIP3   OH235674   6.744   0.777   0.137
11906TIP3    H135675   6.705   0.708   0.084
11906TIP3    H235676   6.675   0.843   0.145
11907TIP3   OH235677   7.979   7.452   4.862
11907TIP3    H135678   7.919   7.381   4.883
11907TIP3    H235679   7.985   7.451   4.766
11908TIP3   OH235680   6.870   2.091   3.619
11908TIP3    H135681   6.919   2.043   3.552
11908TIP3    H235682   6.899   2.182   3.608
11909TIP3   OH235683   6.118   2.824   2.922
11909TIP3    H135684   6.178   2.771   2.975
11909TIP3    H235685   6.161   2.830   2.836
11910TIP3   OH235686   0.056   0.215   3.014
11910TIP3    H135687  -0.024   0.267   3.013
11910TIP3    H235688   0.027   0.126   3.030
11911TIP3   OH235689   6.800   1.628   4.885
11911TIP3    H135690   6.769   1.634   4.975
11911TIP3    H235691   6.797   1.718   4.853
11912TIP3   OH235692   2.844   6.657   3.171
11912TIP3    H135693   2.755   6.693   3.179
11912TIP3    H235694   2.886   6.710   3.104
11913TIP3   OH235695   5.888   2.537   5.317
11913TIP3    H135696   5.793   2.538   5.303
11913TIP3    H235697   5.922   2.608   5.262
11914TIP3   OH235698   3.923   7.706   2.022
11914TIP3    H135699   3.844   7.662   1.991
11914TIP3    H235700   3.968   7.639   2.074
11915TIP3   OH235701   7.581   6.389   0.463
11915TIP3    H135702   7.601   6.382   0.369
11915TIP3    H235703   7.656   6.436   0.500
11916TIP3   OH235704   5.953   1.009   0.102
11916TIP3    H135705   5.994   0.941   0.049
11916TIP3    H235706   5.859   0.989   0.098
11917TIP3   OH235707   6.156   1.254   0.759
11917TIP3    H135708   6.210   1.234   0.683
11917TIP3    H235709   6.083   1.192   0.753
11918TIP3   OH235710   3.690   1.325   5.140
11918TIP3    H135711   3.769   1.364   5.102
11918TIP3    H235712   3.714   1.234   5.155
11919TIP3   OH235713   2.398   7.270   2.795
11919TIP3    H135714   2.313   7.228   2.791
11919TIP3    H235715   2.457   7.210   2.749
11920TIP3   OH235716   7.974   1.235   5.984
11920TIP3    H135717   7.966   1.153   6.034
11920TIP3    H235718   7.885   1.269   5.980
11921TIP3   OH235719   2.223   6.865   0.360
11921TIP3    H135720   2.149   6.829   0.409
11921TIP3    H235721   2.253   6.939   0.414
11922TIP3   OH235722   4.239   3.352   0.740
11922TIP3    H135723   4.267   3.294   0.810
11922TIP3    H235724   4.149   3.324   0.720
11923TIP3   OH235725   1.294   1.275   0.912
11923TIP3    H135726   1.360   1.308   0.974
11923TIP3    H235727   1.242   1.352   0.889
11924TIP3   OH235728   0.417   5.176   1.932
11924TIP3    H135729   0.475   5.156   1.858
11924TIP3    H235730   0.335   5.133   1.910
11925TIP3   OH235731   0.319   1.073   3.385
11925TIP3    H135732   0.309   1.029   3.300
11925TIP3    H235733   0.276   1.158   3.373
11926TIP3   OH235734   7.099   1.725   1.059
11926TIP3    H135735   7.165   1.792   1.042
11926TIP3    H235736   7.048   1.760   1.133
11927TIP3   OH235737   7.958   2.403   4.520
11927TIP3    H135738   7.865   2.394   4.500
11927TIP3    H235739   7.996   2.317   4.500
11928TIP3   OH235740   4.829   7.464   4.399
11928TIP3    H135741   4.884   7.394   4.362
11928TIP3    H235742   4.888   7.538   4.409
11929TIP3   OH235743   3.973   0.263   0.385
11929TIP3    H135744   3.878   0.249   0.386
11929TIP3    H235745   3.984   0.345   0.336
11930TIP3   OH235746   5.145   0.862   6.006
11930TIP3    H135747   5.119   0.904   6.087
11930TIP3    H235748   5.160   0.935   5.945
11931TIP3   OH235749   2.932   3.677   0.491
11931TIP3    H135750   2.956   3.669   0.399
11931TIP3    H235751   2.837   3.683   0.492
11932TIP3   OH235752   0.934   7.219   0.961
11932TIP3    H135753   0.937   7.221   1.057
11932TIP3    H235754   0.876   7.146   0.940
11933TIP3   OH235755   7.914   4.023   0.148
11933TIP3    H135756   7.927   4.022   0.243
11933TIP3    H235757   7.856   3.948   0.131
11934TIP3   OH235758   8.144   6.034   3.507
11934TIP3    H135759   8.062   5.985   3.500
11934TIP3    H235760   8.183   6.004   3.590
11935TIP3   OH235761   0.954   0.540   3.497
11935TIP3    H135762   0.950   0.461   3.552
11935TIP3    H235763   0.951   0.507   3.407
11936TIP3   OH235764   7.048   1.284   4.002
11936TIP3    H135765   6.999   1.314   3.925
11936TIP3    H235766   7.075   1.364   4.047
11937TIP3   OH235767   8.197   1.654   6.711
11937TIP3    H135768   8.114   1.697   6.691
11937TIP3    H235769   8.217   1.602   6.633
11938TIP3   OH235770   7.405   2.844   3.502
11938TIP3    H135771   7.424   2.915   3.563
11938TIP3    H235772   7.479   2.783   3.512
11939TIP3   OH235773   6.936   4.150   1.912
11939TIP3    H135774   6.892   4.130   1.995
11939TIP3    H235775   7.014   4.199   1.937
11940TIP3   OH235776   1.774   1.781   2.120
11940TIP3    H135777   1.694   1.830   2.141
11940TIP3    H235778   1.778   1.713   2.188
11941TIP3   OH235779   2.152   3.282   1.630
11941TIP3    H135780   2.206   3.242   1.699
11941TIP3    H235781   2.064   3.282   1.666
11942TIP3   OH235782   7.733   1.447   6.100
11942TIP3    H135783   7.646   1.411   6.083
11942TIP3    H235784   7.733   1.532   6.057
11943TIP3   OH235785   7.869   1.915   0.067
11943TIP3    H135786   7.934   1.881   0.128
11943TIP3    H235787   7.921   1.948  -0.007
11944TIP3   OH235788   0.425   4.056   4.296
11944TIP3    H135789   0.465   4.128   4.247
11944TIP3    H235790   0.493   4.028   4.357
11945TIP3   OH235791   6.374   3.020   1.043
11945TIP3    H135792   6.465   2.994   1.026
11945TIP3    H235793   6.346   3.064   0.963
11946TIP3   OH235794   2.299   2.764   4.958
11946TIP3    H135795   2.326   2.694   5.018
11946TIP3    H235796   2.225   2.806   5.003
11947TIP3   OH235797   4.327   0.150   2.335
11947TIP3    H135798   4.388   0.083   2.303
11947TIP3    H235799   4.262   0.100   2.385
11948TIP3   OH235800   4.664   6.570   0.345
11948TIP3    H135801   4.601   6.634   0.312
11948TIP3    H235802   4.671   6.589   0.439
11949TIP3   OH235803   7.433   2.489   2.783
11949TIP3    H135804   7.482   2.565   2.752
11949TIP3    H235805   7.353   2.488   2.731
11950TIP3   OH235806   8.165   3.586   2.366
11950TIP3    H135807   8.077   3.549   2.372
11950TIP3    H235808   8.161   3.645   2.290
11951TIP3   OH235809   6.797   6.339   1.145
11951TIP3    H135810   6.716   6.380   1.175
11951TIP3    H235811   6.770   6.288   1.068
11952TIP3   OH235812   3.531   3.968   4.736
11952TIP3    H135813   3.449   3.918   4.727
11952TIP3    H235814   3.539   4.014   4.652
11953TIP3   OH235815   6.588   6.259   1.818
11953TIP3    H135816   6.647   6.187   1.793
11953TIP3    H235817   6.614   6.331   1.761
11954TIP3   OH235818   1.473   5.379   3.353
11954TIP3    H135819   1.428   5.295   3.347
11954TIP3    H235820   1.565   5.359   3.335
11955TIP3   OH235821   5.522   1.584   5.109
11955TIP3    H135822   5.537   1.612   5.200
11955TIP3    H235823   5.443   1.632   5.083
11956TIP3   OH235824   6.427   5.807   2.296
11956TIP3    H135825   6.448   5.724   2.339
11956TIP3    H235826   6.502   5.825   2.239
11957TIP3   OH235827   6.583   2.495   1.798
11957TIP3    H135828   6.609   2.403   1.805
11957TIP3    H235829   6.592   2.515   1.705
11958TIP3   OH235830   0.486   0.212   0.151
11958TIP3    H135831   0.557   0.198   0.214
11958TIP3    H235832   0.519   0.175   0.069
11959TIP3   OH235833   8.123   6.546   1.058
11959TIP3    H135834   8.055   6.580   1.117
11959TIP3    H235835   8.094   6.573   0.970
11960TIP3   OH235836   1.881   0.107   1.845
11960TIP3    H135837   1.910   0.036   1.789
11960TIP3    H235838   1.878   0.069   1.933
11961TIP3   OH235839   3.940   2.334   6.748
11961TIP3    H135840   3.960   2.257   6.696
11961TIP3    H235841   3.953   2.306   6.839
11962TIP3   OH235842   0.230   2.553   1.806
11962TIP3    H135843   0.200   2.490   1.741
11962TIP3    H235844   0.161   2.554   1.873
11963TIP3   OH235845   4.481   6.695   2.587
11963TIP3    H135846   4.475   6.602   2.569
11963TIP3    H235847   4.471   6.737   2.501
11964TIP3   OH235848   6.263   4.571   1.615
11964TIP3    H135849   6.254   4.649   1.670
11964TIP3    H235850   6.256   4.498   1.677
11965TIP3   OH235851   6.033   0.067   0.724
11965TIP3    H135852   5.994   0.058   0.637
11965TIP3    H235853   6.059  -0.022   0.748
11966TIP3   OH235854   5.210   0.452   1.098
11966TIP3    H135855   5.291   0.435   1.146
11966TIP3    H235856   5.143   0.405   1.148
11967TIP3   OH235857   7.996   3.462   6.063
11967TIP3    H135858   7.971   3.514   5.986
11967TIP3    H235859   7.950   3.379   6.052
11968TIP3   OH235860   6.272   7.242   3.671
11968TIP3    H135861   6.342   7.295   3.634
11968TIP3    H235862   6.192   7.290   3.650
11969TIP3   OH235863   8.138   0.390   3.498
11969TIP3    H135864   8.137   0.452   3.424
11969TIP3    H235865   8.068   0.421   3.555
11970TIP3   OH235866   4.823   5.323   1.392
11970TIP3    H135867   4.777   5.280   1.464
11970TIP3    H235868   4.913   5.293   1.399
11971TIP3   OH235869   3.862   5.266   5.703
11971TIP3    H135870   3.768   5.248   5.712
11971TIP3    H235871   3.891   5.285   5.792
11972TIP3   OH235872   3.861   2.602   2.882
11972TIP3    H135873   3.785   2.639   2.837
11972TIP3    H235874   3.857   2.637   2.971
11973TIP3   OH235875   2.786   0.197   5.208
11973TIP3    H135876   2.705   0.183   5.158
11973TIP3    H235877   2.798   0.291   5.208
11974TIP3   OH235878   4.115   4.078   4.954
11974TIP3    H135879   4.088   4.040   4.870
11974TIP3    H235880   4.202   4.042   4.970
11975TIP3   OH235881   0.713   1.968   2.136
11975TIP3    H135882   0.731   1.886   2.182
11975TIP3    H235883   0.673   2.024   2.202
11976TIP3   OH235884   6.405   3.573   5.229
11976TIP3    H135885   6.328   3.622   5.257
11976TIP3    H235886   6.473   3.640   5.217
11977TIP3   OH235887   3.153   4.815   4.681
11977TIP3    H135888   3.103   4.884   4.725
11977TIP3    H235889   3.105   4.735   4.700
11978TIP3   OH235890   5.536   3.999   5.681
11978TIP3    H135891   5.496   4.004   5.768
11978TIP3    H235892   5.496   3.921   5.641
11979TIP3   OH235893   3.800   6.904   0.383
11979TIP3    H135894   3.844   6.946   0.309
11979TIP3    H235895   3.799   6.811   0.360
11980TIP3   OH235896   6.609   6.814   5.770
11980TIP3    H135897   6.649   6.829   5.856
11980TIP3    H235898   6.524   6.857   5.775
11981TIP3   OH235899   6.190   5.950   5.807
11981TIP3    H135900   6.259   6.016   5.805
11981TIP3    H235901   6.207   5.895   5.730
11982TIP3   OH235902   2.005   6.972   0.071
11982TIP3    H135903   1.989   6.879   0.053
11982TIP3    H235904   2.098   6.984   0.052
11983TIP3   OH235905   4.616   3.510   2.302
11983TIP3    H135906   4.607   3.418   2.326
11983TIP3    H235907   4.562   3.557   2.366
11984TIP3   OH235908   6.290   1.359   5.131
11984TIP3    H135909   6.352   1.406   5.186
11984TIP3    H235910   6.273   1.277   5.178
11985TIP3   OH235911   1.622   6.723   6.396
11985TIP3    H135912   1.706   6.677   6.388
11985TIP3    H235913   1.602   6.751   6.307
11986TIP3   OH235914   3.142   4.455   3.807
11986TIP3    H135915   3.072   4.499   3.760
11986TIP3    H235916   3.108   4.367   3.825
11987TIP3   OH235917   6.481   0.891   0.163
11987TIP3    H135918   6.388   0.909   0.176
11987TIP3    H235919   6.486   0.796   0.153
11988TIP3   OH235920   6.492   1.105   5.771
11988TIP3    H135921   6.557   1.034   5.778
11988TIP3    H235922   6.524   1.173   5.830
11989TIP3   OH235923   0.829   5.469   3.313
11989TIP3    H135924   0.752   5.423   3.347
11989TIP3    H235925   0.799   5.558   3.298
11990TIP3   OH235926   5.620   6.270   4.154
11990TIP3    H135927   5.547   6.332   4.161
11990TIP3    H235928   5.662   6.293   4.071
11991TIP3   OH235929   3.771   3.400   6.760
11991TIP3    H135930   3.733   3.318   6.727
11991TIP3    H235931   3.866   3.383   6.760
11992TIP3   OH235932   3.889   6.092   3.553
11992TIP3    H135933   3.824   6.073   3.485
11992TIP3    H235934   3.840   6.086   3.635
11993TIP3   OH235935   1.621   6.588   5.891
11993TIP3    H135936   1.545   6.603   5.835
11993TIP3    H235937   1.603   6.505   5.935
11994TIP3   OH235938   6.719   5.433   4.749
11994TIP3    H135939   6.786   5.366   4.762
11994TIP3    H235940   6.748   5.482   4.672
11995TIP3   OH235941   1.493   3.127   5.885
11995TIP3    H135942   1.397   3.128   5.890
11995TIP3    H235943   1.521   3.188   5.952
11996TIP3   OH235944   6.655   5.753   2.703
11996TIP3    H135945   6.749   5.739   2.690
11996TIP3    H235946   6.643   5.847   2.693
11997TIP3   OH235947   5.739   6.229   1.856
11997TIP3    H135948   5.800   6.262   1.790
11997TIP3    H235949   5.785   6.242   1.939
11998TIP3   OH235950   7.347   1.106   6.078
11998TIP3    H135951   7.373   1.180   6.133
11998TIP3    H235952   7.255   1.092   6.099
11999TIP3   OH235953   5.541   1.635   2.044
11999TIP3    H135954   5.555   1.657   2.136
11999TIP3    H235955   5.553   1.718   1.997
12000TIP3   OH235956   5.515   7.341   0.599
12000TIP3    H135957   5.575   7.267   0.614
12000TIP3    H235958   5.567   7.418   0.621
12001TIP3   OH235959   4.738   6.605   0.617
12001TIP3    H135960   4.731   6.693   0.653
12001TIP3    H235961   4.832   6.588   0.612
12002TIP3   OH235962   2.995   3.589   1.272
12002TIP3    H135963   2.973   3.640   1.193
12002TIP3    H235964   3.072   3.538   1.247
12003TIP3   OH235965   7.663   4.319   4.671
12003TIP3    H135966   7.589   4.293   4.617
12003TIP3    H235967   7.624   4.352   4.752
12004TIP3   OH235968   1.346   4.288   4.099
12004TIP3    H135969   1.265   4.313   4.055
12004TIP3    H235970   1.379   4.369   4.136
12005TIP3   OH235971   8.101   2.440   2.717
12005TIP3    H135972   8.159   2.370   2.749
12005TIP3    H235973   8.079   2.491   2.795
12006TIP3   OH235974   2.999   0.543   3.879
12006TIP3    H135975   3.082   0.515   3.918
12006TIP3    H235976   2.941   0.556   3.953
12007TIP3   OH235977   6.162   2.672   3.618
12007TIP3    H135978   6.093   2.709   3.562
12007TIP3    H235979   6.238   2.728   3.600
12008TIP3   OH235980   7.341   5.097   6.407
12008TIP3    H135981   7.389   5.045   6.343
12008TIP3    H235982   7.397   5.099   6.484
12009TIP3   OH235983   3.384   5.932   2.377
12009TIP3    H135984   3.398   5.891   2.462
12009TIP3    H235985   3.456   5.995   2.368
12010TIP3   OH235986   4.603   0.983   5.002
12010TIP3    H135987   4.531   0.959   4.943
12010TIP3    H235988   4.593   1.077   5.014
12011TIP3   OH235989   4.843   0.910   5.582
12011TIP3    H135990   4.752   0.893   5.603
12011TIP3    H235991   4.856   0.872   5.495
12012TIP3   OH235992   7.629   2.340   1.022
12012TIP3    H135993   7.613   2.339   1.117
12012TIP3    H235994   7.675   2.258   1.004
12013TIP3   OH235995   3.800   5.934   2.269
12013TIP3    H135996   3.772   5.954   2.359
12013TIP3    H235997   3.851   5.854   2.277
12014TIP3   OH235998   3.445   4.473   5.736
12014TIP3    H135999   3.494   4.501   5.813
12014TIP3    H236000   3.367   4.529   5.736
12015TIP3   OH236001   5.272   7.646   2.148
12015TIP3    H136002   5.177   7.646   2.147
12015TIP3    H236003   5.295   7.618   2.237
12016TIP3   OH236004   7.224   0.465   3.357
12016TIP3    H136005   7.233   0.382   3.404
12016TIP3    H236006   7.146   0.506   3.396
12017TIP3   OH236007   5.652   0.982   4.646
12017TIP3    H136008   5.556   0.982   4.649
12017TIP3    H236009   5.674   1.049   4.582
12018TIP3   OH236010   4.066   6.713   4.361
12018TIP3    H136011   3.974   6.731   4.381
12018TIP3    H236012   4.078   6.622   4.387
12019TIP3   OH236013   5.890   0.006   1.756
12019TIP3    H136014   5.960  -0.050   1.722
12019TIP3    H236015   5.899   0.088   1.706
12020TIP3   OH236016   7.522   0.024   5.953
12020TIP3    H136017   7.600   0.078   5.941
12020TIP3    H236018   7.514  -0.026   5.873
12021TIP3   OH236019   2.284   0.931   3.198
12021TIP3    H136020   2.266   0.932   3.104
12021TIP3    H236021   2.377   0.906   3.203
12022TIP3   OH236022   4.983   0.914   0.309
12022TIP3    H136023   4.963   0.951   0.395
12022TIP3    H236024   5.068   0.951   0.286
12023TIP3   OH236025   7.418   4.102   4.876
12023TIP3    H136026   7.420   4.193   4.847
12023TIP3    H236027   7.375   4.054   4.805
12024TIP3   OH236028   1.385   0.599   2.250
12024TIP3    H136029   1.294   0.590   2.278
12024TIP3    H236030   1.381   0.662   2.178
12025TIP3   OH236031   3.720   1.851   1.098
12025TIP3    H136032   3.701   1.772   1.148
12025TIP3    H236033   3.813   1.846   1.078
12026TIP3   OH236034   4.868   0.739   5.333
12026TIP3    H136035   4.940   0.754   5.272
12026TIP3    H236036   4.789   0.754   5.281
12027TIP3   OH236037   2.885   7.125   5.526
12027TIP3    H136038   2.801   7.137   5.483
12027TIP3    H236039   2.930   7.059   5.474
12028TIP3   OH236040   5.974   7.403   0.328
12028TIP3    H136041   5.883   7.430   0.338
12028TIP3    H236042   6.019   7.483   0.299
12029TIP3   OH236043   2.933   6.957   1.506
12029TIP3    H136044   2.886   6.951   1.423
12029TIP3    H236045   3.025   6.963   1.482
12030TIP3   OH236046   0.211   5.741   6.176
12030TIP3    H136047   0.213   5.649   6.204
12030TIP3    H236048   0.290   5.751   6.123
12031TIP3   OH236049   8.156   5.696   6.407
12031TIP3    H136050   8.107   5.778   6.411
12031TIP3    H236051   8.204   5.693   6.490
12032TIP3   OH236052   4.170   3.333   6.107
12032TIP3    H136053   4.107   3.324   6.036
12032TIP3    H236054   4.230   3.260   6.095
12033TIP3   OH236055   5.453   3.351   6.034
12033TIP3    H136056   5.357   3.350   6.028
12033TIP3    H236057   5.480   3.408   5.963
12034TIP3   OH236058   1.208   3.194   1.419
12034TIP3    H136059   1.263   3.134   1.470
12034TIP3    H236060   1.257   3.276   1.419
12035TIP3   OH236061   8.050   2.916   5.012
12035TIP3    H136062   8.076   2.964   5.090
12035TIP3    H236063   8.110   2.841   5.009
12036TIP3   OH236064   7.022   7.270   4.556
12036TIP3    H136065   7.093   7.314   4.604
12036TIP3    H236066   7.014   7.184   4.598
12037TIP3   OH236067   1.889   5.854   1.540
12037TIP3    H136068   1.953   5.793   1.576
12037TIP3    H236069   1.926   5.878   1.454
12038TIP3   OH236070   5.454   0.256   6.600
12038TIP3    H136071   5.481   0.262   6.509
12038TIP3    H236072   5.368   0.212   6.597
12039TIP3   OH236073   7.281   0.098   0.026
12039TIP3    H136074   7.252   0.033   0.090
12039TIP3    H236075   7.369   0.070   0.000
12040TIP3   OH236076   5.292   2.177   5.851
12040TIP3    H136077   5.238   2.126   5.911
12040TIP3    H236078   5.344   2.233   5.908
12041TIP3   OH236079   4.826   6.722   0.124
12041TIP3    H136080   4.804   6.777   0.048
12041TIP3    H236081   4.771   6.644   0.113
12042TIP3   OH236082   4.466   7.739   6.106
12042TIP3    H136083   4.489   7.794   6.031
12042TIP3    H236084   4.546   7.736   6.159
12043TIP3   OH236085   7.023   1.207   1.486
12043TIP3    H136086   7.083   1.269   1.445
12043TIP3    H236087   6.979   1.164   1.413
12044TIP3   OH236088   3.750   3.954   4.327
12044TIP3    H136089   3.758   3.893   4.253
12044TIP3    H236090   3.747   4.041   4.286
12045TIP3   OH236091   2.238   5.950   1.875
12045TIP3    H136092   2.283   6.027   1.842
12045TIP3    H236093   2.150   5.981   1.896
12046TIP3   OH236094   6.908   4.502   6.657
12046TIP3    H136095   6.922   4.415   6.694
12046TIP3    H236096   6.996   4.539   6.648
12047TIP3   OH236097   0.423   0.934   0.197
12047TIP3    H136098   0.338   0.911   0.236
12047TIP3    H236099   0.465   0.991   0.262
12048TIP3   OH236100   0.504   2.515   5.104
12048TIP3    H136101   0.483   2.575   5.033
12048TIP3    H236102   0.463   2.555   5.181
12049TIP3   OH236103   2.439   3.431   6.255
12049TIP3    H136104   2.456   3.379   6.176
12049TIP3    H236105   2.344   3.432   6.263
12050TIP3   OH236106   0.802   3.854   3.135
12050TIP3    H136107   0.798   3.890   3.046
12050TIP3    H236108   0.884   3.889   3.171
12051TIP3   OH236109   6.502   0.981   5.439
12051TIP3    H136110   6.526   0.950   5.352
12051TIP3    H236111   6.411   0.953   5.450
12052TIP3   OH236112   0.504   7.824   5.305
12052TIP3    H136113   0.529   7.782   5.223
12052TIP3    H236114   0.454   7.758   5.352
12053TIP3   OH236115   5.227   5.452   3.266
12053TIP3    H136116   5.224   5.529   3.209
12053TIP3    H236117   5.314   5.415   3.250
12054TIP3   OH236118   6.991   6.309   3.908
12054TIP3    H136119   7.000   6.216   3.929
12054TIP3    H236120   7.003   6.353   3.992
12055TIP3   OH236121   6.853   6.029   5.751
12055TIP3    H136122   6.893   5.951   5.711
12055TIP3    H236123   6.928   6.085   5.773
12056TIP3   OH236124   7.264   2.002   2.897
12056TIP3    H136125   7.272   1.942   2.822
12056TIP3    H236126   7.349   1.994   2.942
12057TIP3   OH236127   4.468   0.571   2.886
12057TIP3    H136128   4.387   0.525   2.864
12057TIP3    H236129   4.519   0.507   2.937
12058TIP3   OH236130   0.588   3.403   1.611
12058TIP3    H136131   0.567   3.348   1.687
12058TIP3    H236132   0.583   3.492   1.644
12059TIP3   OH236133   6.311   3.811   0.864
12059TIP3    H136134   6.403   3.837   0.855
12059TIP3    H236135   6.314   3.727   0.911
12060TIP3   OH236136   2.306   1.347   4.630
12060TIP3    H136137   2.355   1.430   4.627
12060TIP3    H236138   2.264   1.340   4.545
12061TIP3   OH236139   2.514   5.359   2.484
12061TIP3    H136140   2.555   5.290   2.536
12061TIP3    H236141   2.428   5.371   2.524
12062TIP3   OH236142   0.193   7.682   3.410
12062TIP3    H136143   0.263   7.618   3.420
12062TIP3    H236144   0.146   7.654   3.331
12063TIP3   OH236145   3.955   4.716   3.532
12063TIP3    H136146   3.996   4.630   3.521
12063TIP3    H236147   3.894   4.723   3.459
12064TIP3   OH236148   8.313   1.625   5.013
12064TIP3    H136149   8.242   1.685   4.988
12064TIP3    H236150   8.278   1.578   5.089
12065TIP3   OH236151   4.995   2.920   6.236
12065TIP3    H136152   5.035   2.835   6.218
12065TIP3    H236153   5.035   2.947   6.319
12066TIP3   OH236154   8.072   3.277   2.176
12066TIP3    H136155   8.089   3.198   2.125
12066TIP3    H236156   8.096   3.254   2.266
12067TIP3   OH236157   3.023   2.093   0.034
12067TIP3    H136158   3.015   2.003   0.001
12067TIP3    H236159   3.000   2.087   0.127
12068TIP3   OH236160   0.142   2.974   5.747
12068TIP3    H136161   0.167   2.934   5.831
12068TIP3    H236162   0.114   2.901   5.693
12069TIP3   OH236163   6.509   3.904   6.095
12069TIP3    H136164   6.554   3.826   6.128
12069TIP3    H236165   6.494   3.957   6.173
12070TIP3   OH236166   7.519   3.072   0.410
12070TIP3    H136167   7.477   3.000   0.457
12070TIP3    H236168   7.499   3.150   0.462
12071TIP3   OH236169   6.668   3.990   5.897
12071TIP3    H136170   6.609   3.951   5.962
12071TIP3    H236171   6.686   4.078   5.931
12072TIP3   OH236172   6.066   4.870   5.820
12072TIP3    H136173   6.123   4.795   5.805
12072TIP3    H236174   6.042   4.865   5.912
12073TIP3   OH236175   4.912   7.644   5.832
12073TIP3    H136176   4.993   7.605   5.798
12073TIP3    H236177   4.929   7.659   5.925
12074TIP3   OH236178   2.767   0.153   2.502
12074TIP3    H136179   2.745   0.211   2.575
12074TIP3    H236180   2.689   0.098   2.492
12075TIP3   OH236181   3.204   6.857   4.501
12075TIP3    H136182   3.274   6.801   4.469
12075TIP3    H236183   3.133   6.845   4.438
12076TIP3   OH236184   7.620   2.822   0.908
12076TIP3    H136185   7.608   2.865   0.992
12076TIP3    H236186   7.533   2.792   0.883
12077TIP3   OH236187   6.733   4.980   3.179
12077TIP3    H136188   6.670   4.972   3.107
12077TIP3    H236189   6.680   5.014   3.252
12078TIP3   OH236190   4.908   0.503   5.910
12078TIP3    H136191   4.996   0.473   5.932
12078TIP3    H236192   4.921   0.583   5.860
12079TIP3   OH236193   0.675   0.807   5.156
12079TIP3    H136194   0.722   0.732   5.192
12079TIP3    H236195   0.738   0.849   5.097
12080TIP3   OH236196   1.239   4.741   3.933
12080TIP3    H136197   1.197   4.804   3.991
12080TIP3    H236198   1.255   4.789   3.852
12081TIP3   OH236199   3.236   5.611   0.237
12081TIP3    H136200   3.251   5.542   0.301
12081TIP3    H236201   3.227   5.565   0.153
12082TIP3   OH236202   3.959   4.447   3.088
12082TIP3    H136203   4.037   4.492   3.121
12082TIP3    H236204   3.991   4.388   3.020
12083TIP3   OH236205   3.374   1.277   2.478
12083TIP3    H136206   3.399   1.317   2.394
12083TIP3    H236207   3.441   1.307   2.540
12084TIP3   OH236208   2.618   1.403   4.842
12084TIP3    H136209   2.685   1.359   4.790
12084TIP3    H236210   2.539   1.400   4.788
12085TIP3   OH236211   1.983   6.610   0.232
12085TIP3    H136212   1.999   6.534   0.176
12085TIP3    H236213   2.051   6.673   0.207
12086TIP3   OH236214   6.962   6.288   0.244
12086TIP3    H136215   6.901   6.354   0.279
12086TIP3    H236216   6.908   6.211   0.229
12087TIP3   OH236217   5.390   0.032   3.216
12087TIP3    H136218   5.395   0.013   3.122
12087TIP3    H236219   5.296   0.047   3.231
12088TIP3   OH236220   6.917   2.434   2.590
12088TIP3    H136221   6.969   2.363   2.554
12088TIP3    H236222   6.826   2.402   2.586
12089TIP3   OH236223   3.405   7.252   6.621
12089TIP3    H136224   3.343   7.179   6.622
12089TIP3    H236225   3.356   7.326   6.586
12090TIP3   OH236226   2.667   6.965   5.061
12090TIP3    H136227   2.720   6.957   4.982
12090TIP3    H236228   2.683   7.054   5.092
12091TIP3   OH236229   4.243   4.055   4.094
12091TIP3    H136230   4.242   4.020   4.183
12091TIP3    H236231   4.335   4.049   4.067
12092TIP3   OH236232   4.696   6.927   5.532
12092TIP3    H136233   4.733   7.010   5.565
12092TIP3    H236234   4.770   6.867   5.533
12093TIP3   OH236235   3.671   7.690   6.639
12093TIP3    H136236   3.667   7.601   6.675
12093TIP3    H236237   3.746   7.730   6.684
12094TIP3   OH236238   7.645   2.173   3.156
12094TIP3    H136239   7.607   2.234   3.220
12094TIP3    H236240   7.651   2.224   3.075
12095TIP3   OH236241   6.185   1.616   6.000
12095TIP3    H136242   6.157   1.646   5.914
12095TIP3    H236243   6.135   1.536   6.015
12096TIP3   OH236244   7.286   3.884   0.433
12096TIP3    H136245   7.225   3.838   0.490
12096TIP3    H236246   7.300   3.969   0.475
12097TIP3   OH236247   3.760   5.430   4.434
12097TIP3    H136248   3.748   5.474   4.350
12097TIP3    H236249   3.806   5.494   4.488
12098TIP3   OH236250   1.141   1.452   2.230
12098TIP3    H136251   1.056   1.408   2.241
12098TIP3    H236252   1.204   1.380   2.222
12099TIP3   OH236253   1.018   5.483   0.571
12099TIP3    H136254   1.001   5.481   0.477
12099TIP3    H236255   1.071   5.405   0.587
12100TIP3   OH236256   3.910   6.622   1.053
12100TIP3    H136257   3.934   6.531   1.067
12100TIP3    H236258   3.946   6.668   1.129
12101TIP3   OH236259   5.984   0.196   3.907
12101TIP3    H136260   6.057   0.160   3.856
12101TIP3    H236261   6.000   0.166   3.996
12102TIP3   OH236262   8.282   3.315   1.018
12102TIP3    H136263   8.207   3.274   0.975
12102TIP3    H236264   8.269   3.294   1.111
12103TIP3   OH236265   4.335   6.787   0.756
12103TIP3    H136266   4.299   6.703   0.726
12103TIP3    H236267   4.416   6.763   0.802
12104TIP3   OH236268   2.841   4.230   5.799
12104TIP3    H136269   2.930   4.242   5.833
12104TIP3    H236270   2.819   4.314   5.760
12105TIP3   OH236271   0.010   4.274   1.209
12105TIP3    H136272   0.062   4.204   1.169
12105TIP3    H236273   0.022   4.349   1.151
12106TIP3   OH236274   6.421   6.744   6.481
12106TIP3    H136275   6.338   6.738   6.529
12106TIP3    H236276   6.395   6.766   6.391
12107TIP3   OH236277   6.911   4.781   3.116
12107TIP3    H136278   6.978   4.756   3.180
12107TIP3    H236279   6.872   4.861   3.151
12108TIP3   OH236280   0.450   7.602   2.812
12108TIP3    H136281   0.539   7.634   2.827
12108TIP3    H236282   0.450   7.512   2.845
12109TIP3   OH236283   7.213   3.169   6.087
12109TIP3    H136284   7.265   3.250   6.086
12109TIP3    H236285   7.142   3.187   6.025
12110TIP3   OH236286   5.726   2.177   0.983
12110TIP3    H136287   5.751   2.253   0.931
12110TIP3    H236288   5.784   2.107   0.953
12111TIP3   OH236289   4.719   5.020   3.586
12111TIP3    H136290   4.781   5.043   3.656
12111TIP3    H236291   4.771   5.029   3.505
12112TIP3   OH236292   1.466   4.596   3.999
12112TIP3    H136293   1.382   4.639   3.981
12112TIP3    H236294   1.517   4.662   4.046
12113TIP3   OH236295   6.601   6.334   5.178
12113TIP3    H136296   6.689   6.306   5.200
12113TIP3    H236297   6.561   6.258   5.135
12114TIP3   OH236298   4.626   6.292   3.176
12114TIP3    H136299   4.668   6.218   3.131
12114TIP3    H236300   4.572   6.251   3.244
12115TIP3   OH236301   5.399   7.100   1.514
12115TIP3    H136302   5.318   7.051   1.526
12115TIP3    H236303   5.451   7.044   1.455
12116TIP3   OH236304   6.572   5.667   1.164
12116TIP3    H136305   6.623   5.747   1.175
12116TIP3    H236306   6.613   5.623   1.089
12117TIP3   OH236307   0.336   7.447   3.424
12117TIP3    H136308   0.381   7.390   3.362
12117TIP3    H236309   0.289   7.388   3.482
12118TIP3   OH236310   2.539   2.107   6.628
12118TIP3    H136311   2.568   2.074   6.542
12118TIP3    H236312   2.621   2.128   6.674
12119TIP3   OH236313   7.594   6.908   0.096
12119TIP3    H136314   7.570   6.955   0.176
12119TIP3    H236315   7.594   6.816   0.122
12120TIP3   OH236316   4.866   6.089   5.740
12120TIP3    H136317   4.809   6.016   5.765
12120TIP3    H236318   4.884   6.134   5.823
12121TIP3   OH236319   2.610   2.000   0.749
12121TIP3    H136320   2.535   1.940   0.752
12121TIP3    H236321   2.570   2.086   0.739
12122TIP3   OH236322   2.240   2.214   5.592
12122TIP3    H136323   2.273   2.279   5.654
12122TIP3    H236324   2.250   2.255   5.506
12123TIP3   OH236325   5.292   0.354   1.780
12123TIP3    H136326   5.372   0.309   1.806
12123TIP3    H236327   5.241   0.287   1.735
12124TIP3   OH236328   0.877   2.664   5.260
12124TIP3    H136329   0.854   2.616   5.339
12124TIP3    H236330   0.972   2.662   5.257
12125TIP3   OH236331   1.694   4.735   6.250
12125TIP3    H136332   1.754   4.736   6.175
12125TIP3    H236333   1.711   4.817   6.296
12126TIP3   OH236334   4.977   1.760   0.402
12126TIP3    H136335   5.048   1.818   0.430
12126TIP3    H236336   5.001   1.674   0.436
12127TIP3   OH236337   0.956   3.955   1.230
12127TIP3    H136338   1.000   4.041   1.229
12127TIP3    H236339   0.990   3.912   1.309
12128TIP3   OH236340   3.241   5.633   4.589
12128TIP3    H136341   3.324   5.585   4.591
12128TIP3    H236342   3.240   5.682   4.671
12129TIP3   OH236343   4.551   5.055   3.776
12129TIP3    H136344   4.610   5.009   3.717
12129TIP3    H236345   4.576   5.147   3.767
12130TIP3   OH236346   7.239   6.508   2.091
12130TIP3    H136347   7.176   6.528   2.022
12130TIP3    H236348   7.185   6.500   2.170
12131TIP3   OH236349   3.464   7.577   6.081
12131TIP3    H136350   3.535   7.523   6.047
12131TIP3    H236351   3.473   7.661   6.035
12132TIP3   OH236352   4.446   0.331   5.141
12132TIP3    H136353   4.500   0.259   5.172
12132TIP3    H236354   4.493   0.410   5.168
12133TIP3   OH236355   5.860   7.605   4.241
12133TIP3    H136356   5.791   7.566   4.188
12133TIP3    H236357   5.826   7.691   4.266
12134TIP3   OH236358   0.837   4.084   4.617
12134TIP3    H136359   0.868   4.126   4.697
12134TIP3    H236360   0.867   4.141   4.546
12135TIP3   OH236361   7.768   0.174   5.894
12135TIP3    H136362   7.773   0.197   5.801
12135TIP3    H236363   7.839   0.111   5.907
12136TIP3   OH236364   7.161   6.621   4.576
12136TIP3    H136365   7.132   6.687   4.514
12136TIP3    H236366   7.096   6.550   4.568
12137TIP3   OH236367   7.885   6.729   2.789
12137TIP3    H136368   7.881   6.659   2.725
12137TIP3    H236369   7.967   6.714   2.836
12138TIP3   OH236370   0.427   0.782   6.602
12138TIP3    H136371   0.472   0.796   6.685
12138TIP3    H236372   0.411   0.871   6.568
12139TIP3   OH236373   7.593   6.687   6.420
12139TIP3    H136374   7.509   6.704   6.376
12139TIP3    H236375   7.638   6.772   6.419
12140TIP3   OH236376   6.959   1.198   6.429
12140TIP3    H136377   6.880   1.213   6.481
12140TIP3    H236378   6.975   1.281   6.386
12141TIP3   OH236379   1.591   2.609   2.545
12141TIP3    H136380   1.676   2.614   2.590
12141TIP3    H236381   1.527   2.636   2.610
12142TIP3   OH236382   8.306   3.958   1.787
12142TIP3    H136383   8.353   3.961   1.871
12142TIP3    H236384   8.217   3.987   1.808
12143TIP3   OH236385   0.425   0.678   0.481
12143TIP3    H136386   0.372   0.698   0.404
12143TIP3    H236387   0.444   0.763   0.520
12144TIP3   OH236388   1.233   6.265   0.915
12144TIP3    H136389   1.201   6.186   0.870
12144TIP3    H236390   1.191   6.263   1.000
12145TIP3   OH236391   4.272   3.229   2.189
12145TIP3    H136392   4.257   3.309   2.139
12145TIP3    H236393   4.204   3.229   2.255
12146TIP3   OH236394   3.201   0.597   3.204
12146TIP3    H136395   3.287   0.595   3.245
12146TIP3    H236396   3.205   0.527   3.138
12147TIP3   OH236397   1.876   5.804   3.338
12147TIP3    H136398   1.917   5.762   3.413
12147TIP3    H236399   1.893   5.897   3.350
12148TIP3   OH236400   4.674   4.419   2.942
12148TIP3    H136401   4.695   4.440   2.852
12148TIP3    H236402   4.648   4.326   2.940
12149TIP3   OH236403   0.902   6.113   0.872
12149TIP3    H136404   0.824   6.058   0.866
12149TIP3    H236405   0.921   6.117   0.966
12150TIP3   OH236406   4.258   4.369   5.189
12150TIP3    H136407   4.208   4.370   5.108
12150TIP3    H236408   4.321   4.440   5.179
12151TIP3   OH236409   4.804   1.775   1.901
12151TIP3    H136410   4.793   1.869   1.889
12151TIP3    H236411   4.719   1.737   1.879
12152TIP3   OH236412   8.227   1.800   2.384
12152TIP3    H136413   8.199   1.764   2.468
12152TIP3    H236414   8.146   1.829   2.343
12153TIP3   OH236415   6.752   5.264   6.758
12153TIP3    H136416   6.692   5.289   6.688
12153TIP3    H236417   6.733   5.324   6.829
12154TIP3   OH236418   5.291   3.936   6.301
12154TIP3    H136419   5.286   3.896   6.214
12154TIP3    H236420   5.209   3.912   6.343
12155TIP3   OH236421   0.747   0.409   4.346
12155TIP3    H136422   0.805   0.343   4.307
12155TIP3    H236423   0.793   0.491   4.336
12156TIP3   OH236424   8.084   7.307   0.359
12156TIP3    H136425   8.117   7.359   0.286
12156TIP3    H236426   8.162   7.273   0.402
12157TIP3   OH236427   0.695   3.040   4.658
12157TIP3    H136428   0.601   3.028   4.643
12157TIP3    H236429   0.703   3.046   4.753
12158TIP3   OH236430   5.386   3.157   6.290
12158TIP3    H136431   5.416   3.086   6.348
12158TIP3    H236432   5.422   3.236   6.330
12159TIP3   OH236433   0.234   6.670   4.015
12159TIP3    H136434   0.247   6.581   4.047
12159TIP3    H236435   0.173   6.709   4.077
12160TIP3   OH236436   6.524   1.512   5.636
12160TIP3    H136437   6.450   1.489   5.580
12160TIP3    H236438   6.494   1.493   5.725
12161TIP3   OH236439   6.505   1.765   1.806
12161TIP3    H136440   6.580   1.802   1.851
12161TIP3    H236441   6.452   1.726   1.876
12162TIP3   OH236442   6.218   2.580   5.185
12162TIP3    H136443   6.302   2.584   5.139
12162TIP3    H236444   6.174   2.504   5.146
12163TIP3   OH236445   5.645   0.489   3.765
12163TIP3    H136446   5.718   0.458   3.711
12163TIP3    H236447   5.670   0.467   3.854
12164TIP3   OH236448   7.210   0.757   4.666
12164TIP3    H136449   7.173   0.845   4.675
12164TIP3    H236450   7.232   0.750   4.573
12165TIP3   OH236451   0.897   6.681   2.215
12165TIP3    H136452   0.896   6.777   2.221
12165TIP3    H236453   0.806   6.657   2.200
12166TIP3   OH236454   1.891   4.359   1.748
12166TIP3    H136455   1.825   4.384   1.812
12166TIP3    H236456   1.894   4.263   1.753
12167TIP3   OH236457   4.238   1.167   1.939
12167TIP3    H136458   4.144   1.162   1.957
12167TIP3    H236459   4.264   1.252   1.976
12168TIP3   OH236460   0.510   5.194   3.026
12168TIP3    H136461   0.533   5.145   2.946
12168TIP3    H236462   0.488   5.126   3.089
12169TIP3   OH236463   1.361   3.718   3.296
12169TIP3    H136464   1.415   3.716   3.217
12169TIP3    H236465   1.332   3.809   3.304
12170TIP3   OH236466   3.838   2.229   5.658
12170TIP3    H136467   3.865   2.298   5.597
12170TIP3    H236468   3.748   2.209   5.633
12171TIP3   OH236469   3.906   2.945   5.350
12171TIP3    H136470   3.976   2.971   5.291
12171TIP3    H236471   3.838   3.011   5.337
12172TIP3   OH236472   0.793   4.479   1.951
12172TIP3    H136473   0.830   4.553   1.999
12172TIP3    H236474   0.717   4.516   1.906
12173TIP3   OH236475   5.446   4.993   3.128
12173TIP3    H136476   5.541   4.985   3.126
12173TIP3    H236477   5.416   4.942   3.052
12174TIP3   OH236478   2.313   0.298   3.772
12174TIP3    H136479   2.381   0.240   3.804
12174TIP3    H236480   2.322   0.377   3.825
12175TIP3   OH236481   7.594   4.704   1.719
12175TIP3    H136482   7.522   4.641   1.718
12175TIP3    H236483   7.588   4.748   1.634
12176TIP3   OH236484   1.237   2.395   0.586
12176TIP3    H136485   1.300   2.324   0.592
12176TIP3    H236486   1.210   2.412   0.676
12177TIP3   OH236487   8.040   2.883   0.866
12177TIP3    H136488   8.078   2.949   0.807
12177TIP3    H236489   7.984   2.934   0.925
12178TIP3   OH236490   6.336   3.383   1.178
12178TIP3    H136491   6.327   3.417   1.267
12178TIP3    H236492   6.383   3.300   1.189
12179TIP3   OH236493   2.541   7.677   2.437
12179TIP3    H136494   2.544   7.697   2.343
12179TIP3    H236495   2.584   7.592   2.445
12180TIP3   OH236496   1.082   4.830   0.554
12180TIP3    H136497   1.032   4.760   0.596
12180TIP3    H236498   1.015   4.894   0.526
12181TIP3   OH236499   6.921   5.352   5.276
12181TIP3    H136500   7.014   5.335   5.293
12181TIP3    H236501   6.876   5.321   5.354
12182TIP3   OH236502   1.459   7.540   4.118
12182TIP3    H136503   1.376   7.585   4.134
12182TIP3    H236504   1.492   7.580   4.037
12183TIP3   OH236505   1.501   0.251   4.610
12183TIP3    H136506   1.545   0.307   4.674
12183TIP3    H236507   1.552   0.170   4.612
12184TIP3   OH236508   5.364   5.865   0.572
12184TIP3    H136509   5.355   5.835   0.663
12184TIP3    H236510   5.313   5.946   0.568
12185TIP3   OH236511   2.333   7.365   6.623
12185TIP3    H136512   2.300   7.308   6.553
12185TIP3    H236513   2.416   7.399   6.589
12186TIP3   OH236514   2.421   4.307   4.100
12186TIP3    H136515   2.416   4.215   4.072
12186TIP3    H236516   2.510   4.333   4.078
12187TIP3   OH236517   7.631   4.680   4.894
12187TIP3    H136518   7.540   4.707   4.884
12187TIP3    H236519   7.636   4.644   4.982
12188TIP3   OH236520   4.487   4.717   3.817
12188TIP3    H136521   4.570   4.763   3.831
12188TIP3    H236522   4.421   4.772   3.859
12189TIP3   OH236523   2.969   5.759   0.432
12189TIP3    H136524   3.037   5.805   0.383
12189TIP3    H236525   2.998   5.761   0.523
12190TIP3   OH236526   6.261   1.411   2.098
12190TIP3    H136527   6.357   1.420   2.101
12190TIP3    H236528   6.232   1.482   2.041
12191TIP3   OH236529   4.977   2.577   4.537
12191TIP3    H136530   5.036   2.503   4.550
12191TIP3    H236531   5.036   2.652   4.527
12192TIP3   OH236532   3.689   6.202   5.029
12192TIP3    H136533   3.646   6.264   5.088
12192TIP3    H236534   3.743   6.148   5.086
12193TIP3   OH236535   4.895   5.445   1.793
12193TIP3    H136536   4.922   5.426   1.883
12193TIP3    H236537   4.924   5.369   1.743
12194TIP3   OH236538   1.179   0.434   6.500
12194TIP3    H136539   1.094   0.468   6.471
12194TIP3    H236540   1.219   0.508   6.546
12195TIP3   OH236541   0.655   5.854   0.469
12195TIP3    H136542   0.687   5.796   0.400
12195TIP3    H236543   0.570   5.818   0.494
12196TIP3   OH236544   7.253   0.501   4.753
12196TIP3    H136545   7.239   0.590   4.720
12196TIP3    H236546   7.230   0.444   4.680
12197TIP3   OH236547   7.664   2.464   2.186
12197TIP3    H136548   7.673   2.523   2.112
12197TIP3    H236549   7.648   2.378   2.147
12198TIP3   OH236550   5.589   4.203   2.202
12198TIP3    H136551   5.582   4.259   2.125
12198TIP3    H236552   5.500   4.169   2.215
12199TIP3   OH236553   1.787   0.608   4.914
12199TIP3    H136554   1.813   0.683   4.861
12199TIP3    H236555   1.862   0.593   4.972
12200TIP3   OH236556   3.373   6.839   0.759
12200TIP3    H136557   3.416   6.923   0.777
12200TIP3    H236558   3.390   6.786   0.836
12201TIP3   OH236559   7.139   1.884   1.474
12201TIP3    H136560   7.095   1.899   1.558
12201TIP3    H236561   7.112   1.796   1.449
12202TIP3   OH236562   2.631   1.965   3.214
12202TIP3    H136563   2.608   2.052   3.247
12202TIP3    H236564   2.710   1.942   3.262
12203TIP3   OH236565   3.592   2.126   5.892
12203TIP3    H136566   3.548   2.060   5.946
12203TIP3    H236567   3.628   2.077   5.819
12204TIP3   OH236568   6.286   2.103   1.347
12204TIP3    H136569   6.381   2.101   1.333
12204TIP3    H236570   6.260   2.190   1.318
12205TIP3   OH236571   5.326   2.104   1.184
12205TIP3    H136572   5.367   2.100   1.098
12205TIP3    H236573   5.283   2.189   1.187
12206TIP3   OH236574   7.175   0.766   0.454
12206TIP3    H136575   7.207   0.716   0.379
12206TIP3    H236576   7.089   0.728   0.473
12207TIP3   OH236577   5.851   1.285   0.021
12207TIP3    H136578   5.895   1.363   0.054
12207TIP3    H236579   5.919   1.218   0.022
12208TIP3   OH236580   3.010   4.004   5.032
12208TIP3    H136581   3.046   3.918   5.050
12208TIP3    H236582   3.075   4.047   4.976
12209TIP3   OH236583   2.111   7.007   1.559
12209TIP3    H136584   2.097   7.094   1.596
12209TIP3    H236585   2.201   6.985   1.583
12210TIP3   OH236586   5.693   6.171   2.997
12210TIP3    H136587   5.735   6.255   2.977
12210TIP3    H236588   5.656   6.142   2.914
12211TIP3   OH236589   4.445   4.586   3.028
12211TIP3    H136590   4.461   4.675   2.996
12211TIP3    H236591   4.517   4.534   2.992
12212TIP3   OH236592   2.878   5.992   5.926
12212TIP3    H136593   2.804   5.968   5.870
12212TIP3    H236594   2.838   6.007   6.012
12213TIP3   OH236595   1.906   1.876   1.702
12213TIP3    H136596   1.943   1.792   1.730
12213TIP3    H236597   1.933   1.886   1.611
12214TIP3   OH236598   7.645   2.701   3.469
12214TIP3    H136599   7.733   2.667   3.484
12214TIP3    H236600   7.605   2.640   3.407
12215TIP3   OH236601   2.940   3.780   3.434
12215TIP3    H136602   2.896   3.865   3.426
12215TIP3    H236603   2.962   3.756   3.344
12216TIP3   OH236604   2.082   6.760   2.573
12216TIP3    H136605   2.135   6.694   2.529
12216TIP3    H236606   2.114   6.843   2.539
12217TIP3   OH236607   6.297   6.653   6.174
12217TIP3    H136608   6.374   6.617   6.130
12217TIP3    H236609   6.284   6.738   6.132
12218TIP3   OH236610   6.812   7.635   3.096
12218TIP3    H136611   6.832   7.554   3.050
12218TIP3    H236612   6.898   7.672   3.118
12219TIP3   OH236613   6.991   4.407   2.091
12219TIP3    H136614   7.086   4.395   2.094
12219TIP3    H236615   6.972   4.468   2.163
12220TIP3   OH236616   4.345   3.336   1.861
12220TIP3    H136617   4.360   3.400   1.792
12220TIP3    H236618   4.262   3.294   1.837
12221TIP3   OH236619   3.014   5.289   1.913
12221TIP3    H136620   3.098   5.243   1.917
12221TIP3    H236621   3.036   5.382   1.919
12222TIP3   OH236622   1.800   1.278   5.385
12222TIP3    H136623   1.844   1.263   5.469
12222TIP3    H236624   1.768   1.368   5.390
12223TIP3   OH236625   6.836   1.435   2.315
12223TIP3    H136626   6.863   1.492   2.243
12223TIP3    H236627   6.852   1.346   2.283
12224TIP3   OH236628   0.786   3.483   3.709
12224TIP3    H136629   0.794   3.573   3.741
12224TIP3    H236630   0.699   3.455   3.737
12225TIP3   OH236631   1.692   6.259   2.837
12225TIP3    H136632   1.776   6.241   2.795
12225TIP3    H236633   1.715   6.283   2.927
12226TIP3   OH236634   3.155   1.700   0.545
12226TIP3    H136635   3.105   1.764   0.595
12226TIP3    H236636   3.213   1.752   0.490
12227TIP3   OH236637   4.433   5.867   6.010
12227TIP3    H136638   4.482   5.925   5.952
12227TIP3    H236639   4.461   5.892   6.098
12228TIP3   OH236640   7.132   6.693   6.777
12228TIP3    H136641   7.091   6.610   6.802
12228TIP3    H236642   7.117   6.699   6.682
12229TIP3   OH236643   6.268   1.269   4.334
12229TIP3    H136644   6.336   1.300   4.274
12229TIP3    H236645   6.317   1.220   4.401
12230TIP3   OH236646   2.436   6.585   0.408
12230TIP3    H136647   2.392   6.632   0.336
12230TIP3    H236648   2.446   6.496   0.375
12231TIP3   OH236649   1.449   6.142   4.883
12231TIP3    H136650   1.380   6.126   4.947
12231TIP3    H236651   1.493   6.058   4.873
12232TIP3   OH236652   1.838   4.253   0.942
12232TIP3    H136653   1.901   4.322   0.922
12232TIP3    H236654   1.892   4.177   0.963
12233TIP3   OH236655   7.805   3.470   0.602
12233TIP3    H136656   7.755   3.390   0.616
12233TIP3    H236657   7.811   3.478   0.507
12234TIP3   OH236658   6.894   6.022   3.962
12234TIP3    H136659   6.964   6.018   4.027
12234TIP3    H236660   6.866   5.932   3.950
12235TIP3   OH236661   3.855   5.646   3.714
12235TIP3    H136662   3.934   5.690   3.681
12235TIP3    H236663   3.794   5.648   3.641
12236TIP3   OH236664   6.206   0.287   1.767
12236TIP3    H136665   6.253   0.352   1.820
12236TIP3    H236666   6.245   0.203   1.792
12237TIP3   OH236667   0.160   6.932   2.342
12237TIP3    H136668   0.197   6.843   2.342
12237TIP3    H236669   0.217   6.981   2.282
12238TIP3   OH236670   0.248   1.185   2.122
12238TIP3    H136671   0.193   1.131   2.065
12238TIP3    H236672   0.296   1.121   2.176
12239TIP3   OH236673   4.235   4.138   1.135
12239TIP3    H136674   4.165   4.142   1.070
12239TIP3    H236675   4.194   4.168   1.216
12240TIP3   OH236676   0.449   0.791   4.978
12240TIP3    H136677   0.415   0.702   4.965
12240TIP3    H236678   0.534   0.779   5.019
12241TIP3   OH236679   0.570   5.419   3.412
12241TIP3    H136680   0.503   5.481   3.439
12241TIP3    H236681   0.523   5.338   3.393
12242TIP3   OH236682   7.327   3.017   6.569
12242TIP3    H136683   7.294   3.060   6.490
12242TIP3    H236684   7.398   2.960   6.537
12243TIP3   OH236685   1.372   3.377   6.228
12243TIP3    H136686   1.330   3.296   6.257
12243TIP3    H236687   1.457   3.349   6.194
12244TIP3   OH236688   7.719   3.529   4.888
12244TIP3    H136689   7.748   3.611   4.847
12244TIP3    H236690   7.700   3.554   4.978
12245TIP3   OH236691   4.150   0.057   4.822
12245TIP3    H136692   4.229   0.111   4.823
12245TIP3    H236693   4.172  -0.018   4.766
12246TIP3   OH236694   0.875   1.294   0.916
12246TIP3    H136695   0.942   1.360   0.899
12246TIP3    H236696   0.838   1.319   1.001
12247TIP3   OH236697   5.626   6.461   3.443
12247TIP3    H136698   5.592   6.416   3.520
12247TIP3    H236699   5.613   6.399   3.371
12248TIP3   OH236700   6.923   7.775   4.906
12248TIP3    H136701   6.893   7.796   4.818
12248TIP3    H236702   6.906   7.855   4.957
12249TIP3   OH236703   5.520   4.773   4.559
12249TIP3    H136704   5.543   4.747   4.648
12249TIP3    H236705   5.491   4.692   4.517
12250TIP3   OH236706   6.163   1.892   6.616
12250TIP3    H136707   6.068   1.897   6.629
12250TIP3    H236708   6.176   1.813   6.563
12251TIP3   OH236709   6.997   2.953   0.390
12251TIP3    H136710   7.044   2.956   0.473
12251TIP3    H236711   6.930   3.021   0.398
12252TIP3   OH236712   2.077   2.744   0.233
12252TIP3    H136713   2.152   2.801   0.249
12252TIP3    H236714   2.001   2.800   0.244
12253TIP3   OH236715   7.570   2.514   5.043
12253TIP3    H136716   7.637   2.531   5.109
12253TIP3    H236717   7.551   2.600   5.006
12254TIP3   OH236718   2.014   2.084   5.498
12254TIP3    H136719   1.936   2.133   5.524
12254TIP3    H236720   2.087   2.136   5.533
12255TIP3   OH236721   2.522   6.903   5.393
12255TIP3    H136722   2.436   6.943   5.384
12255TIP3    H236723   2.536   6.855   5.311
12256TIP3   OH236724   5.335   0.312   3.289
12256TIP3    H136725   5.387   0.235   3.264
12256TIP3    H236726   5.399   0.383   3.298
12257TIP3   OH236727   0.973   6.457   1.743
12257TIP3    H136728   0.991   6.395   1.813
12257TIP3    H236729   1.040   6.439   1.677
12258TIP3   OH236730   8.191   2.423   4.122
12258TIP3    H136731   8.215   2.382   4.205
12258TIP3    H236732   8.102   2.454   4.136
12259TIP3   OH236733   5.479   7.484   3.519
12259TIP3    H136734   5.513   7.396   3.501
12259TIP3    H236735   5.553   7.531   3.558
12260TIP3   OH236736   6.563   6.435   2.268
12260TIP3    H136737   6.505   6.359   2.281
12260TIP3    H236738   6.507   6.502   2.229
12261TIP3   OH236739   2.799   2.399   1.068
12261TIP3    H136740   2.879   2.451   1.074
12261TIP3    H236741   2.809   2.330   1.134
12262TIP3   OH236742   5.999   7.195   2.611
12262TIP3    H136743   5.921   7.226   2.658
12262TIP3    H236744   6.070   7.205   2.673
12263TIP3   OH236745   2.952   3.024   1.433
12263TIP3    H136746   2.950   3.112   1.471
12263TIP3    H236747   2.918   3.035   1.345
12264TIP3   OH236748   3.981   6.415   3.909
12264TIP3    H136749   4.038   6.477   3.865
12264TIP3    H236750   3.917   6.469   3.956
12265TIP3   OH236751   0.622   6.595   6.014
12265TIP3    H136752   0.606   6.507   5.981
12265TIP3    H236753   0.543   6.617   6.064
12266TIP3   OH236754   1.937   5.701   3.595
12266TIP3    H136755   1.843   5.704   3.613
12266TIP3    H236756   1.974   5.774   3.645
12267TIP3   OH236757   0.617   3.347   4.371
12267TIP3    H136758   0.676   3.355   4.446
12267TIP3    H236759   0.664   3.388   4.299
12268TIP3   OH236760   4.483   4.293   4.169
12268TIP3    H136761   4.424   4.272   4.242
12268TIP3    H236762   4.496   4.210   4.124
12269TIP3   OH236763   7.727   1.717   1.392
12269TIP3    H136764   7.659   1.753   1.450
12269TIP3    H236765   7.804   1.771   1.410
12270TIP3   OH236766   6.019   2.949   3.925
12270TIP3    H136767   6.036   2.878   3.987
12270TIP3    H236768   5.923   2.952   3.919
12271TIP3   OH236769   2.521   5.469   5.942
12271TIP3    H136770   2.563   5.387   5.919
12271TIP3    H236771   2.540   5.482   6.035
12272TIP3   OH236772   0.708   2.417   1.447
12272TIP3    H136773   0.729   2.504   1.411
12272TIP3    H236774   0.787   2.391   1.495
12273TIP3   OH236775   2.565   5.218   5.590
12273TIP3    H136776   2.628   5.277   5.632
12273TIP3    H236777   2.490   5.274   5.571
12274TIP3   OH236778   7.813   3.701   0.743
12274TIP3    H136779   7.809   3.625   0.685
12274TIP3    H236780   7.791   3.776   0.687
12275TIP3   OH236781   0.207   6.224   1.998
12275TIP3    H136782   0.300   6.210   2.018
12275TIP3    H236783   0.164   6.222   2.083
12276TIP3   OH236784   3.872   3.932   1.546
12276TIP3    H136785   3.844   4.010   1.595
12276TIP3    H236786   3.913   3.968   1.467
12277TIP3   OH236787   0.410   5.737   5.481
12277TIP3    H136788   0.387   5.759   5.391
12277TIP3    H236789   0.468   5.807   5.509
12278TIP3   OH236790   6.384   6.770   1.023
12278TIP3    H136791   6.471   6.775   0.984
12278TIP3    H236792   6.396   6.799   1.114
12279TIP3   OH236793   5.856   7.263   5.798
12279TIP3    H136794   5.796   7.329   5.832
12279TIP3    H236795   5.924   7.256   5.865
12280TIP3   OH236796   1.625   2.031   4.193
12280TIP3    H136797   1.702   2.012   4.247
12280TIP3    H236798   1.654   2.100   4.133
12281TIP3   OH236799   4.178   2.693   0.745
12281TIP3    H136800   4.165   2.672   0.652
12281TIP3    H236801   4.244   2.630   0.775
12282TIP3   OH236802   0.703   0.835   4.447
12282TIP3    H136803   0.722   0.761   4.390
12282TIP3    H236804   0.716   0.800   4.536
12283TIP3   OH236805   7.006   3.491   6.529
12283TIP3    H136806   6.988   3.397   6.521
12283TIP3    H236807   7.085   3.504   6.476
12284TIP3   OH236808   3.607   2.353   3.746
12284TIP3    H136809   3.653   2.269   3.742
12284TIP3    H236810   3.516   2.332   3.727
12285TIP3   OH236811   2.145   7.433   4.383
12285TIP3    H136812   2.128   7.469   4.470
12285TIP3    H236813   2.239   7.448   4.370
12286TIP3   OH236814   0.964   1.097   5.321
12286TIP3    H136815   1.006   1.116   5.238
12286TIP3    H236816   1.016   1.144   5.386
12287TIP3   OH236817   0.084   1.080   1.538
12287TIP3    H136818   0.100   1.080   1.443
12287TIP3    H236819   0.001   1.126   1.547
12288TIP3   OH236820   2.448   1.152   0.022
12288TIP3    H136821   2.370   1.196  -0.011
12288TIP3    H236822   2.414   1.083   0.079
12289TIP3   OH236823   7.714   1.666   2.493
12289TIP3    H136824   7.798   1.703   2.520
12289TIP3    H236825   7.728   1.572   2.493
12290TIP3   OH236826   5.533   3.562   0.499
12290TIP3    H136827   5.604   3.498   0.494
12290TIP3    H236828   5.541   3.601   0.586
12291TIP3   OH236829   6.809   6.010   5.335
12291TIP3    H136830   6.877   6.044   5.276
12291TIP3    H236831   6.857   5.955   5.397
12292TIP3   OH236832   6.864   0.238   6.158
12292TIP3    H136833   6.918   0.298   6.106
12292TIP3    H236834   6.795   0.210   6.098
12293TIP3   OH236835   7.984   4.653   2.303
12293TIP3    H136836   8.061   4.708   2.288
12293TIP3    H236837   7.959   4.671   2.393
12294TIP3   OH236838   6.937   4.001   0.046
12294TIP3    H136839   6.935   3.907   0.026
12294TIP3    H236840   7.012   4.034  -0.004
12295TIP3   OH236841   0.909   6.352   6.337
12295TIP3    H136842   0.869   6.267   6.357
12295TIP3    H236843   0.929   6.347   6.244
12296TIP3   OH236844   6.377   7.512   2.770
12296TIP3    H136845   6.396   7.543   2.859
12296TIP3    H236846   6.402   7.585   2.713
12297TIP3   OH236847   2.732   0.447   3.797
12297TIP3    H136848   2.720   0.365   3.749
12297TIP3    H236849   2.821   0.475   3.775
12298TIP3   OH236850   4.547   0.283   3.649
12298TIP3    H136851   4.541   0.205   3.593
12298TIP3    H236852   4.636   0.281   3.684
12299TIP3   OH236853   4.566   2.975   3.151
12299TIP3    H136854   4.540   2.945   3.064
12299TIP3    H236855   4.609   3.059   3.136
12300TIP3   OH236856   4.561   0.687   2.515
12300TIP3    H136857   4.500   0.687   2.441
12300TIP3    H236858   4.589   0.596   2.524
12301TIP3   OH236859   1.262   4.596   0.532
12301TIP3    H136860   1.235   4.687   0.521
12301TIP3    H236861   1.188   4.553   0.575
12302TIP3   OH236862   4.314   6.764   2.788
12302TIP3    H136863   4.373   6.762   2.713
12302TIP3    H236864   4.233   6.724   2.756
12303TIP3   OH236865   8.154   4.693   1.284
12303TIP3    H136866   8.201   4.716   1.364
12303TIP3    H236867   8.169   4.599   1.274
12304TIP3   OH236868   2.302   1.224   6.502
12304TIP3    H136869   2.372   1.264   6.553
12304TIP3    H236870   2.300   1.133   6.532
12305TIP3   OH236871   5.883   6.324   3.560
12305TIP3    H136872   5.876   6.233   3.531
12305TIP3    H236873   5.904   6.372   3.480
12306TIP3   OH236874   1.736   0.284   4.427
12306TIP3    H136875   1.697   0.302   4.513
12306TIP3    H236876   1.688   0.341   4.367
12307TIP3   OH236877   7.361   4.838   3.599
12307TIP3    H136878   7.348   4.932   3.598
12307TIP3    H236879   7.456   4.826   3.599
12308TIP3   OH236880   3.174   3.414   4.496
12308TIP3    H136881   3.256   3.462   4.489
12308TIP3    H236882   3.116   3.473   4.546
12309TIP3   OH236883   2.953   7.233   2.889
12309TIP3    H136884   2.954   7.236   2.793
12309TIP3    H236885   2.875   7.282   2.914
12310TIP3   OH236886   3.358   5.138   2.214
12310TIP3    H136887   3.333   5.209   2.154
12310TIP3    H236888   3.453   5.136   2.209
12311TIP3   OH236889   3.293   7.277   6.157
12311TIP3    H136890   3.203   7.302   6.180
12311TIP3    H236891   3.292   7.269   6.062
12312TIP3   OH236892   8.169   5.764   5.830
12312TIP3    H136893   8.140   5.683   5.873
12312TIP3    H236894   8.098   5.826   5.846
12313TIP3   OH236895   6.760   2.124   6.088
12313TIP3    H136896   6.823   2.072   6.038
12313TIP3    H236897   6.808   2.153   6.165
12314TIP3   OH236898   5.647   3.257   1.175
12314TIP3    H136899   5.592   3.314   1.120
12314TIP3    H236900   5.706   3.214   1.113
12315TIP3   OH236901   2.447   4.248   5.923
12315TIP3    H136902   2.392   4.326   5.938
12315TIP3    H236903   2.473   4.256   5.831
12316TIP3   OH236904   3.375   1.974   4.345
12316TIP3    H136905   3.408   2.059   4.314
12316TIP3    H236906   3.404   1.969   4.436
12317TIP3   OH236907   1.693   0.144   3.657
12317TIP3    H136908   1.761   0.115   3.596
12317TIP3    H236909   1.676   0.235   3.633
12318TIP3   OH236910   6.350   6.921   6.241
12318TIP3    H136911   6.417   6.983   6.213
12318TIP3    H236912   6.268   6.957   6.207
12319TIP3   OH236913   7.958   2.770   2.264
12319TIP3    H136914   8.043   2.780   2.305
12319TIP3    H236915   7.975   2.716   2.187
12320TIP3   OH236916   2.908   0.505   3.308
12320TIP3    H136917   2.964   0.509   3.385
12320TIP3    H236918   2.961   0.459   3.242
12321TIP3   OH236919   7.265   7.388   4.852
12321TIP3    H136920   7.236   7.326   4.919
12321TIP3    H236921   7.243   7.474   4.888
12322TIP3   OH236922   3.935   7.569   5.016
12322TIP3    H136923   3.951   7.526   5.100
12322TIP3    H236924   3.948   7.662   5.034
12323TIP3   OH236925   6.454   7.654   3.657
12323TIP3    H136926   6.435   7.629   3.567
12323TIP3    H236927   6.546   7.633   3.669
12324TIP3   OH236928   3.959   1.991   5.070
12324TIP3    H136929   3.968   1.908   5.117
12324TIP3    H236930   3.975   1.968   4.978
12325TIP3   OH236931   2.870   6.036   3.892
12325TIP3    H136932   2.899   5.953   3.929
12325TIP3    H236933   2.843   6.088   3.968
12326TIP3   OH236934   6.440   6.361   0.721
12326TIP3    H136935   6.479   6.338   0.637
12326TIP3    H236936   6.364   6.303   0.730
12327TIP3   OH236937   4.575   3.696   0.795
12327TIP3    H136938   4.514   3.768   0.809
12327TIP3    H236939   4.540   3.648   0.720
12328TIP3   OH236940   5.510   5.265   5.662
12328TIP3    H136941   5.575   5.334   5.671
12328TIP3    H236942   5.555   5.195   5.615
12329TIP3   OH236943   0.058   1.136   4.204
12329TIP3    H136944   0.046   1.042   4.212
12329TIP3    H236945   0.048   1.169   4.294
12330TIP3   OH236946   5.818   2.929   3.331
12330TIP3    H136947   5.819   2.925   3.236
12330TIP3    H236948   5.776   3.013   3.351
12331TIP3   OH236949   3.509   3.800   1.172
12331TIP3    H136950   3.576   3.786   1.240
12331TIP3    H236951   3.534   3.883   1.131
12332TIP3   OH236952   0.466   6.187   2.049
12332TIP3    H136953   0.487   6.114   2.106
12332TIP3    H236954   0.546   6.241   2.048
12333TIP3   OH236955   7.478   2.834   0.134
12333TIP3    H136956   7.511   2.911   0.180
12333TIP3    H236957   7.520   2.837   0.048
12334TIP3   OH236958   4.444   6.622   5.309
12334TIP3    H136959   4.402   6.704   5.337
12334TIP3    H236960   4.520   6.613   5.366
12335TIP3   OH236961   2.464   2.096   3.006
12335TIP3    H136962   2.497   2.028   3.064
12335TIP3    H236963   2.538   2.155   2.994
12336TIP3   OH236964   0.282   6.385   4.059
12336TIP3    H136965   0.282   6.348   3.970
12336TIP3    H236966   0.217   6.332   4.106
12337TIP3   OH236967   4.430   3.977   5.025
12337TIP3    H136968   4.461   4.016   5.107
12337TIP3    H236969   4.508   3.938   4.985
12338TIP3   OH236970   1.894   0.355   2.509
12338TIP3    H136971   1.837   0.432   2.511
12338TIP3    H236972   1.951   0.365   2.585
12339TIP3   OH236973   5.336   4.098   2.237
12339TIP3    H136974   5.341   4.014   2.281
12339TIP3    H236975   5.257   4.140   2.273
12340TIP3   OH236976   5.073   3.392   6.757
12340TIP3    H136977   4.982   3.397   6.728
12340TIP3    H236978   5.122   3.371   6.677
12341TIP3   OH236979   6.609   0.779   4.034
12341TIP3    H136980   6.676   0.817   3.977
12341TIP3    H236981   6.578   0.702   3.987
12342TIP3   OH236982   7.404   6.313   1.094
12342TIP3    H136983   7.356   6.299   1.175
12342TIP3    H236984   7.446   6.229   1.076
12343TIP3   OH236985   4.836   2.428   2.107
12343TIP3    H136986   4.793   2.343   2.119
12343TIP3    H236987   4.794   2.465   2.030
12344TIP3   OH236988   7.553   5.513   2.357
12344TIP3    H136989   7.622   5.569   2.392
12344TIP3    H236990   7.569   5.428   2.398
12345TIP3   OH236991   7.182   7.018   0.252
12345TIP3    H136992   7.234   6.991   0.328
12345TIP3    H236993   7.247   7.033   0.183
12346TIP3   OH236994   1.728   6.687   0.036
12346TIP3    H136995   1.808   6.710  -0.010
12346TIP3    H236996   1.673   6.765   0.030
12347TIP3   OH236997   5.907   3.151   0.702
12347TIP3    H136998   5.887   3.214   0.632
12347TIP3    H236999   5.912   3.067   0.658
12348TIP3   OH237000   7.330   2.417   5.004
12348TIP3    H137001   7.423   2.438   5.007
12348TIP3    H237002   7.300   2.453   4.921
12349TIP3   OH237003   0.911   0.536   3.229
12349TIP3    H137004   0.924   0.623   3.190
12349TIP3    H237005   0.823   0.510   3.200
12350TIP3   OH237006   6.574   5.076   5.729
12350TIP3    H137007   6.619   5.108   5.807
12350TIP3    H237008   6.643   5.063   5.665
12351TIP3   OH237009   0.299   6.650   2.033
12351TIP3    H137010   0.273   6.615   1.948
12351TIP3    H237011   0.354   6.726   2.012
12352TIP3   OH237012   4.941   0.709   2.896
12352TIP3    H137013   4.863   0.739   2.850
12352TIP3    H237014   4.929   0.738   2.987
12353TIP3   OH237015   6.903   7.646   3.838
12353TIP3    H137016   6.865   7.730   3.865
12353TIP3    H237017   6.881   7.587   3.910
12354TIP3   OH237018   4.478   0.673   5.710
12354TIP3    H137019   4.458   0.701   5.621
12354TIP3    H237020   4.555   0.724   5.736
12355TIP3   OH237021   0.336   2.310   4.082
12355TIP3    H137022   0.422   2.352   4.091
12355TIP3    H237023   0.313   2.323   3.990
12356TIP3   OH237024   1.803   5.057   4.436
12356TIP3    H137025   1.778   4.968   4.462
12356TIP3    H237026   1.776   5.063   4.344
12357TIP3   OH237027   7.656   6.024   1.089
12357TIP3    H137028   7.653   5.984   1.176
12357TIP3    H237029   7.571   6.005   1.050
12358TIP3   OH237030   6.669   1.238   1.635
12358TIP3    H137031   6.659   1.152   1.675
12358TIP3    H237032   6.745   1.276   1.678
12359TIP3   OH237033   1.170   6.829   4.395
12359TIP3    H137034   1.234   6.771   4.352
12359TIP3    H237035   1.152   6.787   4.479
12360TIP3   OH237036   1.057   5.031   5.486
12360TIP3    H137037   1.082   5.044   5.395
12360TIP3    H237038   1.133   4.988   5.526
12361TIP3   OH237039   0.404   0.780   2.683
12361TIP3    H137040   0.382   0.861   2.638
12361TIP3    H237041   0.438   0.722   2.614
12362TIP3   OH237042   0.483   7.205   3.472
12362TIP3    H137043   0.505   7.212   3.564
12362TIP3    H237044   0.404   7.150   3.470
12363TIP3   OH237045   4.433   4.863   4.144
12363TIP3    H137046   4.427   4.931   4.077
12363TIP3    H237047   4.343   4.833   4.156
12364TIP3   OH237048   5.652   6.680   6.678
12364TIP3    H137049   5.629   6.644   6.764
12364TIP3    H237050   5.652   6.775   6.690
12365TIP3   OH237051   7.889   7.693   3.266
12365TIP3    H137052   7.956   7.666   3.203
12365TIP3    H237053   7.809   7.701   3.214
12366TIP3   OH237054   7.705   3.840   4.267
12366TIP3    H137055   7.745   3.790   4.337
12366TIP3    H237056   7.613   3.848   4.293
12367TIP3   OH237057   4.587   4.298   1.327
12367TIP3    H137058   4.523   4.233   1.356
12367TIP3    H237059   4.633   4.324   1.407
12368TIP3   OH237060   6.422   7.150   1.442
12368TIP3    H137061   6.450   7.202   1.366
12368TIP3    H237062   6.489   7.167   1.508
12369TIP3   OH237063   6.394   3.919   1.417
12369TIP3    H137064   6.416   3.830   1.444
12369TIP3    H237065   6.478   3.964   1.411
12370TIP3   OH237066   5.909   7.081   3.238
12370TIP3    H137067   5.992   7.039   3.261
12370TIP3    H237068   5.844   7.038   3.294
12371TIP3   OH237069   7.877   6.991   0.460
12371TIP3    H137070   7.864   6.917   0.400
12371TIP3    H237071   7.788   7.016   0.486
12372TIP3   OH237072   2.328   5.824   2.896
12372TIP3    H137073   2.237   5.796   2.885
12372TIP3    H237074   2.361   5.834   2.806
12373TIP3   OH237075   2.558   2.613   1.480
12373TIP3    H137076   2.490   2.678   1.492
12373TIP3    H237077   2.632   2.646   1.531
12374TIP3   OH237078   1.628   3.202   4.619
12374TIP3    H137079   1.685   3.144   4.568
12374TIP3    H237080   1.577   3.250   4.553
12375TIP3   OH237081   5.499   0.809   2.455
12375TIP3    H137082   5.405   0.822   2.440
12375TIP3    H237083   5.511   0.827   2.549
12376TIP3   OH237084   7.586   6.845   2.937
12376TIP3    H137085   7.492   6.859   2.927
12376TIP3    H237086   7.627   6.921   2.894
12377TIP3   OH237087   1.971   0.268   5.188
12377TIP3    H137088   2.008   0.266   5.276
12377TIP3    H237089   2.042   0.239   5.130
12378TIP3   OH237090   7.328   1.624   6.656
12378TIP3    H137091   7.293   1.643   6.569
12378TIP3    H237092   7.346   1.530   6.654
12379TIP3   OH237093   6.328   6.275   0.365
12379TIP3    H137094   6.296   6.364   0.348
12379TIP3    H237095   6.415   6.288   0.404
12380TIP3   OH237096   7.447   0.357   3.957
12380TIP3    H137097   7.404   0.279   3.923
12380TIP3    H237098   7.375   0.418   3.974
12381TIP3   OH237099   1.571   2.863   1.360
12381TIP3    H137100   1.585   2.878   1.266
12381TIP3    H237101   1.579   2.950   1.399
12382TIP3   OH237102   5.084   3.631   2.976
12382TIP3    H137103   5.063   3.638   3.069
12382TIP3    H237104   5.138   3.553   2.970
12383TIP3   OH237105   2.242   0.237   1.450
12383TIP3    H137106   2.280   0.199   1.371
12383TIP3    H237107   2.159   0.275   1.421
12384TIP3   OH237108   8.293   3.167   4.958
12384TIP3    H137109   8.283   3.121   5.041
12384TIP3    H237110   8.210   3.211   4.944
12385TIP3   OH237111   2.103   4.122   3.726
12385TIP3    H137112   2.145   4.116   3.812
12385TIP3    H237113   2.015   4.085   3.740
12386TIP3   OH237114   7.712   6.629   1.642
12386TIP3    H137115   7.727   6.581   1.724
12386TIP3    H237116   7.759   6.577   1.576
12387TIP3   OH237117   7.445   1.929   6.224
12387TIP3    H137118   7.474   2.017   6.199
12387TIP3    H237119   7.380   1.943   6.293
12388TIP3   OH237120   1.981   2.492   4.579
12388TIP3    H137121   1.887   2.491   4.597
12388TIP3    H237122   2.005   2.400   4.569
12389TIP3   OH237123   7.742   7.398   3.180
12389TIP3    H137124   7.707   7.404   3.269
12389TIP3    H237125   7.696   7.467   3.132
12390TIP3   OH237126   3.655   0.033   3.608
12390TIP3    H137127   3.705   0.022   3.527
12390TIP3    H237128   3.564   0.019   3.581
12391TIP3   OH237129   0.929   0.417   5.953
12391TIP3    H137130   0.887   0.503   5.943
12391TIP3    H237131   1.008   0.436   6.004
12392TIP3   OH237132   6.872   1.568   3.270
12392TIP3    H137133   6.788   1.585   3.312
12392TIP3    H237134   6.925   1.525   3.337
12393TIP3   OH237135   7.952   7.147   1.632
12393TIP3    H137136   8.002   7.137   1.551
12393TIP3    H237137   7.956   7.240   1.652
12394TIP3   OH237138   3.486   5.679   4.161
12394TIP3    H137139   3.438   5.670   4.079
12394TIP3    H237140   3.418   5.675   4.229
12395TIP3   OH237141   2.635   1.431   0.632
12395TIP3    H137142   2.641   1.366   0.563
12395TIP3    H237143   2.585   1.503   0.594
12396TIP3   OH237144   7.587   0.010   1.299
12396TIP3    H137145   7.653  -0.027   1.241
12396TIP3    H237146   7.633   0.026   1.382
12397TIP3   OH237147   1.228   3.627   3.027
12397TIP3    H137148   1.244   3.634   3.121
12397TIP3    H237149   1.259   3.540   3.003
12398TIP3   OH237150   2.635   2.221   3.791
12398TIP3    H137151   2.710   2.163   3.778
12398TIP3    H237152   2.672   2.298   3.834
12399TIP3   OH237153   2.802   1.983   2.426
12399TIP3    H137154   2.751   2.059   2.397
12399TIP3    H237155   2.823   2.002   2.517
12400TIP3   OH237156   6.780   7.313   6.564
12400TIP3    H137157   6.837   7.237   6.567
12400TIP3    H237158   6.720   7.301   6.638
12401TIP3   OH237159   0.965   0.359   6.751
12401TIP3    H137160   0.957   0.434   6.810
12401TIP3    H237161   1.057   0.359   6.724
12402TIP3   OH237162   1.987   3.102   1.282
12402TIP3    H137163   1.969   3.119   1.189
12402TIP3    H237164   1.935   3.167   1.329
12403TIP3   OH237165   7.027   4.620   5.655
12403TIP3    H137166   7.005   4.666   5.574
12403TIP3    H237167   7.117   4.646   5.673
12404TIP3   OH237168   3.955   0.314   2.079
12404TIP3    H137169   3.900   0.358   2.144
12404TIP3    H237170   3.998   0.244   2.128
12405TIP3   OH237171   4.879   4.835   0.950
12405TIP3    H137172   4.955   4.776   0.951
12405TIP3    H237173   4.813   4.790   1.002
12406TIP3   OH237174   7.902   1.161   0.259
12406TIP3    H137175   7.983   1.167   0.208
12406TIP3    H237176   7.888   1.250   0.292
12407TIP3   OH237177   8.029   4.940   4.901
12407TIP3    H137178   7.994   4.965   4.987
12407TIP3    H237179   7.988   5.001   4.839
12408TIP3   OH237180   7.209   2.534   4.228
12408TIP3    H137181   7.215   2.559   4.136
12408TIP3    H237182   7.297   2.504   4.250
12409TIP3   OH237183   2.682   3.633   3.256
12409TIP3    H137184   2.675   3.700   3.188
12409TIP3    H237185   2.596   3.633   3.298
12410TIP3   OH237186   7.229   0.615   0.225
12410TIP3    H137187   7.305   0.557   0.230
12410TIP3    H237188   7.247   0.671   0.150
12411TIP3   OH237189   4.662   2.374   0.201
12411TIP3    H137190   4.707   2.409   0.124
12411TIP3    H237191   4.702   2.420   0.275
12412TIP3   OH237192   6.204   7.286   2.763
12412TIP3    H137193   6.248   7.204   2.739
12412TIP3    H237194   6.260   7.355   2.728
12413TIP3   OH237195   8.252   4.706   1.546
12413TIP3    H137196   8.307   4.628   1.550
12413TIP3    H237197   8.197   4.701   1.624
12414TIP3   OH237198   5.376   5.037   1.119
12414TIP3    H137199   5.417   5.110   1.072
12414TIP3    H237200   5.317   4.998   1.055
12415TIP3   OH237201   0.975   5.048   4.885
12415TIP3    H137202   1.067   5.061   4.908
12415TIP3    H237203   0.937   5.006   4.961
12416TIP3   OH237204   0.748   3.098   1.599
12416TIP3    H137205   0.685   3.147   1.547
12416TIP3    H237206   0.820   3.159   1.614
12417TIP3   OH237207   3.069   7.344   5.578
12417TIP3    H137208   3.151   7.296   5.590
12417TIP3    H237209   3.001   7.277   5.585
12418TIP3   OH237210   4.442   3.281   6.001
12418TIP3    H137211   4.499   3.348   6.039
12418TIP3    H237212   4.387   3.329   5.939
12419TIP3   OH237213   2.739   5.649   6.460
12419TIP3    H137214   2.820   5.634   6.412
12419TIP3    H237215   2.703   5.561   6.474
12420TIP3   OH237216   4.735   0.200   3.199
12420TIP3    H137217   4.640   0.206   3.186
12420TIP3    H237218   4.755   0.108   3.187
12421TIP3   OH237219   0.200   3.494   4.395
12421TIP3    H137220   0.126   3.477   4.337
12421TIP3    H237221   0.179   3.448   4.476
12422TIP3   OH237222   6.078   7.659   2.128
12422TIP3    H137223   6.007   7.621   2.076
12422TIP3    H237224   6.152   7.665   2.068
12423TIP3   OH237225   2.180   3.056   2.606
12423TIP3    H137226   2.142   2.973   2.577
12423TIP3    H237227   2.195   3.105   2.526
12424TIP3   OH237228   1.820   3.059   4.523
12424TIP3    H137229   1.825   2.963   4.525
12424TIP3    H237230   1.882   3.084   4.455
12425TIP3   OH237231   3.257   5.695   4.873
12425TIP3    H137232   3.161   5.690   4.874
12425TIP3    H237233   3.281   5.719   4.963
12426TIP3   OH237234   6.385   2.293   2.426
12426TIP3    H137235   6.304   2.251   2.399
12426TIP3    H237236   6.373   2.311   2.519
12427TIP3   OH237237   4.511   6.875   3.479
12427TIP3    H137238   4.431   6.822   3.476
12427TIP3    H237239   4.526   6.891   3.572
12428TIP3   OH237240   3.835   3.054   3.137
12428TIP3    H137241   3.745   3.022   3.139
12428TIP3    H237242   3.846   3.102   3.219
12429TIP3   OH237243   3.600   7.766   2.144
12429TIP3    H137244   3.613   7.675   2.169
12429TIP3    H237245   3.661   7.815   2.199
12430TIP3   OH237246   8.240   7.193   0.646
12430TIP3    H137247   8.283   7.255   0.587
12430TIP3    H237248   8.309   7.135   0.676
12431TIP3   OH237249   0.195   0.187   6.394
12431TIP3    H137250   0.185   0.100   6.431
12431TIP3    H237251   0.207   0.244   6.470
12432TIP3   OH237252   8.014   7.188   5.923
12432TIP3    H137253   7.964   7.269   5.913
12432TIP3    H237254   7.967   7.138   5.989
12433TIP3   OH237255   2.041   6.453   6.753
12433TIP3    H137256   2.095   6.505   6.694
12433TIP3    H237257   1.952   6.464   6.721
12434TIP3   OH237258   6.313   3.480   0.671
12434TIP3    H137259   6.218   3.486   0.660
12434TIP3    H237260   6.328   3.510   0.761
12435TIP3   OH237261   4.360   3.497   1.230
12435TIP3    H137262   4.403   3.531   1.152
12435TIP3    H237263   4.317   3.417   1.201
12436TIP3   OH237264   6.148   6.722   6.578
12436TIP3    H137265   6.087   6.684   6.641
12436TIP3    H237266   6.092   6.773   6.518
12437TIP3   OH237267   2.085   2.256   4.648
12437TIP3    H137268   2.079   2.224   4.738
12437TIP3    H237269   2.111   2.179   4.598
12438TIP3   OH237270   5.078   5.303   0.399
12438TIP3    H137271   4.996   5.256   0.387
12438TIP3    H237272   5.056   5.394   0.376
12439TIP3   OH237273   6.897   4.627   0.438
12439TIP3    H137274   6.923   4.709   0.480
12439TIP3    H237275   6.839   4.655   0.367
12440TIP3   OH237276   7.006   5.994   2.603
12440TIP3    H137277   6.919   5.969   2.574
12440TIP3    H237278   7.002   6.088   2.617
12441TIP3   OH237279   5.840   6.352   4.726
12441TIP3    H137280   5.883   6.272   4.696
12441TIP3    H237281   5.909   6.402   4.771
12442TIP3   OH237282   6.725   7.483   1.706
12442TIP3    H137283   6.717   7.540   1.630
12442TIP3    H237284   6.708   7.395   1.672
12443TIP3   OH237285   2.794   2.517   5.274
12443TIP3    H137286   2.868   2.534   5.333
12443TIP3    H237287   2.819   2.556   5.191
12444TIP3   OH237288   3.451   1.595   2.706
12444TIP3    H137289   3.377   1.571   2.650
12444TIP3    H237290   3.410   1.619   2.789
12445TIP3   OH237291   2.465   6.679   2.168
12445TIP3    H137292   2.524   6.701   2.240
12445TIP3    H237293   2.406   6.613   2.205
12446TIP3   OH237294   5.225   4.521   5.104
12446TIP3    H137295   5.157   4.583   5.078
12446TIP3    H237296   5.179   4.437   5.108
12447TIP3   OH237297   7.536   4.267   1.934
12447TIP3    H137298   7.598   4.242   2.003
12447TIP3    H237299   7.484   4.188   1.918
12448TIP3   OH237300   7.379   3.360   6.468
12448TIP3    H137301   7.295   3.329   6.435
12448TIP3    H237302   7.397   3.304   6.544
12449TIP3   OH237303   7.013   2.189   0.416
12449TIP3    H137304   6.923   2.213   0.438
12449TIP3    H237305   7.067   2.251   0.465
12450TIP3   OH237306   1.793   4.193   5.368
12450TIP3    H137307   1.842   4.186   5.286
12450TIP3    H237308   1.701   4.184   5.342
12451TIP3   OH237309   3.129   5.224   0.138
12451TIP3    H137310   3.049   5.178   0.164
12451TIP3    H237311   3.200   5.171   0.174
12452TIP3   OH237312   2.508   5.741   6.018
12452TIP3    H137313   2.418   5.713   6.038
12452TIP3    H237314   2.550   5.663   5.982
12453TIP3   OH237315   0.806   4.954   5.468
12453TIP3    H137316   0.898   4.975   5.486
12453TIP3    H237317   0.781   4.894   5.538
12454TIP3   OH237318   2.321   1.215   2.719
12454TIP3    H137319   2.308   1.248   2.808
12454TIP3    H237320   2.376   1.138   2.730
12455TIP3   OH237321   3.704   3.127   5.288
12455TIP3    H137322   3.713   3.152   5.196
12455TIP3    H237323   3.612   3.139   5.308
12456TIP3   OH237324   7.739   3.034   0.719
12456TIP3    H137325   7.722   3.115   0.767
12456TIP3    H237326   7.714   2.965   0.779
12457TIP3   OH237327   3.497   5.068   0.309
12457TIP3    H137328   3.494   5.161   0.330
12457TIP3    H237329   3.446   5.061   0.227
12458TIP3   OH237330   7.346   1.899   2.353
12458TIP3    H137331   7.309   1.856   2.430
12458TIP3    H237332   7.432   1.931   2.382
12459TIP3   OH237333   0.422   5.389   0.506
12459TIP3    H137334   0.496   5.399   0.446
12459TIP3    H237335   0.407   5.477   0.541
12460TIP3   OH237336   3.279   4.972   4.478
12460TIP3    H137337   3.321   4.894   4.443
12460TIP3    H237338   3.240   4.944   4.560
12461TIP3   OH237339   2.296   6.595   4.662
12461TIP3    H137340   2.245   6.632   4.734
12461TIP3    H237341   2.384   6.584   4.698
12462TIP3   OH237342   7.297   0.402   2.371
12462TIP3    H137343   7.242   0.433   2.443
12462TIP3    H237344   7.305   0.308   2.386
12463TIP3   OH237345   6.472   5.886   0.168
12463TIP3    H137346   6.441   5.915   0.082
12463TIP3    H237347   6.498   5.795   0.155
12464TIP3   OH237348   1.505   6.622   1.414
12464TIP3    H137349   1.456   6.553   1.459
12464TIP3    H237350   1.597   6.600   1.428
12465TIP3   OH237351   7.180   1.247   2.174
12465TIP3    H137352   7.100   1.257   2.124
12465TIP3    H237353   7.184   1.325   2.230
12466TIP3   OH237354   6.546   3.137   5.591
12466TIP3    H137355   6.488   3.122   5.516
12466TIP3    H237356   6.502   3.094   5.664
12467TIP3   OH237357   0.302   6.766   0.472
12467TIP3    H137358   0.229   6.818   0.439
12467TIP3    H237359   0.317   6.799   0.561
12468TIP3   OH237360   2.125   2.092   4.347
12468TIP3    H137361   2.220   2.092   4.356
12468TIP3    H237362   2.093   2.043   4.423
12469TIP3   OH237363   6.639   7.180   5.685
12469TIP3    H137364   6.546   7.183   5.708
12469TIP3    H237365   6.657   7.265   5.644
12470TIP3   OH237366   5.510   1.424   5.678
12470TIP3    H137367   5.521   1.432   5.773
12470TIP3    H237368   5.527   1.513   5.645
12471TIP3   OH237369   6.821   7.223   6.297
12471TIP3    H137370   6.744   7.206   6.243
12471TIP3    H237371   6.787   7.234   6.385
12472TIP3   OH237372   6.445   0.812   2.151
12472TIP3    H137373   6.453   0.837   2.059
12472TIP3    H237374   6.509   0.867   2.196
12473TIP3   OH237375   4.694   2.815   6.422
12473TIP3    H137376   4.682   2.755   6.496
12473TIP3    H237377   4.720   2.898   6.462
12474TIP3   OH237378   4.616   0.255   6.068
12474TIP3    H137379   4.600   0.349   6.075
12474TIP3    H237380   4.598   0.221   6.156
12475TIP3   OH237381   3.742   1.415   0.634
12475TIP3    H137382   3.659   1.453   0.608
12475TIP3    H237383   3.719   1.336   0.682
12476TIP3   OH237384   3.007   4.725   5.987
12476TIP3    H137385   3.054   4.809   5.981
12476TIP3    H237386   2.970   4.725   6.076
12477TIP3   OH237387   2.382   1.086   2.210
12477TIP3    H137388   2.297   1.130   2.204
12477TIP3    H237389   2.362   0.993   2.199
12478TIP3   OH237390   1.755   3.148   0.924
12478TIP3    H137391   1.844   3.179   0.941
12478TIP3    H237392   1.705   3.173   1.001
12479TIP3   OH237393   0.137   4.649   4.108
12479TIP3    H137394   0.215   4.672   4.159
12479TIP3    H237395   0.139   4.554   4.102
12480TIP3   OH237396   0.966   6.072   5.372
12480TIP3    H137397   0.909   5.998   5.354
12480TIP3    H237398   1.054   6.039   5.356
12481TIP3   OH237399   3.911   6.771   5.958
12481TIP3    H137400   3.903   6.848   6.013
12481TIP3    H237401   3.822   6.753   5.929
12482TIP3   OH237402   3.910   0.678   6.026
12482TIP3    H137403   3.825   0.669   6.069
12482TIP3    H237404   3.906   0.620   5.950
12483TIP3   OH237405   6.073   5.764   6.014
12483TIP3    H137406   6.118   5.836   5.968
12483TIP3    H237407   6.065   5.794   6.104
12484TIP3   OH237408   5.189   3.133   3.064
12484TIP3    H137409   5.117   3.090   3.018
12484TIP3    H237410   5.152   3.160   3.148
12485TIP3   OH237411   5.620   7.756   6.449
12485TIP3    H137412   5.617   7.715   6.536
12485TIP3    H237413   5.579   7.692   6.391
12486TIP3   OH237414   1.805   7.418   6.524
12486TIP3    H137415   1.879   7.379   6.571
12486TIP3    H237416   1.760   7.343   6.485
12487TIP3   OH237417   7.939   6.062   3.873
12487TIP3    H137418   7.864   6.005   3.886
12487TIP3    H237419   8.015   6.005   3.883
12488TIP3   OH237420   2.468   2.762   0.040
12488TIP3    H137421   2.512   2.711   0.108
12488TIP3    H237422   2.382   2.722   0.032
12489TIP3   OH237423   5.692   1.234   2.399
12489TIP3    H137424   5.758   1.170   2.426
12489TIP3    H237425   5.654   1.197   2.319
12490TIP3   OH237426   4.198   6.095   5.246
12490TIP3    H137427   4.164   6.010   5.276
12490TIP3    H237428   4.127   6.156   5.263
12491TIP3   OH237429   1.245   4.358   0.349
12491TIP3    H137430   1.174   4.325   0.404
12491TIP3    H237431   1.283   4.430   0.400
12492TIP3   OH237432   7.483   5.334   0.801
12492TIP3    H137433   7.441   5.414   0.768
12492TIP3    H237434   7.560   5.365   0.848
12493TIP3   OH237435   6.849   6.585   1.006
12493TIP3    H137436   6.844   6.528   1.083
12493TIP3    H237437   6.917   6.544   0.951
12494TIP3   OH237438   7.483   5.907   3.860
12494TIP3    H137439   7.439   5.822   3.864
12494TIP3    H237440   7.489   5.926   3.767
12495TIP3   OH237441   5.674   7.434   5.896
12495TIP3    H137442   5.674   7.524   5.865
12495TIP3    H237443   5.582   7.412   5.907
12496TIP3   OH237444   1.290   3.863   4.984
12496TIP3    H137445   1.337   3.932   5.031
12496TIP3    H237446   1.272   3.796   5.050
12497TIP3   OH237447   3.220   4.976   6.737
12497TIP3    H137448   3.189   4.902   6.686
12497TIP3    H237449   3.250   4.938   6.820
12498TIP3   OH237450   7.522   1.054   3.297
12498TIP3    H137451   7.475   1.000   3.233
12498TIP3    H237452   7.488   1.142   3.284
12499TIP3   OH237453   1.116   6.299   0.378
12499TIP3    H137454   1.202   6.299   0.420
12499TIP3    H237455   1.135   6.296   0.284
12500TIP3   OH237456   1.041   6.246   0.114
12500TIP3    H137457   0.978   6.181   0.142
12500TIP3    H237458   1.002   6.285   0.035
12501TIP3   OH237459   0.399   4.899   3.416
12501TIP3    H137460   0.407   4.944   3.500
12501TIP3    H237461   0.416   4.807   3.437
12502TIP3   OH237462   3.124   0.781   0.009
12502TIP3    H137463   3.098   0.839   0.080
12502TIP3    H237464   3.075   0.700   0.025
12503TIP3   OH237465   4.759   4.775   1.254
12503TIP3    H137466   4.851   4.782   1.281
12503TIP3    H237467   4.717   4.730   1.327
12504TIP3   OH237468   3.339   0.097   1.918
12504TIP3    H137469   3.425   0.068   1.886
12504TIP3    H237470   3.352   0.108   2.013
12505TIP3   OH237471   7.657   4.517   5.687
12505TIP3    H137472   7.625   4.607   5.693
12505TIP3    H237473   7.656   4.484   5.777
12506TIP3   OH237474   2.175   0.208   2.468
12506TIP3    H137475   2.090   0.168   2.452
12506TIP3    H237476   2.159   0.302   2.465
12507TIP3   OH237477   3.949   3.050   1.658
12507TIP3    H137478   3.914   2.975   1.707
12507TIP3    H237479   4.024   3.014   1.610
12508TIP3   OH237480   0.319   7.524   4.865
12508TIP3    H137481   0.389   7.576   4.903
12508TIP3    H237482   0.351   7.434   4.870
12509TIP3   OH237483   2.221   3.127   6.505
12509TIP3    H137484   2.253   3.048   6.460
12509TIP3    H237485   2.240   3.198   6.443
12510TIP3   OH237486   6.008   4.543   3.779
12510TIP3    H137487   5.914   4.557   3.766
12510TIP3    H237488   6.049   4.618   3.737
12511TIP3   OH237489   2.141   2.161   3.949
12511TIP3    H137490   2.146   2.206   3.864
12511TIP3    H237491   2.115   2.072   3.927
12512TIP3   OH237492   1.876   1.682   3.683
12512TIP3    H137493   1.964   1.714   3.660
12512TIP3    H237494   1.832   1.758   3.721
12513TIP3   OH237495   5.430   5.696   5.177
12513TIP3    H137496   5.355   5.685   5.119
12513TIP3    H237497   5.424   5.623   5.238
12514TIP3   OH237498   6.109   5.718   3.562
12514TIP3    H137499   6.187   5.664   3.579
12514TIP3    H237500   6.139   5.808   3.577
12515TIP3   OH237501   4.613   4.553   4.635
12515TIP3    H137502   4.618   4.566   4.730
12515TIP3    H237503   4.528   4.511   4.621
12516TIP3   OH237504   0.556   6.694   4.522
12516TIP3    H137505   0.579   6.786   4.538
12516TIP3    H237506   0.463   6.697   4.499
12517TIP3   OH237507   2.445   4.734   1.383
12517TIP3    H137508   2.375   4.671   1.401
12517TIP3    H237509   2.403   4.820   1.395
12518TIP3   OH237510   2.022   2.131   5.789
12518TIP3    H137511   2.068   2.081   5.723
12518TIP3    H237512   2.090   2.163   5.848
12519TIP3   OH237513   5.433   1.672   4.055
12519TIP3    H137514   5.436   1.668   3.959
12519TIP3    H237515   5.523   1.695   4.081
12520TIP3   OH237516   4.271   6.335   1.224
12520TIP3    H137517   4.335   6.390   1.178
12520TIP3    H237518   4.234   6.279   1.156
12521TIP3   OH237519   7.932   3.149   3.237
12521TIP3    H137520   7.883   3.075   3.270
12521TIP3    H237521   7.866   3.214   3.213
12522TIP3   OH237522   8.224   3.477   6.220
12522TIP3    H137523   8.164   3.477   6.295
12522TIP3    H237524   8.166   3.477   6.143
12523TIP3   OH237525   5.558   1.279   2.707
12523TIP3    H137526   5.608   1.247   2.632
12523TIP3    H237527   5.560   1.208   2.770
12524TIP3   OH237528   1.820   6.594   5.370
12524TIP3    H137529   1.851   6.532   5.303
12524TIP3    H237530   1.895   6.608   5.427
12525TIP3   OH237531   6.774   4.128   1.684
12525TIP3    H137532   6.813   4.125   1.771
12525TIP3    H237533   6.845   4.103   1.625
12526TIP3   OH237534   7.498   1.936   3.115
12526TIP3    H137535   7.523   2.018   3.158
12526TIP3    H237536   7.573   1.913   3.061
12527TIP3   OH237537   0.789   6.872   5.567
12527TIP3    H137538   0.798   6.846   5.659
12527TIP3    H237539   0.879   6.878   5.535
12528TIP3   OH237540   4.494   2.593   3.102
12528TIP3    H137541   4.556   2.542   3.050
12528TIP3    H237542   4.454   2.653   3.040
12529TIP3   OH237543   7.843   2.442   2.590
12529TIP3    H137544   7.874   2.417   2.503
12529TIP3    H237545   7.916   2.420   2.648
12530TIP3   OH237546   8.257   1.694   6.046
12530TIP3    H137547   8.268   1.739   6.130
12530TIP3    H237548   8.240   1.763   5.983
12531TIP3   OH237549   6.628   2.397   6.339
12531TIP3    H137550   6.602   2.305   6.344
12531TIP3    H237551   6.705   2.398   6.282
12532TIP3   OH237552   8.280   4.374   2.070
12532TIP3    H137553   8.317   4.349   2.154
12532TIP3    H237554   8.197   4.418   2.091
12533TIP3   OH237555   6.694   6.725   0.291
12533TIP3    H137556   6.731   6.775   0.217
12533TIP3    H237557   6.626   6.782   0.327
12534TIP3   OH237558   6.610   0.600   4.319
12534TIP3    H137559   6.577   0.589   4.230
12534TIP3    H237560   6.571   0.681   4.350
12535TIP3   OH237561   8.060   2.296   5.637
12535TIP3    H137562   8.082   2.247   5.558
12535TIP3    H237563   8.134   2.356   5.649
12536TIP3   OH237564   3.790   0.908   5.569
12536TIP3    H137565   3.787   0.904   5.665
12536TIP3    H237566   3.853   0.840   5.544
12537TIP3   OH237567   4.980   0.159   5.409
12537TIP3    H137568   4.918   0.223   5.376
12537TIP3    H237569   4.936   0.074   5.400
12538TIP3   OH237570   1.803   3.937   5.256
12538TIP3    H137571   1.788   3.915   5.164
12538TIP3    H237572   1.896   3.919   5.270
12539TIP3   OH237573   2.283   4.583   6.723
12539TIP3    H137574   2.330   4.504   6.750
12539TIP3    H237575   2.199   4.551   6.691
12540TIP3   OH237576  -0.003   2.751   1.662
12540TIP3    H137577  -0.015   2.714   1.575
12540TIP3    H237578   0.079   2.800   1.656
12541TIP3   OH237579   7.736   4.058   4.827
12541TIP3    H137580   7.830   4.075   4.840
12541TIP3    H237581   7.710   4.119   4.759
12542TIP3   OH237582   1.779   2.917   5.607
12542TIP3    H137583   1.718   2.883   5.673
12542TIP3    H237584   1.754   3.009   5.596
12543TIP3   OH237585   1.238   5.630   3.515
12543TIP3    H137586   1.252   5.679   3.434
12543TIP3    H237587   1.178   5.559   3.491
12544TIP3   OH237588   0.792   6.594   3.809
12544TIP3    H137589   0.861   6.590   3.742
12544TIP3    H237590   0.712   6.610   3.759
12545TIP3   OH237591   5.299   6.040   5.099
12545TIP3    H137592   5.220   5.999   5.133
12545TIP3    H237593   5.320   6.109   5.161
12546TIP3   OH237594   7.490   5.806   3.325
12546TIP3    H137595   7.505   5.716   3.297
12546TIP3    H237596   7.406   5.804   3.370
12547TIP3   OH237597   0.543   7.228   4.586
12547TIP3    H137598   0.637   7.248   4.586
12547TIP3    H237599   0.508   7.279   4.513
12548TIP3   OH237600   3.525   2.630   0.029
12548TIP3    H137601   3.555   2.717   0.005
12548TIP3    H237602   3.595   2.595   0.084
12549TIP3   OH237603   5.312   3.828   2.389
12549TIP3    H137604   5.350   3.752   2.434
12549TIP3    H237605   5.260   3.791   2.319
12550TIP3   OH237606   3.009   3.653   5.611
12550TIP3    H137607   2.959   3.627   5.534
12550TIP3    H237608   3.085   3.699   5.575
12551TIP3   OH237609   5.861   4.284   3.925
12551TIP3    H137610   5.870   4.378   3.936
12551TIP3    H237611   5.950   4.252   3.911
12552TIP3   OH237612   3.568   4.077   4.483
12552TIP3    H137613   3.556   4.148   4.420
12552TIP3    H237614   3.632   4.019   4.442
12553TIP3   OH237615   7.055   7.484   4.172
12553TIP3    H137616   7.137   7.532   4.184
12553TIP3    H237617   7.071   7.398   4.211
12554TIP3   OH237618   5.048   1.947   5.452
12554TIP3    H137619   5.054   1.938   5.547
12554TIP3    H237620   5.037   1.857   5.420
12555TIP3   OH237621   6.392   4.813   3.193
12555TIP3    H137622   6.431   4.883   3.246
12555TIP3    H237623   6.450   4.805   3.117
12556TIP3   OH237624   0.157   3.379   1.447
12556TIP3    H137625   0.156   3.415   1.358
12556TIP3    H237626   0.192   3.449   1.501
12557TIP3   OH237627   3.670   5.842   0.023
12557TIP3    H137628   3.619   5.787  -0.036
12557TIP3    H237629   3.759   5.809   0.016
12558TIP3   OH237630   4.355   5.581   1.830
12558TIP3    H137631   4.360   5.552   1.921
12558TIP3    H237632   4.423   5.648   1.822
12559TIP3   OH237633   0.200   1.176   1.215
12559TIP3    H137634   0.246   1.219   1.144
12559TIP3    H237635   0.200   1.083   1.192
12560TIP3   OH237636   1.361   6.444   4.093
12560TIP3    H137637   1.456   6.454   4.093
12560TIP3    H237638   1.335   6.472   4.005
12561TIP3   OH237639   6.529   5.891   5.899
12561TIP3    H137640   6.555   5.982   5.918
12561TIP3    H237641   6.506   5.854   5.984
12562TIP3   OH237642   5.795   1.121   3.321
12562TIP3    H137643   5.753   1.179   3.257
12562TIP3    H237644   5.784   1.166   3.405
12563TIP3   OH237645   0.156   0.552   0.119
12563TIP3    H137646   0.248   0.563   0.145
12563TIP3    H237647   0.149   0.461   0.092
12564TIP3   OH237648   6.986   0.286   4.041
12564TIP3    H137649   6.896   0.267   4.069
12564TIP3    H237650   7.024   0.336   4.113
12565TIP3   OH237651   5.468   2.971   0.171
12565TIP3    H137652   5.397   2.926   0.124
12565TIP3    H237653   5.494   3.042   0.112
12566TIP3   OH237654   2.428   0.002   6.179
12566TIP3    H137655   2.445   0.068   6.111
12566TIP3    H237656   2.515  -0.020   6.213
12567TIP3   OH237657   1.004   5.014   1.368
12567TIP3    H137658   1.006   5.071   1.291
12567TIP3    H237659   0.986   4.927   1.333
12568TIP3   OH237660   7.741   2.433   4.834
12568TIP3    H137661   7.705   2.355   4.792
12568TIP3    H237662   7.674   2.460   4.897
12569TIP3   OH237663   5.030   4.731   6.650
12569TIP3    H137664   5.009   4.675   6.575
12569TIP3    H237665   4.984   4.813   6.631
12570TIP3   OH237666   6.317   2.494   0.684
12570TIP3    H137667   6.339   2.531   0.769
12570TIP3    H237668   6.269   2.563   0.639
12571TIP3   OH237669   7.116   4.038   3.835
12571TIP3    H137670   7.144   3.948   3.855
12571TIP3    H237671   7.165   4.060   3.756
12572TIP3   OH237672   2.859   2.499   2.217
12572TIP3    H137673   2.926   2.431   2.206
12572TIP3    H237674   2.844   2.532   2.128
12573TIP3   OH237675   3.907   0.666   2.379
12573TIP3    H137676   3.884   0.690   2.469
12573TIP3    H237677   3.858   0.727   2.324
12574TIP3   OH237678   0.133   7.081   5.379
12574TIP3    H137679   0.114   7.166   5.418
12574TIP3    H237680   0.140   7.021   5.454
12575TIP3   OH237681   7.656   6.879   1.845
12575TIP3    H137682   7.644   6.794   1.888
12575TIP3    H237683   7.751   6.890   1.840
12576TIP3   OH237684   5.251   4.992   1.373
12576TIP3    H137685   5.335   5.008   1.416
12576TIP3    H237686   5.269   5.000   1.280
12577TIP3   OH237687   1.099   1.470   0.905
12577TIP3    H137688   1.129   1.534   0.970
12577TIP3    H237689   1.104   1.517   0.822
12578TIP3   OH237690   4.144   3.037   2.428
12578TIP3    H137691   4.104   3.066   2.511
12578TIP3    H237692   4.077   3.057   2.362
12579TIP3   OH237693   7.664   3.917   4.591
12579TIP3    H137694   7.635   3.955   4.674
12579TIP3    H237695   7.591   3.862   4.563
12580TIP3   OH237696   4.849   3.812   3.039
12580TIP3    H137697   4.816   3.864   3.112
12580TIP3    H237698   4.935   3.849   3.020
12581TIP3   OH237699   7.136   1.863   2.011
12581TIP3    H137700   7.186   1.932   2.056
12581TIP3    H237701   7.187   1.845   1.932
12582TIP3   OH237702   6.688   5.531   3.842
12582TIP3    H137703   6.653   5.571   3.763
12582TIP3    H237704   6.627   5.460   3.863
12583TIP3   OH237705   7.495   6.854   6.655
12583TIP3    H137706   7.442   6.778   6.679
12583TIP3    H237707   7.540   6.827   6.575
12584TIP3   OH237708   7.915   6.626   0.891
12584TIP3    H137709   7.884   6.616   0.801
12584TIP3    H237710   7.841   6.597   0.945
12585TIP3   OH237711   4.381   1.870   2.193
12585TIP3    H137712   4.404   1.894   2.103
12585TIP3    H237713   4.463   1.879   2.242
12586TIP3   OH237714   4.725   4.678   6.686
12586TIP3    H137715   4.746   4.597   6.641
12586TIP3    H237716   4.704   4.651   6.775
12587TIP3   OH237717   0.771   4.277   2.902
12587TIP3    H137718   0.852   4.325   2.887
12587TIP3    H237719   0.769   4.211   2.833
12588TIP3   OH237720   3.814   1.705   4.622
12588TIP3    H137721   3.858   1.707   4.538
12588TIP3    H237722   3.810   1.796   4.650
12589TIP3   OH237723   4.277   0.730   4.468
12589TIP3    H137724   4.235   0.688   4.544
12589TIP3    H237725   4.360   0.684   4.458
12590TIP3   OH237726   3.155   7.612   6.664
12590TIP3    H137727   3.228   7.653   6.710
12590TIP3    H237728   3.089   7.682   6.657
12591TIP3   OH237729   8.142   3.749   2.120
12591TIP3    H137730   8.138   3.844   2.112
12591TIP3    H237731   8.054   3.719   2.096
12592TIP3   OH237732  -0.013   7.719   5.223
12592TIP3    H137733   0.033   7.792   5.264
12592TIP3    H237734   0.037   7.701   5.143
12593TIP3   OH237735   1.227   6.724   5.315
12593TIP3    H137736   1.167   6.721   5.240
12593TIP3    H237737   1.216   6.638   5.357
12594TIP3   OH237738   2.755   0.068   3.443
12594TIP3    H137739   2.841   0.027   3.435
12594TIP3    H237740   2.726   0.044   3.532
12595TIP3   OH237741   1.831   1.403   0.009
12595TIP3    H137742   1.877   1.331   0.052
12595TIP3    H237743   1.869   1.482   0.047
12596TIP3   OH237744   3.523   2.907   1.627
12596TIP3    H137745   3.592   2.867   1.679
12596TIP3    H237746   3.549   2.890   1.536
12597TIP3   OH237747   7.658   6.564   4.726
12597TIP3    H137748   7.707   6.484   4.707
12597TIP3    H237749   7.612   6.545   4.808
12598TIP3   OH237750   6.640   5.230   5.958
12598TIP3    H137751   6.659   5.272   6.042
12598TIP3    H237752   6.545   5.233   5.951
12599TIP3   OH237753   4.265   7.156   3.677
12599TIP3    H137754   4.219   7.156   3.761
12599TIP3    H237755   4.195   7.156   3.612
12600TIP3   OH237756   4.010   6.611   2.707
12600TIP3    H137757   4.068   6.553   2.756
12600TIP3    H237758   4.018   6.581   2.616
12601TIP3   OH237759   7.282   0.515   5.038
12601TIP3    H137760   7.281   0.522   4.942
12601TIP3    H237761   7.190   0.523   5.063
12602TIP3   OH237762   6.797   3.898   4.055
12602TIP3    H137763   6.862   3.843   4.011
12602TIP3    H237764   6.725   3.904   3.993
12603TIP3   OH237765   4.551   0.552   5.274
12603TIP3    H137766   4.612   0.515   5.337
12603TIP3    H237767   4.607   0.601   5.213
12604TIP3   OH237768   2.021   0.540   0.077
12604TIP3    H137769   1.953   0.542   0.144
12604TIP3    H237770   2.058   0.453   0.083
12605TIP3   OH237771   6.861   3.919   6.500
12605TIP3    H137772   6.807   3.982   6.453
12605TIP3    H237773   6.805   3.841   6.509
12606TIP3   OH237774   7.967   1.632   1.928
12606TIP3    H137775   7.938   1.647   2.018
12606TIP3    H237776   7.889   1.646   1.875
12607TIP3   OH237777   2.754   5.105   1.967
12607TIP3    H137778   2.843   5.118   2.000
12607TIP3    H237779   2.738   5.180   1.910
12608TIP3   OH237780   7.735   5.341   5.590
12608TIP3    H137781   7.805   5.400   5.616
12608TIP3    H237782   7.654   5.390   5.608
12609TIP3   OH237783   3.326   4.824   3.604
12609TIP3    H137784   3.333   4.891   3.536
12609TIP3    H237785   3.237   4.789   3.595
12610TIP3   OH237786   8.021   1.430   4.749
12610TIP3    H137787   8.009   1.415   4.843
12610TIP3    H237788   8.115   1.422   4.735
12611TIP3   OH237789   4.630   4.567   2.012
12611TIP3    H137790   4.550   4.535   2.054
12611TIP3    H237791   4.620   4.662   2.012
12612TIP3   OH237792   7.984   1.867   2.257
12612TIP3    H137793   7.934   1.947   2.242
12612TIP3    H237794   7.919   1.797   2.250
12613TIP3   OH237795   2.929   5.026   6.241
12613TIP3    H137796   3.011   4.983   6.216
12613TIP3    H237797   2.888   4.967   6.303
12614TIP3   OH237798   1.153   6.726   1.386
12614TIP3    H137799   1.136   6.730   1.292
12614TIP3    H237800   1.074   6.762   1.426
12615TIP3   OH237801   2.596   4.317   4.670
12615TIP3    H137802   2.636   4.320   4.583
12615TIP3    H237803   2.652   4.257   4.720
12616TIP3   OH237804   5.239   7.594   4.535
12616TIP3    H137805   5.199   7.508   4.551
12616TIP3    H237806   5.286   7.583   4.452
12617TIP3   OH237807   6.845   3.461   1.371
12617TIP3    H137808   6.915   3.481   1.308
12617TIP3    H237809   6.886   3.400   1.433
12618TIP3   OH237810   6.086   3.008   3.102
12618TIP3    H137811   6.099   2.939   3.037
12618TIP3    H237812   5.994   3.032   3.094
12619TIP3   OH237813   6.029   4.365   1.679
12619TIP3    H137814   6.040   4.290   1.620
12619TIP3    H237815   6.102   4.359   1.740
12620TIP3   OH237816   4.780   0.062   2.389
12620TIP3    H137817   4.876   0.062   2.389
12620TIP3    H237818   4.757   0.136   2.332
12621TIP3   OH237819   6.614   6.203   6.237
12621TIP3    H137820   6.672   6.185   6.311
12621TIP3    H237821   6.532   6.231   6.278
12622TIP3   OH237822   2.901   1.946   5.575
12622TIP3    H137823   2.838   2.016   5.557
12622TIP3    H237824   2.944   1.931   5.491
12623TIP3   OH237825   5.548   2.638   5.073
12623TIP3    H137826   5.632   2.673   5.103
12623TIP3    H237827   5.530   2.687   4.993
12624TIP3   OH237828   1.238   7.201   1.019
12624TIP3    H137829   1.187   7.132   0.977
12624TIP3    H237830   1.194   7.282   0.994
12625TIP3   OH237831   2.670   6.011   4.198
12625TIP3    H137832   2.622   6.048   4.124
12625TIP3    H237833   2.615   5.938   4.228
12626TIP3   OH237834   7.701   3.648   4.060
12626TIP3    H137835   7.660   3.596   4.129
12626TIP3    H237836   7.734   3.726   4.104
12627TIP3   OH237837   8.249   7.095   4.687
12627TIP3    H137838   8.335   7.122   4.719
12627TIP3    H237839   8.212   7.043   4.759
12628TIP3   OH237840   5.479   0.403   5.004
12628TIP3    H137841   5.492   0.498   5.002
12628TIP3    H237842   5.390   0.391   5.037
12629TIP3   OH237843   3.473   3.852   3.061
12629TIP3    H137844   3.544   3.807   3.107
12629TIP3    H237845   3.431   3.906   3.128
12630TIP3   OH237846   7.053   7.336   2.369
12630TIP3    H137847   7.086   7.315   2.282
12630TIP3    H237848   6.989   7.268   2.388
12631TIP3   OH237849   0.650   2.223   4.650
12631TIP3    H137850   0.615   2.136   4.631
12631TIP3    H237851   0.668   2.222   4.744
12632TIP3   OH237852   1.386   5.893   1.892
12632TIP3    H137853   1.374   5.874   1.799
12632TIP3    H237854   1.298   5.886   1.929
12633TIP3   OH237855   2.149   5.135   1.289
12633TIP3    H137856   2.055   5.152   1.281
12633TIP3    H237857   2.191   5.215   1.259
12634TIP3   OH237858   6.429   3.208   0.289
12634TIP3    H137859   6.467   3.192   0.203
12634TIP3    H237860   6.334   3.211   0.273
12635TIP3   OH237861   0.347   4.926   3.692
12635TIP3    H137862   0.297   4.869   3.751
12635TIP3    H237863   0.293   5.005   3.684
12636TIP3   OH237864   1.643   7.717   5.267
12636TIP3    H137865   1.555   7.739   5.298
12636TIP3    H237866   1.688   7.684   5.345
12637TIP3   OH237867   5.271   4.140   3.867
12637TIP3    H137868   5.325   4.135   3.788
12637TIP3    H237869   5.331   4.165   3.936
12638TIP3   OH237870   1.894   3.243   1.735
12638TIP3    H137871   1.889   3.157   1.778
12638TIP3    H237872   1.889   3.306   1.807
12639TIP3   OH237873   2.218   2.386   3.716
12639TIP3    H137874   2.238   2.477   3.736
12639TIP3    H237875   2.125   2.386   3.694
12640TIP3   OH237876   4.178   7.477   0.237
12640TIP3    H137877   4.220   7.392   0.232
12640TIP3    H237878   4.181   7.500   0.330
12641TIP3   OH237879   8.267   3.808   1.400
12641TIP3    H137880   8.213   3.789   1.324
12641TIP3    H237881   8.248   3.899   1.422
12642TIP3   OH237882   0.369   3.186   5.780
12642TIP3    H137883   0.275   3.183   5.760
12642TIP3    H237884   0.405   3.108   5.738
12643TIP3   OH237885   1.239   5.150   3.979
12643TIP3    H137886   1.211   5.063   4.009
12643TIP3    H237887   1.158   5.190   3.947
12644TIP3   OH237888   0.378   1.550   5.103
12644TIP3    H137889   0.327   1.469   5.102
12644TIP3    H237890   0.457   1.529   5.054
12645TIP3   OH237891   7.463   5.548   0.642
12645TIP3    H137892   7.535   5.565   0.580
12645TIP3    H237893   7.388   5.594   0.605
12646TIP3   OH237894   0.653   5.605   5.633
12646TIP3    H137895   0.695   5.526   5.667
12646TIP3    H237896   0.645   5.590   5.539
12647TIP3   OH237897   2.460   3.318   3.935
12647TIP3    H137898   2.396   3.273   3.990
12647TIP3    H237899   2.450   3.411   3.957
12648TIP3   OH237900   4.289   3.933   2.716
12648TIP3    H137901   4.208   3.883   2.728
12648TIP3    H237902   4.294   3.948   2.622
12649TIP3   OH237903   7.340   5.290   0.296
12649TIP3    H137904   7.357   5.239   0.217
12649TIP3    H237905   7.246   5.277   0.312
12650TIP3   OH237906   3.223   3.480   1.731
12650TIP3    H137907   3.226   3.419   1.805
12650TIP3    H237908   3.296   3.541   1.747
12651TIP3   OH237909   5.408   2.074   4.255
12651TIP3    H137910   5.495   2.093   4.219
12651TIP3    H237911   5.350   2.074   4.179
12652TIP3   OH237912   4.775   5.565   6.408
12652TIP3    H137913   4.730   5.600   6.485
12652TIP3    H237914   4.793   5.642   6.354
12653TIP3   OH237915   1.004   2.059   3.558
12653TIP3    H137916   0.913   2.068   3.589
12653TIP3    H237917   1.000   1.989   3.493
12654TIP3   OH237918   4.517   6.014   5.782
12654TIP3    H137919   4.488   6.092   5.829
12654TIP3    H237920   4.439   5.984   5.734
12655TIP3   OH237921   4.936   3.406   2.398
12655TIP3    H137922   4.964   3.448   2.317
12655TIP3    H237923   4.857   3.358   2.374
12656TIP3   OH237924   0.490   1.367   0.360
12656TIP3    H137925   0.470   1.373   0.266
12656TIP3    H237926   0.543   1.288   0.368
12657TIP3   OH237927   0.475   6.129   2.856
12657TIP3    H137928   0.431   6.046   2.840
12657TIP3    H237929   0.514   6.119   2.943
12658TIP3   OH237930   3.090   6.431   0.752
12658TIP3    H137931   3.102   6.522   0.724
12658TIP3    H237932   2.996   6.420   0.757
12659TIP3   OH237933   4.560   0.150   2.830
12659TIP3    H137934   4.609   0.143   2.748
12659TIP3    H237935   4.552   0.060   2.861
12660TIP3   OH237936   0.508   1.951   5.484
12660TIP3    H137937   0.425   1.917   5.519
12660TIP3    H237938   0.575   1.896   5.524
12661TIP3   OH237939   6.815   2.167   5.345
12661TIP3    H137940   6.894   2.213   5.317
12661TIP3    H237941   6.823   2.161   5.440
12662TIP3   OH237942   6.072   7.313   0.811
12662TIP3    H137943   6.036   7.275   0.731
12662TIP3    H237944   6.101   7.238   0.862
12663TIP3   OH237945   1.109   6.180   4.634
12663TIP3    H137946   1.123   6.091   4.664
12663TIP3    H237947   1.043   6.172   4.564
12664TIP3   OH237948   5.259   1.593   5.640
12664TIP3    H137949   5.280   1.545   5.720
12664TIP3    H237950   5.241   1.524   5.575
12665TIP3   OH237951   5.974   5.032   2.387
12665TIP3    H137952   5.927   5.113   2.369
12665TIP3    H237953   6.043   5.029   2.321
12666TIP3   OH237954   7.703   1.307   3.957
12666TIP3    H137955   7.780   1.253   3.940
12666TIP3    H237956   7.699   1.312   4.052
12667TIP3   OH237957   5.340   4.733   2.059
12667TIP3    H137958   5.331   4.792   2.133
12667TIP3    H237959   5.392   4.660   2.092
12668TIP3   OH237960   2.010   6.436   2.238
12668TIP3    H137961   2.103   6.461   2.246
12668TIP3    H237962   2.009   6.371   2.168
12669TIP3   OH237963   3.425   1.347   5.812
12669TIP3    H137964   3.455   1.437   5.799
12669TIP3    H237965   3.401   1.317   5.724
12670TIP3   OH237966   5.635   6.989   2.882
12670TIP3    H137967   5.594   6.922   2.937
12670TIP3    H237968   5.564   7.021   2.827
12671TIP3   OH237969   7.235   5.586   5.284
12671TIP3    H137970   7.153   5.600   5.332
12671TIP3    H237971   7.301   5.577   5.353
12672TIP3   OH237972   7.277   6.043   2.104
12672TIP3    H137973   7.292   6.116   2.044
12672TIP3    H237974   7.356   6.038   2.157
12673TIP3   OH237975   0.121   4.494   0.734
12673TIP3    H137976   0.216   4.489   0.732
12673TIP3    H237977   0.094   4.469   0.645
12674TIP3   OH237978   5.744   2.193   0.473
12674TIP3    H137979   5.830   2.172   0.436
12674TIP3    H237980   5.691   2.219   0.397
12675TIP3   OH237981   3.362   1.779   1.817
12675TIP3    H137982   3.290   1.740   1.867
12675TIP3    H237983   3.329   1.784   1.727
12676TIP3   OH237984   2.464   5.215   0.470
12676TIP3    H137985   2.384   5.167   0.446
12676TIP3    H237986   2.436   5.307   0.473
12677TIP3   OH237987   4.293   2.846   4.639
12677TIP3    H137988   4.213   2.799   4.616
12677TIP3    H237989   4.273   2.938   4.621
12678TIP3   OH237990   0.264   4.786   0.515
12678TIP3    H137991   0.213   4.704   0.518
12678TIP3    H237992   0.203   4.851   0.481
12679TIP3   OH237993   6.378   3.007   6.623
12679TIP3    H137994   6.316   2.998   6.550
12679TIP3    H237995   6.348   2.944   6.688
12680TIP3   OH237996   5.723   3.919   1.216
12680TIP3    H137997   5.722   3.825   1.202
12680TIP3    H237998   5.667   3.933   1.292
12681TIP3   OH237999   4.534   4.807   6.043
12681TIP3    H138000   4.563   4.762   6.123
12681TIP3    H238001   4.605   4.869   6.025
12682TIP3   OH238002   7.132   4.118   5.051
12682TIP3    H138003   7.135   4.065   5.131
12682TIP3    H238004   7.224   4.134   5.029
12683TIP3   OH238005   6.895   2.487   5.811
12683TIP3    H138006   6.883   2.475   5.717
12683TIP3    H238007   6.854   2.571   5.830
12684TIP3   OH238008   4.259   7.337   2.220
12684TIP3    H138009   4.312   7.291   2.155
12684TIP3    H238010   4.321   7.360   2.290
12685TIP3   OH238011   0.694   2.757   1.549
12685TIP3    H138012   0.629   2.740   1.481
12685TIP3    H238013   0.648   2.742   1.631
12686TIP3   OH238014   0.268   3.526   2.762
12686TIP3    H138015   0.320   3.576   2.825
12686TIP3    H238016   0.310   3.439   2.760
12687TIP3   OH238017   4.862   0.102   4.394
12687TIP3    H138018   4.858   0.019   4.345
12687TIP3    H238019   4.907   0.080   4.476
12688TIP3   OH238020   0.121   0.044   2.028
12688TIP3    H138021   0.053   0.108   2.006
12688TIP3    H238022   0.095   0.009   2.113
12689TIP3   OH238023   2.378   1.072   5.370
12689TIP3    H138024   2.397   1.038   5.283
12689TIP3    H238025   2.303   1.021   5.400
12690TIP3   OH238026   4.247   7.111   4.929
12690TIP3    H138027   4.175   7.096   4.868
12690TIP3    H238028   4.206   7.114   5.015
12691TIP3   OH238029   7.159   3.219   6.358
12691TIP3    H138030   7.069   3.211   6.390
12691TIP3    H238031   7.153   3.209   6.263
12692TIP3   OH238032   6.278   2.348   6.078
12692TIP3    H138033   6.307   2.377   5.992
12692TIP3    H238034   6.344   2.284   6.106
12693TIP3   OH238035   2.790   6.392   0.254
12693TIP3    H138036   2.755   6.450   0.186
12693TIP3    H238037   2.879   6.424   0.269
12694TIP3   OH238038   6.179   4.048   1.821
12694TIP3    H138039   6.148   3.960   1.841
12694TIP3    H238040   6.271   4.037   1.796
12695TIP3   OH238041   7.038   7.446   0.404
12695TIP3    H138042   6.972   7.391   0.446
12695TIP3    H238043   7.023   7.533   0.441
12696TIP3   OH238044   0.055   5.422   1.906
12696TIP3    H138045   0.077   5.354   1.843
12696TIP3    H238046  -0.034   5.448   1.883
12697TIP3   OH238047   8.139   2.241   6.365
12697TIP3    H138048   8.079   2.170   6.389
12697TIP3    H238049   8.198   2.201   6.300
12698TIP3   OH238050   2.197   4.711   3.069
12698TIP3    H138051   2.194   4.681   2.978
12698TIP3    H238052   2.161   4.639   3.120
12699TIP3   OH238053   6.305   0.086   4.741
12699TIP3    H138054   6.276  -0.003   4.762
12699TIP3    H238055   6.362   0.075   4.665
12700TIP3   OH238056   4.775   4.127   5.952
12700TIP3    H138057   4.696   4.175   5.976
12700TIP3    H238058   4.764   4.042   5.995
12701TIP3   OH238059   5.161   0.703   1.316
12701TIP3    H138060   5.100   0.642   1.275
12701TIP3    H238061   5.196   0.655   1.392
12702TIP3   OH238062   1.378   1.373   5.110
12702TIP3    H138063   1.443   1.382   5.040
12702TIP3    H238064   1.375   1.460   5.151
12703TIP3   OH238065   0.284   1.787   6.084
12703TIP3    H138066   0.307   1.869   6.127
12703TIP3    H238067   0.254   1.730   6.155
12704TIP3   OH238068   5.290   7.437   0.411
12704TIP3    H138069   5.246   7.457   0.494
12704TIP3    H238070   5.380   7.417   0.436
12705TIP3   OH238071   3.661   4.839   6.666
12705TIP3    H138072   3.738   4.790   6.636
12705TIP3    H238073   3.697   4.923   6.696
12706TIP3   OH238074   8.167   4.902   6.733
12706TIP3    H138075   8.240   4.844   6.713
12706TIP3    H238076   8.119   4.857   6.803
12707TIP3   OH238077   6.536   2.362   2.144
12707TIP3    H138078   6.565   2.271   2.142
12707TIP3    H238079   6.442   2.357   2.129
12708TIP3   OH238080   5.895   1.677   0.445
12708TIP3    H138081   5.821   1.729   0.477
12708TIP3    H238082   5.972   1.721   0.482
12709TIP3   OH238083   3.898   4.720   5.897
12709TIP3    H138084   3.897   4.670   5.815
12709TIP3    H238085   3.871   4.808   5.873
12710TIP3   OH238086   3.104   3.776   6.420
12710TIP3    H138087   3.189   3.741   6.395
12710TIP3    H238088   3.085   3.736   6.505
12711TIP3   OH238089   2.916   4.989   3.432
12711TIP3    H138090   2.871   4.995   3.348
12711TIP3    H238091   2.908   5.077   3.470
12712TIP3   OH238092   5.953   4.858   6.079
12712TIP3    H138093   5.858   4.845   6.080
12712TIP3    H238094   5.986   4.802   6.150
12713TIP3   OH238095   0.073   0.703   1.049
12713TIP3    H138096   0.112   0.616   1.060
12713TIP3    H238097   0.026   0.699   0.966
12714TIP3   OH238098   5.869   6.364   2.913
12714TIP3    H138099   5.964   6.366   2.926
12714TIP3    H238100   5.845   6.455   2.896
12715TIP3   OH238101   7.136   5.951   5.041
12715TIP3    H138102   7.077   5.880   5.066
12715TIP3    H238103   7.127   6.016   5.111
12716TIP3   OH238104   5.469   2.272   4.449
12716TIP3    H138105   5.430   2.350   4.411
12716TIP3    H238106   5.435   2.199   4.397
12717TIP3   OH238107   5.945   0.916   6.752
12717TIP3    H138108   5.971   0.832   6.790
12717TIP3    H238109   5.850   0.914   6.754
12718TIP3   OH238110   1.212   5.625   6.676
12718TIP3    H138111   1.158   5.548   6.695
12718TIP3    H238112   1.207   5.678   6.756
12719TIP3   OH238113   4.508   1.451   2.425
12719TIP3    H138114   4.571   1.511   2.466
12719TIP3    H238115   4.439   1.507   2.392
12720TIP3   OH238116   5.513   4.386   3.469
12720TIP3    H138117   5.536   4.314   3.409
12720TIP3    H238118   5.417   4.385   3.472
12721TIP3   OH238119   1.835   7.193   5.821
12721TIP3    H138120   1.845   7.272   5.767
12721TIP3    H238121   1.793   7.130   5.762
12722TIP3   OH238122   3.588   0.876   5.913
12722TIP3    H138123   3.677   0.901   5.887
12722TIP3    H238124   3.599   0.836   5.999
12723TIP3   OH238125   3.426   0.298   6.188
12723TIP3    H138126   3.445   0.299   6.281
12723TIP3    H238127   3.507   0.328   6.146
12724TIP3   OH238128   7.522   3.253   5.411
12724TIP3    H138129   7.508   3.241   5.317
12724TIP3    H238130   7.486   3.340   5.430
12725TIP3   OH238131   7.737   1.771   5.619
12725TIP3    H138132   7.691   1.855   5.624
12725TIP3    H238133   7.828   1.794   5.636
12726TIP3   OH238134   4.107   0.981   1.465
12726TIP3    H138135   4.083   0.889   1.456
12726TIP3    H238136   4.148   0.986   1.551
12727TIP3   OH238137   1.800   4.916   5.302
12727TIP3    H138138   1.841   4.830   5.308
12727TIP3    H238139   1.761   4.929   5.389
12728TIP3   OH238140   2.249   6.917   3.162
12728TIP3    H138141   2.311   6.884   3.227
12728TIP3    H238142   2.195   6.842   3.139
12729TIP3   OH238143   7.792   0.530   1.439
12729TIP3    H138144   7.760   0.554   1.352
12729TIP3    H238145   7.751   0.445   1.456
12730TIP3   OH238146   4.513   6.958   0.117
12730TIP3    H138147   4.537   6.951   0.025
12730TIP3    H238148   4.596   6.948   0.164
12731TIP3   OH238149   4.552   6.953   3.732
12731TIP3    H138150   4.523   6.909   3.812
12731TIP3    H238151   4.569   7.043   3.759
12732TIP3   OH238152   8.082   1.109   5.401
12732TIP3    H138153   8.012   1.103   5.466
12732TIP3    H238154   8.111   1.019   5.388
12733TIP3   OH238155   1.696   4.540   3.493
12733TIP3    H138156   1.688   4.631   3.521
12733TIP3    H238157   1.724   4.493   3.571
12734TIP3   OH238158   5.113   2.741   5.359
12734TIP3    H138159   5.167   2.783   5.292
12734TIP3    H238160   5.048   2.808   5.382
12735TIP3   OH238161   5.597   2.933   3.554
12735TIP3    H138162   5.549   2.878   3.492
12735TIP3    H238163   5.552   2.921   3.637
12736TIP3   OH238164   0.052   7.176   5.096
12736TIP3    H138165   0.053   7.081   5.105
12736TIP3    H238166   0.041   7.191   5.003
12737TIP3   OH238167   7.039   2.549   0.296
12737TIP3    H138168   6.970   2.615   0.286
12737TIP3    H238169   7.116   2.588   0.255
12738TIP3   OH238170   2.435   4.467   3.792
12738TIP3    H138171   2.392   4.473   3.878
12738TIP3    H238172   2.368   4.496   3.730
12739TIP3   OH238173   6.875   6.823   1.861
12739TIP3    H138174   6.952   6.771   1.839
12739TIP3    H238175   6.847   6.790   1.947
12740TIP3   OH238176   7.428   6.587   6.756
12740TIP3    H138177   7.363   6.627   6.813
12740TIP3    H238178   7.379   6.524   6.703
12741TIP3   OH238179   4.465   4.832   2.206
12741TIP3    H138180   4.410   4.901   2.243
12741TIP3    H238181   4.502   4.787   2.282
12742TIP3   OH238182   6.854   2.152   5.625
12742TIP3    H138183   6.784   2.087   5.617
12742TIP3    H238184   6.818   2.219   5.684
12743TIP3   OH238185   1.743   5.822   4.213
12743TIP3    H138186   1.750   5.747   4.273
12743TIP3    H238187   1.667   5.870   4.246
12744TIP3   OH238188   7.103   5.608   2.949
12744TIP3    H138189   7.178   5.640   2.999
12744TIP3    H238190   7.131   5.523   2.915
12745TIP3   OH238191   7.345   6.581   5.506
12745TIP3    H138192   7.380   6.663   5.541
12745TIP3    H238193   7.324   6.529   5.584
12746TIP3   OH238194   6.231   4.211   2.633
12746TIP3    H138195   6.267   4.300   2.638
12746TIP3    H238196   6.298   4.161   2.586
12747TIP3   OH238197   1.098   6.399   4.060
12747TIP3    H138198   1.108   6.367   3.971
12747TIP3    H238199   1.183   6.382   4.102
12748TIP3   OH238200   2.428   1.817   6.731
12748TIP3    H138201   2.361   1.755   6.759
12748TIP3    H238202   2.414   1.826   6.637
12749TIP3   OH238203   2.889   7.627   3.787
12749TIP3    H138204   2.842   7.562   3.735
12749TIP3    H238205   2.978   7.626   3.752
12750TIP3   OH238206   6.037   2.700   2.109
12750TIP3    H138207   5.967   2.741   2.059
12750TIP3    H238208   5.998   2.680   2.194
12751TIP3   OH238209   0.587   1.084   0.382
12751TIP3    H138210   0.662   1.074   0.440
12751TIP3    H238211   0.620   1.063   0.295
12752TIP3   OH238212   1.510   4.232   3.635
12752TIP3    H138213   1.534   4.297   3.700
12752TIP3    H238214   1.430   4.267   3.594
12753TIP3   OH238215   7.151   5.381   5.879
12753TIP3    H138216   7.152   5.428   5.796
12753TIP3    H238217   7.058   5.369   5.899
12754TIP3   OH238218   4.961   4.517   5.919
12754TIP3    H138219   4.945   4.427   5.891
12754TIP3    H238220   5.056   4.527   5.918
12755TIP3   OH238221   5.129   7.222   4.865
12755TIP3    H138222   5.098   7.308   4.893
12755TIP3    H238223   5.157   7.179   4.946
12756TIP3   OH238224   4.382   5.714   5.286
12756TIP3    H138225   4.473   5.683   5.286
12756TIP3    H238226   4.378   5.776   5.214
12757TIP3   OH238227   2.892   6.207   5.736
12757TIP3    H138228   2.821   6.156   5.696
12757TIP3    H238229   2.889   6.183   5.828
12758TIP3   OH238230   7.688   1.170   4.396
12758TIP3    H138231   7.723   1.201   4.479
12758TIP3    H238232   7.674   1.249   4.344
12759TIP3   OH238233   7.071   1.361   3.392
12759TIP3    H138234   7.078   1.434   3.455
12759TIP3    H238235   7.071   1.283   3.447
12760TIP3   OH238236   2.820   5.177   0.906
12760TIP3    H138237   2.860   5.261   0.885
12760TIP3    H238238   2.774   5.152   0.826
12761TIP3   OH238239   7.885   3.849   1.245
12761TIP3    H138240   7.790   3.848   1.250
12761TIP3    H238241   7.909   3.941   1.259
12762TIP3   OH238242   2.477   4.082   5.286
12762TIP3    H138243   2.479   4.166   5.240
12762TIP3    H238244   2.566   4.072   5.320
12763TIP3   OH238245   7.401   2.781   4.612
12763TIP3    H138246   7.336   2.728   4.568
12763TIP3    H238247   7.373   2.783   4.704
12764TIP3   OH238248   3.383   5.038   3.411
12764TIP3    H138249   3.410   5.083   3.331
12764TIP3    H238250   3.295   5.070   3.428
12765TIP3   OH238251   4.505   2.468   2.199
12765TIP3    H138252   4.517   2.525   2.123
12765TIP3    H238253   4.527   2.522   2.274
12766TIP3   OH238254   0.057   5.453   6.746
12766TIP3    H138255  -0.032   5.436   6.715
12766TIP3    H238256   0.108   5.378   6.714
12767TIP3   OH238257   5.683   7.122   4.260
12767TIP3    H138258   5.761   7.067   4.269
12767TIP3    H238259   5.622   7.087   4.324
12768TIP3   OH238260   0.806   0.188   6.109
12768TIP3    H138261   0.838   0.103   6.079
12768TIP3    H238262   0.858   0.252   6.061
12769TIP3   OH238263   7.173   4.616   1.902
12769TIP3    H138264   7.140   4.591   1.988
12769TIP3    H238265   7.162   4.711   1.899
12770TIP3   OH238266   8.137   5.970   3.187
12770TIP3    H138267   8.153   6.047   3.133
12770TIP3    H238268   8.134   6.003   3.277
12771TIP3   OH238269   6.526   6.751   5.143
12771TIP3    H138270   6.445   6.754   5.195
12771TIP3    H238271   6.501   6.703   5.064
12772TIP3   OH238272   7.148   0.432   6.191
12772TIP3    H138273   7.229   0.385   6.211
12772TIP3    H238274   7.096   0.425   6.271
12773TIP3   OH238275   0.815   4.374   6.249
12773TIP3    H138276   0.733   4.421   6.232
12773TIP3    H238277   0.831   4.389   6.343
12774TIP3   OH238278   4.719   1.344   4.608
12774TIP3    H138279   4.664   1.293   4.549
12774TIP3    H238280   4.748   1.281   4.674
12775TIP3   OH238281   5.689   5.075   5.105
12775TIP3    H138282   5.720   5.133   5.035
12775TIP3    H238283   5.681   4.989   5.062
12776TIP3   OH238284   8.174   6.932   4.891
12776TIP3    H138285   8.154   6.949   4.983
12776TIP3    H238286   8.199   6.839   4.889
12777TIP3   OH238287   3.246   7.515   5.449
12777TIP3    H138288   3.236   7.605   5.478
12777TIP3    H238289   3.184   7.465   5.503
12778TIP3   OH238290   4.641   3.685   4.262
12778TIP3    H138291   4.706   3.662   4.195
12778TIP3    H238292   4.576   3.615   4.258
12779TIP3   OH238293   1.493   6.341   4.687
12779TIP3    H138294   1.558   6.309   4.625
12779TIP3    H238295   1.472   6.264   4.741
12780TIP3   OH238296   2.112   6.702   3.027
12780TIP3    H138297   2.082   6.744   2.947
12780TIP3    H238298   2.182   6.643   2.999
12781TIP3   OH238299   3.310   4.059   2.834
12781TIP3    H138300   3.225   4.018   2.850
12781TIP3    H238301   3.342   4.017   2.755
12782TIP3   OH238302   7.735   5.149   1.667
12782TIP3    H138303   7.777   5.226   1.705
12782TIP3    H238304   7.665   5.127   1.728
12783TIP3   OH238305   4.970   6.070   2.240
12783TIP3    H138306   4.906   6.126   2.196
12783TIP3    H238307   5.002   6.012   2.172
12784TIP3   OH238308   3.660   3.534   5.049
12784TIP3    H138309   3.747   3.570   5.031
12784TIP3    H238310   3.610   3.607   5.083
12785TIP3   OH238311   2.922   4.715   6.746
12785TIP3    H138312   2.897   4.668   6.826
12785TIP3    H238313   2.969   4.650   6.694
12786TIP3   OH238314   1.271   1.544   1.287
12786TIP3    H138315   1.249   1.575   1.199
12786TIP3    H238316   1.353   1.495   1.276
12787TIP3   OH238317   0.060   3.069   2.766
12787TIP3    H138318  -0.004   3.134   2.793
12787TIP3    H238319   0.140   3.119   2.750
12788TIP3   OH238320   6.345   3.468   3.620
12788TIP3    H138321   6.416   3.527   3.596
12788TIP3    H238322   6.383   3.410   3.686
12789TIP3   OH238323   0.288   6.028   2.262
12789TIP3    H138324   0.215   6.089   2.254
12789TIP3    H238325   0.298   6.015   2.357
12790TIP3   OH238326   1.631   1.456   0.609
12790TIP3    H138327   1.600   1.542   0.581
12790TIP3    H238328   1.691   1.474   0.681
12791TIP3   OH238329   4.976   0.083   1.949
12791TIP3    H138330   4.951   0.050   1.862
12791TIP3    H238331   5.009   0.006   1.995
12792TIP3   OH238332   6.666   5.222   2.891
12792TIP3    H138333   6.646   5.129   2.894
12792TIP3    H238334   6.584   5.265   2.916
12793TIP3   OH238335   6.341   0.965   4.390
12793TIP3    H138336   6.352   1.015   4.471
12793TIP3    H238337   6.429   0.933   4.369
12794TIP3   OH238338   7.042   6.115   1.420
12794TIP3    H138339   7.076   6.048   1.479
12794TIP3    H238340   6.966   6.151   1.466
12795TIP3   OH238341   5.991   1.604   3.572
12795TIP3    H138342   6.059   1.669   3.590
12795TIP3    H238343   6.037   1.532   3.529
12796TIP3   OH238344   7.086   4.174   0.225
12796TIP3    H138345   7.038   4.099   0.189
12796TIP3    H238346   7.175   4.143   0.238
12797TIP3   OH238347   4.416   4.602   0.461
12797TIP3    H138348   4.467   4.554   0.395
12797TIP3    H238349   4.370   4.534   0.510
12798TIP3   OH238350   3.317   1.533   3.768
12798TIP3    H138351   3.384   1.584   3.721
12798TIP3    H238352   3.289   1.467   3.705
12799TIP3   OH238353   1.761   3.623   1.152
12799TIP3    H138354   1.718   3.564   1.214
12799TIP3    H238355   1.740   3.711   1.183
12800TIP3   OH238356   6.962   4.778   1.109
12800TIP3    H138357   6.913   4.856   1.081
12800TIP3    H238358   6.937   4.766   1.200
12801TIP3   OH238359   2.547   3.663   1.007
12801TIP3    H138360   2.485   3.603   1.049
12801TIP3    H238361   2.575   3.617   0.928
12802TIP3   OH238362   6.281   1.015   1.312
12802TIP3    H138363   6.258   0.923   1.298
12802TIP3    H238364   6.291   1.022   1.407
12803TIP3   OH238365   4.813   5.775   2.168
12803TIP3    H138366   4.906   5.770   2.194
12803TIP3    H238367   4.816   5.793   2.074
12804TIP3   OH238368   1.777   5.871   4.523
12804TIP3    H138369   1.837   5.847   4.593
12804TIP3    H238370   1.761   5.790   4.476
12805TIP3   OH238371   4.385   2.635   3.622
12805TIP3    H138372   4.336   2.629   3.704
12805TIP3    H238373   4.457   2.694   3.641
12806TIP3   OH238374   4.874   5.831   5.900
12806TIP3    H138375   4.806   5.763   5.899
12806TIP3    H238376   4.868   5.869   5.987
12807TIP3   OH238377   7.473   7.256   4.744
12807TIP3    H138378   7.389   7.285   4.780
12807TIP3    H238379   7.452   7.178   4.694
12808TIP3   OH238380   6.987   3.004   4.188
12808TIP3    H138381   6.996   3.047   4.103
12808TIP3    H238382   7.063   2.947   4.195
12809TIP3   OH238383   3.834   4.305   2.522
12809TIP3    H138384   3.898   4.328   2.455
12809TIP3    H238385   3.810   4.388   2.563
12810TIP3   OH238386   8.182   0.149   5.010
12810TIP3    H138387   8.192   0.102   5.093
12810TIP3    H238388   8.268   0.141   4.968
12811TIP3   OH238389   6.971   6.261   6.129
12811TIP3    H138390   6.988   6.345   6.086
12811TIP3    H238391   6.891   6.228   6.087
12812TIP3   OH238392   0.844   0.218   3.328
12812TIP3    H138393   0.793   0.237   3.406
12812TIP3    H238394   0.921   0.172   3.361
12813TIP3   OH238395   5.832   2.237   5.162
12813TIP3    H138396   5.752   2.282   5.187
12813TIP3    H238397   5.897   2.307   5.152
12814TIP3   OH238398   8.306   5.014   1.905
12814TIP3    H138399   8.345   4.927   1.899
12814TIP3    H238400   8.217   5.002   1.871
12815TIP3   OH238401   7.827   1.893   4.615
12815TIP3    H138402   7.812   1.866   4.705
12815TIP3    H238403   7.879   1.822   4.577
12816TIP3   OH238404   4.555   7.122   6.075
12816TIP3    H138405   4.580   7.033   6.051
12816TIP3    H238406   4.484   7.144   6.015
12817TIP3   OH238407   1.290   0.392   2.491
12817TIP3    H138408   1.229   0.447   2.442
12817TIP3    H238409   1.297   0.312   2.439
12818TIP3   OH238410   2.124   1.296   6.067
12818TIP3    H138411   2.189   1.228   6.082
12818TIP3    H238412   2.144   1.363   6.133
12819TIP3   OH238413   6.216   7.637   1.298
12819TIP3    H138414   6.302   7.615   1.263
12819TIP3    H238415   6.171   7.681   1.225
12820TIP3   OH238416   1.052   7.756   1.139
12820TIP3    H138417   1.110   7.718   1.206
12820TIP3    H238418   1.082   7.717   1.057
12821TIP3   OH238419   1.149   5.479   3.819
12821TIP3    H138420   1.137   5.464   3.913
12821TIP3    H238421   1.069   5.524   3.792
12822TIP3   OH238422   4.946   2.492   6.180
12822TIP3    H138423   5.002   2.442   6.121
12822TIP3    H238424   4.999   2.567   6.205
12823TIP3   OH238425   2.588   3.162   2.668
12823TIP3    H138426   2.548   3.222   2.730
12823TIP3    H238427   2.682   3.179   2.675
12824TIP3   OH238428   5.826   2.496   6.666
12824TIP3    H138429   5.842   2.470   6.757
12824TIP3    H238430   5.814   2.591   6.670
12825TIP3   OH238431   4.485   4.377   3.656
12825TIP3    H138432   4.403   4.365   3.703
12825TIP3    H238433   4.481   4.316   3.583
12826TIP3   OH238434   0.479   2.454   4.651
12826TIP3    H138435   0.529   2.384   4.691
12826TIP3    H238436   0.481   2.434   4.557
12827TIP3   OH238437   6.191   4.601   1.162
12827TIP3    H138438   6.242   4.547   1.102
12827TIP3    H238439   6.111   4.552   1.177
12828TIP3   OH238440   3.635   1.490   1.059
12828TIP3    H138441   3.692   1.526   0.991
12828TIP3    H238442   3.648   1.395   1.052
12829TIP3   OH238443   5.936   2.143   0.750
12829TIP3    H138444   5.911   2.231   0.778
12829TIP3    H238445   6.032   2.146   0.746
12830TIP3   OH238446   3.472   5.797   0.226
12830TIP3    H138447   3.391   5.749   0.210
12830TIP3    H238448   3.445   5.878   0.269
12831TIP3   OH238449   0.741   3.742   5.332
12831TIP3    H138450   0.729   3.826   5.376
12831TIP3    H238451   0.785   3.764   5.250
12832TIP3   OH238452   0.131   4.719   4.483
12832TIP3    H138453   0.216   4.684   4.510
12832TIP3    H238454   0.097   4.762   4.562
12833TIP3   OH238455   4.186   2.147   0.969
12833TIP3    H138456   4.225   2.181   0.888
12833TIP3    H238457   4.244   2.178   1.039
12834TIP3   OH238458   6.650   6.081   5.578
12834TIP3    H138459   6.718   6.070   5.644
12834TIP3    H238460   6.697   6.109   5.500
12835TIP3   OH238461   2.182   3.457   6.104
12835TIP3    H138462   2.266   3.502   6.101
12835TIP3    H238463   2.165   3.431   6.014
12836TIP3   OH238464   2.924   0.958   3.753
12836TIP3    H138465   2.836   0.964   3.791
12836TIP3    H238466   2.977   0.919   3.822
12837TIP3   OH238467   8.300   3.848   0.734
12837TIP3    H138468   8.360   3.834   0.660
12837TIP3    H238469   8.213   3.841   0.695
12838TIP3   OH238470   3.783   4.932   0.562
12838TIP3    H138471   3.796   4.838   0.548
12838TIP3    H238472   3.695   4.950   0.527
12839TIP3   OH238473   4.225   3.013   4.077
12839TIP3    H138474   4.239   2.999   3.984
12839TIP3    H238475   4.229   3.108   4.089
12840TIP3   OH238476   4.088   7.203   3.208
12840TIP3    H138477   4.159   7.143   3.230
12840TIP3    H238478   4.053   7.169   3.125
12841TIP3   OH238479   4.853   7.207   6.051
12841TIP3    H138480   4.820   7.287   6.009
12841TIP3    H238481   4.786   7.141   6.033
12842TIP3   OH238482   1.954   0.276   1.446
12842TIP3    H138483   1.888   0.307   1.385
12842TIP3    H238484   1.906   0.253   1.525
12843TIP3   OH238485   3.091   0.067   0.970
12843TIP3    H138486   3.015   0.009   0.976
12843TIP3    H238487   3.057   0.154   0.991
12844TIP3   OH238488   7.636   5.773   2.569
12844TIP3    H138489   7.706   5.784   2.634
12844TIP3    H238490   7.558   5.752   2.620
12845TIP3   OH238491   7.731   0.125   1.815
12845TIP3    H138492   7.687   0.060   1.870
12845TIP3    H238493   7.807   0.152   1.867
12846TIP3   OH238494   4.691   7.495   6.635
12846TIP3    H138495   4.716   7.458   6.720
12846TIP3    H238496   4.607   7.538   6.651
12847TIP3   OH238497   7.612   2.283   3.432
12847TIP3    H138498   7.693   2.296   3.482
12847TIP3    H238499   7.550   2.345   3.471
12848TIP3   OH238500   2.127   2.538   5.277
12848TIP3    H138501   2.075   2.488   5.214
12848TIP3    H238502   2.087   2.520   5.362
12849TIP3   OH238503   3.091   6.373   1.386
12849TIP3    H138504   3.158   6.308   1.365
12849TIP3    H238505   3.032   6.327   1.447
12850TIP3   OH238506   3.532   7.211   4.143
12850TIP3    H138507   3.456   7.262   4.116
12850TIP3    H238508   3.590   7.213   4.067
12851TIP3   OH238509   4.256   7.460   4.833
12851TIP3    H138510   4.341   7.431   4.865
12851TIP3    H238511   4.195   7.437   4.904
12852TIP3   OH238512   1.273   7.135   2.118
12852TIP3    H138513   1.187   7.176   2.118
12852TIP3    H238514   1.296   7.128   2.025
12853TIP3   OH238515   1.512   1.210   0.717
12853TIP3    H138516   1.544   1.300   0.705
12853TIP3    H238517   1.425   1.220   0.754
12854TIP3   OH238518   2.263   1.223   4.093
12854TIP3    H138519   2.306   1.141   4.068
12854TIP3    H238520   2.197   1.237   4.025
12855TIP3   OH238521   5.746   7.678   5.422
12855TIP3    H138522   5.821   7.723   5.460
12855TIP3    H238523   5.767   7.585   5.431
12856TIP3   OH238524   2.547   5.531   3.044
12856TIP3    H138525   2.527   5.581   2.964
12856TIP3    H238526   2.480   5.559   3.106
12857TIP3   OH238527   6.143   2.535   0.097
12857TIP3    H138528   6.130   2.492   0.013
12857TIP3    H238529   6.186   2.618   0.075
12858TIP3   OH238530   1.112   6.498   3.347
12858TIP3    H138531   1.104   6.523   3.255
12858TIP3    H238532   1.167   6.420   3.346
12859TIP3   OH238533   2.700   4.925   2.820
12859TIP3    H138534   2.763   4.900   2.753
12859TIP3    H238535   2.731   4.880   2.899
12860TIP3   OH238536   1.465   5.183   5.067
12860TIP3    H138537   1.554   5.179   5.032
12860TIP3    H238538   1.454   5.274   5.095
12861TIP3   OH238539   1.888   5.862   2.847
12861TIP3    H138540   1.855   5.888   2.933
12861TIP3    H238541   1.982   5.848   2.861
12862TIP3   OH238542   7.392   7.652   0.021
12862TIP3    H138543   7.481   7.625   0.043
12862TIP3    H238544   7.342   7.636   0.101
12863TIP3   OH238545   5.038   1.516   6.109
12863TIP3    H138546   4.968   1.493   6.047
12863TIP3    H238547   5.073   1.431   6.137
12864TIP3   OH238548   6.727   5.002   6.741
12864TIP3    H138549   6.639   4.973   6.764
12864TIP3    H238550   6.725   5.097   6.755
12865TIP3   OH238551   5.979   3.412   4.820
12865TIP3    H138552   6.012   3.431   4.732
12865TIP3    H238553   6.028   3.335   4.848
12866TIP3   OH238554   5.117   3.810   2.050
12866TIP3    H138555   5.191   3.751   2.066
12866TIP3    H238556   5.128   3.836   1.958
12867TIP3   OH238557   2.521   2.589   2.174
12867TIP3    H138558   2.515   2.643   2.095
12867TIP3    H238559   2.574   2.641   2.235
12868TIP3   OH238560   3.363   5.144   4.286
12868TIP3    H138561   3.340   5.091   4.362
12868TIP3    H238562   3.458   5.131   4.275
12869TIP3   OH238563   1.510   5.239   0.853
12869TIP3    H138564   1.509   5.174   0.783
12869TIP3    H238565   1.429   5.288   0.841
12870TIP3   OH238566   3.583   6.070   3.172
12870TIP3    H138567   3.615   6.038   3.256
12870TIP3    H238568   3.651   6.130   3.141
12871TIP3   OH238569   7.144   4.473   1.182
12871TIP3    H138570   7.162   4.562   1.151
12871TIP3    H238571   7.066   4.482   1.237
12872TIP3   OH238572   4.793   3.794   1.933
12872TIP3    H138573   4.853   3.719   1.929
12872TIP3    H238574   4.753   3.788   2.019
12873TIP3   OH238575   3.222   4.260   5.101
12873TIP3    H138576   3.180   4.260   5.187
12873TIP3    H238577   3.265   4.174   5.096
12874TIP3   OH238578   7.035   4.153   4.684
12874TIP3    H138579   6.996   4.098   4.752
12874TIP3    H238580   6.996   4.239   4.697
12875TIP3   OH238581   3.257   1.038   6.460
12875TIP3    H138582   3.299   0.953   6.445
12875TIP3    H238583   3.165   1.023   6.444
12876TIP3   OH238584   3.096   3.420   5.935
12876TIP3    H138585   3.111   3.379   6.020
12876TIP3    H238586   3.163   3.489   5.929
12877TIP3   OH238587   2.592   6.502   2.672
12877TIP3    H138588   2.687   6.499   2.670
12877TIP3    H238589   2.571   6.570   2.736
12878TIP3   OH238590   8.028   0.978   5.059
12878TIP3    H138591   7.964   0.979   4.988
12878TIP3    H238592   7.975   0.977   5.139
12879TIP3   OH238593   2.042   1.558   2.372
12879TIP3    H138594   2.064   1.481   2.425
12879TIP3    H238595   2.096   1.549   2.294
12880TIP3   OH238596   7.618   0.692   5.531
12880TIP3    H138597   7.528   0.718   5.514
12880TIP3    H238598   7.646   0.747   5.605
12881TIP3   OH238599   3.789   0.287   2.639
12881TIP3    H138600   3.751   0.331   2.563
12881TIP3    H238601   3.714   0.249   2.685
12882TIP3   OH238602   6.237   5.028   3.067
12882TIP3    H138603   6.309   4.965   3.075
12882TIP3    H238604   6.168   4.979   3.022
12883TIP3   OH238605   6.509   7.434   1.349
12883TIP3    H138606   6.534   7.520   1.315
12883TIP3    H238607   6.579   7.411   1.411
12884TIP3   OH238608   7.141   5.929   6.017
12884TIP3    H138609   7.217   5.872   6.008
12884TIP3    H238610   7.067   5.875   5.989
12885TIP3   OH238611   4.707   2.933   5.350
12885TIP3    H138612   4.682   2.955   5.261
12885TIP3    H238613   4.635   2.879   5.383
12886TIP3   OH238614   0.204   6.326   1.355
12886TIP3    H138615   0.118   6.338   1.313
12886TIP3    H238616   0.254   6.403   1.329
12887TIP3   OH238617   0.376   1.388   5.376
12887TIP3    H138618   0.357   1.360   5.286
12887TIP3    H238619   0.350   1.314   5.430
12888TIP3   OH238620   5.190   0.723   2.985
12888TIP3    H138621   5.106   0.721   2.939
12888TIP3    H238622   5.185   0.801   3.040
12889TIP3   OH238623   7.910   3.127   4.165
12889TIP3    H138624   7.986   3.089   4.121
12889TIP3    H238625   7.907   3.217   4.135
12890TIP3   OH238626   4.503  -0.011   3.172
12890TIP3    H138627   4.450   0.065   3.150
12890TIP3    H238628   4.531  -0.046   3.088
12891TIP3   OH238629   5.108   2.322   6.027
12891TIP3    H138630   5.119   2.288   5.938
12891TIP3    H238631   5.194   2.356   6.051
12892TIP3   OH238632   0.818   7.563   4.414
12892TIP3    H138633   0.864   7.642   4.386
12892TIP3    H238634   0.883   7.493   4.404
12893TIP3   OH238635   1.143   3.915   5.563
12893TIP3    H138636   1.072   3.884   5.620
12893TIP3    H238637   1.193   3.837   5.543
12894TIP3   OH238638   3.997   2.013   4.277
12894TIP3    H138639   4.008   1.921   4.254
12894TIP3    H238640   3.961   2.053   4.199
12895TIP3   OH238641   3.208   2.422   4.242
12895TIP3    H138642   3.189   2.330   4.256
12895TIP3    H238643   3.208   2.460   4.330
12896TIP3   OH238644   7.579   4.601   4.215
12896TIP3    H138645   7.641   4.656   4.263
12896TIP3    H238646   7.633   4.559   4.148
12897TIP3   OH238647   6.840   1.574   0.277
12897TIP3    H138648   6.924   1.599   0.238
12897TIP3    H238649   6.825   1.485   0.248
12898TIP3   OH238650   1.275   0.106   4.653
12898TIP3    H138651   1.361   0.113   4.611
12898TIP3    H238652   1.212   0.113   4.581
12899TIP3   OH238653   4.387   6.735   6.236
12899TIP3    H138654   4.329   6.686   6.294
12899TIP3    H238655   4.355   6.716   6.148
12900TIP3   OH238656   0.262   7.682   0.429
12900TIP3    H138657   0.335   7.630   0.396
12900TIP3    H238658   0.199   7.684   0.357
12901TIP3   OH238659   6.748   3.746   4.403
12901TIP3    H138660   6.750   3.835   4.440
12901TIP3    H238661   6.761   3.688   4.478
12902TIP3   OH238662   2.599   5.720   5.074
12902TIP3    H138663   2.658   5.790   5.104
12902TIP3    H238664   2.515   5.763   5.060
12903TIP3   OH238665   8.103   3.001   3.739
12903TIP3    H138666   8.052   3.082   3.745
12903TIP3    H238667   8.194   3.031   3.731
12904TIP3   OH238668   4.530   3.383   4.498
12904TIP3    H138669   4.533   3.415   4.407
12904TIP3    H238670   4.613   3.413   4.536
12905TIP3   OH238671   6.186   3.478   1.894
12905TIP3    H138672   6.226   3.437   1.970
12905TIP3    H238673   6.227   3.564   1.888
12906TIP3   OH238674   2.197   5.894   6.409
12906TIP3    H138675   2.275   5.916   6.358
12906TIP3    H238676   2.202   5.950   6.486
12907TIP3   OH238677   0.629   6.290   5.537
12907TIP3    H138678   0.685   6.224   5.577
12907TIP3    H238679   0.636   6.273   5.443
12908TIP3   OH238680   8.253   4.272   2.683
12908TIP3    H138681   8.259   4.253   2.590
12908TIP3    H238682   8.181   4.335   2.691
12909TIP3   OH238683   7.529   5.365   1.512
12909TIP3    H138684   7.436   5.348   1.502
12909TIP3    H238685   7.544   5.364   1.607
12910TIP3   OH238686   0.248   6.446   2.882
12910TIP3    H138687   0.296   6.438   2.965
12910TIP3    H238688   0.241   6.541   2.868
12911TIP3   OH238689   6.265   4.565   3.076
12911TIP3    H138690   6.280   4.658   3.057
12911TIP3    H238691   6.352   4.525   3.070
12912TIP3   OH238692   5.495   5.078   1.477
12912TIP3    H138693   5.554   5.052   1.406
12912TIP3    H238694   5.504   5.009   1.542
12913TIP3   OH238695   3.181   0.423   6.224
12913TIP3    H138696   3.131   0.357   6.273
12913TIP3    H238697   3.244   0.372   6.173
12914TIP3   OH238698   3.820   5.980   4.887
12914TIP3    H138699   3.836   6.064   4.843
12914TIP3    H238700   3.833   5.998   4.980
12915TIP3   OH238701   6.090   3.299   2.407
12915TIP3    H138702   6.101   3.388   2.442
12915TIP3    H238703   6.176   3.258   2.421
12916TIP3   OH238704   2.300   2.107   6.346
12916TIP3    H138705   2.391   2.083   6.363
12916TIP3    H238706   2.297   2.124   6.251
12917TIP3   OH238707   6.638   4.770   3.613
12917TIP3    H138708   6.631   4.819   3.695
12917TIP3    H238709   6.732   4.773   3.591
12918TIP3   OH238710   5.112   2.182   4.743
12918TIP3    H138711   5.125   2.244   4.671
12918TIP3    H238712   5.110   2.237   4.822
12919TIP3   OH238713   3.905   0.117   6.556
12919TIP3    H138714   3.971   0.048   6.560
12919TIP3    H238715   3.882   0.134   6.647
12920TIP3   OH238716   4.787   6.301   0.454
12920TIP3    H138717   4.757   6.390   0.473
12920TIP3    H238718   4.720   6.264   0.397
12921TIP3   OH238719   3.647   1.043   4.651
12921TIP3    H138720   3.609   1.120   4.609
12921TIP3    H238721   3.575   1.005   4.701
12922TIP3   OH238722   4.793   6.203   2.737
12922TIP3    H138723   4.848   6.181   2.812
12922TIP3    H238724   4.849   6.190   2.661
12923TIP3   OH238725   5.822   0.331   1.765
12923TIP3    H138726   5.879   0.285   1.704
12923TIP3    H238727   5.880   0.357   1.837
12924TIP3   OH238728   0.990   5.358   0.313
12924TIP3    H138729   0.988   5.268   0.345
12924TIP3    H238730   0.923   5.361   0.246
12925TIP3   OH238731   3.002   4.393   6.076
12925TIP3    H138732   3.060   4.467   6.097
12925TIP3    H238733   2.958   4.373   6.158
12926TIP3   OH238734   2.635   1.211   3.860
12926TIP3    H138735   2.594   1.239   3.942
12926TIP3    H238736   2.675   1.126   3.882
12927TIP3   OH238737   8.116   2.535   1.743
12927TIP3    H138738   8.061   2.523   1.666
12927TIP3    H238739   8.169   2.612   1.723
12928TIP3   OH238740   4.576   3.520   6.062
12928TIP3    H138741   4.610   3.515   6.152
12928TIP3    H238742   4.630   3.588   6.021
12929TIP3   OH238743   5.061   3.635   3.254
12929TIP3    H138744   5.075   3.726   3.281
12929TIP3    H238745   4.987   3.605   3.306
12930TIP3   OH238746   6.856   6.406   5.513
12930TIP3    H138747   6.772   6.452   5.509
12930TIP3    H238748   6.915   6.467   5.557
12931TIP3   OH238749   7.072   5.226   0.357
12931TIP3    H138750   6.995   5.259   0.310
12931TIP3    H238751   7.102   5.300   0.409
12932TIP3   OH238752   6.486   3.580   3.858
12932TIP3    H138753   6.465   3.530   3.937
12932TIP3    H238754   6.410   3.637   3.845
12933TIP3   OH238755   5.421   0.297   2.656
12933TIP3    H138756   5.435   0.349   2.577
12933TIP3    H238757   5.394   0.211   2.623
12934TIP3   OH238758   8.080   4.254   0.144
12934TIP3    H138759   8.010   4.318   0.127
12934TIP3    H238760   8.034   4.171   0.155
12935TIP3   OH238761   1.952   1.391   0.396
12935TIP3    H138762   2.036   1.418   0.434
12935TIP3    H238763   1.921   1.468   0.349
12936TIP3   OH238764   0.694   7.818   4.649
12936TIP3    H138765   0.667   7.730   4.626
12936TIP3    H238766   0.615   7.871   4.638
12937TIP3   OH238767   2.592   2.705   1.897
12937TIP3    H138768   2.515   2.707   1.841
12937TIP3    H238769   2.626   2.794   1.894
12938TIP3   OH238770   0.814   4.323   4.116
12938TIP3    H138771   0.805   4.412   4.082
12938TIP3    H238772   0.905   4.319   4.146
12939TIP3   OH238773   7.437   4.085   1.665
12939TIP3    H138774   7.450   4.172   1.627
12939TIP3    H238775   7.524   4.044   1.660
12940TIP3   OH238776   7.814   0.578   5.074
12940TIP3    H138777   7.755   0.587   4.999
12940TIP3    H238778   7.755   0.561   5.148
12941TIP3   OH238779   4.736   4.538   4.896
12941TIP3    H138780   4.815   4.566   4.849
12941TIP3    H238781   4.760   4.548   4.989
12942TIP3   OH238782   7.077   6.257   1.113
12942TIP3    H138783   7.125   6.233   1.192
12942TIP3    H238784   6.987   6.273   1.144
12943TIP3   OH238785   7.611   3.305   4.414
12943TIP3    H138786   7.573   3.325   4.329
12943TIP3    H238787   7.618   3.390   4.458
12944TIP3   OH238788   3.871   0.905   5.854
12944TIP3    H138789   3.924   0.984   5.865
12944TIP3    H238790   3.925   0.834   5.888
12945TIP3   OH238791   5.874   1.369   0.942
12945TIP3    H138792   5.830   1.284   0.942
12945TIP3    H238793   5.961   1.350   0.977
12946TIP3   OH238794   1.245   4.334   4.965
12946TIP3    H138795   1.206   4.420   4.978
12946TIP3    H238796   1.338   4.351   4.952
12947TIP3   OH238797   0.371   6.392   2.419
12947TIP3    H138798   0.423   6.363   2.494
12947TIP3    H238799   0.434   6.397   2.347
12948TIP3   OH238800   0.926   3.582   4.731
12948TIP3    H138801   0.932   3.633   4.812
12948TIP3    H238802   1.013   3.545   4.719
12949TIP3   OH238803   0.897   5.626   0.817
12949TIP3    H138804   0.819   5.659   0.772
12949TIP3    H238805   0.968   5.684   0.789
12950TIP3   OH238806   1.497   0.072   3.485
12950TIP3    H138807   1.559   0.087   3.556
12950TIP3    H238808   1.421   0.126   3.507
12951TIP3   OH238809   1.099   3.246   5.513
12951TIP3    H138810   1.087   3.326   5.564
12951TIP3    H238811   1.180   3.207   5.547
12952TIP3   OH238812   4.860   1.979   3.463
12952TIP3    H138813   4.926   1.966   3.394
12952TIP3    H238814   4.784   1.928   3.433
12953TIP3   OH238815   4.959   5.424   4.980
12953TIP3    H138816   5.048   5.433   4.944
12953TIP3    H238817   4.956   5.334   5.013
12954TIP3   OH238818   1.335   6.979   1.101
12954TIP3    H138819   1.258   6.961   1.154
12954TIP3    H238820   1.332   7.074   1.087
12955TIP3   OH238821   5.795   4.342   1.813
12955TIP3    H138822   5.753   4.426   1.834
12955TIP3    H238823   5.884   4.366   1.789
12956TIP3   OH238824   2.277   1.158   3.491
12956TIP3    H138825   2.225   1.164   3.571
12956TIP3    H238826   2.330   1.238   3.490
12957TIP3   OH238827   2.214   2.809   5.291
12957TIP3    H138828   2.190   2.719   5.312
12957TIP3    H238829   2.161   2.862   5.351
12958TIP3   OH238830   6.831   7.647   0.826
12958TIP3    H138831   6.882   7.589   0.769
12958TIP3    H238832   6.781   7.703   0.766
12959TIP3   OH238833   6.089   4.332   5.881
12959TIP3    H138834   5.999   4.359   5.865
12959TIP3    H238835   6.106   4.356   5.972
12960TIP3   OH238836   4.666   4.128   4.425
12960TIP3    H138837   4.724   4.202   4.437
12960TIP3    H238838   4.689   4.092   4.339
12961TIP3   OH238839   1.424   3.827   3.871
12961TIP3    H138840   1.417   3.922   3.882
12961TIP3    H238841   1.429   3.815   3.776
12962TIP3   OH238842   6.726   4.177   5.068
12962TIP3    H138843   6.756   4.210   5.153
12962TIP3    H238844   6.633   4.158   5.082
12963TIP3   OH238845   4.120   0.235   1.811
12963TIP3    H138846   4.095   0.157   1.861
12963TIP3    H238847   4.038   0.274   1.783
12964TIP3   OH238848   7.414   0.288   6.543
12964TIP3    H138849   7.395   0.195   6.556
12964TIP3    H238850   7.500   0.289   6.501
12965TIP3   OH238851   5.107   1.816   6.598
12965TIP3    H138852   5.103   1.780   6.687
12965TIP3    H238853   5.147   1.902   6.609
12966TIP3   OH238854   3.266   4.659   3.293
12966TIP3    H138855   3.207   4.685   3.364
12966TIP3    H238856   3.336   4.611   3.337
12967TIP3   OH238857   4.177   4.619   5.326
12967TIP3    H138858   4.236   4.629   5.400
12967TIP3    H238859   4.189   4.528   5.298
12968TIP3   OH238860   2.666   3.998   6.284
12968TIP3    H138861   2.683   4.082   6.327
12968TIP3    H238862   2.635   4.022   6.196
12969TIP3   OH238863   0.907   1.718   4.859
12969TIP3    H138864   0.905   1.635   4.811
12969TIP3    H238865   0.989   1.715   4.909
12970TIP3   OH238866   5.420   7.096   0.375
12970TIP3    H138867   5.385   7.008   0.390
12970TIP3    H238868   5.506   7.081   0.336
12971TIP3   OH238869   7.977   4.412   2.182
12971TIP3    H138870   8.059   4.379   2.220
12971TIP3    H238871   7.967   4.499   2.218
12972TIP3   OH238872   3.793   2.490   0.564
12972TIP3    H138873   3.768   2.399   0.549
12972TIP3    H238874   3.883   2.485   0.595
12973TIP3   OH238875   4.238   2.568   0.097
12973TIP3    H138876   4.283   2.488   0.125
12973TIP3    H238877   4.193   2.543   0.016
12974TIP3   OH238878   7.476   1.615   5.773
12974TIP3    H138879   7.520   1.619   5.857
12974TIP3    H238880   7.543   1.643   5.710
12975TIP3   OH238881   5.847   6.400   2.076
12975TIP3    H138882   5.794   6.439   2.145
12975TIP3    H238883   5.937   6.407   2.107
12976TIP3   OH238884   8.064   2.838   5.765
12976TIP3    H138885   8.073   2.746   5.790
12976TIP3    H238886   7.989   2.840   5.706
12977TIP3   OH238887   7.799   2.680   4.768
12977TIP3    H138888   7.893   2.679   4.790
12977TIP3    H238889   7.768   2.594   4.794
12978TIP3   OH238890   1.864   5.446   5.390
12978TIP3    H138891   1.828   5.365   5.355
12978TIP3    H238892   1.955   5.448   5.358
12979TIP3   OH238893   7.379   4.234   5.659
12979TIP3    H138894   7.425   4.292   5.598
12979TIP3    H238895   7.293   4.273   5.669
12980TIP3   OH238896   5.688   0.118   1.003
12980TIP3    H138897   5.617   0.179   0.984
12980TIP3    H238898   5.726   0.151   1.085
12981TIP3   OH238899   8.300   5.486   6.226
12981TIP3    H138900   8.241   5.411   6.214
12981TIP3    H238901   8.242   5.562   6.227
12982TIP3   OH238902   6.693   2.932   3.278
12982TIP3    H138903   6.648   2.937   3.194
12982TIP3    H238904   6.746   3.011   3.281
12983TIP3   OH238905   6.997   7.230   0.186
12983TIP3    H138906   7.058   7.165   0.222
12983TIP3    H238907   7.009   7.307   0.242
12984TIP3   OH238908   5.560   3.877   3.595
12984TIP3    H138909   5.654   3.865   3.604
12984TIP3    H238910   5.533   3.810   3.532
12985TIP3   OH238911   7.931   4.332   1.866
12985TIP3    H138912   8.018   4.301   1.840
12985TIP3    H238913   7.944   4.367   1.954
12986TIP3   OH238914   4.252   5.691   1.266
12986TIP3    H138915   4.166   5.649   1.266
12986TIP3    H238916   4.238   5.774   1.219
12987TIP3   OH238917   3.125   7.084   1.811
12987TIP3    H138918   3.081   7.022   1.868
12987TIP3    H238919   3.211   7.046   1.795
12988TIP3   OH238920   5.457   2.963   0.434
12988TIP3    H138921   5.458   2.973   0.339
12988TIP3    H238922   5.549   2.953   0.459
12989TIP3   OH238923   1.353   7.007   5.009
12989TIP3    H138924   1.322   6.917   5.000
12989TIP3    H238925   1.448   7.001   4.995
12990TIP3   OH238926   0.269   0.781   2.088
12990TIP3    H138927   0.199   0.779   2.022
12990TIP3    H238928   0.268   0.693   2.126
12991TIP3   OH238929   2.909   3.128   2.439
12991TIP3    H138930   2.994   3.139   2.395
12991TIP3    H238931   2.891   3.034   2.433
12992TIP3   OH238932   5.373   7.305   3.729
12992TIP3    H138933   5.320   7.260   3.663
12992TIP3    H238934   5.458   7.261   3.726
12993TIP3   OH238935   4.311   5.698   1.557
12993TIP3    H138936   4.356   5.699   1.473
12993TIP3    H238937   4.348   5.623   1.604
12994TIP3   OH238938   3.647   6.770   4.859
12994TIP3    H138939   3.656   6.677   4.839
12994TIP3    H238940   3.729   6.809   4.829
12995TIP3   OH238941   2.132   3.072   4.951
12995TIP3    H138942   2.142   2.985   4.913
12995TIP3    H238943   2.154   3.132   4.880
12996TIP3   OH238944   8.006   0.910   3.598
12996TIP3    H138945   7.924   0.952   3.624
12996TIP3    H238946   8.070   0.981   3.598
12997TIP3   OH238947   7.644   1.887   1.651
12997TIP3    H138948   7.577   1.945   1.687
12997TIP3    H238949   7.708   1.947   1.611
12998TIP3   OH238950   7.873   3.605   6.255
12998TIP3    H138951   7.842   3.682   6.208
12998TIP3    H238952   7.930   3.560   6.193
12999TIP3   OH238953   2.317   6.539   2.557
12999TIP3    H138954   2.336   6.460   2.609
12999TIP3    H238955   2.334   6.611   2.617
13000TIP3   OH238956   5.336   1.242   2.379
13000TIP3    H138957   5.372   1.328   2.401
13000TIP3    H238958   5.391   1.212   2.306
13001TIP3   OH238959   4.620   0.810   2.191
13001TIP3    H138960   4.712   0.835   2.181
13001TIP3    H238961   4.585   0.872   2.254
13002TIP3   OH238962   1.336   1.168   4.366
13002TIP3    H138963   1.249   1.173   4.406
13002TIP3    H238964   1.359   1.075   4.371
13003TIP3   OH238965   7.322   1.684   3.062
13003TIP3    H138966   7.357   1.731   2.986
13003TIP3    H238967   7.244   1.639   3.029
13004TIP3   OH238968   4.544   7.765   1.212
13004TIP3    H138969   4.513   7.833   1.152
13004TIP3    H238970   4.639   7.776   1.213
13005TIP3   OH238971   5.365   2.837   5.177
13005TIP3    H138972   5.380   2.931   5.175
13005TIP3    H238973   5.370   2.809   5.086
13006TIP3   OH238974   3.326   2.077   3.589
13006TIP3    H138975   3.390   2.006   3.585
13006TIP3    H238976   3.371   2.148   3.635
13007TIP3   OH238977   5.780   2.838   0.966
13007TIP3    H138978   5.849   2.789   1.009
13007TIP3    H238979   5.759   2.786   0.888
13008TIP3   OH238980   4.052   0.646   0.453
13008TIP3    H138981   4.141   0.675   0.471
13008TIP3    H238982   4.062   0.580   0.384
13009TIP3   OH238983   4.785   7.540   1.025
13009TIP3    H138984   4.719   7.546   0.955
13009TIP3    H238985   4.828   7.625   1.024
13010TIP3   OH238986   2.058   2.088   6.435
13010TIP3    H138987   2.148   2.096   6.404
13010TIP3    H238988   2.004   2.098   6.357
13011TIP3   OH238989   1.636   3.420   0.210
13011TIP3    H138990   1.671   3.332   0.198
13011TIP3    H238991   1.564   3.426   0.147
13012TIP3   OH238992   1.952   2.280   2.211
13012TIP3    H138993   1.996   2.335   2.276
13012TIP3    H238994   1.933   2.198   2.257
13013TIP3   OH238995   1.331   2.079   2.449
13013TIP3    H138996   1.280   2.014   2.497
13013TIP3    H238997   1.314   2.058   2.357
13014TIP3   OH238998   5.832   1.605   5.998
13014TIP3    H138999   5.834   1.662   5.921
13014TIP3    H239000   5.783   1.653   6.064
13015TIP3   OH239001   2.565   6.735   5.185
13015TIP3    H139002   2.606   6.811   5.144
13015TIP3    H239003   2.631   6.665   5.179
13016TIP3   OH239004   5.054   1.689   2.994
13016TIP3    H139005   5.121   1.706   3.060
13016TIP3    H239006   4.974   1.728   3.029
13017TIP3   OH239007   5.459   4.116   3.636
13017TIP3    H139008   5.522   4.183   3.661
13017TIP3    H239009   5.513   4.039   3.616
13018TIP3   OH239010   2.909   2.893   4.580
13018TIP3    H139011   2.991   2.911   4.626
13018TIP3    H239012   2.842   2.903   4.647
13019TIP3   OH239013   3.550   0.989   5.459
13019TIP3    H139014   3.641   0.978   5.489
13019TIP3    H239015   3.537   1.084   5.460
13020TIP3   OH239016   1.352   0.935   0.023
13020TIP3    H139017   1.429   0.933  -0.033
13020TIP3    H239018   1.326   0.844   0.032
13021TIP3   OH239019   6.502   7.297   6.634
13021TIP3    H139020   6.513   7.271   6.726
13021TIP3    H239021   6.467   7.219   6.591
13022TIP3   OH239022   6.933   2.616   3.163
13022TIP3    H139023   6.979   2.700   3.160
13022TIP3    H239024   6.842   2.638   3.146
13023TIP3   OH239025   6.622   3.447   0.073
13023TIP3    H139026   6.594   3.456  -0.018
13023TIP3    H239027   6.658   3.359   0.078
13024TIP3   OH239028   0.221   2.828   0.211
13024TIP3    H139029   0.194   2.864   0.126
13024TIP3    H239030   0.192   2.737   0.209
13025TIP3   OH239031   5.810   3.317   1.961
13025TIP3    H139032   5.896   3.320   2.002
13025TIP3    H239033   5.811   3.391   1.900
13026TIP3   OH239034   7.211   4.965   4.011
13026TIP3    H139035   7.126   4.942   3.973
13026TIP3    H239036   7.258   4.881   4.018
13027TIP3   OH239037   3.504   7.764   5.538
13027TIP3    H139038   3.525   7.715   5.458
13027TIP3    H239039   3.445   7.707   5.587
13028TIP3   OH239040   5.939   3.564   0.685
13028TIP3    H139041   5.848   3.592   0.689
13028TIP3    H239042   5.977   3.593   0.768
13029TIP3   OH239043   2.254   4.279   4.511
13029TIP3    H139044   2.200   4.255   4.587
13029TIP3    H239045   2.274   4.371   4.525
13030TIP3   OH239046   5.126   1.217   0.925
13030TIP3    H139047   5.050   1.170   0.959
13030TIP3    H239048   5.117   1.211   0.829
13031TIP3   OH239049   3.866   6.542   3.599
13031TIP3    H139050   3.945   6.559   3.650
13031TIP3    H239051   3.890   6.470   3.540
13032TIP3   OH239052   7.848   5.394   1.720
13032TIP3    H139053   7.919   5.346   1.763
13032TIP3    H239054   7.888   5.430   1.641
13033TIP3   OH239055   2.092   0.876   5.247
13033TIP3    H139056   2.181   0.842   5.240
13033TIP3    H239057   2.041   0.803   5.284
13034TIP3   OH239058   5.331   1.988   6.551
13034TIP3    H139059   5.289   2.028   6.475
13034TIP3    H239060   5.419   2.025   6.552
13035TIP3   OH239061   6.717   2.847   2.121
13035TIP3    H139062   6.744   2.915   2.060
13035TIP3    H239063   6.680   2.778   2.066
13036TIP3   OH239064   4.057   3.154   0.655
13036TIP3    H139065   4.080   3.079   0.601
13036TIP3    H239066   4.072   3.124   0.745
13037TIP3   OH239067   6.146   6.746   0.798
13037TIP3    H139068   6.092   6.694   0.739
13037TIP3    H239069   6.159   6.829   0.752
13038TIP3   OH239070   4.487   0.966   1.516
13038TIP3    H139071   4.522   1.014   1.591
13038TIP3    H239072   4.395   0.950   1.539
13039TIP3   OH239073   6.670   2.348   2.682
13039TIP3    H139074   6.638   2.427   2.726
13039TIP3    H239075   6.644   2.276   2.740
13040TIP3   OH239076   1.617   6.967   6.638
13040TIP3    H139077   1.710   6.961   6.613
13040TIP3    H239078   1.614   6.932   6.727
13041TIP3   OH239079   2.326   6.159   3.046
13041TIP3    H139080   2.363   6.212   2.976
13041TIP3    H239081   2.232   6.177   3.043
13042TIP3   OH239082   7.144   7.636   4.991
13042TIP3    H139083   7.059   7.661   4.954
13042TIP3    H239084   7.199   7.714   4.980
13043TIP3   OH239085   2.661   2.516   3.787
13043TIP3    H139086   2.660   2.602   3.745
13043TIP3    H239087   2.636   2.534   3.878
13044TIP3   OH239088   7.581   6.135   6.786
13044TIP3    H139089   7.599   6.228   6.773
13044TIP3    H239090   7.507   6.116   6.728
13045TIP3   OH239091   0.343   0.861   3.188
13045TIP3    H139092   0.431   0.825   3.195
13045TIP3    H239093   0.345   0.914   3.109
13046TIP3   OH239094   1.168   1.572   6.359
13046TIP3    H139095   1.077   1.587   6.333
13046TIP3    H239096   1.170   1.482   6.391
13047TIP3   OH239097   5.989   0.798   5.063
13047TIP3    H139098   5.929   0.731   5.095
13047TIP3    H239099   6.038   0.755   4.994
13048TIP3   OH239100   1.695   1.434   4.268
13048TIP3    H139101   1.763   1.494   4.300
13048TIP3    H239102   1.743   1.367   4.219
13049TIP3   OH239103   4.055   4.211   5.297
13049TIP3    H139104   4.082   4.120   5.312
13049TIP3    H239105   4.129   4.250   5.251
13050TIP3   OH239106   0.518   6.450   1.457
13050TIP3    H139107   0.471   6.510   1.516
13050TIP3    H239108   0.466   6.452   1.376
13051TIP3   OH239109   0.110   6.430   4.317
13051TIP3    H139110   0.062   6.420   4.399
13051TIP3    H239111   0.194   6.467   4.342
13052TIP3   OH239112   7.146   1.681   4.518
13052TIP3    H139113   7.128   1.594   4.555
13052TIP3    H239114   7.229   1.708   4.559
13053TIP3   OH239115   6.388   7.621   1.071
13053TIP3    H139116   6.359   7.556   1.007
13053TIP3    H239117   6.436   7.685   1.020
13054TIP3   OH239118   4.924   5.024   0.093
13054TIP3    H139119   4.996   5.006   0.153
13054TIP3    H239120   4.903   4.939   0.055
13055TIP3   OH239121   1.122   5.385   2.509
13055TIP3    H139122   1.161   5.437   2.579
13055TIP3    H239123   1.151   5.428   2.428
13056TIP3   OH239124   3.208   1.452   0.668
13056TIP3    H139125   3.179   1.538   0.638
13056TIP3    H239126   3.275   1.470   0.734
13057TIP3   OH239127   1.907   6.988   3.087
13057TIP3    H139128   1.934   6.915   3.032
13057TIP3    H239129   1.906   6.952   3.176
13058TIP3   OH239130   1.918   4.025   5.556
13058TIP3    H139131   1.895   4.055   5.468
13058TIP3    H239132   1.949   3.936   5.544
13059TIP3   OH239133   4.775   3.666   4.014
13059TIP3    H139134   4.769   3.760   3.997
13059TIP3    H239135   4.862   3.641   3.984
13060TIP3   OH239136   6.132   1.375   6.123
13060TIP3    H139137   6.062   1.329   6.170
13060TIP3    H239138   6.194   1.399   6.191
13061TIP3   OH239139   2.699   7.753   6.693
13061TIP3    H139140   2.757   7.818   6.731
13061TIP3    H239141   2.669   7.701   6.767
13062TIP3   OH239142   2.751   2.589   0.573
13062TIP3    H139143   2.687   2.548   0.515
13062TIP3    H239144   2.722   2.680   0.581
13063TIP3   OH239145   4.124   7.593   3.444
13063TIP3    H139146   4.204   7.562   3.401
13063TIP3    H239147   4.062   7.608   3.373
13064TIP3   OH239148   1.684   1.330   1.026
13064TIP3    H139149   1.688   1.242   0.987
13064TIP3    H239150   1.607   1.328   1.082
13065TIP3   OH239151   6.424   6.633   0.154
13065TIP3    H139152   6.489   6.590   0.099
13065TIP3    H239153   6.475   6.673   0.224
13066TIP3   OH239154   1.634   6.163   5.802
13066TIP3    H139155   1.542   6.174   5.782
13066TIP3    H239156   1.676   6.241   5.765
13067TIP3   OH239157   4.136   2.010   2.938
13067TIP3    H139158   4.054   2.029   2.892
13067TIP3    H239159   4.148   1.915   2.928
13068TIP3   OH239160   4.392   0.132   4.740
13068TIP3    H139161   4.481   0.096   4.746
13068TIP3    H239162   4.388   0.172   4.653
13069TIP3   OH239163   0.472   4.772   2.425
13069TIP3    H139164   0.430   4.765   2.510
13069TIP3    H239165   0.565   4.756   2.443
13070TIP3   OH239166   2.985   2.329   3.220
13070TIP3    H139167   3.078   2.320   3.242
13070TIP3    H239168   2.985   2.346   3.126
13071TIP3   OH239169   6.165   2.149   2.353
13071TIP3    H139170   6.167   2.072   2.410
13071TIP3    H239171   6.081   2.191   2.371
13072TIP3   OH239172   0.492   2.982   1.548
13072TIP3    H139173   0.504   3.069   1.509
13072TIP3    H239174   0.572   2.934   1.528
13073TIP3   OH239175   5.661   7.132   3.601
13073TIP3    H139176   5.722   7.195   3.638
13073TIP3    H239177   5.711   7.050   3.597
13074TIP3   OH239178   0.114   2.781   4.619
13074TIP3    H139179   0.075   2.721   4.555
13074TIP3    H239180   0.040   2.816   4.668
13075TIP3   OH239181   2.319   5.218   6.694
13075TIP3    H139182   2.309   5.267   6.776
13075TIP3    H239183   2.255   5.259   6.635
13076TIP3   OH239184   4.960   4.709   4.794
13076TIP3    H139185   4.918   4.760   4.863
13076TIP3    H239186   4.910   4.729   4.715
13077TIP3   OH239187   6.744   5.946   6.210
13077TIP3    H139188   6.692   6.023   6.233
13077TIP3    H239189   6.823   5.953   6.264
13078TIP3   OH239190   4.976   5.093   4.257
13078TIP3    H139191   4.995   5.187   4.256
13078TIP3    H239192   4.884   5.087   4.232
13079TIP3   OH239193   1.802   2.285   2.830
13079TIP3    H139194   1.855   2.247   2.760
13079TIP3    H239195   1.779   2.209   2.885
13080TIP3   OH239196   5.714   7.097   5.626
13080TIP3    H139197   5.640   7.138   5.669
13080TIP3    H239198   5.791   7.142   5.662
13081TIP3   OH239199   4.331   5.951   3.917
13081TIP3    H139200   4.238   5.929   3.913
13081TIP3    H239201   4.369   5.910   3.839
13082TIP3   OH239202   0.287   3.018   3.403
13082TIP3    H139203   0.245   2.977   3.478
13082TIP3    H239204   0.250   3.106   3.399
13083TIP3   OH239205   6.299   3.315   6.379
13083TIP3    H139206   6.378   3.265   6.360
13083TIP3    H239207   6.229   3.269   6.331
13084TIP3   OH239208   2.465   4.426   2.127
13084TIP3    H139209   2.372   4.435   2.107
13084TIP3    H239210   2.473   4.456   2.218
13085TIP3   OH239211   0.511   3.421   4.044
13085TIP3    H139212   0.442   3.357   4.055
13085TIP3    H239213   0.511   3.471   4.126
13086TIP3   OH239214   1.737   5.166   2.803
13086TIP3    H139215   1.772   5.217   2.875
13086TIP3    H239216   1.718   5.080   2.841
13087TIP3   OH239217   1.722   6.881   4.456
13087TIP3    H139218   1.773   6.803   4.478
13087TIP3    H239219   1.631   6.852   4.463
13088TIP3   OH239220   4.317   2.850   1.228
13088TIP3    H139221   4.402   2.872   1.190
13088TIP3    H239222   4.255   2.909   1.184
13089TIP3   OH239223   0.197   6.807   6.342
13089TIP3    H139224   0.163   6.757   6.268
13089TIP3    H239225   0.171   6.757   6.420
13090TIP3   OH239226   2.215   3.882   4.518
13090TIP3    H139227   2.231   3.913   4.607
13090TIP3    H239228   2.135   3.927   4.491
13091TIP3   OH239229   5.707   0.728   0.175
13091TIP3    H139230   5.713   0.776   0.092
13091TIP3    H239231   5.621   0.751   0.210
13092TIP3   OH239232   2.223   1.776   2.520
13092TIP3    H139233   2.143   1.731   2.495
13092TIP3    H239234   2.243   1.743   2.607
13093TIP3   OH239235   3.157   5.584   2.470
13093TIP3    H139236   3.224   5.541   2.523
13093TIP3    H239237   3.122   5.514   2.414
13094TIP3   OH239238   8.260   1.304   1.013
13094TIP3    H139239   8.333   1.365   1.023
13094TIP3    H239240   8.182   1.358   1.024
13095TIP3   OH239241   1.887   0.252   1.114
13095TIP3    H139242   1.853   0.273   1.027
13095TIP3    H239243   1.824   0.189   1.150
13096TIP3   OH239244   6.111   0.923   0.536
13096TIP3    H139245   6.149   0.998   0.582
13096TIP3    H239246   6.175   0.853   0.548
13097TIP3   OH239247   0.318   3.504   4.960
13097TIP3    H139248   0.327   3.513   4.865
13097TIP3    H239249   0.341   3.591   4.994
13098TIP3   OH239250   5.065   3.693   2.661
13098TIP3    H139251   5.134   3.650   2.610
13098TIP3    H239252   5.073   3.655   2.748
13099TIP3   OH239253   1.081   1.360   4.690
13099TIP3    H139254   1.017   1.421   4.654
13099TIP3    H239255   1.054   1.347   4.781
13100TIP3   OH239256   7.056   0.964   4.784
13100TIP3    H139257   7.010   0.947   4.866
13100TIP3    H239258   7.025   1.050   4.757
13101TIP3   OH239259   7.114   0.437   0.448
13101TIP3    H139260   7.120   0.456   0.354
13101TIP3    H239261   7.050   0.499   0.481
13102TIP3   OH239262   1.049   6.346   3.091
13102TIP3    H139263   0.993   6.298   3.029
13102TIP3    H239264   1.018   6.318   3.177
13103TIP3   OH239265   4.331   2.255   3.594
13103TIP3    H139266   4.395   2.324   3.611
13103TIP3    H239267   4.371   2.202   3.525
13104TIP3   OH239268   2.961   4.240   6.332
13104TIP3    H139269   2.969   4.191   6.413
13104TIP3    H239270   2.867   4.248   6.318
13105TIP3   OH239271   2.991   1.416   2.054
13105TIP3    H139272   2.944   1.472   1.992
13105TIP3    H239273   3.002   1.333   2.008
13106TIP3   OH239274   3.928   3.183   3.365
13106TIP3    H139275   3.955   3.120   3.431
13106TIP3    H239276   3.887   3.254   3.415
13107TIP3   OH239277   3.486   1.783   2.178
13107TIP3    H139278   3.539   1.737   2.113
13107TIP3    H239279   3.427   1.716   2.213
13108TIP3   OH239280   2.584   0.209   0.326
13108TIP3    H139281   2.659   0.240   0.275
13108TIP3    H239282   2.616   0.130   0.370
13109TIP3   OH239283   1.242   5.013   0.382
13109TIP3    H139284   1.165   4.972   0.421
13109TIP3    H239285   1.218   5.027   0.291
13110TIP3   OH239286   3.090   5.303   5.918
13110TIP3    H139287   3.087   5.311   5.823
13110TIP3    H239288   3.031   5.230   5.938
13111TIP3   OH239289   7.152   1.554   5.911
13111TIP3    H139290   7.090   1.611   5.866
13111TIP3    H239291   7.168   1.482   5.849
13112TIP3   OH239292   2.068   2.922   0.470
13112TIP3    H139293   2.070   2.826   0.472
13112TIP3    H239294   1.975   2.943   0.461
13113TIP3   OH239295   1.684   7.345   0.174
13113TIP3    H139296   1.711   7.256   0.155
13113TIP3    H239297   1.591   7.348   0.151
13114TIP3   OH239298   5.510   1.197   2.170
13114TIP3    H139299   5.538   1.122   2.117
13114TIP3    H239300   5.510   1.271   2.108
13115TIP3   OH239301   6.570   6.012   2.698
13115TIP3    H139302   6.611   6.054   2.622
13115TIP3    H239303   6.545   6.085   2.755
13116TIP3   OH239304   3.839   4.541   4.797
13116TIP3    H139305   3.781   4.485   4.744
13116TIP3    H239306   3.792   4.624   4.804
13117TIP3   OH239307   5.772   0.159   1.276
13117TIP3    H139308   5.691   0.150   1.326
13117TIP3    H239309   5.831   0.092   1.312
13118TIP3   OH239310   2.420   0.419   5.343
13118TIP3    H139311   2.488   0.385   5.401
13118TIP3    H239312   2.354   0.349   5.341
13119TIP3   OH239313   2.930   1.661   0.847
13119TIP3    H139314   2.838   1.686   0.861
13119TIP3    H239315   2.962   1.723   0.782
13120TIP3   OH239316   5.078   2.822   0.633
13120TIP3    H139317   5.115   2.909   0.647
13120TIP3    H239318   5.051   2.822   0.541
13121TIP3   OH239319   5.743   3.980   3.914
13121TIP3    H139320   5.819   3.944   3.958
13121TIP3    H239321   5.778   4.020   3.834
13122TIP3   OH239322   2.238   3.766   3.236
13122TIP3    H139323   2.228   3.824   3.311
13122TIP3    H239324   2.175   3.799   3.172
13123TIP3   OH239325   4.649   5.121   4.531
13123TIP3    H139326   4.573   5.164   4.571
13123TIP3    H239327   4.635   5.028   4.546
13124TIP3   OH239328   2.261   7.623   2.555
13124TIP3    H139329   2.338   7.589   2.509
13124TIP3    H239330   2.284   7.712   2.579
13125TIP3   OH239331   7.373   4.144   3.321
13125TIP3    H139332   7.286   4.184   3.321
13125TIP3    H239333   7.361   4.062   3.368
13126TIP3   OH239334   7.640   7.213   4.967
13126TIP3    H139335   7.728   7.204   4.931
13126TIP3    H239336   7.581   7.195   4.893
13127TIP3   OH239337   5.041   1.551   3.667
13127TIP3    H139338   4.968   1.496   3.640
13127TIP3    H239339   5.118   1.495   3.658
13128TIP3   OH239340   0.374   4.720   2.680
13128TIP3    H139341   0.353   4.812   2.664
13128TIP3    H239342   0.289   4.679   2.696
13129TIP3   OH239343   1.988   1.215   4.369
13129TIP3    H139344   1.979   1.120   4.358
13129TIP3    H239345   1.934   1.252   4.298
13130TIP3   OH239346   0.853   2.157   6.572
13130TIP3    H139347   0.889   2.069   6.581
13130TIP3    H239348   0.762   2.149   6.602
13131TIP3   OH239349   2.595   7.239   0.541
13131TIP3    H139350   2.588   7.329   0.510
13131TIP3    H239351   2.663   7.242   0.609
13132TIP3   OH239352   6.009   7.556   4.763
13132TIP3    H139353   6.093   7.511   4.777
13132TIP3    H239354   5.946   7.484   4.752
13133TIP3   OH239355   2.844   7.222   2.079
13133TIP3    H139356   2.782   7.150   2.086
13133TIP3    H239357   2.906   7.195   2.011
13134TIP3   OH239358   3.830   1.226   0.247
13134TIP3    H139359   3.759   1.273   0.203
13134TIP3    H239360   3.901   1.290   0.253
13135TIP3   OH239361   4.950   2.177   1.146
13135TIP3    H139362   4.912   2.101   1.102
13135TIP3    H239363   4.902   2.252   1.111
13136TIP3   OH239364   7.646   6.685   5.081
13136TIP3    H139365   7.728   6.662   5.038
13136TIP3    H239366   7.583   6.620   5.050
13137TIP3   OH239367   6.589   2.099   5.222
13137TIP3    H139368   6.641   2.161   5.272
13137TIP3    H239369   6.535   2.054   5.287
13138TIP3   OH239370   5.900   4.906   3.857
13138TIP3    H139371   5.900   4.868   3.769
13138TIP3    H239372   5.835   4.855   3.905
13139TIP3   OH239373   7.206   5.942   0.057
13139TIP3    H139374   7.168   5.924  -0.029
13139TIP3    H239375   7.244   6.030   0.048
13140TIP3   OH239376   0.445   3.326   1.208
13140TIP3    H139377   0.373   3.389   1.218
13140TIP3    H239378   0.402   3.246   1.177
13141TIP3   OH239379   3.190   2.393   0.987
13141TIP3    H139380   3.135   2.420   1.061
13141TIP3    H239381   3.235   2.315   1.018
13142TIP3   OH239382   7.318   5.087   1.678
13142TIP3    H139383   7.288   5.091   1.768
13142TIP3    H239384   7.277   5.008   1.642
13143TIP3   OH239385   3.075   5.838   0.666
13143TIP3    H139386   3.040   5.921   0.632
13143TIP3    H239387   3.165   5.858   0.690
13144TIP3   OH239388   6.394   3.005   2.898
13144TIP3    H139389   6.378   2.911   2.891
13144TIP3    H239390   6.476   3.013   2.947
13145TIP3   OH239391   3.502   4.545   2.169
13145TIP3    H139392   3.451   4.481   2.118
13145TIP3    H239393   3.588   4.546   2.127
13146TIP3   OH239394   1.497   2.491   3.339
13146TIP3    H139395   1.445   2.412   3.324
13146TIP3    H239396   1.559   2.493   3.266
13147TIP3   OH239397   6.346   5.496   1.664
13147TIP3    H139398   6.429   5.453   1.646
13147TIP3    H239399   6.281   5.446   1.614
13148TIP3   OH239400   5.768   7.070   0.308
13148TIP3    H139401   5.779   7.002   0.241
13148TIP3    H239402   5.818   7.038   0.382
13149TIP3   OH239403   8.240   7.430   4.644
13149TIP3    H139404   8.150   7.449   4.618
13149TIP3    H239405   8.235   7.346   4.690
13150TIP3   OH239406   6.057   7.179   4.170
13150TIP3    H139407   6.126   7.113   4.164
13150TIP3    H239408   6.086   7.237   4.241
13151TIP3   OH239409   3.420   1.820   5.826
13151TIP3    H139410   3.400   1.805   5.919
13151TIP3    H239411   3.366   1.894   5.801
13152TIP3   OH239412   5.058   6.126   3.660
13152TIP3    H139413   5.106   6.206   3.638
13152TIP3    H239414   5.055   6.126   3.755
13153TIP3   OH239415   5.939   7.341   4.562
13153TIP3    H139416   5.953   7.249   4.585
13153TIP3    H239417   5.844   7.353   4.567
13154TIP3   OH239418   2.229   2.057   0.548
13154TIP3    H139419   2.272   2.130   0.593
13154TIP3    H239420   2.298   2.019   0.493
13155TIP3   OH239421   4.874   4.969   1.568
13155TIP3    H139422   4.854   4.911   1.642
13155TIP3    H239423   4.884   4.910   1.493
13156TIP3   OH239424   1.163   3.409   4.700
13156TIP3    H139425   1.148   3.344   4.769
13156TIP3    H239426   1.143   3.363   4.619
13157TIP3   OH239427   1.972   5.581   0.088
13157TIP3    H139428   1.913   5.537   0.027
13157TIP3    H239429   2.059   5.547   0.068
13158TIP3   OH239430   3.968   5.333   5.948
13158TIP3    H139431   3.887   5.363   5.990
13158TIP3    H239432   3.996   5.259   6.003
13159TIP3   OH239433   0.040   5.667   4.167
13159TIP3    H139434   0.125   5.702   4.193
13159TIP3    H239435  -0.014   5.745   4.152
13160TIP3   OH239436   7.588   0.604   0.944
13160TIP3    H139437   7.526   0.564   1.005
13160TIP3    H239438   7.563   0.568   0.859
13161TIP3   OH239439   8.261   1.809   2.725
13161TIP3    H139440   8.205   1.887   2.729
13161TIP3    H239441   8.292   1.797   2.815
13162TIP3   OH239442   3.334   1.875   6.643
13162TIP3    H139443   3.285   1.818   6.702
13162TIP3    H239444   3.416   1.829   6.626
13163TIP3   OH239445   7.230   2.440   5.653
13163TIP3    H139446   7.137   2.443   5.630
13163TIP3    H239447   7.273   2.487   5.582
13164TIP3   OH239448   2.701   2.852   0.620
13164TIP3    H139449   2.663   2.895   0.544
13164TIP3    H239450   2.752   2.920   0.664
13165TIP3   OH239451   3.239   1.432   4.411
13165TIP3    H139452   3.181   1.416   4.337
13165TIP3    H239453   3.294   1.355   4.415
13166TIP3   OH239454   7.970   0.022   5.582
13166TIP3    H139455   7.886   0.067   5.590
13166TIP3    H239456   7.960  -0.035   5.506
13167TIP3   OH239457   5.564   7.685   6.701
13167TIP3    H139458   5.622   7.760   6.713
13167TIP3    H239459   5.477   7.719   6.723
13168TIP3   OH239460   0.780   6.722   0.017
13168TIP3    H139461   0.724   6.645   0.013
13168TIP3    H239462   0.832   6.711   0.096
13169TIP3   OH239463   0.846   4.615   2.877
13169TIP3    H139464   0.854   4.557   2.802
13169TIP3    H239465   0.767   4.666   2.860
13170TIP3   OH239466   7.724   3.067   5.452
13170TIP3    H139467   7.709   3.037   5.542
13170TIP3    H239468   7.672   3.147   5.445
13171TIP3   OH239469   0.360   4.789   1.301
13171TIP3    H139470   0.361   4.885   1.295
13171TIP3    H239471   0.353   4.771   1.395
13172TIP3   OH239472   1.596   3.026   0.711
13172TIP3    H139473   1.646   3.041   0.791
13172TIP3    H239474   1.507   3.008   0.742
13173TIP3   OH239475   5.760   2.524   2.121
13173TIP3    H139476   5.715   2.577   2.055
13173TIP3    H239477   5.786   2.587   2.189
13174TIP3   OH239478   2.153   2.131   5.205
13174TIP3    H139479   2.196   2.211   5.235
13174TIP3    H239480   2.062   2.156   5.194
13175TIP3   OH239481   7.576   2.150   6.536
13175TIP3    H139482   7.482   2.140   6.550
13175TIP3    H239483   7.610   2.173   6.623
13176TIP3   OH239484   7.298   1.617   0.288
13176TIP3    H139485   7.274   1.698   0.332
13176TIP3    H239486   7.226   1.600   0.227
13177TIP3   OH239487   4.169   2.015   2.328
13177TIP3    H139488   4.113   1.993   2.254
13177TIP3    H239489   4.258   2.018   2.292
13178TIP3   OH239490   1.731   3.689   0.652
13178TIP3    H139491   1.754   3.634   0.726
13178TIP3    H239492   1.809   3.688   0.596
13179TIP3   OH239493   1.953   4.962   2.433
13179TIP3    H139494   2.036   5.009   2.447
13179TIP3    H239495   1.976   4.870   2.443
13180TIP3   OH239496   4.147   3.238   6.461
13180TIP3    H139497   4.153   3.146   6.435
13180TIP3    H239498   4.060   3.246   6.501
13181TIP3   OH239499   6.374   6.954   5.795
13181TIP3    H139500   6.320   6.981   5.721
13181TIP3    H239501   6.313   6.914   5.857
13182TIP3   OH239502   1.464   6.112   5.402
13182TIP3    H139503   1.496   6.039   5.455
13182TIP3    H239504   1.537   6.133   5.344
13183TIP3   OH239505   5.842   1.477   1.641
13183TIP3    H139506   5.931   1.445   1.629
13183TIP3    H239507   5.851   1.551   1.701
13184TIP3   OH239508   0.904   0.960   1.646
13184TIP3    H139509   0.866   0.882   1.685
13184TIP3    H239510   0.992   0.965   1.682
13185TIP3   OH239511   2.793   7.371   3.977
13185TIP3    H139512   2.843   7.452   3.983
13185TIP3    H239513   2.701   7.398   3.985
13186TIP3   OH239514   5.723   4.999   3.142
13186TIP3    H139515   5.783   5.011   3.215
13186TIP3    H239516   5.769   4.938   3.084
13187TIP3   OH239517   2.416   1.340   5.246
13187TIP3    H139518   2.387   1.314   5.334
13187TIP3    H239519   2.421   1.435   5.249
13188TIP3   OH239520   7.322   0.327   4.533
13188TIP3    H139521   7.363   0.307   4.448
13188TIP3    H239522   7.259   0.256   4.545
13189TIP3   OH239523   6.424   3.287   5.271
13189TIP3    H139524   6.413   3.372   5.227
13189TIP3    H239525   6.519   3.277   5.279
13190TIP3   OH239526   7.243   6.523   4.825
13190TIP3    H139527   7.189   6.570   4.888
13190TIP3    H239528   7.223   6.564   4.740
13191TIP3   OH239529   4.130   6.489   6.634
13191TIP3    H139530   4.055   6.470   6.579
13191TIP3    H239531   4.113   6.444   6.716
13192TIP3   OH239532   0.981   5.885   4.160
13192TIP3    H139533   0.910   5.846   4.212
13192TIP3    H239534   1.056   5.886   4.219
13193TIP3   OH239535   2.076   4.244   2.960
13193TIP3    H139536   2.134   4.186   3.009
13193TIP3    H239537   1.999   4.190   2.941
13194TIP3   OH239538   0.270   0.357   6.053
13194TIP3    H139539   0.232   0.445   6.059
13194TIP3    H239540   0.364   0.372   6.046
13195TIP3   OH239541   4.155   0.946   2.722
13195TIP3    H139542   4.222   0.950   2.654
13195TIP3    H239543   4.189   0.999   2.794
13196TIP3   OH239544   5.324   6.732   2.178
13196TIP3    H139545   5.404   6.780   2.199
13196TIP3    H239546   5.305   6.755   2.087
13197TIP3   OH239547   0.368   2.981   1.177
13197TIP3    H139548   0.293   3.033   1.206
13197TIP3    H239549   0.366   2.986   1.082
13198TIP3   OH239550   5.372   0.967   4.663
13198TIP3    H139551   5.326   0.979   4.580
13198TIP3    H239552   5.367   0.873   4.679
13199TIP3   OH239553   5.130   3.115   2.422
13199TIP3    H139554   5.087   3.158   2.496
13199TIP3    H239555   5.058   3.087   2.365
13200TIP3   OH239556   4.451   1.246   4.726
13200TIP3    H139557   4.501   1.209   4.653
13200TIP3    H239558   4.401   1.318   4.687
13201TIP3   OH239559   4.748   3.985   4.205
13201TIP3    H139560   4.801   3.914   4.241
13201TIP3    H239561   4.812   4.048   4.171
13202TIP3   OH239562   3.034   2.768   5.704
13202TIP3    H139563   3.099   2.765   5.775
13202TIP3    H239564   3.072   2.714   5.635
13203TIP3   OH239565   1.352   4.403   0.093
13203TIP3    H139566   1.338   4.363   0.178
13203TIP3    H239567   1.297   4.482   0.094
13204TIP3   OH239568   0.403   2.135   2.171
13204TIP3    H139569   0.443   2.089   2.097
13204TIP3    H239570   0.454   2.107   2.247
13205TIP3   OH239571   0.613   1.558   3.597
13205TIP3    H139572   0.596   1.515   3.681
13205TIP3    H239573   0.531   1.606   3.578
13206TIP3   OH239574   1.581   2.350   2.129
13206TIP3    H139575   1.537   2.269   2.106
13206TIP3    H239576   1.545   2.374   2.214
13207TIP3   OH239577   0.371   1.916   0.287
13207TIP3    H139578   0.320   1.919   0.206
13207TIP3    H239579   0.435   1.987   0.278
13208TIP3   OH239580   4.980   5.565   0.054
13208TIP3    H139581   4.987   5.549   0.148
13208TIP3    H239582   4.887   5.554   0.035
13209TIP3   OH239583   2.663   1.654   3.308
13209TIP3    H139584   2.749   1.663   3.350
13209TIP3    H239585   2.603   1.701   3.365
13210TIP3   OH239586   3.553   0.553   2.262
13210TIP3    H139587   3.507   0.624   2.216
13210TIP3    H239588   3.485   0.487   2.278
13211TIP3   OH239589   4.998   7.057   5.858
13211TIP3    H139590   4.981   6.963   5.847
13211TIP3    H239591   5.013   7.068   5.952
13212TIP3   OH239592   7.079   4.467   0.182
13212TIP3    H139593   7.118   4.526   0.246
13212TIP3    H239594   7.057   4.388   0.232
13213TIP3   OH239595   0.117   5.154   5.137
13213TIP3    H139596   0.068   5.076   5.110
13213TIP3    H239597   0.122   5.147   5.233
13214TIP3   OH239598   5.645   2.294   2.218
13214TIP3    H139599   5.680   2.354   2.152
13214TIP3    H239600   5.714   2.229   2.230
13215TIP3   OH239601   7.973   5.929   5.895
13215TIP3    H139602   7.977   6.001   5.832
13215TIP3    H239603   7.964   5.971   5.980
13216TIP3   OH239604   1.165   2.075   0.145
13216TIP3    H139605   1.230   2.143   0.159
13216TIP3    H239606   1.109   2.079   0.223
13217TIP3   OH239607   2.135   6.036   6.635
13217TIP3    H139608   2.123   6.083   6.717
13217TIP3    H239609   2.056   5.984   6.625
13218TIP3   OH239610   1.593   0.152   2.180
13218TIP3    H139611   1.600   0.208   2.257
13218TIP3    H239612   1.599   0.063   2.214
13219TIP3   OH239613   7.300   0.150   2.762
13219TIP3    H139614   7.213   0.187   2.746
13219TIP3    H239615   7.318   0.171   2.854
13220TIP3   OH239616   7.260   2.480   6.723
13220TIP3    H139617   7.254   2.574   6.738
13220TIP3    H239618   7.286   2.472   6.631
13221TIP3   OH239619   0.086   3.290   4.574
13221TIP3    H139620   0.150   3.314   4.641
13221TIP3    H239621   0.115   3.205   4.542
13222TIP3   OH239622   7.826   2.017   1.476
13222TIP3    H139623   7.877   2.024   1.395
13222TIP3    H239624   7.892   2.006   1.545
13223TIP3   OH239625   1.688   2.544   0.064
13223TIP3    H139626   1.663   2.461   0.023
13223TIP3    H239627   1.651   2.539   0.152
13224TIP3   OH239628   1.858   1.038   4.612
13224TIP3    H139629   1.889   1.041   4.702
13224TIP3    H239630   1.938   1.032   4.559
13225TIP3   OH239631   3.175   5.956   1.494
13225TIP3    H139632   3.246   5.897   1.467
13225TIP3    H239633   3.190   6.036   1.442
13226TIP3   OH239634   3.183   0.554   0.602
13226TIP3    H139635   3.217   0.483   0.656
13226TIP3    H239636   3.164   0.513   0.517
13227TIP3   OH239637   6.206   1.633   4.528
13227TIP3    H139638   6.184   1.552   4.574
13227TIP3    H239639   6.300   1.627   4.513
13228TIP3   OH239640   7.704   4.569   2.218
13228TIP3    H139641   7.721   4.560   2.124
13228TIP3    H239642   7.706   4.663   2.234
13229TIP3   OH239643   1.558   1.689   1.497
13229TIP3    H139644   1.648   1.697   1.465
13229TIP3    H239645   1.555   1.602   1.538
13230TIP3   OH239646   0.777   4.198   5.215
13230TIP3    H139647   0.781   4.149   5.132
13230TIP3    H239648   0.869   4.213   5.238
13231TIP3   OH239649   6.899   5.380   3.873
13231TIP3    H139650   6.894   5.370   3.968
13231TIP3    H239651   6.830   5.443   3.852
13232TIP3   OH239652   1.390   5.825   4.567
13232TIP3    H139653   1.318   5.820   4.629
13232TIP3    H239654   1.388   5.915   4.535
13233TIP3   OH239655   7.314   6.335   0.252
13233TIP3    H139656   7.363   6.411   0.221
13233TIP3    H239657   7.312   6.276   0.177
13234TIP3   OH239658   6.275   6.537   4.363
13234TIP3    H139659   6.291   6.609   4.425
13234TIP3    H239660   6.189   6.503   4.388
13235TIP3   OH239661   7.186   1.734   3.302
13235TIP3    H139662   7.138   1.666   3.351
13235TIP3    H239663   7.241   1.685   3.241
13236TIP3   OH239664   1.978   5.268   4.377
13236TIP3    H139665   1.994   5.237   4.288
13236TIP3    H239666   1.895   5.227   4.403
13237TIP3   OH239667   4.061   0.194   2.312
13237TIP3    H139668   4.153   0.187   2.286
13237TIP3    H239669   4.054   0.281   2.351
13238TIP3   OH239670   3.642   3.331   4.065
13238TIP3    H139671   3.726   3.309   4.106
13238TIP3    H239672   3.662   3.337   3.971
13239TIP3   OH239673   8.251   1.010   4.768
13239TIP3    H139674   8.188   0.997   4.697
13239TIP3    H239675   8.323   0.950   4.748
13240TIP3   OH239676   0.888   1.207   2.986
13240TIP3    H139677   0.832   1.166   3.052
13240TIP3    H239678   0.912   1.136   2.927
13241TIP3   OH239679   8.276   1.025   5.625
13241TIP3    H139680   8.239   1.076   5.553
13241TIP3    H239681   8.306   1.090   5.688
13242TIP3   OH239682   5.538   5.272   4.307
13242TIP3    H139683   5.617   5.275   4.361
13242TIP3    H239684   5.520   5.179   4.297
13243TIP3   OH239685   1.863   2.950   0.203
13243TIP3    H139686   1.782   2.904   0.181
13243TIP3    H239687   1.849   3.039   0.170
13244TIP3   OH239688   2.959   3.666   3.871
13244TIP3    H139689   3.009   3.666   3.789
13244TIP3    H239690   3.017   3.626   3.935
13245TIP3   OH239691   7.031   5.814   3.319
13245TIP3    H139692   6.965   5.793   3.384
13245TIP3    H239693   7.035   5.910   3.319
13246TIP3   OH239694   3.209   5.343   4.496
13246TIP3    H139695   3.201   5.292   4.576
13246TIP3    H239696   3.303   5.362   4.489
13247TIP3   OH239697   6.581   5.909   1.872
13247TIP3    H139698   6.657   5.911   1.814
13247TIP3    H239699   6.515   5.859   1.823
13248TIP3   OH239700   6.653   7.076   2.117
13248TIP3    H139701   6.644   7.159   2.163
13248TIP3    H239702   6.587   7.019   2.156
13249TIP3   OH239703   1.595   6.359   3.672
13249TIP3    H139704   1.555   6.434   3.716
13249TIP3    H239705   1.526   6.293   3.669
13250TIP3   OH239706   7.065   1.271   5.690
13250TIP3    H139707   7.097   1.181   5.681
13250TIP3    H239708   7.142   1.325   5.672
13251TIP3   OH239709   3.652   2.375   1.914
13251TIP3    H139710   3.708   2.399   1.988
13251TIP3    H239711   3.606   2.456   1.891
13252TIP3   OH239712   0.379   4.775   4.721
13252TIP3    H139713   0.345   4.816   4.801
13252TIP3    H239714   0.351   4.833   4.651
13253TIP3   OH239715   2.610   1.984   3.573
13253TIP3    H139716   2.553   2.061   3.568
13253TIP3    H239717   2.676   2.008   3.639
13254TIP3   OH239718   6.702   2.840   1.000
13254TIP3    H139719   6.686   2.871   0.911
13254TIP3    H239720   6.710   2.745   0.990
13255TIP3   OH239721   7.492   4.494   3.406
13255TIP3    H139722   7.443   4.481   3.487
13255TIP3    H239723   7.482   4.411   3.359
13256TIP3   OH239724   3.107   1.275   5.776
13256TIP3    H139725   3.084   1.361   5.809
13256TIP3    H239726   3.153   1.233   5.849
13257TIP3   OH239727   1.791   1.364   3.118
13257TIP3    H139728   1.734   1.424   3.069
13257TIP3    H239729   1.875   1.411   3.124
13258TIP3   OH239730   5.133   0.045   2.722
13258TIP3    H139731   5.220   0.008   2.711
13258TIP3    H239732   5.133   0.124   2.669
13259TIP3   OH239733   2.804   3.068   3.021
13259TIP3    H139734   2.787   3.147   2.970
13259TIP3    H239735   2.811   3.099   3.111
13260TIP3   OH239736   6.578   5.221   0.201
13260TIP3    H139737   6.661   5.270   0.208
13260TIP3    H239738   6.527   5.253   0.275
13261TIP3   OH239739   3.831   6.607   4.053
13261TIP3    H139740   3.840   6.596   4.148
13261TIP3    H239741   3.807   6.698   4.041
13262TIP3   OH239742   2.121   7.490   6.721
13262TIP3    H139743   2.199   7.447   6.687
13262TIP3    H239744   2.056   7.420   6.726
13263TIP3   OH239745   6.583   3.443   1.341
13263TIP3    H139746   6.676   3.437   1.322
13263TIP3    H239747   6.544   3.481   1.263
13264TIP3   OH239748   0.270   3.624   2.481
13264TIP3    H139749   0.346   3.597   2.532
13264TIP3    H239750   0.213   3.668   2.544
13265TIP3   OH239751   6.376   5.818   6.362
13265TIP3    H139752   6.307   5.868   6.318
13265TIP3    H239753   6.340   5.796   6.447
13266TIP3   OH239754   4.203   5.798   2.013
13266TIP3    H139755   4.135   5.732   1.998
13266TIP3    H239756   4.252   5.765   2.088
13267TIP3   OH239757   4.715   3.013   5.870
13267TIP3    H139758   4.673   3.065   5.802
13267TIP3    H239759   4.708   3.066   5.950
13268TIP3   OH239760   1.841   2.167   6.558
13268TIP3    H139761   1.848   2.230   6.629
13268TIP3    H239762   1.930   2.161   6.523
13269TIP3   OH239763   7.600   7.451   4.218
13269TIP3    H139764   7.612   7.362   4.184
13269TIP3    H239765   7.654   7.506   4.161
13270TIP3   OH239766   0.163   2.097   2.849
13270TIP3    H139767   0.180   2.082   2.942
13270TIP3    H239768   0.193   2.017   2.806
13271TIP3   OH239769   5.841   4.392   4.427
13271TIP3    H139770   5.929   4.404   4.391
13271TIP3    H239771   5.826   4.471   4.480
13272TIP3   OH239772   7.799   2.138   1.882
13272TIP3    H139773   7.746   2.177   1.813
13272TIP3    H239774   7.838   2.061   1.842
13273TIP3   OH239775   4.414   6.039   4.779
13273TIP3    H139776   4.508   6.028   4.793
13273TIP3    H239777   4.404   6.040   4.684
13274TIP3   OH239778   6.030   2.148   3.828
13274TIP3    H139779   6.125   2.142   3.840
13274TIP3    H239780   6.013   2.094   3.751
13275TIP3   OH239781   3.724   6.722   3.148
13275TIP3    H139782   3.792   6.663   3.179
13275TIP3    H239783   3.767   6.807   3.140
13276TIP3   OH239784   4.073   4.202   0.494
13276TIP3    H139785   3.993   4.249   0.472
13276TIP3    H239786   4.135   4.270   0.519
13277TIP3   OH239787   0.262   3.217   1.021
13277TIP3    H139788   0.176   3.200   0.982
13277TIP3    H239789   0.323   3.211   0.948
13278TIP3   OH239790   8.145   2.992   6.589
13278TIP3    H139791   8.081   3.026   6.526
13278TIP3    H239792   8.230   3.016   6.552
13279TIP3   OH239793   7.646   2.350   6.330
13279TIP3    H139794   7.571   2.294   6.353
13279TIP3    H239795   7.713   2.328   6.395
13280TIP3   OH239796   4.170   0.440   4.866
13280TIP3    H139797   4.156   0.358   4.914
13280TIP3    H239798   4.214   0.498   4.929
13281TIP3   OH239799   7.893   2.746   3.774
13281TIP3    H139800   7.968   2.804   3.782
13281TIP3    H239801   7.927   2.667   3.733
13282TIP3   OH239802   0.070   2.297   1.327
13282TIP3    H139803   0.148   2.284   1.273
13282TIP3    H239804   0.064   2.218   1.380
13283TIP3   OH239805   6.699   1.915   5.576
13283TIP3    H139806   6.679   1.861   5.653
13283TIP3    H239807   6.683   1.857   5.501
13284TIP3   OH239808   2.022   6.310   4.991
13284TIP3    H139809   2.027   6.229   5.042
13284TIP3    H239810   2.113   6.339   4.983
13285TIP3   OH239811   1.826   6.086   3.372
13285TIP3    H139812   1.743   6.044   3.392
13285TIP3    H239813   1.817   6.175   3.407
13286TIP3   OH239814   4.954   7.053   2.479
13286TIP3    H139815   4.988   6.979   2.428
13286TIP3    H239816   4.891   7.095   2.421
13287TIP3   OH239817   5.393   2.379   3.435
13287TIP3    H139818   5.332   2.317   3.474
13287TIP3    H239819   5.463   2.388   3.500
13288TIP3   OH239820   0.334   0.522   5.465
13288TIP3    H139821   0.320   0.616   5.479
13288TIP3    H239822   0.251   0.481   5.490
13289TIP3   OH239823   4.073   4.542   3.719
13289TIP3    H139824   4.120   4.460   3.734
13289TIP3    H239825   3.981   4.516   3.708
13290TIP3   OH239826   5.712   6.871   0.120
13290TIP3    H139827   5.626   6.833   0.105
13290TIP3    H239828   5.760   6.803   0.168
13291TIP3   OH239829   5.424   2.748   5.429
13291TIP3    H139830   5.380   2.796   5.498
13291TIP3    H239831   5.429   2.809   5.356
13292TIP3   OH239832   4.696   0.041   1.534
13292TIP3    H139833   4.658   0.028   1.447
13292TIP3    H239834   4.633   0.096   1.580
13293TIP3   OH239835   0.369   4.313   0.129
13293TIP3    H139836   0.353   4.387   0.071
13293TIP3    H239837   0.412   4.353   0.206
13294TIP3   OH239838   6.941   5.783   5.099
13294TIP3    H139839   6.864   5.787   5.155
13294TIP3    H239840   6.948   5.691   5.074
13295TIP3   OH239841   4.037   2.149   2.528
13295TIP3    H139842   3.962   2.168   2.472
13295TIP3    H239843   4.103   2.112   2.470
13296TIP3   OH239844   3.534   2.490   5.308
13296TIP3    H139845   3.548   2.443   5.390
13296TIP3    H239846   3.622   2.512   5.278
13297TIP3   OH239847   5.774   1.655   5.423
13297TIP3    H139848   5.765   1.702   5.340
13297TIP3    H239849   5.865   1.627   5.425
13298TIP3   OH239850   7.597   2.582   4.587
13298TIP3    H139851   7.526   2.633   4.627
13298TIP3    H239852   7.677   2.623   4.620
13299TIP3   OH239853   0.083   4.094   0.081
13299TIP3    H139854   0.045   4.119  -0.003
13299TIP3    H239855   0.083   4.176   0.132
13300TIP3   OH239856   2.743   5.822   6.763
13300TIP3    H139857   2.721   5.769   6.686
13300TIP3    H239858   2.677   5.891   6.764
13301TIP3   OH239859   8.088   6.441   4.518
13301TIP3    H139860   8.012   6.388   4.494
13301TIP3    H239861   8.058   6.494   4.593
13302TIP3   OH239862   3.698   7.249   3.918
13302TIP3    H139863   3.750   7.211   3.847
13302TIP3    H239864   3.753   7.318   3.955
13303TIP3   OH239865   1.949   7.715   6.737
13303TIP3    H139866   2.026   7.658   6.739
13303TIP3    H239867   1.891   7.680   6.805
13304TIP3   OH239868   0.160   6.298   1.629
13304TIP3    H139869   0.172   6.327   1.539
13304TIP3    H239870   0.244   6.314   1.671
13305TIP3   OH239871   1.148   5.569   1.002
13305TIP3    H139872   1.149   5.652   1.050
13305TIP3    H239873   1.240   5.552   0.981
13306TIP3   OH239874   5.736   3.496   2.639
13306TIP3    H139875   5.768   3.447   2.563
13306TIP3    H239876   5.641   3.488   2.633
13307TIP3   OH239877   2.657   4.288   6.622
13307TIP3    H139878   2.658   4.242   6.706
13307TIP3    H239879   2.564   4.306   6.606
13308TIP3   OH239880   0.680   6.049   6.643
13308TIP3    H139881   0.752   5.987   6.642
13308TIP3    H239882   0.601   5.995   6.650
13309TIP3   OH239883   3.184   1.758   4.361
13309TIP3    H139884   3.137   1.816   4.420
13309TIP3    H239885   3.268   1.802   4.346
13310TIP3   OH239886   0.224   6.147   5.353
13310TIP3    H139887   0.219   6.164   5.259
13310TIP3    H239888   0.135   6.122   5.378
13311TIP3   OH239889   3.696   0.868   2.578
13311TIP3    H139890   3.788   0.864   2.605
13311TIP3    H239891   3.692   0.940   2.515
13312TIP3   OH239892   0.610   6.523   4.242
13312TIP3    H139893   0.704   6.512   4.256
13312TIP3    H239894   0.596   6.505   4.149
13313TIP3   OH239895   3.758   3.215   2.678
13313TIP3    H139896   3.743   3.252   2.766
13313TIP3    H239897   3.723   3.282   2.619
13314TIP3   OH239898   5.278   3.097   4.511
13314TIP3    H139899   5.262   3.187   4.482
13314TIP3    H239900   5.319   3.054   4.435
13315TIP3   OH239901   2.328   2.577   5.604
13315TIP3    H139902   2.380   2.497   5.610
13315TIP3    H239903   2.386   2.646   5.635
13316TIP3   OH239904   2.089   3.296   5.394
13316TIP3    H139905   2.027   3.253   5.334
13316TIP3    H239906   2.174   3.261   5.369
13317TIP3   OH239907   4.972   6.019   1.258
13317TIP3    H139908   5.030   6.055   1.325
13317TIP3    H239909   4.997   5.927   1.252
13318TIP3   OH239910   5.626   4.983   4.447
13318TIP3    H139911   5.668   5.054   4.494
13318TIP3    H239912   5.624   4.910   4.509
13319TIP3   OH239913   0.925   6.311   0.684
13319TIP3    H139914   0.908   6.255   0.759
13319TIP3    H239915   0.884   6.266   0.610
13320TIP3   OH239916   4.619   2.559   6.552
13320TIP3    H139917   4.604   2.466   6.535
13320TIP3    H239918   4.549   2.584   6.612
13321TIP3   OH239919   0.129   2.670   5.823
13321TIP3    H139920   0.207   2.651   5.769
13321TIP3    H239921   0.159   2.735   5.886
13322TIP3   OH239922   2.455   7.413   4.566
13322TIP3    H139923   2.394   7.470   4.613
13322TIP3    H239924   2.538   7.423   4.613
13323TIP3   OH239925   3.934   5.188   5.301
13323TIP3    H139926   4.009   5.153   5.252
13323TIP3    H239927   3.857   5.157   5.253
13324TIP3   OH239928   2.781   5.874   0.633
13324TIP3    H139929   2.832   5.936   0.581
13324TIP3    H239930   2.789   5.906   0.723
13325TIP3   OH239931   8.171   5.930   3.925
13325TIP3    H139932   8.262   5.945   3.899
13325TIP3    H239933   8.174   5.922   4.020
13326TIP3   OH239934   3.715   7.634   6.377
13326TIP3    H139935   3.739   7.665   6.464
13326TIP3    H239936   3.754   7.699   6.318
13327TIP3   OH239937   4.563   4.418   3.300
13327TIP3    H139938   4.546   4.513   3.300
13327TIP3    H239939   4.476   4.379   3.292
13328TIP3   OH239940   2.331   7.241   6.123
13328TIP3    H139941   2.357   7.237   6.031
13328TIP3    H239942   2.291   7.155   6.140
13329TIP3   OH239943   5.320   4.202   6.320
13329TIP3    H139944   5.288   4.112   6.326
13329TIP3    H239945   5.280   4.246   6.396
13330TIP3   OH239946   2.736   1.621   5.336
13330TIP3    H139947   2.727   1.638   5.430
13330TIP3    H239948   2.802   1.552   5.330
13331TIP3   OH239949   3.896   3.777   3.712
13331TIP3    H139950   3.920   3.685   3.703
13331TIP3    H239951   3.971   3.818   3.754
13332TIP3   OH239952   1.902   4.536   0.922
13332TIP3    H139953   1.868   4.564   1.007
13332TIP3    H239954   1.969   4.600   0.901
13333TIP3   OH239955   0.905   1.377   4.132
13333TIP3    H139956   0.853   1.299   4.116
13333TIP3    H239957   0.994   1.344   4.144
13334TIP3   OH239958   7.828   5.930   0.101
13334TIP3    H139959   7.897   5.992   0.079
13334TIP3    H239960   7.873   5.859   0.147
13335TIP3   OH239961   5.629   6.638   3.831
13335TIP3    H139962   5.671   6.638   3.745
13335TIP3    H239963   5.649   6.551   3.867
13336TIP3   OH239964   3.526   2.303   0.329
13336TIP3    H139965   3.467   2.374   0.355
13336TIP3    H239966   3.556   2.265   0.411
13337TIP3   OH239967   7.223   4.516   2.435
13337TIP3    H139968   7.161   4.443   2.432
13337TIP3    H239969   7.299   4.485   2.386
13338TIP3   OH239970   3.164   0.677   2.203
13338TIP3    H139971   3.218   0.614   2.251
13338TIP3    H239972   3.089   0.694   2.259
13339TIP3   OH239973   2.596   1.232   6.270
13339TIP3    H139974   2.652   1.155   6.258
13339TIP3    H239975   2.610   1.257   6.362
13340TIP3   OH239976   1.134   7.449   2.718
13340TIP3    H139977   1.105   7.365   2.753
13340TIP3    H239978   1.228   7.439   2.707
13341TIP3   OH239979   5.225   2.206   0.267
13341TIP3    H139980   5.228   2.280   0.206
13341TIP3    H239981   5.133   2.201   0.293
13342TIP3   OH239982   0.153   2.650   6.329
13342TIP3    H139983   0.188   2.574   6.281
13342TIP3    H239984   0.059   2.634   6.334
13343TIP3   OH239985   2.137   1.862   3.102
13343TIP3    H139986   2.200   1.811   3.153
13343TIP3    H239987   2.186   1.891   3.025
13344TIP3   OH239988   7.638   3.323   4.746
13344TIP3    H139989   7.624   3.377   4.668
13344TIP3    H239990   7.678   3.382   4.809
13345TIP3   OH239991   1.515   0.630   3.979
13345TIP3    H139992   1.431   0.594   4.008
13345TIP3    H239993   1.509   0.629   3.884
13346TIP3   OH239994   3.010   0.125   0.436
13346TIP3    H139995   2.992   0.031   0.437
13346TIP3    H239996   3.100   0.132   0.405
13347TIP3   OH239997   3.447   1.298   3.890
13347TIP3    H139998   3.413   1.238   3.956
13347TIP3    H239999   3.386   1.372   3.890
13348TIP3   OH240000   2.836   4.555   5.905
13348TIP3    H140001   2.874   4.642   5.917
13348TIP3    H240002   2.881   4.499   5.968
13349TIP3   OH240003   2.533   1.058   3.576
13349TIP3    H140004   2.548   1.000   3.651
13349TIP3    H240005   2.441   1.045   3.554
13350TIP3   OH240006   2.174   3.017   5.577
13350TIP3    H140007   2.091   3.053   5.546
13350TIP3    H240008   2.160   2.922   5.578
13351TIP3   OH240009   5.394   6.104   6.342
13351TIP3    H140010   5.446   6.183   6.356
13351TIP3    H240011   5.382   6.100   6.247
13352TIP3   OH240012   3.254   3.658   6.048
13352TIP3    H140013   3.251   3.686   6.140
13352TIP3    H240014   3.347   3.653   6.028
13353TIP3   OH240015   3.312   4.657   0.433
13353TIP3    H140016   3.275   4.736   0.396
13353TIP3    H240017   3.246   4.625   0.494
13354TIP3   OH240018   1.922   2.580   1.417
13354TIP3    H140019   1.925   2.489   1.388
13354TIP3    H240020   1.920   2.631   1.337
13355TIP3   OH240021   7.800   0.253   1.327
13355TIP3    H140022   7.879   0.248   1.273
13355TIP3    H240023   7.815   0.188   1.397
13356TIP3   OH240024   5.300   5.463   0.479
13356TIP3    H140025   5.244   5.385   0.484
13356TIP3    H240026   5.238   5.535   0.468
13357TIP3   OH240027   3.392   3.814   5.378
13357TIP3    H140028   3.315   3.867   5.397
13357TIP3    H240029   3.359   3.724   5.371
13358TIP3   OH240030   0.057   5.779   1.748
13358TIP3    H140031   0.077   5.802   1.839
13358TIP3    H240032   0.077   5.858   1.698
13359TIP3   OH240033   8.225   5.430   5.334
13359TIP3    H140034   8.177   5.499   5.287
13359TIP3    H240035   8.290   5.399   5.271
13360TIP3   OH240036   1.385   7.816   6.503
13360TIP3    H140037   1.404   7.759   6.578
13360TIP3    H240038   1.403   7.763   6.426
13361TIP3   OH240039   7.345   0.738   5.476
13361TIP3    H140040   7.283   0.784   5.533
13361TIP3    H240041   7.346   0.789   5.395
13362TIP3   OH240042   4.436   1.794   4.885
13362TIP3    H140043   4.465   1.822   4.971
13362TIP3    H240044   4.463   1.702   4.879
13363TIP3   OH240045   4.315   2.559   5.351
13363TIP3    H140046   4.361   2.547   5.268
13363TIP3    H240047   4.232   2.512   5.339
13364TIP3   OH240048   7.162   6.379   6.405
13364TIP3    H140049   7.126   6.292   6.389
13364TIP3    H240050   7.209   6.400   6.324
13365TIP3   OH240051   3.262   6.955   5.061
13365TIP3    H140052   3.274   7.045   5.093
13365TIP3    H240053   3.312   6.952   4.979
13366TIP3   OH240054   5.744   1.491   2.646
13366TIP3    H140055   5.677   1.427   2.667
13366TIP3    H240056   5.717   1.571   2.691
13367TIP3   OH240057   2.736   4.443   4.283
13367TIP3    H140058   2.659   4.418   4.333
13367TIP3    H240059   2.775   4.515   4.332
13368TIP3   OH240060   5.668   4.594   2.369
13368TIP3    H140061   5.621   4.594   2.452
13368TIP3    H240062   5.698   4.683   2.357
13369TIP3   OH240063   0.409   4.885   6.010
13369TIP3    H140064   0.423   4.974   6.043
13369TIP3    H240065   0.404   4.831   6.089
13370TIP3   OH240066   7.639   1.856   0.903
13370TIP3    H140067   7.633   1.919   0.975
13370TIP3    H240068   7.730   1.825   0.906
13371TIP3   OH240069   8.122   2.351   0.693
13371TIP3    H140070   8.077   2.269   0.675
13371TIP3    H240071   8.210   2.339   0.658
13372TIP3   OH240072   3.165   6.649   6.149
13372TIP3    H140073   3.189   6.571   6.199
13372TIP3    H240074   3.129   6.709   6.215
13373TIP3   OH240075   2.773   3.569   1.643
13373TIP3    H140076   2.787   3.502   1.710
13373TIP3    H240077   2.859   3.581   1.603
13374TIP3   OH240078   2.217   0.496   3.315
13374TIP3    H140079   2.263   0.575   3.345
13374TIP3    H240080   2.262   0.424   3.358
13375TIP3   OH240081   7.805   2.225   2.749
13375TIP3    H140082   7.780   2.309   2.710
13375TIP3    H240083   7.839   2.174   2.676
13376TIP3   OH240084   0.833   2.251   5.682
13376TIP3    H140085   0.907   2.304   5.655
13376TIP3    H240086   0.869   2.163   5.695
13377TIP3   OH240087   6.413   4.232   6.738
13377TIP3    H140088   6.320   4.241   6.757
13377TIP3    H240089   6.447   4.178   6.810
13378TIP3   OH240090   4.869   3.251   4.085
13378TIP3    H140091   4.866   3.167   4.040
13378TIP3    H240092   4.911   3.310   4.022
13379TIP3   OH240093   3.575   7.085   3.666
13379TIP3    H140094   3.612   7.173   3.666
13379TIP3    H240095   3.588   7.054   3.576
13380TIP3   OH240096   2.722   5.297   0.096
13380TIP3    H140097   2.713   5.232   0.026
13380TIP3    H240098   2.816   5.303   0.111
13381TIP3   OH240099   8.155   7.801   3.664
13381TIP3    H140100   8.105   7.861   3.719
13381TIP3    H240101   8.151   7.717   3.710
13382TIP3   OH240102   4.267   5.864   4.191
13382TIP3    H140103   4.177   5.835   4.207
13382TIP3    H240104   4.321   5.799   4.236
13383TIP3   OH240105   7.408   7.706   1.683
13383TIP3    H140106   7.357   7.655   1.746
13383TIP3    H240107   7.475   7.644   1.651
13384TIP3   OH240108   1.376   3.778   2.271
13384TIP3    H140109   1.294   3.729   2.283
13384TIP3    H240110   1.440   3.712   2.247
13385TIP3   OH240111   0.040   4.093   0.887
13385TIP3    H140112  -0.004   4.010   0.869
13385TIP3    H240113  -0.026   4.147   0.930
13386TIP3   OH240114   7.211   2.678   0.115
13386TIP3    H140115   7.177   2.678   0.026
13386TIP3    H240116   7.303   2.706   0.106
13387TIP3   OH240117   5.992   0.448   4.666
13387TIP3    H140118   5.928   0.514   4.641
13387TIP3    H240119   6.063   0.459   4.602
13388TIP3   OH240120   6.741   1.344   3.562
13388TIP3    H140121   6.731   1.438   3.546
13388TIP3    H240122   6.702   1.303   3.485
13389TIP3   OH240123   1.229   0.472   4.673
13389TIP3    H140124   1.299   0.432   4.725
13389TIP3    H240125   1.249   0.448   4.583
13390TIP3   OH240126   6.358   2.435   4.170
13390TIP3    H140127   6.265   2.425   4.152
13390TIP3    H240128   6.376   2.528   4.158
13391TIP3   OH240129   5.941   6.188   2.713
13391TIP3    H140130   5.898   6.224   2.791
13391TIP3    H240131   6.004   6.256   2.686
13392TIP3   OH240132   0.934   3.363   4.426
13392TIP3    H140133   0.897   3.444   4.459
13392TIP3    H240134   0.917   3.365   4.331
13393TIP3   OH240135   6.809   3.213   3.815
13393TIP3    H140136   6.841   3.146   3.755
13393TIP3    H240137   6.821   3.296   3.768
13394TIP3   OH240138   2.955   7.061   3.268
13394TIP3    H140139   2.942   7.026   3.180
13394TIP3    H240140   2.976   6.984   3.321
13395TIP3   OH240141   7.137   2.184   6.197
13395TIP3    H140142   7.120   2.209   6.106
13395TIP3    H240143   7.072   2.232   6.247
13396TIP3   OH240144   0.449   6.379   0.928
13396TIP3    H140145   0.356   6.384   0.908
13396TIP3    H240146   0.491   6.435   0.863
13397TIP3   OH240147   3.216   6.726   6.720
13397TIP3    H140148   3.209   6.636   6.688
13397TIP3    H240149   3.305   6.752   6.696
13398TIP3   OH240150   4.495   4.667   1.186
13398TIP3    H140151   4.528   4.577   1.195
13398TIP3    H240152   4.573   4.722   1.192
13399TIP3   OH240153   6.956   7.169   2.727
13399TIP3    H140154   6.901   7.111   2.780
13399TIP3    H240155   6.909   7.177   2.644
13400TIP3   OH240156   7.065   6.930   5.636
13400TIP3    H140157   7.014   6.896   5.562
13400TIP3    H240158   7.130   6.987   5.595
13401TIP3   OH240159   7.225   4.944   2.220
13401TIP3    H140160   7.144   4.954   2.269
13401TIP3    H240161   7.293   4.982   2.276
13402TIP3   OH240162   5.182   3.749   1.214
13402TIP3    H140163   5.165   3.755   1.308
13402TIP3    H240164   5.125   3.678   1.184
13403TIP3   OH240165   5.834   3.973   6.056
13403TIP3    H140166   5.908   3.981   5.995
13403TIP3    H240167   5.874   3.942   6.137
13404TIP3   OH240168   0.606   0.655   1.535
13404TIP3    H140169   0.581   0.662   1.627
13404TIP3    H240170   0.701   0.645   1.537
13405TIP3   OH240171   7.873   0.767   6.003
13405TIP3    H140172   7.925   0.812   5.936
13405TIP3    H240173   7.817   0.836   6.039
13406TIP3   OH240174   7.985   1.286   0.885
13406TIP3    H140175   7.927   1.336   0.827
13406TIP3    H240176   8.003   1.346   0.957
13407TIP3   OH240177   7.483   3.372   3.674
13407TIP3    H140178   7.527   3.336   3.751
13407TIP3    H240179   7.477   3.466   3.692
13408TIP3   OH240180   8.052   1.068   6.625
13408TIP3    H140181   8.047   1.011   6.701
13408TIP3    H240182   8.082   1.010   6.554
13409TIP3   OH240183   5.872   5.091   0.788
13409TIP3    H140184   5.912   5.144   0.719
13409TIP3    H240185   5.788   5.063   0.752
13410TIP3   OH240186   2.025   4.179   4.706
13410TIP3    H140187   2.075   4.100   4.725
13410TIP3    H240188   1.952   4.150   4.651
13411TIP3   OH240189   8.256   7.724   4.499
13411TIP3    H140190   8.336   7.683   4.532
13411TIP3    H240191   8.239   7.679   4.416
13412TIP3   OH240192   2.981   3.350   0.877
13412TIP3    H140193   2.925   3.380   0.948
13412TIP3    H240194   2.930   3.365   0.797
13413TIP3   OH240195   0.070   7.374   2.453
13413TIP3    H140196   0.031   7.363   2.366
13413TIP3    H240197   0.164   7.384   2.436
13414TIP3   OH240198   5.781   1.645   4.608
13414TIP3    H140199   5.718   1.709   4.641
13414TIP3    H240200   5.740   1.609   4.529
13415TIP3   OH240201   0.191   2.291   6.649
13415TIP3    H140202   0.128   2.226   6.681
13415TIP3    H240203   0.229   2.328   6.728
13416TIP3   OH240204   2.630   1.141   5.421
13416TIP3    H140205   2.651   1.093   5.501
13416TIP3    H240206   2.537   1.126   5.408
13417TIP3   OH240207   0.122   7.280   6.219
13417TIP3    H140208   0.058   7.306   6.152
13417TIP3    H240209   0.157   7.197   6.187
13418TIP3   OH240210   2.113   4.660   2.802
13418TIP3    H140211   2.167   4.692   2.729
13418TIP3    H240212   2.098   4.568   2.783
13419TIP3   OH240213   5.578   4.121   5.449
13419TIP3    H140214   5.655   4.178   5.461
13419TIP3    H240215   5.566   4.079   5.535
13420TIP3   OH240216   0.577   1.504   4.933
13420TIP3    H140217   0.600   1.578   4.878
13420TIP3    H240218   0.585   1.428   4.876
13421TIP3   OH240219   6.705   4.701   6.234
13421TIP3    H140220   6.687   4.748   6.316
13421TIP3    H240221   6.795   4.669   6.244
13422TIP3   OH240222   0.334   2.689   5.641
13422TIP3    H140223   0.258   2.675   5.585
13422TIP3    H240224   0.409   2.678   5.583
13423TIP3   OH240225   7.290   5.123   4.953
13423TIP3    H140226   7.197   5.146   4.963
13423TIP3    H240227   7.310   5.146   4.862
13424TIP3   OH240228   1.237   4.632   1.459
13424TIP3    H140229   1.219   4.726   1.462
13424TIP3    H240230   1.331   4.626   1.442
13425TIP3   OH240231   3.237   3.941   1.013
13425TIP3    H140232   3.179   3.872   0.982
13425TIP3    H240233   3.322   3.922   0.973
13426TIP3   OH240234   6.815   1.837   1.022
13426TIP3    H140235   6.857   1.851   1.107
13426TIP3    H240236   6.721   1.836   1.042
13427TIP3   OH240237   2.924   0.801   4.878
13427TIP3    H140238   3.018   0.817   4.892
13427TIP3    H240239   2.905   0.721   4.926
13428TIP3   OH240240   4.242   2.703   3.842
13428TIP3    H140241   4.153   2.686   3.873
13428TIP3    H240242   4.247   2.798   3.833
13429TIP3   OH240243   6.887   2.530   2.049
13429TIP3    H140244   6.910   2.492   2.134
13429TIP3    H240245   6.794   2.549   2.056
13430TIP3   OH240246   1.464   6.462   0.393
13430TIP3    H140247   1.469   6.487   0.300
13430TIP3    H240248   1.411   6.531   0.432
13431TIP3   OH240249   7.283   3.427   3.192
13431TIP3    H140250   7.332   3.395   3.267
13431TIP3    H240251   7.329   3.389   3.116
13432TIP3   OH240252   0.068   3.427   2.443
13432TIP3    H140253   0.139   3.478   2.481
13432TIP3    H240254   0.003   3.493   2.417
13433TIP3   OH240255   2.012   1.677   2.029
13433TIP3    H140256   1.935   1.720   2.066
13433TIP3    H240257   2.042   1.735   1.959
13434TIP3   OH240258   0.428   2.107   4.302
13434TIP3    H140259   0.462   2.062   4.379
13434TIP3    H240260   0.384   2.039   4.251
13435TIP3   OH240261   0.106   4.785   6.172
13435TIP3    H140262   0.069   4.802   6.259
13435TIP3    H240263   0.142   4.869   6.144
13436TIP3   OH240264   4.662   4.149   2.521
13436TIP3    H140265   4.745   4.117   2.555
13436TIP3    H240266   4.650   4.102   2.438
13437TIP3   OH240267   1.550   2.263   5.330
13437TIP3    H140268   1.521   2.345   5.288
13437TIP3    H240269   1.507   2.194   5.279
13438TIP3   OH240270   0.524   0.412   6.640
13438TIP3    H140271   0.593   0.369   6.690
13438TIP3    H240272   0.538   0.384   6.549
13439TIP3   OH240273   5.202   2.321   1.803
13439TIP3    H140274   5.117   2.333   1.760
13439TIP3    H240275   5.183   2.330   1.896
13440TIP3   OH240276   6.666   2.269   0.816
13440TIP3    H140277   6.606   2.309   0.753
13440TIP3    H240278   6.703   2.343   0.864
13441TIP3   OH240279   6.590   0.949   1.475
13441TIP3    H140280   6.506   0.948   1.521
13441TIP3    H240281   6.597   1.037   1.440
13442TIP3   OH240282   0.455   5.596   4.431
13442TIP3    H140283   0.470   5.554   4.346
13442TIP3    H240284   0.437   5.523   4.490
13443TIP3   OH240285   3.174   2.001   6.453
13443TIP3    H140286   3.184   1.933   6.387
13443TIP3    H240287   3.221   1.968   6.530
13444TIP3   OH240288   3.471   6.739   3.567
13444TIP3    H140289   3.383   6.708   3.587
13444TIP3    H240290   3.512   6.752   3.652
13445TIP3   OH240291   1.512   3.807   1.282
13445TIP3    H140292   1.600   3.843   1.288
13445TIP3    H240293   1.488   3.819   1.190
13446TIP3   OH240294   2.140   6.475   1.307
13446TIP3    H140295   2.194   6.415   1.359
13446TIP3    H240296   2.202   6.517   1.247
13447TIP3   OH240297   2.287   6.462   0.606
13447TIP3    H140298   2.334   6.513   0.541
13447TIP3    H240299   2.334   6.379   0.611
13448TIP3   OH240300   3.953   2.745   2.586
13448TIP3    H140301   3.969   2.661   2.629
13448TIP3    H240302   3.895   2.792   2.645
13449TIP3   OH240303   4.583   2.752   5.934
13449TIP3    H140304   4.645   2.699   5.984
13449TIP3    H240305   4.637   2.796   5.868
13450TIP3   OH240306   6.792   7.396   3.380
13450TIP3    H140307   6.849   7.464   3.416
13450TIP3    H240308   6.711   7.403   3.430
13451TIP3   OH240309   0.176   5.265   0.506
13451TIP3    H140310   0.145   5.244   0.417
13451TIP3    H240311   0.257   5.313   0.492
13452TIP3   OH240312   1.556   2.721   0.566
13452TIP3    H140313   1.538   2.763   0.650
13452TIP3    H240314   1.478   2.738   0.513
13453TIP3   OH240315   5.761   1.578   4.899
13453TIP3    H140316   5.675   1.559   4.937
13453TIP3    H240317   5.749   1.660   4.852
13454TIP3   OH240318   0.261   3.768   0.276
13454TIP3    H140319   0.239   3.740   0.187
13454TIP3    H240320   0.338   3.716   0.299
13455TIP3   OH240321   1.971   2.850   0.840
13455TIP3    H140322   1.956   2.830   0.748
13455TIP3    H240323   1.886   2.840   0.881
13456TIP3   OH240324   5.262   4.979   0.884
13456TIP3    H140325   5.175   4.940   0.871
13456TIP3    H240326   5.256   5.064   0.842
13457TIP3   OH240327   3.993   5.753   4.247
13457TIP3    H140328   3.994   5.660   4.223
13457TIP3    H240329   3.913   5.764   4.297
13458TIP3   OH240330   3.701   1.501   5.353
13458TIP3    H140331   3.642   1.576   5.353
13458TIP3    H240332   3.679   1.453   5.273
13459TIP3   OH240333   4.953   0.049   6.141
13459TIP3    H140334   4.922   0.126   6.093
13459TIP3    H240335   4.983   0.083   6.225
13460TIP3   OH240336   1.734   6.273   0.453
13460TIP3    H140337   1.819   6.314   0.467
13460TIP3    H240338   1.732   6.254   0.359
13461TIP3   OH240339   3.312   6.988   5.387
13461TIP3    H140340   3.344   7.072   5.354
13461TIP3    H240341   3.347   6.982   5.476
13462TIP3   OH240342   0.826   6.110   5.617
13462TIP3    H140343   0.885   6.118   5.542
13462TIP3    H240344   0.806   6.016   5.623
13463TIP3   OH240345   0.066   5.066   6.388
13463TIP3    H140346   0.098   5.050   6.299
13463TIP3    H240347   0.140   5.106   6.433
13464TIP3   OH240348   6.404   1.978   0.606
13464TIP3    H140349   6.371   1.967   0.695
13464TIP3    H240350   6.498   1.993   0.617
13465TIP3   OH240351   0.909   6.155   3.794
13465TIP3    H140352   0.996   6.117   3.786
13465TIP3    H240353   0.864   6.100   3.858
13466TIP3   OH240354   4.738   4.474   6.289
13466TIP3    H140355   4.692   4.557   6.294
13466TIP3    H240356   4.803   4.486   6.220
13467TIP3   OH240357   4.068   5.836   3.647
13467TIP3    H140358   4.019   5.904   3.600
13467TIP3    H240359   4.093   5.878   3.730
13468TIP3   OH240360   6.155   0.403   3.743
13468TIP3    H140361   6.195   0.487   3.719
13468TIP3    H240362   6.184   0.343   3.674
13469TIP3   OH240363   4.095   7.350   2.931
13469TIP3    H140364   4.000   7.362   2.932
13469TIP3    H240365   4.107   7.255   2.929
13470TIP3   OH240366   0.673   7.365   4.280
13470TIP3    H140367   0.615   7.407   4.217
13470TIP3    H240368   0.741   7.430   4.298
13471TIP3   OH240369   7.635   5.691   6.164
13471TIP3    H140370   7.623   5.637   6.242
13471TIP3    H240371   7.721   5.732   6.176
13472TIP3   OH240372   5.910   5.932   4.094
13472TIP3    H140373   5.941   6.001   4.035
13472TIP3    H240374   5.978   5.925   4.161
13473TIP3   OH240375   0.874   3.065   6.440
13473TIP3    H140376   0.802   3.003   6.453
13473TIP3    H240377   0.835   3.138   6.392
13474TIP3   OH240378   7.228   0.371   1.558
13474TIP3    H140379   7.260   0.461   1.551
13474TIP3    H240380   7.146   0.379   1.605
13475TIP3   OH240381   1.530   2.734   4.189
13475TIP3    H140382   1.525   2.708   4.097
13475TIP3    H240383   1.485   2.819   4.192
13476TIP3   OH240384   4.553   6.268   6.290
13476TIP3    H140385   4.557   6.271   6.385
13476TIP3    H240386   4.579   6.355   6.261
13477TIP3   OH240387   7.424   7.593   5.581
13477TIP3    H140388   7.353   7.540   5.545
13477TIP3    H240389   7.381   7.675   5.607
13478TIP3   OH240390   6.821   0.888   2.522
13478TIP3    H140391   6.892   0.951   2.538
13478TIP3    H240392   6.759   0.904   2.592
13479TIP3   OH240393   0.685   4.420   3.259
13479TIP3    H140394   0.625   4.431   3.333
13479TIP3    H240395   0.628   4.417   3.182
13480TIP3   OH240396   6.412   5.904   0.929
13480TIP3    H140397   6.493   5.881   0.883
13480TIP3    H240398   6.371   5.970   0.873
13481TIP3   OH240399   4.768   3.974   3.233
13481TIP3    H140400   4.684   3.948   3.270
13481TIP3    H240401   4.781   4.064   3.262
13482TIP3   OH240402   2.364   5.745   3.790
13482TIP3    H140403   2.450   5.709   3.768
13482TIP3    H240404   2.303   5.672   3.777
13483TIP3   OH240405   4.515   6.193   0.578
13483TIP3    H140406   4.491   6.223   0.490
13483TIP3    H240407   4.544   6.272   0.623
13484TIP3   OH240408   4.329   6.033   1.361
13484TIP3    H140409   4.394   6.102   1.378
13484TIP3    H240410   4.324   5.984   1.443
13485TIP3   OH240411   3.563   1.048   1.830
13485TIP3    H140412   3.617   1.061   1.909
13485TIP3    H240413   3.562   0.953   1.817
13486TIP3   OH240414   3.179   1.922   0.835
13486TIP3    H140415   3.090   1.958   0.832
13486TIP3    H240416   3.184   1.878   0.920
13487TIP3   OH240417   7.993   7.074   3.896
13487TIP3    H140418   7.914   7.127   3.888
13487TIP3    H240419   7.970   7.006   3.960
13488TIP3   OH240420   4.822   4.898   5.328
13488TIP3    H140421   4.816   4.992   5.315
13488TIP3    H240422   4.780   4.882   5.413
13489TIP3   OH240423   1.832   7.195   4.577
13489TIP3    H140424   1.853   7.162   4.489
13489TIP3    H240425   1.791   7.120   4.621
13490TIP3   OH240426   4.151   1.355   5.315
13490TIP3    H140427   4.231   1.389   5.274
13490TIP3    H240428   4.169   1.358   5.409
13491TIP3   OH240429   1.397   2.968   4.148
13491TIP3    H140430   1.405   3.063   4.151
13491TIP3    H240431   1.307   2.952   4.119
13492TIP3   OH240432   5.630   5.464   1.032
13492TIP3    H140433   5.682   5.510   1.098
13492TIP3    H240434   5.540   5.487   1.052
13493TIP3   OH240435   1.097   1.176   4.462
13493TIP3    H140436   1.078   1.222   4.543
13493TIP3    H240437   1.030   1.205   4.401
13494TIP3   OH240438   4.255   0.771   0.710
13494TIP3    H140439   4.201   0.693   0.710
13494TIP3    H240440   4.242   0.810   0.796
13495TIP3   OH240441   3.894   5.425   5.446
13495TIP3    H140442   3.903   5.334   5.418
13495TIP3    H240443   3.801   5.433   5.470
13496TIP3   OH240444   6.974   4.919   3.558
13496TIP3    H140445   7.049   4.958   3.513
13496TIP3    H240446   6.904   4.983   3.548
13497TIP3   OH240447   2.606   2.447   1.793
13497TIP3    H140448   2.616   2.534   1.831
13497TIP3    H240449   2.573   2.393   1.865
13498TIP3   OH240450   2.940   0.867   0.196
13498TIP3    H140451   2.908   0.956   0.213
13498TIP3    H240452   2.956   0.831   0.283
13499TIP3   OH240453   4.319   1.682   0.245
13499TIP3    H140454   4.258   1.745   0.284
13499TIP3    H240455   4.396   1.685   0.301
13500TIP3   OH240456   8.273   4.959   5.018
13500TIP3    H140457   8.317   4.875   5.006
13500TIP3    H240458   8.189   4.949   4.973
13501TIP3   OH240459   5.335   6.410   2.774
13501TIP3    H140460   5.242   6.415   2.796
13501TIP3    H240461   5.344   6.463   2.695
13502TIP3   OH240462   3.421   3.038   1.996
13502TIP3    H140463   3.477   3.076   1.928
13502TIP3    H240464   3.472   3.048   2.076
13503TIP3   OH240465   7.142   4.659   4.436
13503TIP3    H140466   7.059   4.670   4.389
13503TIP3    H240467   7.209   4.662   4.368
13504TIP3   OH240468   1.552   5.737   0.454
13504TIP3    H140469   1.599   5.770   0.377
13504TIP3    H240470   1.610   5.670   0.490
13505TIP3   OH240471   3.554   4.276   5.263
13505TIP3    H140472   3.572   4.365   5.291
13505TIP3    H240473   3.580   4.221   5.337
13506TIP3   OH240474   2.926   5.039   0.171
13506TIP3    H140475   2.945   4.947   0.191
13506TIP3    H240476   2.831   5.045   0.174
13507TIP3   OH240477   5.745   1.650   1.342
13507TIP3    H140478   5.744   1.740   1.375
13507TIP3    H240479   5.775   1.598   1.416
13508TIP3   OH240480   0.692   4.220   2.059
13508TIP3    H140481   0.729   4.228   1.971
13508TIP3    H240482   0.618   4.159   2.049
13509TIP3   OH240483   2.846   4.583   5.293
13509TIP3    H140484   2.940   4.593   5.311
13509TIP3    H240485   2.838   4.494   5.258
13510TIP3   OH240486   8.071   1.322   3.270
13510TIP3    H140487   8.072   1.231   3.241
13510TIP3    H240488   8.126   1.323   3.348
13511TIP3   OH240489   7.952   4.271   6.315
13511TIP3    H140490   7.968   4.333   6.386
13511TIP3    H240491   7.886   4.212   6.349
13512TIP3   OH240492   0.236   7.155   0.716
13512TIP3    H140493   0.272   7.180   0.631
13512TIP3    H240494   0.242   7.059   0.717
13513TIP3   OH240495   3.872   7.397   3.377
13513TIP3    H140496   3.910   7.482   3.352
13513TIP3    H240497   3.866   7.348   3.295
13514TIP3   OH240498   7.761   0.238   0.191
13514TIP3    H140499   7.702   0.278   0.254
13514TIP3    H240500   7.796   0.161   0.236
13515TIP3   OH240501   3.211   2.733   4.756
13515TIP3    H140502   3.283   2.673   4.775
13515TIP3    H240503   3.239   2.816   4.795
13516TIP3   OH240504   3.161   7.185   4.214
13516TIP3    H140505   3.070   7.157   4.227
13516TIP3    H240506   3.164   7.218   4.125
13517TIP3   OH240507   8.271   6.386   6.226
13517TIP3    H140508   8.307   6.342   6.150
13517TIP3    H240509   8.246   6.315   6.286
13518TIP3   OH240510   4.484   2.197   1.038
13518TIP3    H140511   4.569   2.174   1.002
13518TIP3    H240512   4.502   2.264   1.104
13519TIP3   OH240513   1.377   2.133   0.554
13519TIP3    H140514   1.301   2.078   0.571
13519TIP3    H240515   1.442   2.074   0.514
13520TIP3   OH240516   0.243   4.076   6.118
13520TIP3    H140517   0.334   4.051   6.129
13520TIP3    H240518   0.233   4.155   6.171
13521TIP3   OH240519   2.832   5.605   4.191
13521TIP3    H140520   2.826   5.701   4.188
13521TIP3    H240521   2.901   5.588   4.255
13522TIP3   OH240522   4.539   3.143   6.312
13522TIP3    H140523   4.467   3.204   6.328
13522TIP3    H240524   4.497   3.059   6.293
13523TIP3   OH240525   3.027   4.432   5.070
13523TIP3    H140526   3.092   4.365   5.048
13523TIP3    H240527   3.066   4.480   5.143
13524TIP3   OH240528   3.582   4.980   3.054
13524TIP3    H140529   3.520   5.048   3.082
13524TIP3    H240530   3.666   5.007   3.091
13525TIP3   OH240531   4.976   2.749   2.822
13525TIP3    H140532   5.031   2.684   2.779
13525TIP3    H240533   4.938   2.800   2.749
13526TIP3   OH240534   7.309   5.612   2.379
13526TIP3    H140535   7.404   5.602   2.375
13526TIP3    H240536   7.281   5.610   2.288
13527TIP3   OH240537   2.651   5.691   2.809
13527TIP3    H140538   2.710   5.764   2.791
13527TIP3    H240539   2.592   5.689   2.733
13528TIP3   OH240540   2.277   7.819   1.163
13528TIP3    H140541   2.200   7.763   1.165
13528TIP3    H240542   2.345   7.764   1.123
13529TIP3   OH240543   3.412   1.110   1.030
13529TIP3    H140544   3.441   1.124   0.940
13529TIP3    H240545   3.331   1.161   1.038
13530TIP3   OH240546   3.059   2.816   4.182
13530TIP3    H140547   3.103   2.879   4.239
13530TIP3    H240548   3.056   2.860   4.097
13531TIP3   OH240549   2.447   6.129   1.730
13531TIP3    H140550   2.523   6.137   1.672
13531TIP3    H240551   2.422   6.219   1.751
13532TIP3   OH240552   0.627   2.140   6.310
13532TIP3    H140553   0.554   2.117   6.253
13532TIP3    H240554   0.588   2.145   6.397
13533TIP3   OH240555   1.947   6.235   2.707
13533TIP3    H140556   1.947   6.302   2.639
13533TIP3    H240557   2.012   6.171   2.677
13534TIP3   OH240558   6.336   2.655   4.619
13534TIP3    H140559   6.384   2.688   4.543
13534TIP3    H240560   6.285   2.582   4.585
13535TIP3   OH240561   5.140   7.803   4.221
13535TIP3    H140562   5.085   7.728   4.241
13535TIP3    H240563   5.190   7.775   4.144
13536TIP3   OH240564   6.689   0.159   2.006
13536TIP3    H140565   6.739   0.178   1.927
13536TIP3    H240566   6.678   0.064   2.005
13537TIP3   OH240567   6.997   2.401   6.547
13537TIP3    H140568   6.966   2.355   6.625
13537TIP3    H240569   7.044   2.477   6.582
13538TIP3   OH240570   5.104   3.406   4.811
13538TIP3    H140571   5.122   3.312   4.810
13538TIP3    H240572   5.150   3.439   4.889
13539TIP3   OH240573   5.144   2.683   6.215
13539TIP3    H140574   5.201   2.678   6.292
13539TIP3    H240575   5.198   2.726   6.149
13540TIP3   OH240576   2.828   0.793   3.292
13540TIP3    H140577   2.835   0.724   3.358
13540TIP3    H240578   2.903   0.778   3.234
13541TIP3   OH240579   6.293   5.911   1.532
13541TIP3    H140580   6.383   5.941   1.537
13541TIP3    H240581   6.264   5.936   1.444
13542TIP3   OH240582   1.455   6.211   2.962
13542TIP3    H140583   1.515   6.241   2.895
13542TIP3    H240584   1.368   6.229   2.926
13543TIP3   OH240585   6.887   2.621   5.376
13543TIP3    H140586   6.861   2.692   5.436
13543TIP3    H240587   6.950   2.662   5.317
13544TIP3   OH240588   4.577   3.735   4.765
13544TIP3    H140589   4.588   3.800   4.695
13544TIP3    H240590   4.561   3.652   4.719
13545TIP3   OH240591   8.057   6.854   0.946
13545TIP3    H140592   8.022   6.775   0.905
13545TIP3    H240593   8.020   6.854   1.034
13546TIP3   OH240594   2.489   7.102   1.455
13546TIP3    H140595   2.573   7.137   1.426
13546TIP3    H240596   2.424   7.158   1.414
13547TIP3   OH240597   3.075   4.761   3.454
13547TIP3    H140598   3.009   4.732   3.517
13547TIP3    H240599   3.040   4.843   3.420
13548TIP3   OH240600   3.479   3.244   5.679
13548TIP3    H140601   3.568   3.279   5.681
13548TIP3    H240602   3.425   3.319   5.654
13549TIP3   OH240603   1.698   3.873   3.385
13549TIP3    H140604   1.734   3.942   3.329
13549TIP3    H240605   1.615   3.850   3.344
13550TIP3   OH240606   6.498   7.216   1.805
13550TIP3    H140607   6.440   7.267   1.863
13550TIP3    H240608   6.451   7.134   1.791
13551TIP3   OH240609   5.704   7.394   1.208
13551TIP3    H140610   5.647   7.412   1.283
13551TIP3    H240611   5.789   7.430   1.234
13552TIP3   OH240612   4.708   3.104   0.981
13552TIP3    H140613   4.635   3.166   0.979
13552TIP3    H240614   4.679   3.033   1.038
13553TIP3   OH240615   0.715   6.320   0.049
13553TIP3    H140616   0.752   6.319  -0.039
13553TIP3    H240617   0.725   6.230   0.081
13554TIP3   OH240618   4.850   3.946   1.514
13554TIP3    H140619   4.823   3.868   1.466
13554TIP3    H240620   4.799   3.945   1.595
13555TIP3   OH240621   5.301   4.358   0.058
13555TIP3    H140622   5.375   4.415   0.076
13555TIP3    H240623   5.339   4.271   0.050
13556TIP3   OH240624   2.543   1.823   1.489
13556TIP3    H140625   2.564   1.738   1.528
13556TIP3    H240626   2.448   1.820   1.476
13557TIP3   OH240627   7.625   7.545   3.639
13557TIP3    H140628   7.620   7.512   3.549
13557TIP3    H240629   7.591   7.474   3.693
13558TIP3   OH240630   3.907   6.978   3.713
13558TIP3    H140631   3.909   7.073   3.726
13558TIP3    H240632   3.891   6.967   3.620
13559TIP3   OH240633   3.485   0.757   3.122
13559TIP3    H140634   3.532   0.828   3.166
13559TIP3    H240635   3.540   0.734   3.048
13560TIP3   OH240636   5.212   4.452   0.405
13560TIP3    H140637   5.300   4.415   0.404
13560TIP3    H240638   5.222   4.537   0.448
13561TIP3   OH240639   1.412   7.169   3.459
13561TIP3    H140640   1.443   7.257   3.482
13561TIP3    H240641   1.478   7.135   3.399
13562TIP3   OH240642   2.567   7.743   5.904
13562TIP3    H140643   2.586   7.684   5.977
13562TIP3    H240644   2.640   7.730   5.843
13563TIP3   OH240645   3.365   1.397   2.219
13563TIP3    H140646   3.435   1.395   2.153
13563TIP3    H240647   3.347   1.490   2.232
13564TIP3   OH240648   7.231   1.631   5.146
13564TIP3    H140649   7.323   1.612   5.125
13564TIP3    H240650   7.226   1.727   5.149
13565TIP3   OH240651   6.498   1.325   2.639
13565TIP3    H140652   6.569   1.387   2.628
13565TIP3    H240653   6.505   1.267   2.563
13566TIP3   OH240654   5.272   3.016   5.386
13566TIP3    H140655   5.244   2.979   5.469
13566TIP3    H240656   5.192   3.025   5.335
13567TIP3   OH240657   2.403   5.798   1.557
13567TIP3    H140658   2.385   5.867   1.493
13567TIP3    H240659   2.431   5.845   1.636
13568TIP3   OH240660   8.272   3.496   5.708
13568TIP3    H140661   8.333   3.559   5.746
13568TIP3    H240662   8.188   3.517   5.748
13569TIP3   OH240663   3.561   0.629   0.219
13569TIP3    H140664   3.632   0.609   0.280
13569TIP3    H240665   3.563   0.725   0.211
13570TIP3   OH240666   0.046   2.517   2.325
13570TIP3    H140667   0.087   2.431   2.336
13570TIP3    H240668   0.029   2.547   2.415
13571TIP3   OH240669   3.638   0.246   5.601
13571TIP3    H140670   3.671   0.331   5.630
13571TIP3    H240671   3.703   0.216   5.538
13572TIP3   OH240672   1.732   3.851   0.917
13572TIP3    H140673   1.822   3.828   0.940
13572TIP3    H240674   1.721   3.819   0.827
13573TIP3   OH240675   6.119   6.926   3.337
13573TIP3    H140676   6.164   6.968   3.410
13573TIP3    H240677   6.099   6.838   3.368
13574TIP3   OH240678   2.756   6.499   5.461
13574TIP3    H140679   2.815   6.506   5.536
13574TIP3    H240680   2.678   6.547   5.488
13575TIP3   OH240681   4.419   1.211   3.870
13575TIP3    H140682   4.334   1.172   3.847
13575TIP3    H240683   4.465   1.143   3.917
13576TIP3   OH240684   7.642   7.603   0.120
13576TIP3    H140685   7.728   7.603   0.163
13576TIP3    H240686   7.581   7.624   0.190
13577TIP3   OH240687   0.370   2.074   6.176
13577TIP3    H140688   0.346   2.129   6.102
13577TIP3    H240689   0.296   2.080   6.236
13578TIP3   OH240690   4.866   1.315   4.352
13578TIP3    H140691   4.786   1.328   4.301
13578TIP3    H240692   4.870   1.391   4.410
13579TIP3   OH240693   0.818   2.890   0.227
13579TIP3    H140694   0.814   2.803   0.268
13579TIP3    H240695   0.846   2.949   0.297
13580TIP3   OH240696   2.021   6.547   5.565
13580TIP3    H140697   2.059   6.634   5.550
13580TIP3    H240698   2.000   6.547   5.658
13581TIP3   OH240699   4.701   2.432   5.113
13581TIP3    H140700   4.699   2.449   5.208
13581TIP3    H240701   4.617   2.465   5.081
13582TIP3   OH240702   6.127   2.975   1.257
13582TIP3    H140703   6.112   3.052   1.202
13582TIP3    H240704   6.042   2.956   1.295
13583TIP3   OH240705   7.997   7.634   5.150
13583TIP3    H140706   8.070   7.666   5.203
13583TIP3    H240707   7.960   7.713   5.110
13584TIP3   OH240708   3.229   6.288   0.959
13584TIP3    H140709   3.167   6.271   1.030
13584TIP3    H240710   3.174   6.310   0.884
13585TIP3   OH240711   7.050   6.178   4.587
13585TIP3    H140712   6.978   6.214   4.638
13585TIP3    H240713   7.008   6.134   4.513
13586TIP3   OH240714   2.707   3.458   6.550
13586TIP3    H140715   2.731   3.499   6.467
13586TIP3    H240716   2.775   3.392   6.564
13587TIP3   OH240717   6.666   2.717   2.610
13587TIP3    H140718   6.582   2.671   2.616
13587TIP3    H240719   6.700   2.692   2.524
13588TIP3   OH240720   1.162   6.577   5.620
13588TIP3    H140721   1.217   6.523   5.563
13588TIP3    H240722   1.190   6.556   5.709
13589TIP3   OH240723   7.954   5.961   0.955
13589TIP3    H140724   7.926   5.877   0.918
13589TIP3    H240725   8.043   5.973   0.923
13590TIP3   OH240726   7.295   0.173   1.061
13590TIP3    H140727   7.357   0.226   1.112
13590TIP3    H240728   7.286   0.221   0.979
13591TIP3   OH240729   6.142   0.447   6.356
13591TIP3    H140730   6.187   0.463   6.273
13591TIP3    H240731   6.060   0.405   6.330
13592TIP3   OH240732   0.196   6.315   3.784
13592TIP3    H140733   0.231   6.401   3.763
13592TIP3    H240734   0.207   6.264   3.704
13593TIP3   OH240735   7.971   5.752   0.256
13593TIP3    H140736   8.046   5.768   0.313
13593TIP3    H240737   7.977   5.659   0.234
13594TIP3   OH240738   2.321   4.253   1.280
13594TIP3    H140739   2.245   4.199   1.261
13594TIP3    H240740   2.309   4.331   1.227
13595TIP3   OH240741   3.888   7.430   4.783
13595TIP3    H140742   3.855   7.490   4.716
13595TIP3    H240743   3.917   7.487   4.854
13596TIP3   OH240744   1.995   5.916   2.008
13596TIP3    H140745   1.946   5.915   2.090
13596TIP3    H240746   1.936   5.956   1.945
13597TIP3   OH240747   6.099   5.176   1.380
13597TIP3    H140748   6.036   5.130   1.436
13597TIP3    H240749   6.142   5.106   1.331
13598TIP3   OH240750   1.296   6.755   1.893
13598TIP3    H140751   1.321   6.751   1.985
13598TIP3    H240752   1.378   6.743   1.845
13599TIP3   OH240753   1.163   2.004   3.885
13599TIP3    H140754   1.177   2.071   3.952
13599TIP3    H240755   1.069   2.006   3.868
13600TIP3   OH240756   6.895   5.961   0.881
13600TIP3    H140757   6.924   6.039   0.834
13600TIP3    H240758   6.953   5.957   0.958
13601TIP3   OH240759   3.682   5.579   5.861
13601TIP3    H140760   3.622   5.603   5.791
13601TIP3    H240761   3.762   5.628   5.842
13602TIP3   OH240762   4.194   7.447   4.562
13602TIP3    H140763   4.229   7.432   4.650
13602TIP3    H240764   4.102   7.424   4.568
13603TIP3   OH240765   1.631   7.587   6.380
13603TIP3    H140766   1.657   7.511   6.432
13603TIP3    H240767   1.621   7.552   6.291
13604TIP3   OH240768   1.287   1.409   3.197
13604TIP3    H140769   1.215   1.461   3.232
13604TIP3    H240770   1.255   1.379   3.112
13605TIP3   OH240771   2.956   6.990   3.002
13605TIP3    H140772   2.939   7.063   2.943
13605TIP3    H240773   3.019   6.935   2.954
13606TIP3   OH240774   7.906   5.905   3.423
13606TIP3    H140775   7.850   5.918   3.346
13606TIP3    H240776   7.859   5.839   3.475
13607TIP3   OH240777   7.771   7.125   0.951
13607TIP3    H140778   7.822   7.073   0.889
13607TIP3    H240779   7.726   7.059   1.005
13608TIP3   OH240780   2.013   6.783   1.279
13608TIP3    H140781   1.978   6.827   1.357
13608TIP3    H240782   2.046   6.699   1.311
13609TIP3   OH240783   3.146   5.588   1.089
13609TIP3    H140784   3.086   5.633   1.030
13609TIP3    H240785   3.106   5.598   1.176
13610TIP3   OH240786   8.019   2.531   0.097
13610TIP3    H140787   8.106   2.492   0.091
13610TIP3    H240788   8.012   2.587   0.019
13611TIP3   OH240789   2.079   3.497   0.840
13611TIP3    H140790   2.138   3.434   0.799
13611TIP3    H240791   2.001   3.497   0.785
13612TIP3   OH240792   2.363   0.118   1.224
13612TIP3    H140793   2.404   0.039   1.258
13612TIP3    H240794   2.437   0.173   1.197
13613TIP3   OH240795   5.495   3.546   4.778
13613TIP3    H140796   5.562   3.593   4.828
13613TIP3    H240797   5.509   3.454   4.800
13614TIP3   OH240798   0.512   2.370   1.244
13614TIP3    H140799   0.547   2.311   1.177
13614TIP3    H240800   0.578   2.368   1.314
13615TIP3   OH240801   0.361   4.595   3.811
13615TIP3    H140802   0.284   4.633   3.853
13615TIP3    H240803   0.384   4.521   3.867
13616TIP3   OH240804   1.752   1.517   2.244
13616TIP3    H140805   1.845   1.539   2.252
13616TIP3    H240806   1.724   1.501   2.334
13617TIP3   OH240807   4.788   2.267   4.015
13617TIP3    H140808   4.735   2.227   4.084
13617TIP3    H240809   4.741   2.347   3.991
13618TIP3   OH240810   5.196   0.677   5.781
13618TIP3    H140811   5.127   0.631   5.734
13618TIP3    H240812   5.150   0.739   5.838
13619TIP3   OH240813   5.047   4.927   3.928
13619TIP3    H140814   5.113   4.975   3.979
13619TIP3    H240815   4.971   4.985   3.926
13620TIP3   OH240816   0.032   5.949   5.699
13620TIP3    H140817  -0.011   5.890   5.760
13620TIP3    H240818   0.091   6.001   5.754
13621TIP3   OH240819   7.683   1.286   1.300
13621TIP3    H140820   7.771   1.252   1.284
13621TIP3    H240821   7.687   1.377   1.268
13622TIP3   OH240822   4.787   1.668   6.606
13622TIP3    H140823   4.872   1.650   6.567
13622TIP3    H240824   4.765   1.756   6.577
13623TIP3   OH240825   1.817   4.217   2.371
13623TIP3    H140826   1.763   4.295   2.356
13623TIP3    H240827   1.897   4.234   2.321
13624TIP3   OH240828   0.634   1.210   2.178
13624TIP3    H140829   0.678   1.200   2.263
13624TIP3    H240830   0.584   1.129   2.168
13625TIP3   OH240831   2.070   6.584   5.234
13625TIP3    H140832   2.145   6.623   5.189
13625TIP3    H240833   2.102   6.562   5.321
13626TIP3   OH240834   2.925   2.996   4.982
13626TIP3    H140835   2.939   3.036   5.067
13626TIP3    H240836   2.957   2.906   4.992
13627TIP3   OH240837   0.458   0.099   6.352
13627TIP3    H140838   0.523   0.167   6.369
13627TIP3    H240839   0.374   0.141   6.368
13628TIP3   OH240840   3.216   7.591   2.587
13628TIP3    H140841   3.292   7.648   2.574
13628TIP3    H240842   3.248   7.519   2.642
13629TIP3   OH240843   7.334   4.961   5.179
13629TIP3    H140844   7.349   4.981   5.087
13629TIP3    H240845   7.420   4.972   5.220
13630TIP3   OH240846   7.846   7.025   6.089
13630TIP3    H140847   7.858   6.988   6.176
13630TIP3    H240848   7.758   7.062   6.090
13631TIP3   OH240849   6.547   1.737   6.674
13631TIP3    H140850   6.490   1.665   6.648
13631TIP3    H240851   6.540   1.800   6.602
13632TIP3   OH240852   5.412   7.424   6.199
13632TIP3    H140853   5.343   7.459   6.256
13632TIP3    H240854   5.493   7.458   6.237
13633TIP3   OH240855   4.187   0.052   4.129
13633TIP3    H140856   4.234   0.068   4.047
13633TIP3    H240857   4.097   0.034   4.101
13634TIP3   OH240858   3.659   5.988   3.418
13634TIP3    H140859   3.600   6.056   3.451
13634TIP3    H240860   3.656   5.920   3.485
13635TIP3   OH240861   0.389   6.522   1.224
13635TIP3    H140862   0.359   6.612   1.209
13635TIP3    H240863   0.390   6.482   1.138
13636TIP3   OH240864   1.887   2.207   0.233
13636TIP3    H140865   1.843   2.134   0.276
13636TIP3    H240866   1.958   2.167   0.183
13637TIP3   OH240867   8.274   2.014   5.099
13637TIP3    H140868   8.221   1.937   5.080
13637TIP3    H240869   8.224   2.061   5.167
13638TIP3   OH240870   1.588   2.782   3.028
13638TIP3    H140871   1.495   2.805   3.029
13638TIP3    H240872   1.597   2.718   2.957
13639TIP3   OH240873   4.056   0.529   1.626
13639TIP3    H140874   3.987   0.481   1.672
13639TIP3    H240875   4.127   0.465   1.617
13640TIP3   OH240876   5.879   6.901   2.687
13640TIP3    H140877   5.929   6.976   2.654
13640TIP3    H240878   5.812   6.940   2.743
13641TIP3   OH240879   0.979   6.166   2.525
13641TIP3    H140880   0.887   6.151   2.505
13641TIP3    H240881   0.986   6.260   2.537
13642TIP3   OH240882   2.151   7.145   2.765
13642TIP3    H140883   2.146   7.152   2.861
13642TIP3    H240884   2.060   7.150   2.736
13643TIP3   OH240885   7.922   1.079   4.249
13643TIP3    H140886   7.983   1.115   4.312
13643TIP3    H240887   7.835   1.101   4.284
13644TIP3   OH240888   0.785   2.248   0.151
13644TIP3    H140889   0.845   2.301   0.098
13644TIP3    H240890   0.709   2.233   0.094
13645TIP3   OH240891   5.524   6.860   5.693
13645TIP3    H140892   5.441   6.897   5.666
13645TIP3    H240893   5.524   6.868   5.789
13646TIP3   OH240894   4.176   2.619   5.682
13646TIP3    H140895   4.162   2.568   5.602
13646TIP3    H240896   4.107   2.685   5.681
13647TIP3   OH240897   6.081   1.283   1.855
13647TIP3    H140898   6.139   1.265   1.781
13647TIP3    H240899   6.103   1.373   1.881
13648TIP3   OH240900   3.364   0.210   4.953
13648TIP3    H140901   3.377   0.123   4.988
13648TIP3    H240902   3.269   0.224   4.959
13649TIP3   OH240903   6.153   7.014   5.563
13649TIP3    H140904   6.077   6.957   5.550
13649TIP3    H240905   6.214   6.988   5.494
13650TIP3   OH240906   0.467   3.609   0.925
13650TIP3    H140907   0.477   3.622   1.020
13650TIP3    H240908   0.374   3.594   0.912
13651TIP3   OH240909   0.123   3.558   3.228
13651TIP3    H140910   0.215   3.556   3.257
13651TIP3    H240911   0.080   3.490   3.278
13652TIP3   OH240912   0.432   0.472   5.822
13652TIP3    H140913   0.497   0.454   5.754
13652TIP3    H240914   0.476   0.447   5.903
13653TIP3   OH240915   2.684   2.746   2.706
13653TIP3    H140916   2.712   2.657   2.689
13653TIP3    H240917   2.752   2.782   2.764
13654TIP3   OH240918   4.339   0.597   6.693
13654TIP3    H140919   4.403   0.547   6.642
13654TIP3    H240920   4.345   0.562   6.781
13655TIP3   OH240921   3.374   0.882   2.745
13655TIP3    H140922   3.329   0.944   2.687
13655TIP3    H240923   3.450   0.931   2.777
13656TIP3   OH240924   2.776   1.974   2.131
13656TIP3    H140925   2.744   2.025   2.204
13656TIP3    H240926   2.756   1.883   2.154
13657TIP3   OH240927   2.532   3.277   1.938
13657TIP3    H140928   2.506   3.280   2.030
13657TIP3    H240929   2.470   3.216   1.898
13658TIP3   OH240930   6.987   5.915   2.281
13658TIP3    H140931   7.044   5.989   2.303
13658TIP3    H240932   6.950   5.887   2.365
13659TIP3   OH240933   0.754   7.379   1.427
13659TIP3    H140934   0.680   7.437   1.411
13659TIP3    H240935   0.714   7.292   1.437
13660TIP3   OH240936   7.259   5.340   6.350
13660TIP3    H140937   7.314   5.383   6.415
13660TIP3    H240938   7.275   5.246   6.363
13661TIP3   OH240939   1.835   0.802   5.637
13661TIP3    H140940   1.888   0.872   5.673
13661TIP3    H240941   1.894   0.726   5.635
13662TIP3   OH240942   7.179   5.720   4.654
13662TIP3    H140943   7.144   5.800   4.694
13662TIP3    H240944   7.224   5.751   4.575
13663TIP3   OH240945   1.114   4.023   3.579
13663TIP3    H140946   1.087   4.106   3.617
13663TIP3    H240947   1.209   4.032   3.565
13664TIP3   OH240948   2.126   6.657   6.059
13664TIP3    H140949   2.081   6.651   6.143
13664TIP3    H240950   2.216   6.630   6.078
13665TIP3   OH240951   6.241   3.159   0.570
13665TIP3    H140952   6.187   3.237   0.555
13665TIP3    H240953   6.267   3.167   0.662
13666TIP3   OH240954   1.271   5.680   1.319
13666TIP3    H140955   1.315   5.612   1.369
13666TIP3    H240956   1.181   5.679   1.352
13667TIP3   OH240957   0.059   7.319   3.114
13667TIP3    H140958   0.011   7.247   3.073
13667TIP3    H240959  -0.004   7.358   3.175
13668TIP3   OH240960   1.365   6.943   3.610
13668TIP3    H140961   1.396   7.022   3.566
13668TIP3    H240962   1.420   6.873   3.574
13669TIP3   OH240963   7.112   6.868   2.146
13669TIP3    H140964   7.079   6.782   2.117
13669TIP3    H240965   7.203   6.869   2.118
13670TIP3   OH240966   6.414   4.431   2.038
13670TIP3    H140967   6.357   4.372   2.088
13670TIP3    H240968   6.503   4.403   2.060
13671TIP3   OH240969   4.259   6.432   3.404
13671TIP3    H140970   4.168   6.456   3.421
13671TIP3    H240971   4.294   6.407   3.489
13672TIP3   OH240972   2.862   7.452   0.367
13672TIP3    H140973   2.817   7.534   0.385
13672TIP3    H240974   2.946   7.460   0.414
13673TIP3   OH240975   5.632   6.620   2.660
13673TIP3    H140976   5.623   6.534   2.618
13673TIP3    H240977   5.686   6.603   2.737
13674TIP3   OH240978   3.867   6.943   3.151
13674TIP3    H140979   3.848   7.035   3.133
13674TIP3    H240980   3.890   6.906   3.066
13675TIP3   OH240981   8.282   5.410   1.491
13675TIP3    H140982   8.325   5.354   1.556
13675TIP3    H240983   8.280   5.357   1.411
13676TIP3   OH240984   0.402   2.516   0.767
13676TIP3    H140985   0.374   2.510   0.675
13676TIP3    H240986   0.324   2.546   0.813
13677TIP3   OH240987   6.804   4.207   3.658
13677TIP3    H140988   6.718   4.199   3.617
13677TIP3    H240989   6.839   4.289   3.625
13678TIP3   OH240990   3.327   3.858   4.963
13678TIP3    H140991   3.378   3.783   4.934
13678TIP3    H240992   3.389   3.914   5.009
13679TIP3   OH240993   2.563   6.768   4.558
13679TIP3    H140994   2.561   6.829   4.632
13679TIP3    H240995   2.506   6.807   4.493
13680TIP3   OH240996   3.072   7.315   1.629
13680TIP3    H140997   3.099   7.231   1.667
13680TIP3    H240998   3.111   7.381   1.686
13681TIP3   OH240999   4.937   7.027   1.651
13681TIP3    H141000   4.867   6.988   1.703
13681TIP3    H241001   5.011   6.968   1.661
13682TIP3   OH241002   1.407   2.038   2.905
13682TIP3    H141003   1.329   1.984   2.920
13682TIP3    H241004   1.479   1.975   2.901
13683TIP3   OH241005   6.667   3.711   6.161
13683TIP3    H141006   6.736   3.655   6.197
13683TIP3    H241007   6.612   3.650   6.112
13684TIP3   OH241008   3.833   6.373   5.957
13684TIP3    H141009   3.767   6.429   5.917
13684TIP3    H241010   3.823   6.289   5.912
13685TIP3   OH241011   7.286   5.731   6.724
13685TIP3    H141012   7.374   5.713   6.759
13685TIP3    H241013   7.269   5.659   6.664
13686TIP3   OH241014   1.276   2.259   5.975
13686TIP3    H141015   1.266   2.175   6.019
13686TIP3    H241016   1.327   2.312   6.037
13687TIP3   OH241017   7.789   2.149   4.315
13687TIP3    H141018   7.800   2.067   4.267
13687TIP3    H241019   7.843   2.139   4.393
13688TIP3   OH241020   3.976   3.470   3.136
13688TIP3    H141021   3.941   3.514   3.059
13688TIP3    H241022   4.008   3.386   3.102
13689TIP3   OH241023   3.671   5.728   5.605
13689TIP3    H141024   3.595   5.784   5.588
13689TIP3    H241025   3.743   5.789   5.620
13690TIP3   OH241026   4.120   4.590   1.324
13690TIP3    H141027   4.143   4.606   1.233
13690TIP3    H241028   4.164   4.508   1.346
13691TIP3   OH241029   3.199   6.172   0.417
13691TIP3    H141030   3.165   6.244   0.364
13691TIP3    H241031   3.255   6.122   0.358
13692TIP3   OH241032   7.228   4.832   1.570
13692TIP3    H141033   7.227   4.811   1.476
13692TIP3    H241034   7.207   4.749   1.613
13693TIP3   OH241035   1.572   6.010   3.456
13693TIP3    H141036   1.522   6.036   3.378
13693TIP3    H241037   1.519   5.940   3.496
13694TIP3   OH241038   0.209   0.616   6.592
13694TIP3    H141039   0.219   0.562   6.513
13694TIP3    H241040   0.272   0.687   6.581
13695TIP3   OH241041   2.235   5.015   5.610
13695TIP3    H141042   2.294   4.995   5.682
13695TIP3    H241043   2.206   5.105   5.626
13696TIP3   OH241044   1.047   2.837   6.489
13696TIP3    H141045   0.960   2.843   6.448
13696TIP3    H241046   1.054   2.915   6.543
13697TIP3   OH241047   0.506   0.060   4.228
13697TIP3    H141048   0.418   0.041   4.195
13697TIP3    H241049   0.501   0.151   4.256
13698TIP3   OH241050   1.416   1.280   2.143
13698TIP3    H141051   1.402   1.196   2.187
13698TIP3    H241052   1.470   1.258   2.067
13699TIP3   OH241053   2.057   1.968   4.595
13699TIP3    H141054   2.101   1.915   4.661
13699TIP3    H241055   1.965   1.939   4.598
13700TIP3   OH241056   2.199   0.482   2.422
13700TIP3    H141057   2.160   0.548   2.365
13700TIP3    H241058   2.180   0.513   2.511
13701TIP3   OH241059   5.920   1.840   0.185
13701TIP3    H141060   5.939   1.804   0.272
13701TIP3    H241061   5.825   1.832   0.176
13702TIP3   OH241062   5.480   6.008   5.621
13702TIP3    H141063   5.485   5.977   5.531
13702TIP3    H241064   5.388   5.999   5.645
13703TIP3   OH241065   7.191   5.836   0.727
13703TIP3    H141066   7.207   5.928   0.709
13703TIP3    H241067   7.150   5.835   0.813
13704TIP3   OH241068   4.408   4.202   4.507
13704TIP3    H141069   4.484   4.156   4.472
13704TIP3    H241070   4.412   4.185   4.602
13705TIP3   OH241071   1.010   4.725   0.156
13705TIP3    H141072   0.920   4.699   0.174
13705TIP3    H241073   1.007   4.820   0.149
13706TIP3   OH241074   1.651   7.209   6.463
13706TIP3    H141075   1.625   7.133   6.515
13706TIP3    H241076   1.685   7.171   6.382
13707TIP3   OH241077   4.439   0.360   4.249
13707TIP3    H141078   4.480   0.359   4.162
13707TIP3    H241079   4.357   0.407   4.236
13708TIP3   OH241080   5.820   5.242   1.811
13708TIP3    H141081   5.889   5.303   1.839
13708TIP3    H241082   5.796   5.273   1.724
13709TIP3   OH241083   2.871   4.814   1.106
13709TIP3    H141084   2.806   4.883   1.124
13709TIP3    H241085   2.823   4.751   1.053
13710TIP3   OH241086   0.465   1.816   0.535
13710TIP3    H141087   0.444   1.865   0.456
13710TIP3    H241088   0.405   1.741   0.534
13711TIP3   OH241089   8.171   7.246   3.573
13711TIP3    H141090   8.208   7.306   3.638
13711TIP3    H241091   8.091   7.289   3.544
13712TIP3   OH241092   2.759   4.030   6.556
13712TIP3    H141093   2.854   4.037   6.555
13712TIP3    H241094   2.728   4.120   6.555
13713TIP3   OH241095   3.672   6.291   1.359
13713TIP3    H141096   3.603   6.256   1.415
13713TIP3    H241097   3.663   6.386   1.365
13714TIP3   OH241098   1.703   7.053   6.250
13714TIP3    H141099   1.627   7.045   6.192
13714TIP3    H241100   1.775   7.013   6.202
13715TIP3   OH241101   1.950   1.410   1.698
13715TIP3    H141102   1.992   1.351   1.635
13715TIP3    H241103   1.941   1.358   1.778
13716TIP3   OH241104   1.585   7.727   4.433
13716TIP3    H141105   1.631   7.805   4.402
13716TIP3    H241106   1.649   7.656   4.427
13717TIP3   OH241107   3.933   2.425   3.155
13717TIP3    H141108   3.939   2.437   3.061
13717TIP3    H241109   4.013   2.465   3.190
13718TIP3   OH241110   7.874   5.496   2.036
13718TIP3    H141111   7.786   5.468   2.011
13718TIP3    H241112   7.917   5.416   2.066
13719TIP3   OH241113   7.123   0.941   3.416
13719TIP3    H141114   7.192   0.972   3.474
13719TIP3    H241115   7.047   0.930   3.474
13720TIP3   OH241116   2.437   0.034   3.456
13720TIP3    H141117   2.519   0.006   3.498
13720TIP3    H241118   2.420  -0.034   3.391
13721TIP3   OH241119   4.999   3.497   0.235
13721TIP3    H141120   5.009   3.591   0.224
13721TIP3    H241121   4.906   3.484   0.254
13722TIP3   OH241122   2.379   0.751   1.519
13722TIP3    H141123   2.443   0.766   1.449
13722TIP3    H241124   2.366   0.837   1.559
13723TIP3   OH241125   0.005   1.422   0.140
13723TIP3    H141126   0.022   1.328   0.133
13723TIP3    H241127   0.090   1.463   0.127
13724TIP3   OH241128   5.591   2.753   2.395
13724TIP3    H141129   5.506   2.710   2.405
13724TIP3    H241130   5.574   2.844   2.419
13725TIP3   OH241131   6.156   1.744   5.262
13725TIP3    H141132   6.238   1.783   5.292
13725TIP3    H241133   6.101   1.818   5.239
13726TIP3   OH241134   1.743   2.083   1.773
13726TIP3    H141135   1.784   2.018   1.716
13726TIP3    H241136   1.798   2.084   1.852
13727TIP3   OH241137   5.691   4.087   1.894
13727TIP3    H141138   5.749   4.154   1.857
13727TIP3    H241139   5.748   4.010   1.903
13728TIP3   OH241140   5.644   4.743   3.912
13728TIP3    H141141   5.630   4.663   3.861
13728TIP3    H241142   5.591   4.809   3.869
13729TIP3   OH241143   5.024   0.097   4.607
13729TIP3    H141144   5.003   0.177   4.656
13729TIP3    H241145   5.031   0.029   4.674
13730TIP3   OH241146   1.231   6.461   2.098
13730TIP3    H141147   1.240   6.398   2.026
13730TIP3    H241148   1.266   6.415   2.174
13731TIP3   OH241149   1.286   1.053   2.689
13731TIP3    H141150   1.255   1.078   2.776
13731TIP3    H241151   1.323   1.134   2.652
13732TIP3   OH241152   2.907   6.714   3.749
13732TIP3    H141153   2.825   6.715   3.799
13732TIP3    H241154   2.889   6.658   3.674
13733TIP3   OH241155   3.022   6.011   2.236
13733TIP3    H141156   2.950   6.022   2.173
13733TIP3    H241157   3.096   6.055   2.196
13734TIP3   OH241158   4.120   3.983   1.384
13734TIP3    H141159   4.071   4.023   1.312
13734TIP3    H241160   4.165   3.909   1.345
13735TIP3   OH241161   5.490   0.269   3.700
13735TIP3    H141162   5.520   0.360   3.698
13735TIP3    H241163   5.460   0.255   3.789
13736TIP3   OH241164   2.861   5.339   4.662
13736TIP3    H141165   2.843   5.265   4.604
13736TIP3    H241166   2.901   5.405   4.606
13737TIP3   OH241167   7.663   4.701   3.867
13737TIP3    H141168   7.743   4.652   3.848
13737TIP3    H241169   7.691   4.770   3.927
13738TIP3   OH241170   7.851   2.625   6.500
13738TIP3    H141171   7.932   2.593   6.463
13738TIP3    H241172   7.802   2.659   6.425
13739TIP3   OH241173   1.492   3.901   0.681
13739TIP3    H141174   1.584   3.879   0.665
13739TIP3    H241175   1.495   3.982   0.733
13740TIP3   OH241176   0.297   5.057   4.644
13740TIP3    H141177   0.236   5.111   4.593
13740TIP3    H241178   0.299   5.098   4.730
13741TIP3   OH241179   1.471   7.062   5.576
13741TIP3    H141180   1.445   7.006   5.503
13741TIP3    H241181   1.420   7.142   5.565
13742TIP3   OH241182   1.365   4.418   2.317
13742TIP3    H141183   1.418   4.372   2.381
13742TIP3    H241184   1.418   4.418   2.237
13743TIP3   OH241185   6.392   3.379   3.075
13743TIP3    H141186   6.299   3.398   3.091
13743TIP3    H241187   6.418   3.442   3.008
13744TIP3   OH241188   5.673   1.866   3.518
13744TIP3    H141189   5.751   1.883   3.465
13744TIP3    H241190   5.618   1.810   3.464
13745TIP3   OH241191   4.342   7.528   3.873
13745TIP3    H141192   4.297   7.581   3.939
13745TIP3    H241193   4.281   7.457   3.853
13746TIP3   OH241194   3.151   3.189   2.306
13746TIP3    H141195   3.191   3.227   2.384
13746TIP3    H241196   3.179   3.246   2.235
13747TIP3   OH241197   2.798   6.407   6.645
13747TIP3    H141198   2.806   6.337   6.581
13747TIP3    H241199   2.728   6.463   6.611
13748TIP3   OH241200   7.157   5.417   0.513
13748TIP3    H141201   7.176   5.506   0.485
13748TIP3    H241202   7.150   5.422   0.609
13749TIP3   OH241203   6.246   2.215   1.657
13749TIP3    H141204   6.305   2.191   1.585
13749TIP3    H241205   6.296   2.197   1.736
13750TIP3   OH241206   5.728   1.932   5.973
13750TIP3    H141207   5.738   2.026   5.958
13750TIP3    H241208   5.643   1.910   5.936
13751TIP3   OH241209   0.558   6.550   0.058
13751TIP3    H141210   0.592   6.464   0.083
13751TIP3    H241211   0.521   6.537  -0.029
13752TIP3   OH241212   8.033   3.949   0.644
13752TIP3    H141213   7.979   3.975   0.719
13752TIP3    H241214   8.094   4.022   0.633
13753TIP3   OH241215   4.775   3.210   0.523
13753TIP3    H141216   4.842   3.255   0.472
13753TIP3    H241217   4.739   3.145   0.462
13754TIP3   OH241218   5.679   4.169   0.404
13754TIP3    H141219   5.760   4.218   0.415
13754TIP3    H241220   5.670   4.158   0.310
13755TIP3   OH241221   3.161   1.784   1.140
13755TIP3    H141222   3.136   1.838   1.215
13755TIP3    H241223   3.224   1.721   1.175
13756TIP3   OH241224   3.792   0.834   6.516
13756TIP3    H141225   3.887   0.825   6.519
13756TIP3    H241226   3.771   0.897   6.584
13757TIP3   OH241227   1.058   2.452   5.959
13757TIP3    H141228   1.057   2.490   5.871
13757TIP3    H241229   1.142   2.406   5.964
13758TIP3   OH241230   3.208   2.381   3.007
13758TIP3    H141231   3.227   2.472   3.031
13758TIP3    H241232   3.182   2.386   2.915
13759TIP3   OH241233   6.199   4.307   5.212
13759TIP3    H141234   6.112   4.315   5.172
13759TIP3    H241235   6.192   4.359   5.293
13760TIP3   OH241236   2.313   5.399   1.921
13760TIP3    H141237   2.318   5.493   1.938
13760TIP3    H241238   2.304   5.393   1.826
13761TIP3   OH241239   1.046   5.593   4.986
13761TIP3    H141240   1.078   5.616   5.073
13761TIP3    H241241   1.046   5.675   4.938
13762TIP3   OH241242   2.669   6.693   2.888
13762TIP3    H141243   2.643   6.623   2.948
13762TIP3    H241244   2.605   6.763   2.903
13763TIP3   OH241245   1.332   2.015   1.156
13763TIP3    H141246   1.250   1.965   1.154
13763TIP3    H241247   1.397   1.954   1.190
13764TIP3   OH241248   3.565   4.397   0.420
13764TIP3    H141249   3.480   4.366   0.389
13764TIP3    H241250   3.544   4.458   0.490
13765TIP3   OH241251   0.552   6.164   1.288
13765TIP3    H141252   0.645   6.146   1.301
13765TIP3    H241253   0.540   6.164   1.193
13766TIP3   OH241254   1.848   5.319   3.018
13766TIP3    H141255   1.942   5.301   3.026
13766TIP3    H241256   1.835   5.396   3.073
13767TIP3   OH241257   1.660   0.111   5.994
13767TIP3    H141258   1.729   0.132   6.057
13767TIP3    H241259   1.608   0.191   5.988
13768TIP3   OH241260   7.231   1.212   5.067
13768TIP3    H141261   7.174   1.169   5.130
13768TIP3    H241262   7.179   1.283   5.031
13769TIP3   OH241263   2.640   3.243   5.728
13769TIP3    H141264   2.686   3.315   5.772
13769TIP3    H241265   2.649   3.169   5.788
13770TIP3   OH241266   5.812   5.466   4.759
13770TIP3    H141267   5.861   5.497   4.682
13770TIP3    H241268   5.813   5.540   4.819
13771TIP3   OH241269   4.671   2.305   3.275
13771TIP3    H141270   4.603   2.280   3.338
13771TIP3    H241271   4.652   2.396   3.254
13772TIP3   OH241272   2.109   1.862   0.844
13772TIP3    H141273   2.076   1.947   0.815
13772TIP3    H241274   2.030   1.813   0.869
13773TIP3   OH241275   8.189   4.104   4.747
13773TIP3    H141276   8.252   4.054   4.800
13773TIP3    H241277   8.179   4.052   4.668
13774TIP3   OH241278   5.799   5.493   6.393
13774TIP3    H141279   5.777   5.540   6.312
13774TIP3    H241280   5.893   5.508   6.404
13775TIP3   OH241281   7.449   6.555   1.193
13775TIP3    H141282   7.356   6.580   1.198
13775TIP3    H241283   7.450   6.479   1.135
13776TIP3   OH241284   1.260   6.546   6.504
13776TIP3    H141285   1.194   6.611   6.479
13776TIP3    H241286   1.210   6.474   6.541
13777TIP3   OH241287   3.976   1.411   5.108
13777TIP3    H141288   4.014   1.356   5.040
13777TIP3    H241289   4.028   1.393   5.186
13778TIP3   OH241290   4.371   2.238   3.992
13778TIP3    H141291   4.305   2.304   4.013
13778TIP3    H241292   4.416   2.273   3.915
13779TIP3   OH241293   3.922   1.071   3.132
13779TIP3    H141294   3.930   1.126   3.211
13779TIP3    H241295   3.997   1.012   3.135
13780TIP3   OH241296   1.161   1.338   2.953
13780TIP3    H141297   1.143   1.425   2.918
13780TIP3    H241298   1.075   1.306   2.982
13781TIP3   OH241299   0.706   6.656   6.751
13781TIP3    H141300   0.681   6.689   6.665
13781TIP3    H241301   0.650   6.705   6.812
13782TIP3   OH241302   2.207   4.571   3.671
13782TIP3    H141303   2.257   4.647   3.642
13782TIP3    H241304   2.116   4.592   3.650
13783TIP3   OH241305   0.344   7.367   5.985
13783TIP3    H141306   0.335   7.418   6.066
13783TIP3    H241307   0.255   7.335   5.967
13784TIP3   OH241308   1.824   2.723   2.308
13784TIP3    H141309   1.910   2.762   2.293
13784TIP3    H241310   1.830   2.683   2.394
13785TIP3   OH241311   2.585   3.024   5.551
13785TIP3    H141312   2.637   3.087   5.601
13785TIP3    H241313   2.647   2.988   5.488
13786TIP3   OH241314   3.866   3.574   0.111
13786TIP3    H141315   3.865   3.478   0.112
13786TIP3    H241316   3.845   3.600   0.200
13787TIP3   OH241317   2.909   2.842   1.007
13787TIP3    H141318   2.958   2.819   1.086
13787TIP3    H241319   2.920   2.767   0.949
13788TIP3   OH241320   4.519   5.810   3.200
13788TIP3    H141321   4.509   5.891   3.250
13788TIP3    H241322   4.477   5.828   3.116
13789TIP3   OH241323   3.879   2.793   5.910
13789TIP3    H141324   3.908   2.704   5.932
13789TIP3    H241325   3.958   2.836   5.876
13790TIP3   OH241326   6.024   2.338   5.971
13790TIP3    H141327   6.113   2.325   6.003
13790TIP3    H241328   6.005   2.430   5.990
13791TIP3   OH241329   3.163   5.414   5.601
13791TIP3    H141330   3.100   5.485   5.597
13791TIP3    H241331   3.160   5.374   5.514
13792TIP3   OH241332   1.713   3.217   2.440
13792TIP3    H141333   1.676   3.128   2.446
13792TIP3    H241334   1.720   3.246   2.531
13793TIP3   OH241335   1.002   2.457   3.840
13793TIP3    H141336   1.030   2.454   3.749
13793TIP3    H241337   1.071   2.411   3.888
13794TIP3   OH241338   1.442   4.674   5.890
13794TIP3    H141339   1.417   4.669   5.798
13794TIP3    H241340   1.385   4.742   5.927
13795TIP3   OH241341   5.397   0.487   2.984
13795TIP3    H141342   5.483   0.495   2.944
13795TIP3    H241343   5.382   0.393   2.992
13796TIP3   OH241344   5.926   4.822   5.589
13796TIP3    H141345   5.961   4.867   5.666
13796TIP3    H241346   5.909   4.733   5.619
13797TIP3   OH241347   6.400   7.674   2.241
13797TIP3    H141348   6.377   7.737   2.172
13797TIP3    H241349   6.363   7.711   2.321
13798TIP3   OH241350   1.753   7.136   2.414
13798TIP3    H141351   1.758   7.213   2.358
13798TIP3    H241352   1.664   7.139   2.451
13799TIP3   OH241353   7.770   6.672   2.496
13799TIP3    H141354   7.679   6.702   2.500
13799TIP3    H241355   7.777   6.608   2.566
13800TIP3   OH241356   6.024   4.453   4.961
13800TIP3    H141357   5.990   4.390   4.898
13800TIP3    H241358   5.951   4.469   5.020
13801TIP3   OH241359   5.936   6.271   5.896
13801TIP3    H141360   5.854   6.321   5.894
13801TIP3    H241361   5.934   6.220   5.815
13802TIP3   OH241362   7.227   2.353   1.374
13802TIP3    H141363   7.192   2.267   1.399
13802TIP3    H241364   7.166   2.415   1.413
13803TIP3   OH241365   4.442   5.094   4.013
13803TIP3    H141366   4.436   5.189   4.019
13803TIP3    H241367   4.472   5.077   3.923
13804TIP3   OH241368   0.346   0.771   6.200
13804TIP3    H141369   0.407   0.722   6.254
13804TIP3    H241370   0.304   0.706   6.144
13805TIP3   OH241371   4.911   1.889   5.758
13805TIP3    H141372   4.845   1.880   5.689
13805TIP3    H241373   4.880   1.831   5.827
13806TIP3   OH241374   7.993   5.055   2.695
13806TIP3    H141375   8.016   5.111   2.621
13806TIP3    H241376   7.932   4.991   2.659
13807TIP3   OH241377   7.189   3.219   4.224
13807TIP3    H141378   7.169   3.136   4.269
13807TIP3    H241379   7.103   3.258   4.206
13808TIP3   OH241380   7.203   0.741   4.368
13808TIP3    H141381   7.295   0.729   4.344
13808TIP3    H241382   7.190   0.835   4.370
13809TIP3   OH241383   3.786   4.285   0.896
13809TIP3    H141384   3.702   4.301   0.854
13809TIP3    H241385   3.791   4.352   0.965
13810TIP3   OH241386   0.621   5.204   6.379
13810TIP3    H141387   0.586   5.293   6.379
13810TIP3    H241388   0.671   5.199   6.297
13811TIP3   OH241389   1.619   5.651   6.577
13811TIP3    H141390   1.536   5.643   6.530
13811TIP3    H241391   1.610   5.732   6.627
13812TIP3   OH241392   3.036   4.000   6.556
13812TIP3    H141393   3.094   4.072   6.579
13812TIP3    H241394   3.083   3.952   6.488
13813TIP3   OH241395   3.018   5.938   6.372
13813TIP3    H141396   3.047   5.852   6.403
13813TIP3    H241397   3.048   5.942   6.282
13814TIP3   OH241398   3.140   5.462   0.022
13814TIP3    H141399   3.146   5.384   0.077
13814TIP3    H241400   3.049   5.490   0.029
13815TIP3   OH241401   3.932   3.148   2.306
13815TIP3    H141402   3.871   3.083   2.343
13815TIP3    H241403   3.876   3.222   2.283
13816TIP3   OH241404   4.141   4.118   3.089
13816TIP3    H141405   4.072   4.115   3.023
13816TIP3    H241406   4.222   4.112   3.038
13817TIP3   OH241407   2.804   1.801   3.501
13817TIP3    H141408   2.738   1.855   3.544
13817TIP3    H241409   2.849   1.860   3.441
13818TIP3   OH241410   7.966   4.920   5.884
13818TIP3    H141411   7.940   4.868   5.808
13818TIP3    H241412   7.921   5.004   5.872
13819TIP3   OH241413   3.067   6.549   2.612
13819TIP3    H141414   2.997   6.594   2.658
13819TIP3    H241415   3.100   6.484   2.674
13820TIP3   OH241416   0.607   5.188   5.812
13820TIP3    H141417   0.674   5.253   5.794
13820TIP3    H241418   0.524   5.235   5.804
13821TIP3   OH241419   3.294   2.286   4.590
13821TIP3    H141420   3.235   2.359   4.572
13821TIP3    H241421   3.361   2.291   4.522
13822TIP3   OH241422   4.818   2.067   0.916
13822TIP3    H141423   4.787   1.978   0.928
13822TIP3    H241424   4.845   2.071   0.824
13823TIP3   OH241425   7.201   4.845   0.455
13823TIP3    H141426   7.186   4.904   0.529
13823TIP3    H241427   7.160   4.889   0.381
13824TIP3   OH241428   2.048   5.440   2.409
13824TIP3    H141429   2.074   5.492   2.484
13824TIP3    H241430   2.042   5.351   2.442
13825TIP3   OH241431   1.636   0.508   4.528
13825TIP3    H141432   1.668   0.558   4.453
13825TIP3    H241433   1.569   0.564   4.568
13826TIP3   OH241434   3.920   4.577   1.801
13826TIP3    H141435   3.959   4.620   1.877
13826TIP3    H241436   3.954   4.627   1.726
13827TIP3   OH241437   0.098   0.247   0.880
13827TIP3    H141438   0.101   0.337   0.849
13827TIP3    H241439   0.132   0.195   0.808
13828TIP3   OH241440   1.143   0.516   6.122
13828TIP3    H141441   1.109   0.581   6.184
13828TIP3    H241442   1.198   0.459   6.176
13829TIP3   OH241443   1.487   0.496   3.100
13829TIP3    H141444   1.416   0.553   3.128
13829TIP3    H241445   1.492   0.509   3.005
13830TIP3   OH241446   4.853   1.625   4.281
13830TIP3    H141447   4.833   1.589   4.367
13830TIP3    H241448   4.892   1.553   4.233
13831TIP3   OH241449   3.344   7.626   0.237
13831TIP3    H141450   3.367   7.693   0.173
13831TIP3    H241451   3.424   7.612   0.288
13832TIP3   OH241452   2.421   5.664   4.636
13832TIP3    H141453   2.452   5.601   4.701
13832TIP3    H241454   2.487   5.733   4.636
13833TIP3   OH241455   8.266   6.302   3.975
13833TIP3    H141456   8.328   6.306   3.902
13833TIP3    H241457   8.180   6.303   3.933
13834TIP3   OH241458   4.856   1.911   1.652
13834TIP3    H141459   4.773   1.870   1.628
13834TIP3    H241460   4.857   1.994   1.604
13835TIP3   OH241461   4.833   1.391   3.628
13835TIP3    H141462   4.761   1.421   3.572
13835TIP3    H241463   4.790   1.362   3.708
13836TIP3   OH241464   4.806   4.624   3.094
13836TIP3    H141465   4.737   4.557   3.095
13836TIP3    H241466   4.876   4.586   3.041
13837TIP3   OH241467   2.303   6.049   4.586
13837TIP3    H141468   2.269   6.054   4.676
13837TIP3    H241469   2.231   6.013   4.535
13838TIP3   OH241470   2.809   7.288   4.383
13838TIP3    H141471   2.718   7.299   4.412
13838TIP3    H241472   2.830   7.370   4.337
13839TIP3   OH241473   7.517   5.187   2.143
13839TIP3    H141474   7.559   5.202   2.228
13839TIP3    H241475   7.426   5.211   2.157
13840TIP3   OH241476   6.688   1.417   3.118
13840TIP3    H141477   6.755   1.472   3.159
13840TIP3    H241478   6.697   1.434   3.024
13841TIP3   OH241479   0.616   2.105   0.325
13841TIP3    H141480   0.641   2.141   0.410
13841TIP3    H241481   0.688   2.129   0.267
13842TIP3   OH241482   3.664   3.639   3.663
13842TIP3    H141483   3.584   3.682   3.632
13842TIP3    H241484   3.733   3.704   3.649
13843TIP3   OH241485   4.237   1.469   5.586
13843TIP3    H141486   4.163   1.513   5.544
13843TIP3    H241487   4.307   1.472   5.521
13844TIP3   OH241488   7.850   5.896   1.965
13844TIP3    H141489   7.772   5.841   1.972
13844TIP3    H241490   7.917   5.839   1.928
13845TIP3   OH241491   0.773   3.294   2.300
13845TIP3    H141492   0.807   3.298   2.390
13845TIP3    H241493   0.780   3.202   2.276
13846TIP3   OH241494   3.082   0.141   2.481
13846TIP3    H141495   3.079   0.237   2.479
13846TIP3    H241496   3.004   0.116   2.532
13847TIP3   OH241497   4.236   1.264   0.703
13847TIP3    H141498   4.274   1.334   0.651
13847TIP3    H241499   4.189   1.308   0.773
13848TIP3   OH241500   0.953   7.162   4.748
13848TIP3    H141501   1.029   7.190   4.799
13848TIP3    H241502   0.974   7.188   4.658
13849TIP3   OH241503   7.323   7.090   5.231
13849TIP3    H141504   7.368   7.030   5.171
13849TIP3    H241505   7.352   7.062   5.318
13850TIP3   OH241506   4.788   1.133   3.428
13850TIP3    H141507   4.866   1.164   3.474
13850TIP3    H241508   4.805   1.153   3.336
13851TIP3   OH241509   1.199   1.353   6.514
13851TIP3    H141510   1.284   1.325   6.478
13851TIP3    H241511   1.139   1.282   6.490
13852TIP3   OH241512   8.282   2.197   4.657
13852TIP3    H141513   8.277   2.128   4.590
13852TIP3    H241514   8.278   2.279   4.608
13853TIP3   OH241515   1.069   4.321   4.245
13853TIP3    H141516   1.118   4.401   4.225
13853TIP3    H241517   1.016   4.343   4.321
13854TIP3   OH241518   3.784   5.402   1.730
13854TIP3    H141519   3.857   5.395   1.668
13854TIP3    H241520   3.740   5.317   1.725
13855TIP3   OH241521   6.009   0.202   1.607
13855TIP3    H141522   6.038   0.200   1.515
13855TIP3    H241523   6.087   0.229   1.655
13856TIP3   OH241524   3.631   2.897   5.884
13856TIP3    H141525   3.718   2.858   5.886
13856TIP3    H241526   3.639   2.970   5.822
13857TIP3   OH241527   2.178   6.493   0.895
13857TIP3    H141528   2.237   6.568   0.883
13857TIP3    H241529   2.164   6.459   0.807
13858TIP3   OH241530   7.732   2.927   1.248
13858TIP3    H141531   7.690   2.853   1.290
13858TIP3    H241532   7.789   2.964   1.315
13859TIP3   OH241533   6.281   3.211   4.158
13859TIP3    H141534   6.226   3.207   4.080
13859TIP3    H241535   6.308   3.302   4.164
13860TIP3   OH241536   4.445   4.991   6.430
13860TIP3    H141537   4.424   5.067   6.374
13860TIP3    H241538   4.517   5.022   6.485
13861TIP3   OH241539   0.140   1.141   0.510
13861TIP3    H141540   0.193   1.128   0.589
13861TIP3    H241541   0.139   1.236   0.498
13862TIP3   OH241542   1.596   5.512   5.352
13862TIP3    H141543   1.552   5.505   5.437
13862TIP3    H241544   1.685   5.482   5.369
13863TIP3   OH241545   4.531   2.137   1.731
13863TIP3    H141546   4.524   2.231   1.717
13863TIP3    H241547   4.604   2.128   1.792
13864TIP3   OH241548   7.559   5.481   2.088
13864TIP3    H141549   7.532   5.395   2.056
13864TIP3    H241550   7.541   5.479   2.182
13865TIP3   OH241551   4.677   5.672   6.639
13865TIP3    H141552   4.617   5.737   6.676
13865TIP3    H241553   4.700   5.616   6.713
13866TIP3   OH241554   4.631   5.308   3.806
13866TIP3    H141555   4.577   5.368   3.755
13866TIP3    H241556   4.609   5.326   3.897
13867TIP3   OH241557   2.894   3.462   3.265
13867TIP3    H141558   2.830   3.533   3.270
13867TIP3    H241559   2.969   3.502   3.220
13868TIP3   OH241560   3.186   0.324   0.769
13868TIP3    H141561   3.250   0.253   0.778
13868TIP3    H241562   3.201   0.378   0.847
13869TIP3   OH241563   5.933   1.877   3.390
13869TIP3    H141564   5.972   1.960   3.364
13869TIP3    H241565   5.915   1.833   3.307
13870TIP3   OH241566   4.635   3.112   3.440
13870TIP3    H141567   4.647   3.045   3.373
13870TIP3    H241568   4.670   3.073   3.520
13871TIP3   OH241569   4.227   3.248   3.327
13871TIP3    H141570   4.133   3.234   3.324
13871TIP3    H241571   4.253   3.253   3.235
13872TIP3   OH241572   4.034   7.543   6.678
13872TIP3    H141573   4.006   7.598   6.751
13872TIP3    H241574   4.064   7.605   6.611
13873TIP3   OH241575   2.904   5.378   3.135
13873TIP3    H141576   2.883   5.393   3.227
13873TIP3    H241577   2.868   5.455   3.090
13874TIP3   OH241578   3.930   5.509   2.144
13874TIP3    H141579   3.981   5.540   2.070
13874TIP3    H241580   3.991   5.456   2.195
13875TIP3   OH241581   5.054   1.300   3.476
13875TIP3    H141582   4.988   1.299   3.546
13875TIP3    H241583   5.124   1.244   3.509
13876TIP3   OH241584   5.503   3.430   3.644
13876TIP3    H141585   5.495   3.451   3.551
13876TIP3    H241586   5.583   3.377   3.651
13877TIP3   OH241587   2.272   7.560   0.932
13877TIP3    H141588   2.342   7.552   0.997
13877TIP3    H241589   2.277   7.650   0.901
13878TIP3   OH241590   3.111   3.679   0.889
13878TIP3    H141591   3.183   3.672   0.827
13878TIP3    H241592   3.119   3.601   0.943
13879TIP3   OH241593   7.796   7.350   0.412
13879TIP3    H141594   7.770   7.417   0.475
13879TIP3    H241595   7.883   7.323   0.441
13880TIP3   OH241596   3.301   0.631   0.312
13880TIP3    H141597   3.382   0.617   0.264
13880TIP3    H241598   3.327   0.675   0.393
13881TIP3   OH241599   6.023   4.130   4.550
13881TIP3    H141600   5.967   4.146   4.474
13881TIP3    H241601   6.023   4.034   4.559
13882TIP3   OH241602   6.136   5.127   4.477
13882TIP3    H141603   6.084   5.121   4.557
13882TIP3    H241604   6.201   5.058   4.486
13883TIP3   OH241605   6.779   2.406   3.757
13883TIP3    H141606   6.738   2.398   3.844
13883TIP3    H241607   6.708   2.437   3.701
13884TIP3   OH241608   0.894   1.484   1.136
13884TIP3    H141609   0.899   1.459   1.229
13884TIP3    H241610   0.978   1.527   1.118
13885TIP3   OH241611   8.197   4.037   5.367
13885TIP3    H141612   8.148   4.070   5.442
13885TIP3    H241613   8.227   3.950   5.394
13886TIP3   OH241614   7.647   7.458   1.783
13886TIP3    H141615   7.736   7.444   1.816
13886TIP3    H241616   7.656   7.532   1.723
13887TIP3   OH241617   1.433   1.763   1.222
13887TIP3    H141618   1.349   1.735   1.257
13887TIP3    H241619   1.491   1.765   1.299
13888TIP3   OH241620   1.850   3.299   1.471
13888TIP3    H141621   1.871   3.392   1.465
13888TIP3    H241622   1.869   3.277   1.563
13889TIP3   OH241623   4.755   1.253   3.162
13889TIP3    H141624   4.764   1.182   3.098
13889TIP3    H241625   4.662   1.251   3.187
13890TIP3   OH241626   6.202   3.755   4.157
13890TIP3    H141627   6.216   3.683   4.220
13890TIP3    H241628   6.253   3.827   4.193
13891TIP3   OH241629   7.684   6.528   5.783
13891TIP3    H141630   7.679   6.432   5.779
13891TIP3    H241631   7.766   6.546   5.829
13892TIP3   OH241632   8.008   3.141   6.401
13892TIP3    H141633   8.048   3.095   6.327
13892TIP3    H241634   8.067   3.214   6.419
13893TIP3   OH241635   5.445   6.198   3.924
13893TIP3    H141636   5.356   6.225   3.945
13893TIP3    H241637   5.488   6.189   4.009
13894TIP3   OH241638   0.233   1.939   3.809
13894TIP3    H141639   0.140   1.937   3.787
13894TIP3    H241640   0.235   1.975   3.898
13895TIP3   OH241641   1.541   4.088   6.638
13895TIP3    H141642   1.497   4.004   6.626
13895TIP3    H241643   1.613   4.069   6.698
13896TIP3   OH241644   3.437   7.276   1.373
13896TIP3    H141645   3.442   7.183   1.394
13896TIP3    H241646   3.442   7.320   1.458
13897TIP3   OH241647   6.983   7.363   1.598
13897TIP3    H141648   6.969   7.449   1.559
13897TIP3    H241649   6.943   7.369   1.684
13898TIP3   OH241650   7.512   7.769   2.028
13898TIP3    H141651   7.519   7.712   2.105
13898TIP3    H241652   7.602   7.772   1.993
13899TIP3   OH241653   6.909   6.537   3.000
13899TIP3    H141654   6.906   6.619   2.950
13899TIP3    H241655   6.965   6.479   2.948
13900TIP3   OH241656   5.817   7.511   6.682
13900TIP3    H141657   5.745   7.570   6.661
13900TIP3    H241658   5.783   7.457   6.753
13901TIP3   OH241659   0.839   7.623   4.075
13901TIP3    H141660   0.805   7.699   4.123
13901TIP3    H241661   0.896   7.661   4.008
13902TIP3   OH241662   0.985   6.510   3.589
13902TIP3    H141663   0.945   6.475   3.510
13902TIP3    H241664   1.066   6.551   3.559
13903TIP3   OH241665   3.965   4.092   2.881
13903TIP3    H141666   3.991   4.074   2.791
13903TIP3    H241667   3.873   4.117   2.875
13904TIP3   OH241668   6.061   2.223   3.131
13904TIP3    H141669   6.118   2.298   3.142
13904TIP3    H241670   6.116   2.156   3.091
13905TIP3   OH241671   3.260   6.619   0.385
13905TIP3    H141672   3.327   6.658   0.442
13905TIP3    H241673   3.181   6.671   0.403
13906TIP3   OH241674   0.588   0.069   1.825
13906TIP3    H141675   0.551   0.003   1.766
13906TIP3    H241676   0.592   0.149   1.772
13907TIP3   OH241677   5.800   5.243  -0.015
13907TIP3    H141678   5.805   5.292   0.067
13907TIP3    H241679   5.759   5.159   0.009
13908TIP3   OH241680   3.867   0.505   0.043
13908TIP3    H141681   3.777   0.479   0.021
13908TIP3    H241682   3.870   0.599   0.022
13909TIP3   OH241683   5.779   5.222   2.358
13909TIP3    H141684   5.749   5.146   2.309
13909TIP3    H241685   5.723   5.294   2.326
13910TIP3   OH241686   7.337   4.794   2.756
13910TIP3    H141687   7.345   4.722   2.693
13910TIP3    H241688   7.427   4.826   2.768
13911TIP3   OH241689   2.566   4.586   5.977
13911TIP3    H141690   2.537   4.545   6.059
13911TIP3    H241691   2.661   4.573   5.976
13912TIP3   OH241692   2.134   7.134   3.024
13912TIP3    H141693   2.172   7.052   3.053
13912TIP3    H241694   2.040   7.124   3.040
13913TIP3   OH241695   0.445   3.949   3.114
13913TIP3    H141696   0.351   3.948   3.132
13913TIP3    H241697   0.483   3.995   3.189
13914TIP3   OH241698   5.439   4.140   1.944
13914TIP3    H141699   5.414   4.106   2.030
13914TIP3    H241700   5.530   4.114   1.933
13915TIP3   OH241701   1.891   5.004   1.548
13915TIP3    H141702   1.830   5.073   1.572
13915TIP3    H241703   1.958   5.007   1.616
13916TIP3   OH241704   1.213   5.205   0.914
13916TIP3    H141705   1.220   5.297   0.891
13916TIP3    H241706   1.186   5.162   0.833
13917TIP3   OH241707   2.567   3.907   0.013
13917TIP3    H141708   2.526   3.906   0.099
13917TIP3    H241709   2.504   3.951  -0.043
13918TIP3   OH241710   3.166   4.232   1.238
13918TIP3    H141711   3.115   4.312   1.226
13918TIP3    H241712   3.113   4.164   1.196
13919TIP3   OH241713   3.165   0.632   4.221
13919TIP3    H141714   3.170   0.651   4.127
13919TIP3    H241715   3.121   0.547   4.225
13920TIP3   OH241716   0.664   4.323   0.864
13920TIP3    H141717   0.616   4.253   0.820
13920TIP3    H241718   0.756   4.300   0.853
13921TIP3   OH241719   6.363   4.676   1.388
13921TIP3    H141720   6.330   4.653   1.475
13921TIP3    H241721   6.291   4.655   1.329
13922TIP3   OH241722   1.618   4.825   2.184
13922TIP3    H141723   1.577   4.906   2.214
13922TIP3    H241724   1.545   4.769   2.157
13923TIP3   OH241725   0.087   7.620   3.152
13923TIP3    H141726   0.024   7.564   3.196
13923TIP3    H241727   0.087   7.590   3.061
13924TIP3   OH241728   3.739   1.983   2.582
13924TIP3    H141729   3.785   2.059   2.618
13924TIP3    H241730   3.753   1.989   2.488
13925TIP3   OH241731   7.134   0.718   1.862
13925TIP3    H141732   7.088   0.719   1.946
13925TIP3    H241733   7.209   0.661   1.877
13926TIP3   OH241734   4.706   3.993   1.743
13926TIP3    H141735   4.743   3.950   1.820
13926TIP3    H241736   4.614   3.966   1.743
13927TIP3   OH241737   1.736   5.067   5.571
13927TIP3    H141738   1.807   5.021   5.617
13927TIP3    H241739   1.736   5.154   5.610
13928TIP3   OH241740   6.422   6.305   4.843
13928TIP3    H141741   6.340   6.330   4.800
13928TIP3    H241742   6.407   6.215   4.872
13929TIP3   OH241743   7.700   1.738   1.874
13929TIP3    H141744   7.636   1.669   1.856
13929TIP3    H241745   7.710   1.784   1.791
13930TIP3   OH241746   7.959   6.486   2.251
13930TIP3    H141747   7.908   6.420   2.206
13930TIP3    H241748   7.919   6.569   2.226
13931TIP3   OH241749   0.637   4.399   4.906
13931TIP3    H141750   0.590   4.449   4.973
13931TIP3    H241751   0.683   4.466   4.855
13932TIP3   OH241752   4.595   7.495   0.280
13932TIP3    H141753   4.547   7.461   0.205
13932TIP3    H241754   4.685   7.504   0.248
13933TIP3   OH241755   6.223   0.021   6.056
13933TIP3    H141756   6.144   0.075   6.045
13933TIP3    H241757   6.257   0.046   6.142
13934TIP3   OH241758   3.098   7.340   3.700
13934TIP3    H141759   3.016   7.374   3.665
13934TIP3    H241760   3.153   7.328   3.623
13935TIP3   OH241761   1.340   2.808   1.731
13935TIP3    H141762   1.308   2.880   1.785
13935TIP3    H241763   1.412   2.771   1.781
13936TIP3   OH241764   2.353   7.313   3.257
13936TIP3    H141765   2.404   7.245   3.302
13936TIP3    H241766   2.375   7.393   3.304
13937TIP3   OH241767   1.460   0.642   5.292
13937TIP3    H141768   1.441   0.617   5.383
13937TIP3    H241769   1.375   0.669   5.257
13938TIP3   OH241770   4.055   6.774   3.934
13938TIP3    H141771   4.078   6.715   3.863
13938TIP3    H241772   3.961   6.790   3.922
13939TIP3   OH241773   3.553   0.607   4.413
13939TIP3    H141774   3.501   0.679   4.377
13939TIP3    H241775   3.489   0.554   4.461
13940TIP3   OH241776   7.367   2.739   5.229
13940TIP3    H141777   7.376   2.827   5.266
13940TIP3    H241778   7.420   2.741   5.150
13941TIP3   OH241779   2.987   0.917   1.996
13941TIP3    H141780   2.911   0.890   2.047
13941TIP3    H241781   3.002   0.845   1.935
13942TIP3   OH241782   6.115   0.439   4.020
13942TIP3    H141783   6.082   0.358   4.059
13942TIP3    H241784   6.115   0.422   3.926
13943TIP3   OH241785   3.817   6.992   1.105
13943TIP3    H141786   3.891   6.939   1.134
13943TIP3    H241787   3.832   7.078   1.143
13944TIP3   OH241788   3.452   6.940   5.615
13944TIP3    H141789   3.539   6.907   5.593
13944TIP3    H241790   3.424   6.887   5.689
13945TIP3   OH241791   1.355   4.222   4.387
13945TIP3    H141792   1.329   4.130   4.389
13945TIP3    H241793   1.335   4.251   4.298
13946TIP3   OH241794   3.135   6.958   0.526
13946TIP3    H141795   3.063   7.003   0.482
13946TIP3    H241796   3.132   6.988   0.616
13947TIP3   OH241797   7.542   0.660   1.280
13947TIP3    H141798   7.624   0.620   1.252
13947TIP3    H241799   7.476   0.625   1.220
13948TIP3   OH241800   2.460   4.045   2.769
13948TIP3    H141801   2.427   4.121   2.817
13948TIP3    H241802   2.555   4.055   2.770
13949TIP3   OH241803   7.229   6.650   3.934
13949TIP3    H141804   7.197   6.738   3.916
13949TIP3    H241805   7.239   6.647   4.030
13950TIP3   OH241806   5.409   3.332   1.523
13950TIP3    H141807   5.465   3.260   1.492
13950TIP3    H241808   5.428   3.339   1.617
13951TIP3   OH241809   4.966   2.204   5.406
13951TIP3    H141810   5.007   2.119   5.390
13951TIP3    H241811   4.998   2.229   5.493
13952TIP3   OH241812   0.206   4.651   5.951
13952TIP3    H141813   0.199   4.561   5.981
13952TIP3    H241814   0.240   4.699   6.027
13953TIP3   OH241815   0.113   6.873   3.775
13953TIP3    H141816   0.024   6.902   3.756
13953TIP3    H241817   0.132   6.907   3.862
13954TIP3   OH241818   6.743   6.818   6.253
13954TIP3    H141819   6.718   6.856   6.168
13954TIP3    H241820   6.706   6.730   6.252
13955TIP3   OH241821   5.176   3.706   6.442
13955TIP3    H141822   5.236   3.700   6.516
13955TIP3    H241823   5.217   3.654   6.373
13956TIP3   OH241824   4.943   2.397   1.699
13956TIP3    H141825   4.998   2.475   1.704
13956TIP3    H241826   4.870   2.414   1.757
13957TIP3   OH241827   5.346   0.816   2.134
13957TIP3    H141828   5.287   0.889   2.113
13957TIP3    H241829   5.432   0.845   2.104
13958TIP3   OH241830   7.986   1.867   2.988
13958TIP3    H141831   8.000   1.960   2.975
13958TIP3    H241832   8.037   1.845   3.066
13959TIP3   OH241833   3.515   1.740   0.155
13959TIP3    H141834   3.475   1.817   0.194
13959TIP3    H241835   3.452   1.670   0.169
13960TIP3   OH241836   1.894   1.479   1.060
13960TIP3    H141837   1.823   1.422   1.033
13960TIP3    H241838   1.963   1.419   1.088
13961TIP3   OH241839   7.199   0.206   2.018
13961TIP3    H141840   7.149   0.148   1.961
13961TIP3    H241841   7.286   0.166   2.023
13962TIP3   OH241842   0.717   2.861   6.431
13962TIP3    H141843   0.622   2.856   6.440
13962TIP3    H241844   0.741   2.780   6.385
13963TIP3   OH241845   2.636   3.750   4.131
13963TIP3    H141846   2.551   3.715   4.157
13963TIP3    H241847   2.699   3.683   4.158
13964TIP3   OH241848   1.190   0.732   3.274
13964TIP3    H141849   1.188   0.637   3.281
13964TIP3    H241850   1.255   0.759   3.339
13965TIP3   OH241851   1.640   4.019   2.493
13965TIP3    H141852   1.667   3.932   2.465
13965TIP3    H241853   1.708   4.077   2.458
13966TIP3   OH241854   6.541   2.704   3.660
13966TIP3    H141855   6.625   2.730   3.697
13966TIP3    H241856   6.476   2.754   3.711
13967TIP3   OH241857   2.210   7.741   2.946
13967TIP3    H141858   2.252   7.660   2.974
13967TIP3    H241859   2.280   7.793   2.907
13968TIP3   OH241860   6.334   2.905   5.699
13968TIP3    H141861   6.398   2.849   5.655
13968TIP3    H241862   6.297   2.851   5.768
13969TIP3   OH241863   2.373   7.078   0.458
13969TIP3    H141864   2.435   7.149   0.478
13969TIP3    H241865   2.402   7.005   0.513
13970TIP3   OH241866   3.285   5.952   1.150
13970TIP3    H141867   3.327   5.969   1.066
13970TIP3    H241868   3.192   5.973   1.135
13971TIP3   OH241869   6.066   1.939   1.344
13971TIP3    H141870   6.107   1.867   1.296
13971TIP3    H241871   6.135   2.005   1.352
13972TIP3   OH241872   7.261   6.657   2.657
13972TIP3    H141873   7.219   6.700   2.582
13972TIP3    H241874   7.207   6.681   2.732
13973TIP3   OH241875   1.824   0.442   3.751
13973TIP3    H141876   1.912   0.406   3.739
13973TIP3    H241877   1.780   0.427   3.668
13974TIP3   OH241878   1.060   1.797   4.074
13974TIP3    H141879   1.127   1.836   4.019
13974TIP3    H241880   0.992   1.865   4.082
13975TIP3   OH241881   3.403   2.788   5.651
13975TIP3    H141882   3.472   2.847   5.622
13975TIP3    H241883   3.413   2.784   5.746
13976TIP3   OH241884   8.319   7.726   5.671
13976TIP3    H141885   8.278   7.764   5.749
13976TIP3    H241886   8.261   7.751   5.599
13977TIP3   OH241887   2.775   5.999   3.615
13977TIP3    H141888   2.680   6.010   3.622
13977TIP3    H241889   2.809   6.030   3.698
13978TIP3   OH241890   7.809   5.045   6.494
13978TIP3    H141891   7.779   4.954   6.505
13978TIP3    H241892   7.883   5.038   6.433
13979TIP3   OH241893   4.738   2.509   1.849
13979TIP3    H141894   4.663   2.450   1.853
13979TIP3    H241895   4.701   2.593   1.823
13980TIP3   OH241896   7.026   4.849   2.013
13980TIP3    H141897   6.941   4.885   2.038
13980TIP3    H241898   7.084   4.873   2.086
13981TIP3   OH241899   3.372   4.070   2.393
13981TIP3    H141900   3.277   4.060   2.395
13981TIP3    H241901   3.385   4.165   2.384
13982TIP3   OH241902   7.949   0.900   6.401
13982TIP3    H141903   7.861   0.926   6.428
13982TIP3    H241904   7.974   0.831   6.463
13983TIP3   OH241905   3.840   6.489   4.813
13983TIP3    H141906   3.803   6.429   4.748
13983TIP3    H241907   3.844   6.439   4.894
13984TIP3   OH241908   7.738   4.559   1.945
13984TIP3    H141909   7.688   4.630   1.905
13984TIP3    H241910   7.749   4.494   1.875
13985TIP3   OH241911   3.076   2.969   3.936
13985TIP3    H141912   3.005   3.025   3.967
13985TIP3    H241913   3.064   2.965   3.841
13986TIP3   OH241914   7.812   3.793   3.028
13986TIP3    H141915   7.834   3.782   3.121
13986TIP3    H241916   7.865   3.727   2.983
13987TIP3   OH241917   5.160   0.955   6.257
13987TIP3    H141918   5.128   0.994   6.339
13987TIP3    H241919   5.255   0.969   6.260
13988TIP3   OH241920   8.214   4.578   6.658
13988TIP3    H141921   8.153   4.573   6.732
13988TIP3    H241922   8.174   4.523   6.590
13989TIP3   OH241923   2.408   6.033   6.267
13989TIP3    H141924   2.469   5.980   6.319
13989TIP3    H241925   2.464   6.092   6.217
13990TIP3   OH241926   6.985   1.149   3.573
13990TIP3    H141927   6.915   1.186   3.626
13990TIP3    H241928   7.021   1.079   3.628
13991TIP3   OH241929   3.422   4.803   1.397
13991TIP3    H141930   3.430   4.843   1.483
13991TIP3    H241931   3.406   4.710   1.414
13992TIP3   OH241932   7.600   1.875   3.970
13992TIP3    H141933   7.629   1.951   3.920
13992TIP3    H241934   7.557   1.819   3.906
13993TIP3   OH241935   6.538   4.531   4.432
13993TIP3    H141936   6.516   4.615   4.472
13993TIP3    H241937   6.507   4.539   4.341
13994TIP3   OH241938   2.003   3.831   4.139
13994TIP3    H141939   2.077   3.888   4.119
13994TIP3    H241940   1.938   3.852   4.072
13995TIP3   OH241941   5.307   3.815   2.971
13995TIP3    H141942   5.384   3.771   2.936
13995TIP3    H241943   5.242   3.746   2.980
13996TIP3   OH241944   0.154   3.977   2.040
13996TIP3    H141945   0.096   3.980   2.115
13996TIP3    H241946   0.242   3.981   2.077
13997TIP3   OH241947   6.897   3.965   2.502
13997TIP3    H141948   6.887   3.881   2.546
13997TIP3    H241949   6.884   4.030   2.571
13998TIP3   OH241950   3.466   5.993   2.946
13998TIP3    H141951   3.461   5.906   2.907
13998TIP3    H241952   3.538   5.987   3.009
13999TIP3   OH241953   1.251   4.087   0.671
13999TIP3    H141954   1.284   4.019   0.730
13999TIP3    H241955   1.270   4.054   0.583
14000TIP3   OH241956   4.289   5.107   1.984
14000TIP3    H141957   4.261   5.185   2.032
14000TIP3    H241958   4.258   5.034   2.038
14001TIP3   OH241959   8.239   7.549   0.689
14001TIP3    H141960   8.257   7.473   0.634
14001TIP3    H241961   8.319   7.603   0.682
14002TIP3   OH241962   3.583   2.663   2.930
14002TIP3    H141963   3.603   2.672   3.023
14002TIP3    H241964   3.534   2.743   2.908
14003TIP3   OH241965   5.489   5.293   6.232
14003TIP3    H141966   5.578   5.280   6.265
14003TIP3    H241967   5.496   5.372   6.177
14004TIP3   OH241968   6.726   3.886   5.632
14004TIP3    H141969   6.732   3.891   5.727
14004TIP3    H241970   6.723   3.792   5.613
14005TIP3   OH241971   3.219   3.497   3.239
14005TIP3    H141972   3.229   3.524   3.148
14005TIP3    H241973   3.287   3.546   3.286
14006TIP3   OH241974   4.860   0.242   4.031
14006TIP3    H141975   4.819   0.266   4.114
14006TIP3    H241976   4.937   0.299   4.025
14007TIP3   OH241977   0.082   6.393   0.457
14007TIP3    H141978   0.102   6.452   0.530
14007TIP3    H241979   0.072   6.450   0.382
14008TIP3   OH241980   0.959   1.782   3.449
14008TIP3    H141981   0.933   1.710   3.506
14008TIP3    H241982   1.032   1.746   3.398
14009TIP3   OH241983   8.140   1.041   0.605
14009TIP3    H141984   8.125   1.002   0.519
14009TIP3    H241985   8.228   1.011   0.630
14010TIP3   OH241986   2.245   6.490   3.409
14010TIP3    H141987   2.221   6.503   3.501
14010TIP3    H241988   2.211   6.403   3.387
14011TIP3   OH241989   2.645   4.458   1.889
14011TIP3    H141990   2.625   4.430   1.978
14011TIP3    H241991   2.714   4.399   1.860
14012TIP3   OH241992   7.876   4.184   3.829
14012TIP3    H141993   7.929   4.123   3.879
14012TIP3    H241994   7.882   4.154   3.739
14013TIP3   OH241995   8.059   4.562   0.442
14013TIP3    H141996   8.020   4.506   0.508
14013TIP3    H241997   7.986   4.589   0.386
14014TIP3   OH241998   3.983   1.045   2.187
14014TIP3    H141999   3.905   0.992   2.204
14014TIP3    H242000   4.056   0.987   2.208
14015TIP3   OH242001   1.305   7.114   0.007
14015TIP3    H142002   1.371   7.057  -0.033
14015TIP3    H242003   1.249   7.054   0.057
14016TIP3   OH242004   3.890   1.606   1.282
14016TIP3    H142005   3.964   1.558   1.321
14016TIP3    H242006   3.814   1.550   1.298
14017TIP3   OH242007   3.944   0.466   5.819
14017TIP3    H142008   3.940   0.372   5.839
14017TIP3    H242009   4.036   0.483   5.803
14018TIP3   OH242010   5.666   0.333   5.284
14018TIP3    H142011   5.608   0.278   5.337
14018TIP3    H242012   5.634   0.422   5.299
14019TIP3   OH242013   2.016   2.654   0.565
14019TIP3    H142014   2.046   2.589   0.501
14019TIP3    H242015   1.925   2.631   0.582
14020TIP3   OH242016   5.665   0.970   6.716
14020TIP3    H142017   5.622   0.928   6.641
14020TIP3    H242018   5.669   1.063   6.692
14021TIP3   OH242019   3.963   1.969   3.370
14021TIP3    H142020   3.888   2.011   3.328
14021TIP3    H242021   4.002   1.916   3.300
14022TIP3   OH242022   6.586   7.630   2.625
14022TIP3    H142023   6.633   7.709   2.601
14022TIP3    H242024   6.634   7.594   2.699
14023TIP3   OH242025   6.611   1.257   5.161
14023TIP3    H142026   6.518   1.262   5.141
14023TIP3    H242027   6.633   1.344   5.196
14024TIP3   OH242028   1.573   0.604   6.469
14024TIP3    H142029   1.491   0.638   6.506
14024TIP3    H242030   1.546   0.529   6.416
14025TIP3   OH242031   8.154   0.851   5.940
14025TIP3    H142032   8.198   0.782   5.890
14025TIP3    H242033   8.218   0.922   5.943
14026TIP3   OH242034   6.054   2.981   2.113
14026TIP3    H142035   6.101   2.901   2.092
14026TIP3    H242036   6.069   3.038   2.037
14027TIP3   OH242037   7.874   5.141   6.094
14027TIP3    H142038   7.851   5.051   6.116
14027TIP3    H242039   7.815   5.195   6.147
14028TIP3   OH242040   1.230   0.434   3.762
14028TIP3    H142041   1.222   0.497   3.833
14028TIP3    H242042   1.140   0.418   3.733
14029TIP3   OH242043   3.990   4.665   4.022
14029TIP3    H142044   3.960   4.692   3.935
14029TIP3    H242045   3.971   4.571   4.026
14030TIP3   OH242046   7.498   6.424   6.407
14030TIP3    H142047   7.426   6.440   6.346
14030TIP3    H242048   7.538   6.510   6.420
14031TIP3   OH242049   5.240   4.587   0.751
14031TIP3    H142050   5.190   4.608   0.829
14031TIP3    H242051   5.178   4.598   0.679
14032TIP3   OH242052   6.533   5.155   2.119
14032TIP3    H142053   6.566   5.144   2.208
14032TIP3    H242054   6.481   5.076   2.103
14033TIP3   OH242055   7.112   6.729   0.234
14033TIP3    H142056   7.125   6.689   0.320
14033TIP3    H242057   7.108   6.823   0.252
14034TIP3   OH242058   4.657   0.249   5.587
14034TIP3    H142059   4.596   0.177   5.576
14034TIP3    H242060   4.678   0.249   5.681
14035TIP3   OH242061   1.125   7.091   3.481
14035TIP3    H142062   1.206   7.055   3.515
14035TIP3    H242063   1.100   7.031   3.411
14036TIP3   OH242064   2.906   1.042   1.272
14036TIP3    H142065   2.882   1.128   1.237
14036TIP3    H242066   3.001   1.041   1.272
14037TIP3   OH242067   1.494   0.107   0.653
14037TIP3    H142068   1.521   0.094   0.744
14037TIP3    H242069   1.518   0.026   0.609
14038TIP3   OH242070   5.003   5.839   0.308
14038TIP3    H142071   4.970   5.929   0.312
14038TIP3    H242072   4.955   5.799   0.236
14039TIP3   OH242073   4.185   1.791   4.289
14039TIP3    H142074   4.268   1.838   4.303
14039TIP3    H242075   4.196   1.749   4.204
14040TIP3   OH242076   6.484   2.371   3.893
14040TIP3    H142077   6.409   2.422   3.863
14040TIP3    H242078   6.531   2.431   3.952
14041TIP3   OH242079   1.289   3.077   4.801
14041TIP3    H142080   1.257   3.086   4.711
14041TIP3    H242081   1.260   3.157   4.845
14042TIP3   OH242082   2.520   7.715   1.791
14042TIP3    H142083   2.597   7.692   1.842
14042TIP3    H242084   2.519   7.650   1.719
14043TIP3   OH242085   2.429   1.771   2.331
14043TIP3    H142086   2.370   1.758   2.406
14043TIP3    H242087   2.401   1.706   2.267
14044TIP3   OH242088   2.971   7.451   5.211
14044TIP3    H142089   2.902   7.487   5.266
14044TIP3    H242090   3.010   7.528   5.169
14045TIP3   OH242091   2.350   1.972   5.069
14045TIP3    H142092   2.346   1.877   5.075
14045TIP3    H242093   2.267   2.003   5.104
14046TIP3   OH242094   5.361   4.058   5.901
14046TIP3    H142095   5.405   4.144   5.900
14046TIP3    H242096   5.268   4.079   5.901
14047TIP3   OH242097   0.661   1.217   3.841
14047TIP3    H142098   0.704   1.185   3.920
14047TIP3    H242099   0.730   1.263   3.793
14048TIP3   OH242100   3.865   5.759   3.415
14048TIP3    H142101   3.887   5.822   3.346
14048TIP3    H242102   3.821   5.811   3.482
14049TIP3   OH242103   6.342   1.676   2.319
14049TIP3    H142104   6.297   1.664   2.403
14049TIP3    H242105   6.369   1.587   2.295
14050TIP3   OH242106   0.470   4.775   4.083
14050TIP3    H142107   0.518   4.773   4.000
14050TIP3    H242108   0.439   4.865   4.091
14051TIP3   OH242109   1.126   3.731   5.194
14051TIP3    H142110   1.048   3.703   5.242
14051TIP3    H242111   1.199   3.691   5.241
14052TIP3   OH242112   8.189   6.165   2.987
14052TIP3    H142113   8.238   6.221   3.047
14052TIP3    H242114   8.230   6.178   2.901
14053TIP3   OH242115   0.500   4.941   4.472
14053TIP3    H142116   0.450   4.912   4.396
14053TIP3    H242117   0.434   4.977   4.532
14054TIP3   OH242118   7.030   4.771   2.877
14054TIP3    H142119   6.983   4.732   2.952
14054TIP3    H242120   7.075   4.846   2.914
14055TIP3   OH242121   3.003   4.459   5.557
14055TIP3    H142122   3.086   4.413   5.571
14055TIP3    H242123   3.028   4.540   5.514
14056TIP3   OH242124   2.324   1.134   4.800
14056TIP3    H142125   2.324   1.204   4.734
14056TIP3    H242126   2.328   1.180   4.883
14057TIP3   OH242127   4.276   4.727   1.720
14057TIP3    H142128   4.338   4.730   1.793
14057TIP3    H242129   4.255   4.819   1.702
14058TIP3   OH242130   6.541   3.599   6.487
14058TIP3    H142131   6.491   3.677   6.513
14058TIP3    H242132   6.588   3.574   6.566
14059TIP3   OH242133   7.209   5.789   1.308
14059TIP3    H142134   7.227   5.696   1.292
14059TIP3    H242135   7.163   5.790   1.392
14060TIP3   OH242136   5.498   4.146   4.019
14060TIP3    H142137   5.561   4.186   4.080
14060TIP3    H242138   5.550   4.085   3.967
14061TIP3   OH242139   5.657   0.018   4.914
14061TIP3    H142140   5.602   0.007   4.992
14061TIP3    H242141   5.675   0.112   4.910
14062TIP3   OH242142   2.051   6.619   0.599
14062TIP3    H142143   2.135   6.573   0.604
14062TIP3    H242144   1.985   6.550   0.612
14063TIP3   OH242145   0.360   3.311   3.030
14063TIP3    H142146   0.309   3.269   2.961
14063TIP3    H242147   0.413   3.376   2.984
14064TIP3   OH242148   7.137   1.447   0.622
14064TIP3    H142149   7.072   1.510   0.591
14064TIP3    H242150   7.105   1.419   0.707
14065TIP3   OH242151   3.663   7.258   4.817
14065TIP3    H142152   3.675   7.200   4.742
14065TIP3    H242153   3.746   7.305   4.824
14066TIP3   OH242154   4.349   3.200   0.983
14066TIP3    H142155   4.367   3.179   1.074
14066TIP3    H242156   4.363   3.117   0.936
14067TIP3   OH242157   1.953   2.453   0.365
14067TIP3    H142158   1.876   2.508   0.355
14067TIP3    H242159   1.932   2.373   0.316
14068TIP3   OH242160   6.182   0.472   6.614
14068TIP3    H142161   6.180   0.486   6.519
14068TIP3    H242162   6.111   0.411   6.631
14069TIP3   OH242163   3.665   6.729   0.892
14069TIP3    H142164   3.651   6.819   0.861
14069TIP3    H242165   3.579   6.699   0.920
14070TIP3   OH242166   6.271   5.732   1.993
14070TIP3    H142167   6.284   5.648   2.036
14070TIP3    H242168   6.303   5.719   1.904
14071TIP3   OH242169   2.539   1.306   4.428
14071TIP3    H142170   2.477   1.308   4.501
14071TIP3    H242171   2.547   1.397   4.400
14072TIP3   OH242172   8.147   7.022   2.852
14072TIP3    H142173   8.158   6.999   2.760
14072TIP3    H242174   8.076   7.086   2.852
14073TIP3   OH242175   7.779   7.735   4.538
14073TIP3    H142176   7.827   7.818   4.531
14073TIP3    H242177   7.823   7.688   4.609
14074TIP3   OH242178   5.462   2.811   4.842
14074TIP3    H142179   5.377   2.786   4.807
14074TIP3    H242180   5.478   2.899   4.809
14075TIP3   OH242181   3.296   2.116   0.006
14075TIP3    H142182   3.332   2.203  -0.009
14075TIP3    H242183   3.206   2.133   0.037
14076TIP3   OH242184   1.247   6.423   4.540
14076TIP3    H142185   1.330   6.415   4.587
14076TIP3    H242186   1.202   6.340   4.556
14077TIP3   OH242187   1.931   5.366   6.250
14077TIP3    H142188   1.939   5.358   6.345
14077TIP3    H242189   2.017   5.342   6.216
14078TIP3   OH242190   1.151   7.379   4.645
14078TIP3    H142191   1.223   7.391   4.708
14078TIP3    H242192   1.078   7.429   4.683
14079TIP3   OH242193   2.480   3.981   0.499
14079TIP3    H142194   2.517   4.042   0.435
14079TIP3    H242195   2.402   4.026   0.533
14080TIP3   OH242196   1.252   2.927   0.174
14080TIP3    H142197   1.163   2.932   0.142
14080TIP3    H242198   1.307   2.946   0.098
14081TIP3   OH242199   3.331   4.726   4.352
14081TIP3    H142200   3.422   4.726   4.382
14081TIP3    H242201   3.331   4.669   4.275
14082TIP3   OH242202   3.358   0.473   4.537
14082TIP3    H142203   3.300   0.502   4.608
14082TIP3    H242204   3.320   0.389   4.510
14083TIP3   OH242205   0.338   5.922   0.786
14083TIP3    H142206   0.338   5.832   0.821
14083TIP3    H242207   0.331   5.978   0.863
14084TIP3   OH242208   6.216   1.789   3.405
14084TIP3    H142209   6.259   1.856   3.458
14084TIP3    H242210   6.126   1.820   3.396
14085TIP3   OH242211   3.599   1.526   3.534
14085TIP3    H142212   3.619   1.563   3.448
14085TIP3    H242213   3.614   1.432   3.523
14086TIP3   OH242214   1.484   5.418   1.350
14086TIP3    H142215   1.487   5.477   1.425
14086TIP3    H242216   1.493   5.330   1.388
14087TIP3   OH242217   2.045   0.102   4.225
14087TIP3    H142218   2.124   0.087   4.175
14087TIP3    H242219   2.044   0.196   4.242
14088TIP3   OH242220   2.287   2.406   5.871
14088TIP3    H142221   2.279   2.336   5.936
14088TIP3    H242222   2.367   2.384   5.823
14089TIP3   OH242223   6.803   7.712   6.168
14089TIP3    H142224   6.748   7.633   6.170
14089TIP3    H242225   6.759   7.773   6.228
14090TIP3   OH242226   0.198   4.093   1.117
14090TIP3    H142227   0.146   4.070   1.040
14090TIP3    H242228   0.289   4.092   1.085
14091TIP3   OH242229   6.761   5.467   1.828
14091TIP3    H142230   6.678   5.427   1.800
14091TIP3    H242231   6.783   5.528   1.757
14092TIP3   OH242232   1.526   4.770   4.734
14092TIP3    H142233   1.598   4.774   4.798
14092TIP3    H242234   1.451   4.740   4.785
14093TIP3   OH242235   6.906   0.674   1.707
14093TIP3    H142236   6.900   0.763   1.673
14093TIP3    H242237   6.991   0.670   1.750
14094TIP3   OH242238   0.493   6.238   6.727
14094TIP3    H142239   0.475   6.318   6.678
14094TIP3    H242240   0.579   6.209   6.696
14095TIP3   OH242241   6.091   6.216   6.473
14095TIP3    H142242   6.174   6.261   6.455
14095TIP3    H242243   6.059   6.255   6.554
14096TIP3   OH242244   7.814   2.963   3.385
14096TIP3    H142245   7.842   2.874   3.368
14096TIP3    H242246   7.767   2.958   3.468
14097TIP3   OH242247   7.426   4.384   3.743
14097TIP3    H142248   7.381   4.456   3.699
14097TIP3    H242249   7.518   4.394   3.718
14098TIP3   OH242250   5.111   1.591   1.058
14098TIP3    H142251   5.074   1.679   1.064
14098TIP3    H242252   5.172   1.585   1.131
14099TIP3   OH242253   0.750   4.242   6.681
14099TIP3    H142254   0.793   4.221   6.764
14099TIP3    H242255   0.665   4.197   6.687
14100TIP3   OH242256   6.129   1.401   4.677
14100TIP3    H142257   6.128   1.306   4.672
14100TIP3    H242258   6.051   1.423   4.728
14101TIP3   OH242259   0.705   5.324   3.645
14101TIP3    H142260   0.790   5.355   3.676
14101TIP3    H242261   0.679   5.386   3.577
14102TIP3   OH242262   8.249   4.691   5.113
14102TIP3    H142263   8.227   4.662   5.024
14102TIP3    H242264   8.221   4.620   5.170
14103TIP3   OH242265   0.557   0.379   6.034
14103TIP3    H142266   0.619   0.409   6.101
14103TIP3    H242267   0.551   0.284   6.049
14104TIP3   OH242268   4.350   5.452   5.491
14104TIP3    H142269   4.346   5.524   5.429
14104TIP3    H242270   4.263   5.447   5.530
14105TIP3   OH242271   3.081   5.313   0.587
14105TIP3    H142272   3.003   5.298   0.534
14105TIP3    H242273   3.047   5.344   0.671
14106TIP3   OH242274   5.780   1.859   2.577
14106TIP3    H142275   5.853   1.896   2.627
14106TIP3    H242276   5.802   1.876   2.485
14107TIP3   OH242277   0.984   5.225   6.063
14107TIP3    H142278   1.062   5.257   6.110
14107TIP3    H242279   0.955   5.300   6.012
14108TIP3   OH242280   4.029   1.434   2.537
14108TIP3    H142281   4.013   1.508   2.479
14108TIP3    H242282   3.980   1.361   2.497
14109TIP3   OH242283   0.101   7.642   4.970
14109TIP3    H142284   0.034   7.574   4.974
14109TIP3    H242285   0.171   7.605   4.917
14110TIP3   OH242286   6.627   7.002   0.168
14110TIP3    H142287   6.667   7.041   0.246
14110TIP3    H242288   6.544   6.967   0.199
14111TIP3   OH242289   7.570   0.988   4.116
14111TIP3    H142290   7.475   0.979   4.120
14111TIP3    H242291   7.603   0.919   4.173
14112TIP3   OH242292   2.882   6.565   3.511
14112TIP3    H142293   2.958   6.510   3.530
14112TIP3    H242294   2.912   6.620   3.438
14113TIP3   OH242295   6.694   0.493   0.245
14113TIP3    H142296   6.709   0.402   0.219
14113TIP3    H242297   6.782   0.531   0.251
14114TIP3   OH242298   2.810   5.639   3.058
14114TIP3    H142299   2.716   5.628   3.043
14114TIP3    H242300   2.842   5.683   2.980
14115TIP3   OH242301   6.699   7.268   5.939
14115TIP3    H142302   6.627   7.274   6.002
14115TIP3    H242303   6.656   7.272   5.853
14116TIP3   OH242304   7.869   0.977   1.816
14116TIP3    H142305   7.815   1.045   1.775
14116TIP3    H242306   7.805   0.913   1.849
14117TIP3   OH242307   8.215   2.541   3.006
14117TIP3    H142308   8.262   2.459   3.014
14117TIP3    H242309   8.132   2.527   3.051
14118TIP3   OH242310   1.305   7.082   4.128
14118TIP3    H142311   1.303   7.138   4.050
14118TIP3    H242312   1.232   7.022   4.117
14119TIP3   OH242313   1.972   0.353   1.992
14119TIP3    H142314   1.956   0.349   2.086
14119TIP3    H242315   1.961   0.263   1.961
14120TIP3   OH242316   5.960   3.707   2.703
14120TIP3    H142317   5.986   3.786   2.657
14120TIP3    H242318   5.893   3.735   2.765
14121TIP3   OH242319   6.343   1.554   6.638
14121TIP3    H142320   6.313   1.467   6.613
14121TIP3    H242321   6.264   1.598   6.671
14122TIP3   OH242322   5.087   7.686   2.740
14122TIP3    H142323   5.046   7.652   2.820
14122TIP3    H242324   5.018   7.738   2.698
14123TIP3   OH242325   7.680   7.594   4.800
14123TIP3    H142326   7.610   7.618   4.861
14123TIP3    H242327   7.732   7.673   4.790
14124TIP3   OH242328   3.422   5.789   1.645
14124TIP3    H142329   3.366   5.731   1.594
14124TIP3    H242330   3.385   5.788   1.733
14125TIP3   OH242331   1.686   6.797   3.225
14125TIP3    H142332   1.766   6.777   3.273
14125TIP3    H242333   1.650   6.711   3.202
14126TIP3   OH242334   3.304   4.276   0.329
14126TIP3    H142335   3.250   4.267   0.250
14126TIP3    H242336   3.253   4.335   0.385
14127TIP3   OH242337   2.984   6.828   4.333
14127TIP3    H142338   2.937   6.905   4.303
14127TIP3    H242339   2.999   6.776   4.254
14128TIP3   OH242340   2.929   2.579   6.486
14128TIP3    H142341   2.968   2.540   6.407
14128TIP3    H242342   2.991   2.647   6.512
14129TIP3   OH242343   4.483   6.018   6.236
14129TIP3    H142344   4.509   6.110   6.244
14129TIP3    H242345   4.434   5.999   6.316
14130TIP3   OH242346   0.651   5.418   0.321
14130TIP3    H142347   0.683   5.367   0.246
14130TIP3    H242348   0.615   5.497   0.282
14131TIP3   OH242349   0.687   2.480   2.186
14131TIP3    H142350   0.749   2.552   2.176
14131TIP3    H242351   0.725   2.424   2.254
14132TIP3   OH242352   4.598   3.018   1.497
14132TIP3    H142353   4.614   2.924   1.487
14132TIP3    H242354   4.629   3.038   1.586
14133TIP3   OH242355   1.839   3.596   3.117
14133TIP3    H142356   1.917   3.544   3.095
14133TIP3    H242357   1.835   3.595   3.212
14134TIP3   OH242358   7.541   0.406   4.695
14134TIP3    H142359   7.594   0.421   4.616
14134TIP3    H242360   7.453   0.388   4.661
14135TIP3   OH242361   5.773   0.438   2.550
14135TIP3    H142362   5.800   0.403   2.465
14135TIP3    H242363   5.843   0.412   2.610
14136TIP3   OH242364   4.168   7.528   5.820
14136TIP3    H142365   4.173   7.596   5.753
14136TIP3    H242366   4.074   7.509   5.828
14137TIP3   OH242367   4.269   0.979   1.690
14137TIP3    H142368   4.264   0.905   1.750
14137TIP3    H242369   4.247   1.055   1.743
14138TIP3   OH242370   7.170   4.727   6.292
14138TIP3    H142371   7.173   4.715   6.197
14138TIP3    H242372   7.104   4.664   6.322
14139TIP3   OH242373   0.251   4.601   5.115
14139TIP3    H142374   0.166   4.612   5.072
14139TIP3    H242375   0.230   4.558   5.198
14140TIP3   OH242376   3.010   2.517   6.192
14140TIP3    H142377   2.973   2.583   6.134
14140TIP3    H242378   3.052   2.454   6.134
14141TIP3   OH242379   0.752   3.274   3.046
14141TIP3    H142380   0.732   3.185   3.077
14141TIP3    H242381   0.782   3.320   3.124
14142TIP3   OH242382   6.617   0.036   3.813
14142TIP3    H142383   6.688   0.004   3.757
14142TIP3    H242384   6.612   0.129   3.794
14143TIP3   OH242385   0.943   3.351   3.544
14143TIP3    H142386   1.004   3.305   3.601
14143TIP3    H242387   0.892   3.407   3.603
14144TIP3   OH242388   3.922   1.937   5.419
14144TIP3    H142389   3.958   2.000   5.480
14144TIP3    H242390   3.998   1.903   5.372
14145TIP3   OH242391   6.248   0.905   0.829
14145TIP3    H142392   6.319   0.962   0.799
14145TIP3    H242393   6.219   0.945   0.911
14146TIP3   OH242394   8.181   1.061   2.397
14146TIP3    H142395   8.199   1.072   2.303
14146TIP3    H242396   8.099   1.013   2.401
14147TIP3   OH242397   7.925   5.535   3.395
14147TIP3    H142398   7.931   5.533   3.299
14147TIP3    H242399   8.004   5.580   3.424
14148TIP3   OH242400   7.381   1.312   0.072
14148TIP3    H142401   7.397   1.394   0.024
14148TIP3    H242402   7.417   1.328   0.159
14149TIP3   OH242403   2.550   2.332   1.000
14149TIP3    H142404   2.636   2.372   1.011
14149TIP3    H242405   2.497   2.371   1.070
14150TIP3   OH242406   3.412   7.524   3.814
14150TIP3    H142407   3.489   7.580   3.808
14150TIP3    H242408   3.432   7.449   3.757
14151TIP3   OH242409   0.581   2.924   3.631
14151TIP3    H142410   0.602   2.973   3.710
14151TIP3    H242411   0.580   2.990   3.562
14152TIP3   OH242412   7.494   5.395   1.173
14152TIP3    H142413   7.493   5.305   1.207
14152TIP3    H242414   7.558   5.394   1.102
14153TIP3   OH242415   3.201   3.425   2.710
14153TIP3    H142416   3.141   3.500   2.709
14153TIP3    H242417   3.274   3.453   2.765
14154TIP3   OH242418   6.035   5.585   5.808
14154TIP3    H142419   6.024   5.638   5.887
14154TIP3    H242420   5.963   5.611   5.751
14155TIP3   OH242421   6.016   6.459   4.456
14155TIP3    H142422   5.974   6.528   4.508
14155TIP3    H242423   5.946   6.396   4.439
14156TIP3   OH242424   5.409   0.812   0.541
14156TIP3    H142425   5.343   0.779   0.481
14156TIP3    H242426   5.401   0.757   0.619
14157TIP3   OH242427   7.343   3.324   2.040
14157TIP3    H142428   7.349   3.230   2.054
14157TIP3    H242429   7.421   3.346   1.990
14158TIP3   OH242430   4.374   7.180   0.450
14158TIP3    H142431   4.359   7.232   0.372
14158TIP3    H242432   4.290   7.137   0.466
14159TIP3   OH242433   3.005   1.529   5.801
14159TIP3    H142434   3.047   1.555   5.718
14159TIP3    H242435   2.936   1.469   5.774
14160TIP3   OH242436   0.049   7.538   1.945
14160TIP3    H142437   0.048   7.573   1.856
14160TIP3    H242438   0.135   7.562   1.980
14161TIP3   OH242439   1.307   3.156   3.010
14161TIP3    H142440   1.352   3.150   3.094
14161TIP3    H242441   1.214   3.149   3.032
14162TIP3   OH242442   6.482   1.353   4.171
14162TIP3    H142443   6.480   1.418   4.100
14162TIP3    H242444   6.571   1.317   4.168
14163TIP3   OH242445   0.337   1.106   4.601
14163TIP3    H142446   0.378   1.022   4.579
14163TIP3    H242447   0.342   1.156   4.520
14164TIP3   OH242448   4.591   0.370   2.996
14164TIP3    H142449   4.607   0.317   2.918
14164TIP3    H242450   4.670   0.359   3.050
14165TIP3   OH242451   3.692   0.437   3.162
14165TIP3    H142452   3.684   0.369   3.095
14165TIP3    H242453   3.739   0.508   3.119
14166TIP3   OH242454   5.665   5.917   6.339
14166TIP3    H142455   5.579   5.946   6.369
14166TIP3    H242456   5.726   5.948   6.406
14167TIP3   OH242457   4.970   1.434   1.903
14167TIP3    H142458   4.996   1.476   1.821
14167TIP3    H242459   4.966   1.341   1.882
14168TIP3   OH242460   0.446   2.730   4.926
14168TIP3    H142461   0.446   2.817   4.966
14168TIP3    H242462   0.496   2.740   4.845
14169TIP3   OH242463   7.182   6.177   3.108
14169TIP3    H142464   7.230   6.174   3.191
14169TIP3    H242465   7.244   6.141   3.044
14170TIP3   OH242466   5.976   6.531   3.406
14170TIP3    H142467   6.050   6.579   3.444
14170TIP3    H242468   5.921   6.599   3.367
14171TIP3   OH242469   5.392   7.612   3.790
14171TIP3    H142470   5.483   7.625   3.763
14171TIP3    H242471   5.370   7.525   3.758
14172TIP3   OH242472   2.848   5.987   0.861
14172TIP3    H142473   2.856   6.078   0.834
14172TIP3    H242474   2.768   5.984   0.913
14173TIP3   OH242475   4.889   4.551   2.574
14173TIP3    H142476   4.946   4.609   2.625
14173TIP3    H242477   4.812   4.540   2.629
14174TIP3   OH242478   2.362   0.793   5.304
14174TIP3    H142479   2.437   0.746   5.340
14174TIP3    H242480   2.400   0.849   5.236
14175TIP3   OH242481   5.405   2.501   2.202
14175TIP3    H142482   5.433   2.415   2.171
14175TIP3    H242483   5.388   2.551   2.122
14176TIP3   OH242484   3.631   0.961   0.892
14176TIP3    H142485   3.709   0.909   0.910
14176TIP3    H242486   3.559   0.899   0.897
14177TIP3   OH242487   0.135   5.405   4.840
14177TIP3    H142488   0.071   5.383   4.772
14177TIP3    H242489   0.200   5.335   4.835
14178TIP3   OH242490   0.232   1.462   4.846
14178TIP3    H142491   0.311   1.486   4.798
14178TIP3    H242492   0.202   1.545   4.886
14179TIP3   OH242493   4.599   1.888   5.414
14179TIP3    H142494   4.613   1.982   5.402
14179TIP3    H242495   4.506   1.876   5.397
14180TIP3   OH242496   2.742   1.725   2.211
14180TIP3    H142497   2.770   1.708   2.300
14180TIP3    H242498   2.653   1.689   2.206
14181TIP3   OH242499   1.920   5.522   0.748
14181TIP3    H142500   1.896   5.439   0.789
14181TIP3    H242501   1.880   5.589   0.803
14182TIP3   OH242502   1.471   2.237   6.642
14182TIP3    H142503   1.454   2.188   6.722
14182TIP3    H242504   1.565   2.253   6.642
14183TIP3   OH242505   1.527   1.736   2.388
14183TIP3    H142506   1.463   1.671   2.357
14183TIP3    H242507   1.517   1.735   2.483
14184TIP3   OH242508   5.813   2.379   3.494
14184TIP3    H142509   5.740   2.324   3.523
14184TIP3    H242510   5.826   2.441   3.566
14185TIP3   OH242511   0.902   7.311   3.780
14185TIP3    H142512   0.918   7.218   3.798
14185TIP3    H242513   0.898   7.352   3.867
14186TIP3   OH242514   3.163   2.633   0.862
14186TIP3    H142515   3.070   2.613   0.857
14186TIP3    H242516   3.204   2.551   0.890
14187TIP3   OH242517   3.976   7.241   5.903
14187TIP3    H142518   3.907   7.177   5.924
14187TIP3    H242519   4.005   7.273   5.989
14188TIP3   OH242520   5.845   1.634   2.127
14188TIP3    H142521   5.800   1.582   2.060
14188TIP3    H242522   5.853   1.574   2.201
14189TIP3   OH242523   3.341   0.341   4.102
14189TIP3    H142524   3.331   0.312   4.193
14189TIP3    H242525   3.427   0.384   4.099
14190TIP3   OH242526   1.774   0.945   2.953
14190TIP3    H142527   1.820   0.908   3.028
14190TIP3    H242528   1.834   0.932   2.879
14191TIP3   OH242529   4.714   7.484   6.156
14191TIP3    H142530   4.669   7.535   6.224
14191TIP3    H242531   4.758   7.414   6.204
14192TIP3   OH242532   6.857   6.579   3.283
14192TIP3    H142533   6.878   6.585   3.376
14192TIP3    H242534   6.936   6.541   3.244
14193TIP3   OH242535   7.069   3.579   0.210
14193TIP3    H142536   7.069   3.670   0.240
14193TIP3    H242537   7.056   3.584   0.115
14194TIP3   OH242538   5.130   1.937   0.585
14194TIP3    H142539   5.180   1.995   0.528
14194TIP3    H242540   5.179   1.938   0.668
14195TIP3   OH242541   6.143   3.402   6.598
14195TIP3    H142542   6.090   3.470   6.556
14195TIP3    H242543   6.211   3.382   6.534
14196TIP3   OH242544   3.801   3.631   6.492
14196TIP3    H142545   3.815   3.544   6.455
14196TIP3    H242546   3.779   3.686   6.418
14197TIP3   OH242547   6.505   1.503   1.638
14197TIP3    H142548   6.565   1.484   1.711
14197TIP3    H242549   6.500   1.599   1.637
14198TIP3   OH242550   4.612   5.169   2.569
14198TIP3    H142551   4.629   5.255   2.608
14198TIP3    H242552   4.566   5.120   2.637
14199TIP3   OH242553   0.364   1.043   4.890
14199TIP3    H142554   0.367   1.037   4.795
14199TIP3    H242555   0.405   0.962   4.920
14200TIP3   OH242556   7.675   3.570   6.473
14200TIP3    H142557   7.745   3.558   6.409
14200TIP3    H242558   7.689   3.500   6.536
14201TIP3   OH242559   2.890   7.644   2.873
14201TIP3    H142560   2.956   7.581   2.901
14201TIP3    H242561   2.939   7.711   2.824
14202TIP3   OH242562   2.682   3.352   1.280
14202TIP3    H142563   2.668   3.436   1.322
14202TIP3    H242564   2.675   3.288   1.351
14203TIP3   OH242565   0.420   4.060   5.609
14203TIP3    H142566   0.351   4.066   5.674
14203TIP3    H242567   0.502   4.057   5.660
14204TIP3   OH242568   0.971   0.687   6.290
14204TIP3    H142569   1.002   0.762   6.341
14204TIP3    H242570   0.934   0.627   6.355
14205TIP3   OH242571   7.454   0.009   3.340
14205TIP3    H142572   7.438   0.024   3.247
14205TIP3    H242573   7.368   0.016   3.381
14206TIP3   OH242574   7.386   0.287   6.188
14206TIP3    H142575   7.464   0.279   6.242
14206TIP3    H242576   7.410   0.244   6.105
14207TIP3   OH242577   0.408   4.397   1.496
14207TIP3    H142578   0.391   4.376   1.404
14207TIP3    H242579   0.330   4.445   1.524
14208TIP3   OH242580   6.738   5.362   5.540
14208TIP3    H142581   6.701   5.317   5.465
14208TIP3    H242582   6.792   5.297   5.584
14209TIP3   OH242583   0.862   3.871   2.331
14209TIP3    H142584   0.798   3.817   2.377
14209TIP3    H242585   0.931   3.887   2.395
14210TIP3   OH242586   7.700   1.097   5.002
14210TIP3    H142587   7.758   1.060   4.936
14210TIP3    H242588   7.750   1.092   5.083
14211TIP3   OH242589   5.197   0.016   3.633
14211TIP3    H142590   5.107   0.005   3.604
14211TIP3    H242591   5.195   0.096   3.686
14212TIP3   OH242592   4.608   1.379   3.790
14212TIP3    H142593   4.561   1.309   3.835
14212TIP3    H242594   4.629   1.443   3.858
14213TIP3   OH242595   3.937   0.421   3.858
14213TIP3    H142596   3.892   0.419   3.942
14213TIP3    H242597   3.924   0.334   3.821
14214TIP3   OH242598   7.194   7.380   3.421
14214TIP3    H142599   7.225   7.466   3.394
14214TIP3    H242600   7.216   7.375   3.514
14215TIP3   OH242601   0.387   4.121   2.153
14215TIP3    H142602   0.358   4.079   2.234
14215TIP3    H242603   0.360   4.213   2.164
14216TIP3   OH242604   7.331   1.994   5.786
14216TIP3    H142605   7.317   2.088   5.792
14216TIP3    H242606   7.277   1.965   5.713
14217TIP3   OH242607   1.089   4.787   4.355
14217TIP3    H142608   1.028   4.825   4.418
14217TIP3    H242609   1.037   4.722   4.307
14218TIP3   OH242610   2.288   7.662   5.342
14218TIP3    H142611   2.294   7.575   5.302
14218TIP3    H242612   2.309   7.647   5.434
14219TIP3   OH242613   3.922   1.182   5.951
14219TIP3    H142614   4.010   1.169   5.917
14219TIP3    H242615   3.932   1.176   6.046
14220TIP3   OH242616   2.989   5.186   1.161
14220TIP3    H142617   2.938   5.165   1.239
14220TIP3    H242618   2.984   5.108   1.107
14221TIP3   OH242619   3.054   0.542   3.601
14221TIP3    H142620   3.049   0.584   3.687
14221TIP3    H242621   3.053   0.448   3.620
14222TIP3   OH242622   5.697   6.571   1.225
14222TIP3    H142623   5.663   6.539   1.309
14222TIP3    H242624   5.786   6.535   1.220
14223TIP3   OH242625   4.538   4.473   5.610
14223TIP3    H142626   4.466   4.536   5.619
14223TIP3    H242627   4.616   4.522   5.636
14224TIP3   OH242628   4.916   5.243   0.664
14224TIP3    H142629   4.932   5.247   0.569
14224TIP3    H242630   4.964   5.317   0.699
14225TIP3   OH242631   2.722   5.449   5.270
14225TIP3    H142632   2.764   5.368   5.297
14225TIP3    H242633   2.779   5.484   5.201
14226TIP3   OH242634   7.646   3.900   3.466
14226TIP3    H142635   7.553   3.905   3.444
14226TIP3    H242636   7.661   3.807   3.481
14227TIP3   OH242637   6.776   0.201   1.386
14227TIP3    H142638   6.695   0.178   1.433
14227TIP3    H242639   6.761   0.290   1.355
14228TIP3   OH242640   1.354   1.754   2.924
14228TIP3    H142641   1.357   1.751   3.019
14228TIP3    H242642   1.282   1.695   2.901
14229TIP3   OH242643   1.289   4.899   6.610
14229TIP3    H142644   1.196   4.914   6.593
14229TIP3    H242645   1.334   4.939   6.536
14230TIP3   OH242646   4.411   0.831   6.580
14230TIP3    H142647   4.375   0.751   6.618
14230TIP3    H242648   4.499   0.837   6.616
14231TIP3   OH242649   7.983   3.040   5.346
14231TIP3    H142650   7.914   3.070   5.405
14231TIP3    H242651   7.988   2.945   5.361
14232TIP3   OH242652   1.480   3.472   0.876
14232TIP3    H142653   1.436   3.402   0.828
14232TIP3    H242654   1.571   3.468   0.846
14233TIP3   OH242655   6.518   0.988   0.486
14233TIP3    H142656   6.526   0.984   0.581
14233TIP3    H242657   6.587   0.931   0.453
14234TIP3   OH242658   6.266   2.531   3.848
14234TIP3    H142659   6.184   2.497   3.885
14234TIP3    H242660   6.239   2.597   3.785
14235TIP3   OH242661   8.062   5.757   2.355
14235TIP3    H142662   8.096   5.794   2.273
14235TIP3    H242663   8.137   5.711   2.393
14236TIP3   OH242664   8.290   1.488   2.006
14236TIP3    H142665   8.204   1.530   2.016
14236TIP3    H242666   8.310   1.453   2.092
14237TIP3   OH242667   1.876   7.428   1.071
14237TIP3    H142668   1.846   7.490   1.137
14237TIP3    H242669   1.858   7.342   1.108
14238TIP3   OH242670   5.971   6.095   5.699
14238TIP3    H142671   6.022   6.044   5.762
14238TIP3    H242672   6.036   6.132   5.639
14239TIP3   OH242673   0.771   1.223   5.738
14239TIP3    H142674   0.718   1.264   5.670
14239TIP3    H242675   0.860   1.226   5.704
14240TIP3   OH242676   5.922   1.373   2.823
14240TIP3    H142677   5.867   1.424   2.762
14240TIP3    H242678   5.932   1.288   2.780
14241TIP3   OH242679   0.927   3.678   1.138
14241TIP3    H142680   0.873   3.632   1.202
14241TIP3    H242681   0.950   3.761   1.180
14242TIP3   OH242682   3.056   1.642   5.551
14242TIP3    H142683   3.042   1.596   5.468
14242TIP3    H242684   3.110   1.717   5.528
14243TIP3   OH242685   0.074   4.336   5.019
14243TIP3    H142686  -0.017   4.328   5.049
14243TIP3    H242687   0.116   4.255   5.048
14244TIP3   OH242688   5.569   5.555   3.354
14244TIP3    H142689   5.656   5.572   3.389
14244TIP3    H242690   5.570   5.463   3.328
14245TIP3   OH242691   4.701   2.348   4.845
14245TIP3    H142692   4.607   2.355   4.862
14245TIP3    H242693   4.727   2.435   4.817
14246TIP3   OH242694   0.160   1.731   1.048
14246TIP3    H142695   0.140   1.825   1.048
14246TIP3    H242696   0.227   1.721   0.981
14247TIP3   OH242697   3.526   6.565   1.296
14247TIP3    H142698   3.452   6.626   1.294
14247TIP3    H242699   3.514   6.510   1.218
14248TIP3   OH242700   6.414   3.254   0.861
14248TIP3    H142701   6.320   3.235   0.858
14248TIP3    H242702   6.441   3.253   0.769
14249TIP3   OH242703   6.335   1.329   2.990
14249TIP3    H142704   6.358   1.374   3.071
14249TIP3    H242705   6.414   1.280   2.967
14250TIP3   OH242706   7.498   1.817   5.185
14250TIP3    H142707   7.491   1.764   5.265
14250TIP3    H242708   7.460   1.762   5.116
14251TIP3   OH242709   5.044   7.575   3.007
14251TIP3    H142710   5.048   7.651   3.065
14251TIP3    H242711   5.115   7.518   3.038
14252TIP3   OH242712   3.223   2.790   2.374
14252TIP3    H142713   3.264   2.827   2.452
14252TIP3    H242714   3.252   2.699   2.372
14253TIP3   OH242715   7.170   5.178   4.194
14253TIP3    H142716   7.190   5.098   4.146
14253TIP3    H242717   7.253   5.225   4.197
14254TIP3   OH242718   5.038   5.773   1.339
14254TIP3    H142719   4.986   5.701   1.303
14254TIP3    H242720   5.067   5.741   1.424
14255TIP3   OH242721   5.999   1.363   4.297
14255TIP3    H142722   5.999   1.443   4.349
14255TIP3    H242723   6.081   1.320   4.321
14256TIP3   OH242724   8.280   3.717   1.662
14256TIP3    H142725   8.289   3.738   1.569
14256TIP3    H242726   8.320   3.791   1.707
14257TIP3   OH242727   2.183   0.013   5.859
14257TIP3    H142728   2.089   0.011   5.841
14257TIP3    H242729   2.219   0.069   5.790
14258TIP3   OH242730   6.113   6.329   6.728
14258TIP3    H142731   6.110   6.421   6.702
14258TIP3    H242732   6.194   6.320   6.779
14259TIP3   OH242733   5.605   6.278   6.365
14259TIP3    H142734   5.624   6.247   6.453
14259TIP3    H242735   5.654   6.360   6.356
14260TIP3   OH242736   6.106   4.121   1.551
14260TIP3    H142737   6.134   4.079   1.632
14260TIP3    H242738   6.188   4.150   1.510
14261TIP3   OH242739   1.053   6.196   5.746
14261TIP3    H142740   1.079   6.243   5.667
14261TIP3    H242741   0.960   6.177   5.732
14262TIP3   OH242742   2.298   0.965   5.741
14262TIP3    H142743   2.280   0.889   5.797
14262TIP3    H242744   2.252   0.946   5.659
14263TIP3   OH242745   6.244   0.174   3.141
14263TIP3    H142746   6.273   0.265   3.137
14263TIP3    H242747   6.225   0.150   3.050
14264TIP3   OH242748   2.911   5.576   1.868
14264TIP3    H142749   2.859   5.646   1.827
14264TIP3    H242750   2.964   5.621   1.934
14265TIP3   OH242751   1.351   4.564   6.527
14265TIP3    H142752   1.339   4.532   6.438
14265TIP3    H242753   1.330   4.657   6.522
14266TIP3   OH242754   4.110   7.696   3.926
14266TIP3    H142755   4.098   7.635   3.853
14266TIP3    H242756   4.125   7.780   3.885
14267TIP3   OH242757   0.756   7.684   5.419
14267TIP3    H142758   0.741   7.591   5.436
14267TIP3    H242759   0.679   7.712   5.370
14268TIP3   OH242760   0.933   7.740   3.318
14268TIP3    H142761   1.026   7.720   3.307
14268TIP3    H242762   0.893   7.656   3.339
14269TIP3   OH242763   1.419   0.992   0.286
14269TIP3    H142764   1.399   0.978   0.194
14269TIP3    H242765   1.386   0.914   0.330
14270TIP3   OH242766   1.571   6.999   4.243
14270TIP3    H142767   1.597   6.911   4.271
14270TIP3    H242768   1.652   7.050   4.244
14271TIP3   OH242769   3.562   1.379   4.223
14271TIP3    H142770   3.503   1.304   4.232
14271TIP3    H242771   3.506   1.456   4.235
14272TIP3   OH242772   1.934   5.133   4.133
14272TIP3    H142773   1.842   5.127   4.160
14272TIP3    H242774   1.930   5.154   4.040
14273TIP3   OH242775   6.198   5.726   3.213
14273TIP3    H142776   6.179   5.803   3.265
14273TIP3    H242777   6.265   5.754   3.151
14274TIP3   OH242778   3.902   5.967   0.241
14274TIP3    H142779   3.863   5.884   0.215
14274TIP3    H242780   3.852   5.993   0.319
14275TIP3   OH242781   5.255   4.978   2.554
14275TIP3    H142782   5.261   5.073   2.566
14275TIP3    H242783   5.170   4.965   2.513
14276TIP3   OH242784   0.040   6.325   2.755
14276TIP3    H142785   0.109   6.360   2.811
14276TIP3    H242786   0.054   6.369   2.671
14277TIP3   OH242787   0.463   2.962   5.651
14277TIP3    H142788   0.397   2.894   5.665
14277TIP3    H242789   0.547   2.916   5.660
14278TIP3   OH242790   3.656   2.073   3.836
14278TIP3    H142791   3.622   2.042   3.752
14278TIP3    H242792   3.624   2.010   3.900
14279TIP3   OH242793   7.072   1.725   6.186
14279TIP3    H142794   7.076   1.665   6.111
14279TIP3    H242795   7.112   1.806   6.154
14280TIP3   OH242796   1.321   4.646   1.143
14280TIP3    H142797   1.369   4.699   1.079
14280TIP3    H242798   1.387   4.625   1.210
14281TIP3   OH242799   0.217   1.389   1.394
14281TIP3    H142800   0.217   1.330   1.319
14281TIP3    H242801   0.302   1.376   1.435
14282TIP3   OH242802   1.420   6.151   1.162
14282TIP3    H142803   1.355   6.086   1.188
14282TIP3    H242804   1.380   6.235   1.184
14283TIP3   OH242805   5.941   2.832   0.617
14283TIP3    H142806   6.015   2.777   0.591
14283TIP3    H242807   5.920   2.802   0.705
14284TIP3   OH242808   0.814   6.045   4.010
14284TIP3    H142809   0.764   5.973   3.971
14284TIP3    H242810   0.877   6.003   4.068
14285TIP3   OH242811   0.126   4.093   3.952
14285TIP3    H142812   0.071   4.090   3.874
14285TIP3    H242813   0.201   4.147   3.927
14286TIP3   OH242814   6.121   0.548   1.427
14286TIP3    H142815   6.051   0.498   1.385
14286TIP3    H242816   6.190   0.484   1.443
14287TIP3   OH242817   4.819   1.698   6.207
14287TIP3    H142818   4.893   1.677   6.263
14287TIP3    H242819   4.744   1.701   6.266
14288TIP3   OH242820   4.212   6.995   1.230
14288TIP3    H142821   4.156   6.927   1.193
14288TIP3    H242822   4.153   7.050   1.281
14289TIP3   OH242823   3.699   7.214   1.737
14289TIP3    H142824   3.650   7.245   1.661
14289TIP3    H242825   3.769   7.279   1.748
14290TIP3   OH242826   1.581   3.301   5.094
14290TIP3    H142827   1.657   3.360   5.096
14290TIP3    H242828   1.596   3.245   5.018
14291TIP3   OH242829   6.130   3.409   3.040
14291TIP3    H142830   6.133   3.454   2.955
14291TIP3    H242831   6.043   3.369   3.042
14292TIP3   OH242832   1.693   4.974   5.861
14292TIP3    H142833   1.729   5.059   5.835
14292TIP3    H242834   1.614   4.964   5.808
14293TIP3   OH242835   5.134   3.159   0.676
14293TIP3    H142836   5.108   3.207   0.598
14293TIP3    H242837   5.053   3.121   0.710
14294TIP3   OH242838   3.383   2.515   5.655
14294TIP3    H142839   3.362   2.608   5.663
14294TIP3    H242840   3.479   2.513   5.650
14295TIP3   OH242841   5.277   2.854   3.980
14295TIP3    H142842   5.219   2.794   3.933
14295TIP3    H242843   5.219   2.897   4.043
14296TIP3   OH242844   2.457   3.709   3.397
14296TIP3    H142845   2.403   3.760   3.336
14296TIP3    H242846   2.431   3.741   3.483
14297TIP3   OH242847   7.546   4.007   6.693
14297TIP3    H142848   7.521   4.097   6.675
14297TIP3    H242849   7.613   4.013   6.761
14298TIP3   OH242850   0.587   3.652   3.508
14298TIP3    H142851   0.636   3.713   3.452
14298TIP3    H242852   0.610   3.679   3.597
14299TIP3   OH242853   6.824   7.778   5.887
14299TIP3    H142854   6.825   7.871   5.863
14299TIP3    H242855   6.826   7.778   5.982
14300TIP3   OH242856   5.697   6.164   6.146
14300TIP3    H142857   5.759   6.225   6.107
14300TIP3    H242858   5.667   6.208   6.226
14301TIP3   OH242859   0.257   2.436   6.190
14301TIP3    H142860   0.335   2.487   6.165
14301TIP3    H242861   0.281   2.397   6.274
14302TIP3   OH242862   8.155   7.074   6.742
14302TIP3    H142863   8.109   7.128   6.678
14302TIP3    H242864   8.215   7.021   6.689
14303TIP3   OH242865   0.769   0.831   1.042
14303TIP3    H142866   0.778   0.820   0.947
14303TIP3    H242867   0.701   0.769   1.067
14304TIP3   OH242868   0.409   2.653   4.290
14304TIP3    H142869   0.502   2.669   4.275
14304TIP3    H242870   0.365   2.722   4.239
14305TIP3   OH242871   7.710   3.360   5.767
14305TIP3    H142872   7.629   3.334   5.721
14305TIP3    H242873   7.732   3.446   5.730
14306TIP3   OH242874   5.566   0.814   6.501
14306TIP3    H142875   5.573   0.724   6.469
14306TIP3    H242876   5.472   0.833   6.499
14307TIP3   OH242877   0.686   1.313   3.363
14307TIP3    H142878   0.628   1.342   3.435
14307TIP3    H242879   0.773   1.344   3.388
14308TIP3   OH242880   5.848   1.514   0.173
14308TIP3    H142881   5.791   1.480   0.242
14308TIP3    H242882   5.890   1.590   0.213
14309TIP3   OH242883   7.791   2.039   6.146
14309TIP3    H142884   7.774   2.003   6.233
14309TIP3    H242885   7.770   2.132   6.155
14310TIP3   OH242886   2.559   6.152   5.461
14310TIP3    H142887   2.588   6.127   5.549
14310TIP3    H242888   2.529   6.069   5.422
14311TIP3   OH242889   0.553   7.295   3.222
14311TIP3    H142890   0.472   7.254   3.194
14311TIP3    H242891   0.566   7.263   3.311
14312TIP3   OH242892   7.914   1.891   5.401
14312TIP3    H142893   7.994   1.900   5.349
14312TIP3    H242894   7.945   1.873   5.489
14313TIP3   OH242895   1.210   6.694   0.904
14313TIP3    H142896   1.155   6.758   0.949
14313TIP3    H242897   1.300   6.723   0.920
14314TIP3   OH242898   6.097   6.674   2.017
14314TIP3    H142899   6.136   6.761   2.027
14314TIP3    H242900   6.079   6.666   1.924
14315TIP3   OH242901   5.595   4.553   6.183
14315TIP3    H142902   5.520   4.525   6.132
14315TIP3    H242903   5.557   4.599   6.258
14316TIP3   OH242904   7.549   6.193   4.921
14316TIP3    H142905   7.485   6.224   4.985
14316TIP3    H242906   7.514   6.222   4.836
14317TIP3   OH242907   4.138   7.692   6.134
14317TIP3    H142908   4.044   7.701   6.118
14317TIP3    H242909   4.179   7.726   6.055
14318TIP3   OH242910   4.120   1.285   3.245
14318TIP3    H142911   4.199   1.256   3.290
14318TIP3    H242912   4.140   1.275   3.152
14319TIP3   OH242913   2.611   6.307   4.098
14319TIP3    H142914   2.520   6.309   4.125
14319TIP3    H242915   2.660   6.337   4.175
14320TIP3   OH242916   6.985   5.653   6.183
14320TIP3    H142917   6.931   5.582   6.149
14320TIP3    H242918   7.074   5.617   6.184
14321TIP3   OH242919   5.008   5.332   5.813
14321TIP3    H142920   4.961   5.335   5.896
14321TIP3    H242921   5.076   5.266   5.826
14322TIP3   OH242922   6.285   2.576   2.524
14322TIP3    H142923   6.253   2.500   2.475
14322TIP3    H242924   6.323   2.633   2.458
14323TIP3   OH242925   3.908   4.855   4.638
14323TIP3    H142926   3.989   4.843   4.589
14323TIP3    H242927   3.936   4.895   4.721
14324TIP3   OH242928   2.416   4.042   1.046
14324TIP3    H142929   2.481   4.038   0.976
14324TIP3    H242930   2.417   4.134   1.074
14325TIP3   OH242931   0.718   0.763   2.909
14325TIP3    H142932   0.750   0.702   2.843
14325TIP3    H242933   0.788   0.767   2.974
14326TIP3   OH242934   3.912   1.273   2.335
14326TIP3    H142935   3.951   1.340   2.279
14326TIP3    H242936   3.905   1.196   2.279
14327TIP3   OH242937   1.314   7.722   3.259
14327TIP3    H142938   1.377   7.716   3.187
14327TIP3    H242939   1.263   7.641   3.252
14328TIP3   OH242940   5.931   4.005   3.110
14328TIP3    H142941   5.983   4.039   3.182
14328TIP3    H242942   5.859   3.958   3.152
14329TIP3   OH242943   1.397   4.669   6.224
14329TIP3    H142944   1.479   4.717   6.241
14329TIP3    H242945   1.356   4.717   6.152
14330TIP3   OH242946   3.712   6.906   2.639
14330TIP3    H142947   3.697   6.868   2.725
14330TIP3    H242948   3.718   6.831   2.580
14331TIP3   OH242949   4.063   4.201   3.446
14331TIP3    H142950   4.088   4.139   3.377
14331TIP3    H242951   4.064   4.148   3.526
14332TIP3   OH242952   5.878   7.700   0.815
14332TIP3    H142953   5.883   7.618   0.863
14332TIP3    H242954   5.886   7.674   0.723
14333TIP3   OH242955   2.576   6.923   1.938
14333TIP3    H142956   2.670   6.928   1.959
14333TIP3    H242957   2.558   6.830   1.931
14334TIP3   OH242958   4.830   2.295   3.577
14334TIP3    H142959   4.866   2.267   3.661
14334TIP3    H242960   4.789   2.380   3.596
14335TIP3   OH242961   6.112   3.214   6.224
14335TIP3    H142962   6.100   3.272   6.149
14335TIP3    H242963   6.050   3.143   6.210
14336TIP3   OH242964   3.646   7.288   2.007
14336TIP3    H142965   3.700   7.259   1.933
14336TIP3    H242966   3.592   7.213   2.028
14337TIP3   OH242967   2.648   1.570   2.969
14337TIP3    H142968   2.597   1.530   2.898
14337TIP3    H242969   2.738   1.573   2.935
14338TIP3   OH242970   7.800   0.462   5.679
14338TIP3    H142971   7.780   0.506   5.761
14338TIP3    H242972   7.735   0.496   5.617
14339TIP3   OH242973   1.246   0.648   1.245
14339TIP3    H142974   1.173   0.606   1.200
14339TIP3    H242975   1.206   0.722   1.291
14340TIP3   OH242976   3.968   5.345   4.635
14340TIP3    H142977   3.922   5.284   4.577
14340TIP3    H242978   3.898   5.394   4.678
14341TIP3   OH242979   7.755   4.721   2.541
14341TIP3    H142980   7.727   4.633   2.517
14341TIP3    H242981   7.842   4.709   2.580
14342TIP3   OH242982   3.893   5.128   2.783
14342TIP3    H142983   3.875   5.160   2.872
14342TIP3    H242984   3.899   5.033   2.792
14343TIP3   OH242985   7.944   4.067   3.250
14343TIP3    H142986   7.894   3.985   3.245
14343TIP3    H242987   7.999   4.056   3.327
14344TIP3   OH242988   2.156   5.334   4.546
14344TIP3    H142989   2.221   5.265   4.534
14344TIP3    H242990   2.091   5.317   4.477
14345TIP3   OH242991   0.756   0.985   4.945
14345TIP3    H142992   0.773   1.058   4.884
14345TIP3    H242993   0.779   0.907   4.895
14346TIP3   OH242994   7.959   1.653   4.607
14346TIP3    H142995   7.961   1.601   4.688
14346TIP3    H242996   8.024   1.612   4.550
14347TIP3   OH242997   6.545   5.459   2.229
14347TIP3    H142998   6.534   5.364   2.233
14347TIP3    H242999   6.486   5.487   2.159
14348TIP3   OH243000   1.077   3.519   1.602
14348TIP3    H143001   1.064   3.574   1.679
14348TIP3    H243002   1.157   3.552   1.562
14349TIP3   OH243003   2.881   4.983   5.794
14349TIP3    H143004   2.846   4.922   5.729
14349TIP3    H243005   2.840   4.956   5.876
14350TIP3   OH243006   1.340   5.742   5.612
14350TIP3    H143007   1.351   5.650   5.587
14350TIP3    H243008   1.283   5.740   5.689
14351TIP3   OH243009   3.445   1.958   1.093
14351TIP3    H143010   3.537   1.937   1.112
14351TIP3    H243011   3.398   1.932   1.172
14352TIP3   OH243012   2.890   7.561   4.554
14352TIP3    H143013   2.914   7.640   4.601
14352TIP3    H243014   2.924   7.575   4.465
14353TIP3   OH243015   6.162   5.356   5.874
14353TIP3    H143016   6.177   5.327   5.784
14353TIP3    H243017   6.102   5.431   5.866
14354TIP3   OH243018   7.329   5.207   5.546
14354TIP3    H143019   7.360   5.279   5.601
14354TIP3    H243020   7.342   5.238   5.456
14355TIP3   OH243021   5.087   5.911   5.259
14355TIP3    H143022   4.994   5.930   5.248
14355TIP3    H243023   5.089   5.840   5.323
14356TIP3   OH243024   6.281   7.284   5.036
14356TIP3    H143025   6.243   7.207   4.991
14356TIP3    H243026   6.279   7.261   5.129
14357TIP3   OH243027   6.810   6.901   0.666
14357TIP3    H143028   6.900   6.877   0.689
14357TIP3    H243029   6.784   6.963   0.734
14358TIP3   OH243030   5.653   1.105   1.426
14358TIP3    H143031   5.712   1.178   1.444
14358TIP3    H243032   5.566   1.145   1.422
14359TIP3   OH243033   8.110   0.310   0.104
14359TIP3    H143034   8.086   0.248   0.173
14359TIP3    H243035   8.094   0.396   0.143
14360TIP3   OH243036   5.856   5.593   0.380
14360TIP3    H143037   5.775   5.617   0.426
14360TIP3    H243038   5.872   5.667   0.321
14361TIP3   OH243039   1.680   2.760   5.017
14361TIP3    H143040   1.710   2.808   5.094
14361TIP3    H243041   1.588   2.743   5.033
14362TIP3   OH243042   7.588   1.511   0.624
14362TIP3    H143043   7.519   1.448   0.604
14362TIP3    H243044   7.574   1.533   0.716
14363TIP3   OH243045   8.002   1.684   5.107
14363TIP3    H143046   8.062   1.689   5.182
14363TIP3    H243047   8.028   1.757   5.051
14364TIP3   OH243048   8.064   3.314   4.876
14364TIP3    H143049   8.093   3.373   4.807
14364TIP3    H243050   8.003   3.254   4.833
14365TIP3   OH243051   2.673   4.968   4.341
14365TIP3    H143052   2.617   4.910   4.393
14365TIP3    H243053   2.616   4.998   4.270
14366TIP3   OH243054   0.572   3.659   4.488
14366TIP3    H143055   0.648   3.717   4.494
14366TIP3    H243056   0.603   3.575   4.523
14367TIP3   OH243057   2.621   2.197   4.568
14367TIP3    H143058   2.596   2.242   4.649
14367TIP3    H243059   2.710   2.227   4.551
14368TIP3   OH243060   3.363   2.840   5.362
14368TIP3    H143061   3.373   2.807   5.451
14368TIP3    H243062   3.423   2.787   5.310
14369TIP3   OH243063   5.233   5.129   1.611
14369TIP3    H143064   5.234   5.066   1.539
14369TIP3    H243065   5.322   5.126   1.647
14370TIP3   OH243066   2.393   2.723   3.019
14370TIP3    H143067   2.484   2.746   3.035
14370TIP3    H243068   2.379   2.643   3.070
14371TIP3   OH243069   0.613   0.229   2.910
14371TIP3    H143070   0.588   0.149   2.864
14371TIP3    H243071   0.667   0.277   2.846
14372TIP3   OH243072   7.273   6.845   4.175
14372TIP3    H143073   7.226   6.876   4.098
14372TIP3    H243074   7.291   6.924   4.226
14373TIP3   OH243075   5.756   4.306   5.485
14373TIP3    H143076   5.814   4.244   5.441
14373TIP3    H243077   5.761   4.385   5.431
14374TIP3   OH243078   5.283   0.591   2.274
14374TIP3    H143079   5.302   0.650   2.201
14374TIP3    H243080   5.187   0.586   2.276
14375TIP3   OH243081   6.175   2.912   2.652
14375TIP3    H143082   6.119   2.908   2.574
14375TIP3    H243083   6.261   2.936   2.619
14376TIP3   OH243084   5.321   2.179   0.563
14376TIP3    H143085   5.347   2.141   0.647
14376TIP3    H243086   5.399   2.225   0.532
14377TIP3   OH243087   4.754   0.313   4.278
14377TIP3    H143088   4.781   0.233   4.323
14377TIP3    H243089   4.687   0.351   4.335
14378TIP3   OH243090   3.761   3.751   2.736
14378TIP3    H143091   3.713   3.720   2.660
14378TIP3    H243092   3.724   3.838   2.754
14379TIP3   OH243093   5.816   1.342   1.235
14379TIP3    H143094   5.897   1.389   1.252
14379TIP3    H243095   5.753   1.410   1.210
14380TIP3   OH243096   7.062   6.748   5.861
14380TIP3    H143097   6.983   6.770   5.910
14380TIP3    H243098   7.076   6.821   5.801
14381TIP3   OH243099   0.835   3.587   3.085
14381TIP3    H143100   0.816   3.539   3.165
14381TIP3    H243101   0.801   3.675   3.101
14382TIP3   OH243102   3.444   5.319   4.039
14382TIP3    H143103   3.394   5.395   4.067
14382TIP3    H243104   3.394   5.281   3.968
14383TIP3   OH243105   7.604   6.437   3.860
14383TIP3    H143106   7.551   6.364   3.892
14383TIP3    H243107   7.642   6.406   3.778
14384TIP3   OH243108   2.317   0.107   4.158
14384TIP3    H143109   2.350   0.134   4.244
14384TIP3    H243110   2.378   0.040   4.129
14385TIP3   OH243111   2.159   4.573   3.992
14385TIP3    H143112   2.085   4.633   3.981
14385TIP3    H243113   2.140   4.501   3.931
14386TIP3   OH243114   6.767   7.381   4.784
14386TIP3    H143115   6.799   7.445   4.720
14386TIP3    H243116   6.673   7.373   4.765
14387TIP3   OH243117   1.867   3.541   4.557
14387TIP3    H143118   1.803   3.501   4.615
14387TIP3    H243119   1.952   3.510   4.588
14388TIP3   OH243120   0.203   6.708   0.931
14388TIP3    H143121   0.270   6.757   0.883
14388TIP3    H243122   0.154   6.775   0.979
14389TIP3   OH243123   6.752   4.642   2.885
14389TIP3    H143124   6.753   4.628   2.791
14389TIP3    H243125   6.705   4.725   2.896
14390TIP3   OH243126   2.935   1.205   5.390
14390TIP3    H143127   2.839   1.208   5.398
14390TIP3    H243128   2.964   1.159   5.469
14391TIP3   OH243129   4.531   5.950   1.916
14391TIP3    H143130   4.536   5.867   1.869
14391TIP3    H243131   4.447   5.988   1.889
14392TIP3   OH243132   5.007   6.018   1.640
14392TIP3    H143133   5.024   6.073   1.563
14392TIP3    H243134   4.912   6.006   1.639
14393TIP3   OH243135   5.291   1.758   5.091
14393TIP3    H143136   5.229   1.739   5.161
14393TIP3    H243137   5.311   1.851   5.101
14394TIP3   OH243138   2.959   4.264   4.244
14394TIP3    H143139   2.885   4.316   4.277
14394TIP3    H243140   3.018   4.328   4.205
14395TIP3   OH243141   5.314   3.764   4.775
14395TIP3    H143142   5.363   3.833   4.818
14395TIP3    H243143   5.370   3.686   4.780
14396TIP3   OH243144   8.229   2.427   3.849
14396TIP3    H143145   8.225   2.421   3.944
14396TIP3    H243146   8.314   2.391   3.826
14397TIP3   OH243147   4.782   7.228   1.820
14397TIP3    H143148   4.705   7.222   1.765
14397TIP3    H243149   4.856   7.220   1.760
14398TIP3   OH243150   7.970   3.650   0.243
14398TIP3    H143151   7.984   3.559   0.218
14398TIP3    H243152   8.053   3.694   0.220
14399TIP3   OH243153   8.056   5.375   2.887
14399TIP3    H143154   8.042   5.407   2.798
14399TIP3    H243155   8.128   5.313   2.880
14400TIP3   OH243156   1.730   2.544   4.672
14400TIP3    H143157   1.671   2.484   4.718
14400TIP3    H243158   1.677   2.581   4.602
14401TIP3   OH243159   6.585   5.493   6.540
14401TIP3    H143160   6.622   5.520   6.456
14401TIP3    H243161   6.633   5.543   6.605
14402TIP3   OH243162   3.919   6.195   1.964
14402TIP3    H143163   3.927   6.227   1.874
14402TIP3    H243164   3.836   6.148   1.966
14403TIP3   OH243165   4.330   1.774   5.397
14403TIP3    H143166   4.350   1.696   5.344
14403TIP3    H243167   4.276   1.741   5.468
14404TIP3   OH243168   5.687   5.262   4.889
14404TIP3    H143169   5.636   5.221   4.820
14404TIP3    H243170   5.729   5.337   4.846
14405TIP3   OH243171   0.212   0.052   2.820
14405TIP3    H143172   0.157   0.026   2.893
14405TIP3    H243173   0.219   0.147   2.827
14406TIP3   OH243174   6.420   7.540   3.401
14406TIP3    H143175   6.333   7.570   3.375
14406TIP3    H243176   6.412   7.445   3.408
14407TIP3   OH243177   6.908   3.236   6.429
14407TIP3    H143178   6.890   3.244   6.335
14407TIP3    H243179   6.824   3.212   6.467
14408TIP3   OH243180   4.966   6.124   0.319
14408TIP3    H143181   4.918   6.139   0.401
14408TIP3    H243182   5.010   6.208   0.302
14409TIP3   OH243183   0.679   1.903   0.148
14409TIP3    H143184   0.637   1.949   0.221
14409TIP3    H243185   0.629   1.930   0.071
14410TIP3   OH243186   4.758   6.127   4.299
14410TIP3    H143187   4.769   6.181   4.377
14410TIP3    H243188   4.768   6.037   4.330
14411TIP3   OH243189   6.373   2.861   0.222
14411TIP3    H143190   6.289   2.885   0.262
14411TIP3    H243191   6.378   2.915   0.143
14412TIP3   OH243192   4.756   4.334   1.557
14412TIP3    H143193   4.823   4.400   1.538
14412TIP3    H243194   4.722   4.359   1.643
14413TIP3   OH243195   6.993   7.065   3.874
14413TIP3    H143196   6.987   7.149   3.828
14413TIP3    H243197   6.909   7.055   3.918
14414TIP3   OH243198   8.258   3.283   3.913
14414TIP3    H143199   8.232   3.234   3.991
14414TIP3    H243200   8.353   3.276   3.911
14415TIP3   OH243201   7.380   6.618   3.271
14415TIP3    H143202   7.402   6.646   3.360
14415TIP3    H243203   7.420   6.531   3.263
14416TIP3   OH243204   1.502   4.575   1.369
14416TIP3    H143205   1.585   4.560   1.324
14416TIP3    H243206   1.518   4.546   1.459
14417TIP3   OH243207   0.515   5.742   4.175
14417TIP3    H143208   0.425   5.745   4.209
14417TIP3    H243209   0.566   5.702   4.245
14418TIP3   OH243210   2.772   0.606   2.777
14418TIP3    H143211   2.764   0.619   2.872
14418TIP3    H243212   2.844   0.664   2.751
14419TIP3   OH243213   6.353   4.233   1.526
14419TIP3    H143214   6.374   4.251   1.618
14419TIP3    H243215   6.406   4.296   1.477
14420TIP3   OH243216   3.571   5.936   1.120
14420TIP3    H143217   3.605   5.849   1.101
14420TIP3    H243218   3.477   5.929   1.108
14421TIP3   OH243219   7.854   4.312   6.067
14421TIP3    H143220   7.892   4.290   6.152
14421TIP3    H243221   7.919   4.368   6.026
14422TIP3   OH243222   4.435   6.383   5.182
14422TIP3    H143223   4.434   6.469   5.224
14422TIP3    H243224   4.346   6.371   5.149
14423TIP3   OH243225   6.634   2.433   2.391
14423TIP3    H143226   6.561   2.418   2.452
14423TIP3    H243227   6.593   2.435   2.305
14424TIP3   OH243228   5.091   2.652   1.672
14424TIP3    H143229   5.141   2.643   1.591
14424TIP3    H243230   5.041   2.733   1.660
14425TIP3   OH243231   7.794   3.287   2.229
14425TIP3    H143232   7.738   3.313   2.156
14425TIP3    H243233   7.883   3.299   2.197
14426TIP3   OH243234   1.342   3.166   1.008
14426TIP3    H143235   1.255   3.201   1.024
14426TIP3    H243236   1.334   3.119   0.925
14427TIP3   OH243237   1.802   1.716   0.623
14427TIP3    H143238   1.710   1.739   0.634
14427TIP3    H243239   1.834   1.702   0.712
14428TIP3   OH243240   6.079   7.686   0.257
14428TIP3    H143241   6.172   7.673   0.242
14428TIP3    H243242   6.052   7.746   0.188
14429TIP3   OH243243   7.841   6.777   4.483
14429TIP3    H143244   7.860   6.711   4.549
14429TIP3    H243245   7.925   6.819   4.467
14430TIP3   OH243246   2.248   1.775   3.325
14430TIP3    H143247   2.341   1.793   3.341
14430TIP3    H243248   2.202   1.827   3.391
14431TIP3   OH243249   4.199   0.716   1.853
14431TIP3    H143250   4.203   0.632   1.807
14431TIP3    H243251   4.223   0.696   1.943
14432TIP3   OH243252   4.407   3.375   6.437
14432TIP3    H143253   4.317   3.345   6.427
14432TIP3    H243254   4.403   3.445   6.501
14433TIP3   OH243255   5.192   4.023   1.285
14433TIP3    H143256   5.212   3.944   1.234
14433TIP3    H243257   5.225   4.095   1.231
14434TIP3   OH243258   0.237   5.974   3.340
14434TIP3    H143259   0.189   6.013   3.267
14434TIP3    H243260   0.171   5.964   3.409
14435TIP3   OH243261   4.052   2.034   5.661
14435TIP3    H143262   4.092   2.041   5.747
14435TIP3    H243263   3.974   2.090   5.666
14436TIP3   OH243264   3.724   6.644   2.545
14436TIP3    H143265   3.645   6.609   2.504
14436TIP3    H243266   3.726   6.603   2.631
14437TIP3   OH243267   1.883   0.312   4.741
14437TIP3    H143268   1.852   0.396   4.707
14437TIP3    H243269   1.807   0.274   4.785
14438TIP3   OH243270   4.476   0.080   5.865
14438TIP3    H143271   4.511   0.104   5.951
14438TIP3    H243272   4.453   0.163   5.824
14439TIP3   OH243273   0.771   0.229   2.416
14439TIP3    H143274   0.862   0.203   2.411
14439TIP3    H243275   0.768   0.315   2.374
14440TIP3   OH243276   3.631   1.816   5.094
14440TIP3    H143277   3.678   1.890   5.055
14440TIP3    H243278   3.692   1.743   5.088
14441TIP3   OH243279   7.556   5.288   4.966
14441TIP3    H143280   7.519   5.280   4.878
14441TIP3    H243281   7.494   5.242   5.022
14442TIP3   OH243282   5.321   5.931   6.562
14442TIP3    H143283   5.226   5.942   6.568
14442TIP3    H243284   5.349   5.997   6.499
14443TIP3   OH243285   6.047   6.345   5.250
14443TIP3    H143286   6.011   6.278   5.193
14443TIP3    H243287   6.133   6.365   5.214
14444TIP3   OH243288   7.743   7.525   2.103
14444TIP3    H143289   7.799   7.466   2.153
14444TIP3    H243290   7.801   7.595   2.073
14445TIP3   OH243291   2.112   1.855   3.560
14445TIP3    H143292   2.086   1.908   3.635
14445TIP3    H243293   2.172   1.790   3.595
14446TIP3   OH243294   1.492   3.729   6.169
14446TIP3    H143295   1.582   3.735   6.202
14446TIP3    H243296   1.441   3.697   6.243
14447TIP3   OH243297   1.783   6.920   4.753
14447TIP3    H143298   1.796   6.849   4.689
14447TIP3    H243299   1.851   6.906   4.819
14448TIP3   OH243300   6.894   1.400   3.785
14448TIP3    H143301   6.864   1.387   3.695
14448TIP3    H243302   6.831   1.462   3.822
14449TIP3   OH243303   1.120   1.690   4.544
14449TIP3    H143304   1.213   1.670   4.554
14449TIP3    H243305   1.104   1.684   4.450
14450TIP3   OH243306   5.764   2.901   0.221
14450TIP3    H143307   5.685   2.926   0.174
14450TIP3    H243308   5.733   2.836   0.285
14451TIP3   OH243309   3.628   1.501   3.803
14451TIP3    H143310   3.604   1.511   3.711
14451TIP3    H243311   3.583   1.422   3.831
14452TIP3   OH243312   2.581   5.291   6.714
14452TIP3    H143313   2.614   5.300   6.804
14452TIP3    H243314   2.489   5.268   6.724
14453TIP3   OH243315   4.236   3.791   4.633
14453TIP3    H143316   4.156   3.843   4.627
14453TIP3    H243317   4.247   3.773   4.726
14454TIP3   OH243318   2.694   7.347   6.651
14454TIP3    H143319   2.666   7.301   6.571
14454TIP3    H243320   2.664   7.437   6.638
14455TIP3   OH243321   3.449   5.994   4.001
14455TIP3    H143322   3.480   5.914   4.043
14455TIP3    H243323   3.527   6.050   3.997
14456TIP3   OH243324   0.147   2.730   1.182
14456TIP3    H143325   0.186   2.698   1.264
14456TIP3    H243326   0.131   2.823   1.198
14457TIP3   OH243327   5.416   4.144   4.292
14457TIP3    H143328   5.464   4.157   4.211
14457TIP3    H243329   5.472   4.184   4.359
14458TIP3   OH243330   4.171   0.419   4.223
14458TIP3    H143331   4.140   0.331   4.205
14458TIP3    H243332   4.117   0.449   4.297
14459TIP3   OH243333   8.200   5.341   0.956
14459TIP3    H143334   8.132   5.280   0.928
14459TIP3    H243335   8.271   5.328   0.894
14460TIP3   OH243336   7.765   2.828   4.310
14460TIP3    H143337   7.852   2.802   4.340
14460TIP3    H243338   7.734   2.889   4.377
14461TIP3   OH243339   4.284   6.912   3.005
14461TIP3    H143340   4.297   6.873   2.919
14461TIP3    H243341   4.339   6.991   3.004
14462TIP3   OH243342   3.517   3.786   6.085
14462TIP3    H143343   3.537   3.878   6.067
14462TIP3    H243344   3.579   3.737   6.031
14463TIP3   OH243345   3.989   6.359   3.421
14463TIP3    H143346   3.979   6.318   3.335
14463TIP3    H243347   4.045   6.299   3.470
14464TIP3   OH243348   3.411   2.136   6.582
14464TIP3    H143349   3.389   2.053   6.624
14464TIP3    H243350   3.480   2.174   6.637
14465TIP3   OH243351   2.016   5.704   1.044
14465TIP3    H143352   2.057   5.739   0.965
14465TIP3    H243353   1.933   5.667   1.014
14466TIP3   OH243354   1.986   2.401   5.955
14466TIP3    H143355   2.041   2.393   6.033
14466TIP3    H243356   2.040   2.449   5.893
14467TIP3   OH243357   4.446   2.182   0.541
14467TIP3    H143358   4.519   2.241   0.522
14467TIP3    H243359   4.430   2.137   0.458
14468TIP3   OH243360   3.604   0.411   5.965
14468TIP3    H143361   3.632   0.486   5.912
14468TIP3    H243362   3.664   0.411   6.039
14469TIP3   OH243363   2.515   6.305   5.123
14469TIP3    H143364   2.579   6.234   5.116
14469TIP3    H243365   2.445   6.269   5.178
14470TIP3   OH243366   6.414   7.488   1.627
14470TIP3    H143367   6.338   7.543   1.607
14470TIP3    H243368   6.421   7.429   1.552
14471TIP3   OH243369   1.926   6.307   6.116
14471TIP3    H143370   1.957   6.263   6.195
14471TIP3    H243371   1.892   6.236   6.061
14472TIP3   OH243372   5.370   1.322   3.928
14472TIP3    H143373   5.408   1.410   3.926
14472TIP3    H243374   5.445   1.263   3.917
14473TIP3   OH243375   7.040   3.526   1.178
14473TIP3    H143376   7.121   3.564   1.212
14473TIP3    H243377   6.998   3.598   1.131
14474TIP3   OH243378   4.528   6.127   5.088
14474TIP3    H143379   4.483   6.205   5.120
14474TIP3    H243380   4.577   6.157   5.012
14475TIP3   OH243381   2.483   3.885   4.651
14475TIP3    H143382   2.459   3.917   4.738
14475TIP3    H243383   2.565   3.930   4.630
14476TIP3   OH243384   7.925   0.365   3.304
14476TIP3    H143385   7.981   0.361   3.382
14476TIP3    H243386   7.978   0.327   3.234
14477TIP3   OH243387   5.271   1.428   1.284
14477TIP3    H143388   5.239   1.358   1.227
14477TIP3    H243389   5.192   1.462   1.327
14478TIP3   OH243390   3.643   2.014   0.859
14478TIP3    H143391   3.548   2.010   0.866
14478TIP3    H243392   3.674   1.975   0.941
14479TIP3   OH243393   0.356   2.805   2.293
14479TIP3    H143394   0.313   2.746   2.232
14479TIP3    H243395   0.442   2.822   2.253
14480TIP3   OH243396   0.340   2.466   5.371
14480TIP3    H143397   0.416   2.412   5.394
14480TIP3    H243398   0.272   2.438   5.432
14481TIP3   OH243399   6.302   4.634   6.382
14481TIP3    H143400   6.212   4.658   6.407
14481TIP3    H243401   6.317   4.680   6.300
14482TIP3   OH243402   5.385   1.719   6.477
14482TIP3    H143403   5.417   1.805   6.503
14482TIP3    H243404   5.308   1.705   6.532
14483TIP3   OH243405   0.743   4.709   0.479
14483TIP3    H143406   0.725   4.718   0.385
14483TIP3    H243407   0.762   4.616   0.491
14484TIP3   OH243408   2.099   1.645   5.368
14484TIP3    H143409   2.162   1.603   5.427
14484TIP3    H243410   2.128   1.735   5.361
14485TIP3   OH243411   0.313   4.719   1.575
14485TIP3    H143412   0.286   4.660   1.645
14485TIP3    H243413   0.238   4.779   1.564
14486TIP3   OH243414   0.465   0.614   6.392
14486TIP3    H143415   0.463   0.675   6.467
14486TIP3    H243416   0.556   0.583   6.390
14487TIP3   OH243417   1.003   4.715   4.705
14487TIP3    H143418   0.949   4.744   4.778
14487TIP3    H243419   1.057   4.791   4.683
14488TIP3   OH243420   1.092   7.356   1.494
14488TIP3    H143421   1.055   7.268   1.500
14488TIP3    H243422   1.127   7.374   1.581
14489TIP3   OH243423   1.685   1.132   5.909
14489TIP3    H143424   1.704   1.120   6.002
14489TIP3    H243425   1.755   1.189   5.877
14490TIP3   OH243426   2.355   2.751   4.231
14490TIP3    H143427   2.430   2.795   4.271
14490TIP3    H243428   2.301   2.724   4.305
14491TIP3   OH243429   6.774   0.576   3.846
14491TIP3    H143430   6.758   0.668   3.826
14491TIP3    H243431   6.869   0.570   3.856
14492TIP3   OH243432   4.599   0.533   0.732
14492TIP3    H143433   4.577   0.442   0.751
14492TIP3    H243434   4.693   0.539   0.749
14493TIP3   OH243435   1.912   1.847   4.342
14493TIP3    H143436   1.941   1.821   4.429
14493TIP3    H243437   1.862   1.928   4.357
14494TIP3   OH243438   6.918   5.280   4.928
14494TIP3    H143439   6.920   5.237   5.013
14494TIP3    H243440   6.885   5.213   4.867
14495TIP3   OH243441   6.586   7.611   2.958
14495TIP3    H143442   6.668   7.645   2.994
14495TIP3    H243443   6.518   7.655   3.008
14496TIP3   OH243444   1.140   6.127   2.073
14496TIP3    H143445   1.227   6.159   2.048
14496TIP3    H243446   1.145   6.116   2.168
14497TIP3   OH243447   2.507   7.536   4.291
14497TIP3    H143448   2.498   7.498   4.379
14497TIP3    H243449   2.577   7.600   4.299
14498TIP3   OH243450   2.069   1.517   2.818
14498TIP3    H143451   2.081   1.442   2.760
14498TIP3    H243452   2.032   1.585   2.762
14499TIP3   OH243453   1.849   0.341   2.845
14499TIP3    H143454   1.821   0.256   2.811
14499TIP3    H243455   1.930   0.361   2.798
14500TIP3   OH243456   5.786   3.843   4.190
14500TIP3    H143457   5.702   3.824   4.148
14500TIP3    H243458   5.767   3.843   4.284
14501TIP3   OH243459   6.014   0.160   3.325
14501TIP3    H143460   6.105   0.162   3.295
14501TIP3    H243461   6.019   0.178   3.419
14502TIP3   OH243462   6.605   6.768   4.395
14502TIP3    H143463   6.566   6.815   4.322
14502TIP3    H243464   6.647   6.692   4.355
14503TIP3   OH243465   6.616   3.336   6.379
14503TIP3    H143466   6.590   3.262   6.434
14503TIP3    H243467   6.565   3.410   6.413
14504TIP3   OH243468   4.021   2.173   0.098
14504TIP3    H143469   4.074   2.201   0.172
14504TIP3    H243470   3.932   2.201   0.120
14505TIP3   OH243471   5.489   4.641   5.025
14505TIP3    H143472   5.413   4.592   5.058
14505TIP3    H243473   5.494   4.718   5.082
14506TIP3   OH243474   2.899   4.013   0.280
14506TIP3    H143475   2.916   4.059   0.362
14506TIP3    H243476   2.892   3.921   0.304
14507TIP3   OH243477   2.268   5.031   5.888
14507TIP3    H143478   2.247   5.125   5.885
14507TIP3    H243479   2.360   5.026   5.861
14508TIP3   OH243480   1.953   0.641   4.548
14508TIP3    H143481   1.956   0.679   4.636
14508TIP3    H243482   1.955   0.717   4.489
14509TIP3   OH243483   0.788   1.200   2.417
14509TIP3    H143484   0.802   1.295   2.418
14509TIP3    H243485   0.728   1.184   2.490
14510TIP3   OH243486   6.123   1.314   1.080
14510TIP3    H143487   6.145   1.364   1.158
14510TIP3    H243488   6.206   1.302   1.033
14511TIP3   OH243489   7.866   3.907   5.185
14511TIP3    H143490   7.855   3.973   5.253
14511TIP3    H243491   7.821   3.830   5.218
14512TIP3   OH243492   7.745   3.615   5.634
14512TIP3    H143493   7.666   3.612   5.581
14512TIP3    H243494   7.815   3.631   5.571
14513TIP3   OH243495   2.152   1.968   0.294
14513TIP3    H143496   2.168   1.879   0.327
14513TIP3    H243497   2.161   2.024   0.370
14514TIP3   OH243498   8.061   0.098   0.329
14514TIP3    H143499   7.994   0.030   0.334
14514TIP3    H243500   8.057   0.142   0.414
14515TIP3   OH243501   4.408   4.714   5.624
14515TIP3    H143502   4.408   4.805   5.593
14515TIP3    H243503   4.315   4.689   5.624
14516TIP3   OH243504   8.119   3.838   5.686
14516TIP3    H143505   8.075   3.904   5.739
14516TIP3    H243506   8.068   3.758   5.702
14517TIP3   OH243507   2.036   5.870   4.976
14517TIP3    H143508   2.103   5.805   4.996
14517TIP3    H243509   1.963   5.819   4.941
14518TIP3   OH243510   0.795   0.294   0.450
14518TIP3    H143511   0.811   0.305   0.543
14518TIP3    H243512   0.741   0.369   0.426
14519TIP3   OH243513   3.379   4.986   1.955
14519TIP3    H143514   3.460   4.936   1.961
14519TIP3    H243515   3.316   4.936   2.007
14520TIP3   OH243516   3.079   7.649   3.380
14520TIP3    H143517   3.124   7.672   3.299
14520TIP3    H243518   2.986   7.667   3.363
14521TIP3   OH243519   7.631   3.281   3.890
14521TIP3    H143520   7.578   3.301   3.967
14521TIP3    H243521   7.673   3.197   3.911
14522TIP3   OH243522   3.257   4.363   5.551
14522TIP3    H143523   3.320   4.382   5.621
14522TIP3    H243524   3.288   4.280   5.514
14523TIP3   OH243525   7.254   7.073   4.895
14523TIP3    H143526   7.254   6.995   4.839
14523TIP3    H243527   7.329   7.061   4.953
14524TIP3   OH243528   6.133   1.860   0.429
14524TIP3    H143529   6.172   1.830   0.511
14524TIP3    H243530   6.089   1.942   0.453
14525TIP3   OH243531   1.471   0.222   0.920
14525TIP3    H143532   1.559   0.228   0.958
14525TIP3    H243533   1.438   0.136   0.949
14526TIP3   OH243534   3.145   5.292   5.056
14526TIP3    H143535   3.221   5.244   5.023
14526TIP3    H243536   3.119   5.347   4.982
14527TIP3   OH243537   2.906   5.873   1.538
14527TIP3    H143538   3.001   5.877   1.531
14527TIP3    H243539   2.880   5.806   1.474
14528TIP3   OH243540   6.065   5.306   0.149
14528TIP3    H143541   5.974   5.324   0.176
14528TIP3    H243542   6.084   5.221   0.188
14529TIP3   OH243543   4.362   6.486   6.027
14529TIP3    H143544   4.315   6.493   6.110
14529TIP3    H243545   4.372   6.392   6.012
14530TIP3   OH243546   6.247   1.065   2.452
14530TIP3    H143547   6.272   1.105   2.369
14530TIP3    H243548   6.239   0.972   2.433
14531TIP3   OH243549   2.849   4.433   0.336
14531TIP3    H143550   2.877   4.359   0.390
14531TIP3    H243551   2.909   4.432   0.262
14532TIP3   OH243552   4.231   4.360   6.294
14532TIP3    H143553   4.244   4.372   6.388
14532TIP3    H243554   4.300   4.299   6.267
14533TIP3   OH243555   0.265   5.577   2.615
14533TIP3    H143556   0.232   5.517   2.549
14533TIP3    H243557   0.321   5.523   2.671
14534TIP3   OH243558   2.815   2.488   2.662
14534TIP3    H143559   2.857   2.464   2.744
14534TIP3    H243560   2.882   2.475   2.595
14535TIP3   OH243561   3.797   4.719   3.797
14535TIP3    H143562   3.873   4.732   3.740
14535TIP3    H243563   3.724   4.703   3.736
14536TIP3   OH243564   6.973   6.165   2.944
14536TIP3    H143565   7.031   6.183   3.018
14536TIP3    H243566   6.979   6.071   2.931
14537TIP3   OH243567   5.048   4.867   2.416
14537TIP3    H143568   4.974   4.884   2.474
14537TIP3    H243569   5.010   4.864   2.328
14538TIP3   OH243570   0.891   2.681   3.977
14538TIP3    H143571   0.922   2.596   3.943
14538TIP3    H243572   0.957   2.744   3.948
14539TIP3   OH243573   2.203   5.193   2.099
14539TIP3    H143574   2.141   5.257   2.134
14539TIP3    H243575   2.150   5.115   2.081
14540TIP3   OH243576   4.538   6.287   2.804
14540TIP3    H143577   4.630   6.266   2.791
14540TIP3    H243578   4.539   6.372   2.848
14541TIP3   OH243579   7.764   1.899   5.159
14541TIP3    H143580   7.689   1.839   5.152
14541TIP3    H243581   7.804   1.878   5.243
14542TIP3   OH243582   2.838   7.589   0.944
14542TIP3    H143583   2.908   7.620   1.002
14542TIP3    H243584   2.826   7.497   0.967
14543TIP3   OH243585   3.754   2.440   5.906
14543TIP3    H143586   3.839   2.485   5.911
14543TIP3    H243587   3.769   2.356   5.949
14544TIP3   OH243588   4.468   4.555   1.588
14544TIP3    H143589   4.438   4.481   1.642
14544TIP3    H243590   4.409   4.627   1.611
14545TIP3   OH243591   1.303   4.995   0.016
14545TIP3    H143592   1.221   5.004   0.065
14545TIP3    H243593   1.352   5.074   0.038
14546TIP3   OH243594   3.538   5.588   5.096
14546TIP3    H143595   3.546   5.604   5.002
14546TIP3    H243596   3.444   5.580   5.112
14547TIP3   OH243597   1.863   0.623   0.278
14547TIP3    H143598   1.869   0.677   0.357
14547TIP3    H243599   1.787   0.657   0.231
14548TIP3   OH243600   3.239   1.198   4.982
14548TIP3    H143601   3.148   1.183   5.009
14548TIP3    H243602   3.239   1.288   4.949
14549TIP3   OH243603   1.206   5.099   2.457
14549TIP3    H143604   1.249   5.185   2.463
14549TIP3    H243605   1.239   5.062   2.376
14550TIP3   OH243606   7.285   1.529   1.017
14550TIP3    H143607   7.206   1.581   1.034
14550TIP3    H243608   7.287   1.465   1.087
14551TIP3   OH243609   1.034   4.225   3.787
14551TIP3    H143610   1.070   4.308   3.817
14551TIP3    H243611   0.949   4.247   3.751
14552TIP3   OH243612   6.790   0.049   5.300
14552TIP3    H143613   6.772   0.036   5.393
14552TIP3    H243614   6.820   0.140   5.293
14553TIP3   OH243615   4.985  -0.006   4.869
14553TIP3    H143616   4.958  -0.046   4.952
14553TIP3    H243617   5.035   0.071   4.895
14554TIP3   OH243618   0.340   3.513   6.095
14554TIP3    H143619   0.263   3.517   6.038
14554TIP3    H243620   0.345   3.421   6.123
14555TIP3   OH243621   6.266   2.315   5.357
14555TIP3    H143622   6.296   2.294   5.269
14555TIP3    H243623   6.338   2.366   5.395
14556TIP3   OH243624   3.331   5.243   6.713
14556TIP3    H143625   3.282   5.161   6.723
14556TIP3    H243626   3.417   5.225   6.751
14557TIP3   OH243627   2.108   6.460   6.271
14557TIP3    H143628   2.197   6.440   6.242
14557TIP3    H243629   2.051   6.413   6.209
14558TIP3   OH243630   3.754   2.223   0.209
14558TIP3    H143631   3.724   2.185   0.126
14558TIP3    H243632   3.673   2.249   0.253
14559TIP3   OH243633   2.212   3.795   0.756
14559TIP3    H143634   2.157   3.770   0.681
14559TIP3    H243635   2.150   3.801   0.829
14560TIP3   OH243636   7.163   0.590   0.818
14560TIP3    H143637   7.186   0.553   0.733
14560TIP3    H243638   7.099   0.529   0.854
14561TIP3   OH243639   3.171   5.988   2.846
14561TIP3    H143640   3.258   6.002   2.883
14561TIP3    H243641   3.186   5.950   2.760
14562TIP3   OH243642   6.126   4.486   0.578
14562TIP3    H143643   6.219   4.494   0.597
14562TIP3    H243644   6.121   4.480   0.483
14563TIP3   OH243645   1.323   6.857   0.636
14563TIP3    H143646   1.411   6.882   0.663
14563TIP3    H243647   1.266   6.895   0.704
14564TIP3   OH243648   4.704   4.129   3.859
14564TIP3    H143649   4.712   4.207   3.804
14564TIP3    H243650   4.778   4.135   3.920
14565TIP3   OH243651   5.612   2.625   3.147
14565TIP3    H143652   5.559   2.618   3.067
14565TIP3    H243653   5.691   2.670   3.120
14566TIP3   OH243654   2.701   1.069   2.128
14566TIP3    H143655   2.667   0.981   2.142
14566TIP3    H243656   2.652   1.102   2.052
14567TIP3   OH243657   6.341   4.976   6.342
14567TIP3    H143658   6.376   5.054   6.385
14567TIP3    H243659   6.389   4.970   6.260
14568TIP3   OH243660   1.308   3.411   2.911
14568TIP3    H143661   1.275   3.400   2.822
14568TIP3    H243662   1.299   3.325   2.952
14569TIP3   OH243663   7.839   6.072   5.609
14569TIP3    H143664   7.894   6.034   5.541
14569TIP3    H243665   7.898   6.129   5.658
14570TIP3   OH243666   3.049   1.077   5.591
14570TIP3    H143667   3.078   1.135   5.661
14570TIP3    H243668   3.092   0.994   5.608
14571TIP3   OH243669   1.277   5.103   5.950
14571TIP3    H143670   1.212   5.128   5.883
14571TIP3    H243671   1.356   5.084   5.900
14572TIP3   OH243672   7.076   2.657   1.012
14572TIP3    H143673   7.037   2.572   1.036
14572TIP3    H243674   7.112   2.642   0.925
14573TIP3   OH243675   6.591   7.220   1.180
14573TIP3    H143676   6.682   7.240   1.158
14573TIP3    H243677   6.560   7.297   1.228
14574TIP3   OH243678   6.707   3.005   2.995
14574TIP3    H143679   6.715   3.092   3.036
14574TIP3    H243680   6.790   2.991   2.951
14575TIP3   OH243681   0.279   3.239   1.661
14575TIP3    H143682   0.346   3.260   1.726
14575TIP3    H243683   0.299   3.298   1.587
14576TIP3   OH243684   2.275   4.432   5.898
14576TIP3    H143685   2.320   4.514   5.876
14576TIP3    H243686   2.238   4.402   5.815
14577TIP3   OH243687  -0.003   6.934   2.561
14577TIP3    H143688  -0.002   7.023   2.597
14577TIP3    H243689   0.048   6.940   2.480
14578TIP3   OH243690   4.930   0.595   4.196
14578TIP3    H143691   5.002   0.563   4.142
14578TIP3    H243692   4.860   0.614   4.133
14579TIP3   OH243693   0.608   6.718   5.404
14579TIP3    H143694   0.651   6.785   5.458
14579TIP3    H243695   0.676   6.690   5.343
14580TIP3   OH243696   4.194   6.380   0.216
14580TIP3    H143697   4.224   6.441   0.148
14580TIP3    H243698   4.102   6.363   0.194
14581TIP3   OH243699   7.385   0.035   4.958
14581TIP3    H143700   7.465   0.042   4.907
14581TIP3    H243701   7.320   0.085   4.909
14582TIP3   OH243702   8.180   3.679   5.904
14582TIP3    H143703   8.265   3.724   5.903
14582TIP3    H243704   8.124   3.734   5.957
14583TIP3   OH243705   6.289   4.539   5.006
14583TIP3    H143706   6.204   4.499   4.988
14583TIP3    H243707   6.284   4.565   5.098
14584TIP3   OH243708   3.454   3.148   2.698
14584TIP3    H143709   3.433   3.181   2.785
14584TIP3    H243710   3.544   3.176   2.683
14585TIP3   OH243711   1.764   3.061   6.604
14585TIP3    H143712   1.798   3.028   6.521
14585TIP3    H243713   1.715   3.140   6.581
14586TIP3   OH243714   5.202   6.332   3.537
14586TIP3    H143715   5.289   6.317   3.573
14586TIP3    H243716   5.218   6.365   3.448
14587TIP3   OH243717   4.009   3.137   6.722
14587TIP3    H143718   4.072   3.068   6.702
14587TIP3    H243719   3.989   3.126   6.815
14588TIP3   OH243720   2.903   2.682   5.981
14588TIP3    H143721   2.844   2.754   5.960
14588TIP3    H243722   2.988   2.709   5.948
14589TIP3   OH243723   0.105   2.711   5.497
14589TIP3    H143724   0.133   2.801   5.479
14589TIP3    H243725   0.026   2.699   5.443
14590TIP3   OH243726   7.233   2.861   2.661
14590TIP3    H143727   7.320   2.823   2.674
14590TIP3    H243728   7.193   2.861   2.748
14591TIP3   OH243729   7.779   3.802   0.076
14591TIP3    H143730   7.840   3.745   0.123
14591TIP3    H243731   7.739   3.744   0.011
14592TIP3   OH243732   7.889   6.829   5.899
14592TIP3    H143733   7.866   6.895   5.964
14592TIP3    H243734   7.983   6.844   5.883
14593TIP3   OH243735   2.821   1.522   0.043
14593TIP3    H143736   2.881   1.580   0.090
14593TIP3    H243737   2.819   1.556  -0.046
14594TIP3   OH243738   8.038   1.050   6.178
14594TIP3    H143739   8.079   0.973   6.137
14594TIP3    H243740   8.003   1.016   6.260
14595TIP3   OH243741   7.137   7.056   1.468
14595TIP3    H143742   7.189   7.068   1.547
14595TIP3    H243743   7.168   6.974   1.431
14596TIP3   OH243744   5.212   6.610   0.101
14596TIP3    H143745   5.165   6.570   0.028
14596TIP3    H243746   5.148   6.611   0.173
14597TIP3   OH243747   2.687   0.743   0.195
14597TIP3    H143748   2.621   0.743   0.126
14597TIP3    H243749   2.769   0.761   0.149
14598TIP3   OH243750   0.263   0.990   1.702
14598TIP3    H143751   0.209   1.052   1.654
14598TIP3    H243752   0.289   0.924   1.637
14599TIP3   OH243753   2.575   3.521   1.466
14599TIP3    H143754   2.491   3.505   1.508
14599TIP3    H243755   2.637   3.527   1.539
14600TIP3   OH243756   4.383   4.495   2.201
14600TIP3    H143757   4.360   4.402   2.208
14600TIP3    H243758   4.387   4.525   2.292
14601TIP3   OH243759   8.168   6.625   0.327
14601TIP3    H143760   8.260   6.617   0.303
14601TIP3    H243761   8.135   6.700   0.278
14602TIP3   OH243762   0.013   0.748   6.769
14602TIP3    H143763   0.061   0.811   6.823
14602TIP3    H243764   0.080   0.705   6.717
14603TIP3   OH243765   8.107   3.474   3.731
14603TIP3    H143766   8.143   3.419   3.800
14603TIP3    H243767   8.075   3.412   3.665
14604TIP3   OH243768   7.924   2.403   5.874
14604TIP3    H143769   7.976   2.410   5.954
14604TIP3    H243770   7.980   2.354   5.814
14605TIP3   OH243771   2.607   5.580   4.852
14605TIP3    H143772   2.638   5.660   4.810
14605TIP3    H243773   2.616   5.596   4.946
14606TIP3   OH243774   1.336   4.372   3.386
14606TIP3    H143775   1.325   4.430   3.462
14606TIP3    H243776   1.248   4.366   3.348
14607TIP3   OH243777   2.967   4.446   1.193
14607TIP3    H143778   2.967   4.541   1.191
14607TIP3    H243779   2.875   4.422   1.197
14608TIP3   OH243780   7.864   5.533   0.681
14608TIP3    H143781   7.937   5.514   0.622
14608TIP3    H243782   7.810   5.454   0.678
14609TIP3   OH243783   7.774   5.015   3.752
14609TIP3    H143784   7.855   4.980   3.715
14609TIP3    H243785   7.787   5.012   3.847
14610TIP3   OH243786   8.151   0.267   6.497
14610TIP3    H143787   8.193   0.278   6.411
14610TIP3    H243788   8.201   0.324   6.555
14611TIP3   OH243789   3.914   7.621   5.341
14611TIP3    H143790   3.930   7.713   5.319
14611TIP3    H243791   3.998   7.590   5.377
14612TIP3   OH243792   8.291   5.946   6.113
14612TIP3    H143793   8.219   5.917   6.058
14612TIP3    H243794   8.340   5.865   6.133
14613TIP3   OH243795   1.060   4.947   4.062
14613TIP3    H143796   1.010   4.899   4.129
14613TIP3    H243797   0.994   4.975   3.999
14614TIP3   OH243798   7.968   2.101   4.521
14614TIP3    H143799   8.043   2.045   4.500
14614TIP3    H243800   7.899   2.041   4.547
14615TIP3   OH243801   2.112   2.046   2.526
14615TIP3    H143802   2.193   2.080   2.564
14615TIP3    H243803   2.120   1.951   2.532
14616TIP3   OH243804   6.250   1.839   3.138
14616TIP3    H143805   6.233   1.843   3.232
14616TIP3    H243806   6.327   1.784   3.130
14617TIP3   OH243807   3.669   5.428   3.868
14617TIP3    H143808   3.615   5.385   3.935
14617TIP3    H243809   3.664   5.370   3.792
14618TIP3   OH243810   0.466   7.651   0.738
14618TIP3    H143811   0.553   7.676   0.771
14618TIP3    H243812   0.484   7.607   0.655
14619TIP3   OH243813   0.890   6.080   4.918
14619TIP3    H143814   0.844   6.050   4.997
14619TIP3    H243815   0.822   6.121   4.865
14620TIP3   OH243816   6.816   0.017   2.260
14620TIP3    H143817   6.766   0.062   2.192
14620TIP3    H243818   6.905   0.011   2.224
14621TIP3   OH243819   7.068   7.639   6.318
14621TIP3    H143820   7.059   7.625   6.224
14621TIP3    H243821   6.981   7.667   6.347
14622TIP3   OH243822   1.821   0.613   6.638
14622TIP3    H143823   1.892   0.636   6.579
14622TIP3    H243824   1.746   0.598   6.581
14623TIP3   OH243825   6.318   6.924   1.897
14623TIP3    H143826   6.240   6.954   1.850
14623TIP3    H243827   6.302   6.948   1.988
14624TIP3   OH243828   0.694   3.081   3.821
14624TIP3    H143829   0.789   3.079   3.807
14624TIP3    H243830   0.683   3.059   3.914
14625TIP3   OH243831   7.499   4.715   5.209
14625TIP3    H143832   7.503   4.734   5.302
14625TIP3    H243833   7.590   4.701   5.183
14626TIP3   OH243834   6.342   0.359   5.816
14626TIP3    H143835   6.260   0.403   5.841
14626TIP3    H243836   6.406   0.390   5.880
14627TIP3   OH243837   7.377   1.715   2.118
14627TIP3    H143838   7.438   1.659   2.165
14627TIP3    H243839   7.392   1.803   2.153
14628TIP3   OH243840   6.126   4.547   4.626
14628TIP3    H143841   6.079   4.582   4.702
14628TIP3    H243842   6.080   4.586   4.551
14629TIP3   OH243843   4.735   2.405   5.692
14629TIP3    H143844   4.643   2.428   5.704
14629TIP3    H243845   4.741   2.313   5.720
14630TIP3   OH243846   3.510   6.696   1.943
14630TIP3    H143847   3.498   6.749   1.864
14630TIP3    H243848   3.504   6.606   1.912
14631TIP3   OH243849   5.674   0.818   5.982
14631TIP3    H143850   5.611   0.861   5.924
14631TIP3    H243851   5.628   0.742   6.017
14632TIP3   OH243852   5.442   2.123   5.558
14632TIP3    H143853   5.359   2.098   5.599
14632TIP3    H243854   5.473   2.043   5.517
14633TIP3   OH243855   1.412   3.559   1.945
14633TIP3    H143856   1.404   3.629   1.881
14633TIP3    H243857   1.323   3.528   1.959
14634TIP3   OH243858   4.817   2.651   4.128
14634TIP3    H143859   4.874   2.580   4.156
14634TIP3    H243860   4.779   2.684   4.210
14635TIP3   OH243861   1.169   3.523   1.092
14635TIP3    H143862   1.155   3.462   1.019
14635TIP3    H243863   1.103   3.590   1.080
14636TIP3   OH243864   5.884   3.405   1.255
14636TIP3    H143865   5.845   3.492   1.242
14636TIP3    H243866   5.822   3.359   1.310
14637TIP3   OH243867   4.833   6.426   3.022
14637TIP3    H143868   4.885   6.471   3.089
14637TIP3    H243869   4.749   6.410   3.063
14638TIP3   OH243870   1.470   0.666   6.142
14638TIP3    H143871   1.407   0.614   6.192
14638TIP3    H243872   1.426   0.750   6.128
14639TIP3   OH243873   5.290   2.644   0.374
14639TIP3    H143874   5.195   2.636   0.381
14639TIP3    H243875   5.304   2.725   0.324
14640TIP3   OH243876   3.074   6.233   3.841
14640TIP3    H143877   3.149   6.192   3.798
14640TIP3    H243878   3.011   6.162   3.854
14641TIP3   OH243879   7.250   0.886   1.212
14641TIP3    H143880   7.249   0.871   1.118
14641TIP3    H243881   7.303   0.965   1.223
14642TIP3   OH243882   6.728   4.464   5.651
14642TIP3    H143883   6.797   4.500   5.595
14642TIP3    H243884   6.773   4.400   5.706
14643TIP3   OH243885   6.020   7.096   4.484
14643TIP3    H143886   6.093   7.153   4.459
14643TIP3    H243887   5.991   7.057   4.402
14644TIP3   OH243888   0.602   6.200   4.119
14644TIP3    H143889   0.685   6.172   4.079
14644TIP3    H243890   0.583   6.285   4.079
14645TIP3   OH243891   0.120   1.644   3.530
14645TIP3    H143892   0.149   1.592   3.455
14645TIP3    H243893   0.103   1.579   3.599
14646TIP3   OH243894   6.180   7.827   4.565
14646TIP3    H143895   6.254   7.781   4.604
14646TIP3    H243896   6.131   7.759   4.519
14647TIP3   OH243897   4.229   5.368   4.748
14647TIP3    H143898   4.231   5.464   4.748
14647TIP3    H243899   4.149   5.346   4.700
14648TIP3   OH243900   2.464  -0.008   2.756
14648TIP3    H143901   2.426   0.076   2.730
14648TIP3    H243902   2.501  -0.044   2.675
14649TIP3   OH243903   0.639   1.055   4.303
14649TIP3    H143904   0.588   1.020   4.230
14649TIP3    H243905   0.666   0.978   4.352
14650TIP3   OH243906   4.697   0.104   6.522
14650TIP3    H143907   4.672   0.067   6.437
14650TIP3    H243908   4.742   0.032   6.567
14651TIP3   OH243909   7.454   2.670   3.034
14651TIP3    H143910   7.377   2.629   2.997
14651TIP3    H243911   7.422   2.751   3.074
14652TIP3   OH243912   4.493   3.561   3.580
14652TIP3    H143913   4.558   3.536   3.515
14652TIP3    H243914   4.531   3.638   3.624
14653TIP3   OH243915   5.641   3.892   5.028
14653TIP3    H143916   5.612   3.803   5.048
14653TIP3    H243917   5.732   3.881   5.000
14654TIP3   OH243918   7.763   3.019   6.337
14654TIP3    H143919   7.713   3.089   6.296
14654TIP3    H243920   7.840   3.063   6.374
14655TIP3   OH243921   4.551   4.459   0.852
14655TIP3    H143922   4.641   4.444   0.880
14655TIP3    H243923   4.497   4.426   0.924
14656TIP3   OH243924   5.208   2.991   0.073
14656TIP3    H143925   5.262   3.070   0.063
14656TIP3    H243926   5.123   3.016   0.036
14657TIP3   OH243927   5.148   2.242   2.097
14657TIP3    H143928   5.118   2.316   2.150
14657TIP3    H243929   5.069   2.194   2.075
14658TIP3   OH243930   1.990   3.771   0.956
14658TIP3    H143931   1.986   3.675   0.959
14658TIP3    H243932   2.059   3.793   1.019
14659TIP3   OH243933   2.095   5.677   2.912
14659TIP3    H143934   2.139   5.633   2.985
14659TIP3    H243935   2.013   5.629   2.900
14660TIP3   OH243936   2.683   0.148   4.417
14660TIP3    H143937   2.707   0.062   4.452
14660TIP3    H243938   2.758   0.204   4.438
14661TIP3   OH243939   0.335   3.477   5.359
14661TIP3    H143940   0.292   3.418   5.421
14661TIP3    H243941   0.290   3.460   5.275
14662TIP3   OH243942   7.786   3.285   1.483
14662TIP3    H143943   7.803   3.324   1.397
14662TIP3    H243944   7.768   3.193   1.465
14663TIP3   OH243945   5.026   0.217   3.711
14663TIP3    H143946   5.055   0.299   3.751
14663TIP3    H243947   5.038   0.232   3.617
14664TIP3   OH243948   2.572   3.134   4.599
14664TIP3    H143949   2.650   3.131   4.654
14664TIP3    H243950   2.516   3.201   4.640
14665TIP3   OH243951   4.563   2.293   3.797
14665TIP3    H143952   4.606   2.378   3.802
14665TIP3    H243953   4.634   2.230   3.787
14666TIP3   OH243954   4.669   2.830   4.920
14666TIP3    H143955   4.637   2.897   4.980
14666TIP3    H243956   4.590   2.783   4.892
14667TIP3   OH243957   5.810   1.426   4.084
14667TIP3    H143958   5.892   1.402   4.127
14667TIP3    H243959   5.743   1.416   4.152
14668TIP3   OH243960   5.248   3.241   0.901
14668TIP3    H143961   5.174   3.229   0.960
14668TIP3    H243962   5.214   3.218   0.815
14669TIP3   OH243963   6.489   1.683   4.868
14669TIP3    H143964   6.437   1.606   4.848
14669TIP3    H243965   6.577   1.649   4.885
14670TIP3   OH243966   8.145   0.452   4.179
14670TIP3    H143967   8.093   0.374   4.160
14670TIP3    H243968   8.208   0.457   4.108
14671TIP3   OH243969   2.061   0.100   4.723
14671TIP3    H143970   2.092   0.052   4.646
14671TIP3    H243971   1.981   0.144   4.694
14672TIP3   OH243972   0.474   3.310   3.291
14672TIP3    H143973   0.454   3.291   3.200
14672TIP3    H243974   0.395   3.286   3.339
14673TIP3   OH243975   2.674   2.836   5.247
14673TIP3    H143976   2.704   2.753   5.212
14673TIP3    H243977   2.649   2.816   5.338
14674TIP3   OH243978   0.737   5.977   4.618
14674TIP3    H143979   0.651   6.018   4.611
14674TIP3    H243980   0.718   5.883   4.618
14675TIP3   OH243981   3.006   5.627   2.158
14675TIP3    H143982   3.069   5.687   2.199
14675TIP3    H243983   3.049   5.541   2.163
14676TIP3   OH243984   4.403   5.480   2.079
14676TIP3    H143985   4.400   5.394   2.120
14676TIP3    H243986   4.387   5.541   2.151
14677TIP3   OH243987   0.076   4.088   2.873
14677TIP3    H143988   0.048   4.140   2.798
14677TIP3    H243989  -0.004   4.074   2.924
14678TIP3   OH243990   4.698   2.547   5.399
14678TIP3    H143991   4.638   2.620   5.383
14678TIP3    H243992   4.653   2.493   5.463
14679TIP3   OH243993   6.566   1.474   0.006
14679TIP3    H143994   6.580   1.455   0.099
14679TIP3    H243995   6.480   1.518   0.004
14680TIP3   OH243996   3.410   7.417   1.953
14680TIP3    H143997   3.373   7.406   2.041
14680TIP3    H243998   3.501   7.388   1.962
14681TIP3   OH243999   5.941   2.033   4.410
14681TIP3    H144000   5.877   1.964   4.396
14681TIP3    H244001   5.986   2.007   4.490
14682TIP3   OH244002   0.537   1.650   6.594
14682TIP3    H144003   0.497   1.613   6.673
14682TIP3    H244004   0.506   1.595   6.523
14683TIP3   OH244005   7.941   6.879   4.760
14683TIP3    H144006   7.995   6.835   4.826
14683TIP3    H244007   8.003   6.910   4.695
14684TIP3   OH244008   1.038   5.103   3.706
14684TIP3    H144009   0.995   5.144   3.781
14684TIP3    H244010   1.104   5.167   3.679
14685TIP3   OH244011   7.555   0.187   2.179
14685TIP3    H144012   7.558   0.110   2.123
14685TIP3    H244013   7.637   0.232   2.163
14686TIP3   OH244014   3.852   4.051   1.308
14686TIP3    H144015   3.800   4.017   1.235
14686TIP3    H244016   3.860   4.144   1.290
14687TIP3   OH244017   2.877   4.876   6.500
14687TIP3    H144018   2.854   4.839   6.586
14687TIP3    H244019   2.972   4.878   6.500
14688TIP3   OH244020   5.023   4.780   5.489
14688TIP3    H144021   5.018   4.687   5.466
14688TIP3    H244022   4.975   4.824   5.419
14689TIP3   OH244023   7.556   1.700   6.163
14689TIP3    H144024   7.535   1.784   6.205
14689TIP3    H244025   7.472   1.654   6.159
14690TIP3   OH244026   6.126   4.464   0.309
14690TIP3    H144027   6.221   4.463   0.314
14690TIP3    H244028   6.106   4.523   0.236
14691TIP3   OH244029   7.934   7.070   1.897
14691TIP3    H144030   7.917   6.976   1.896
14691TIP3    H244031   7.931   7.096   1.805
14692TIP3   OH244032   6.829   7.004   5.115
14692TIP3    H144033   6.796   7.047   5.194
14692TIP3    H244034   6.908   7.054   5.092
14693TIP3   OH244035   5.874   0.137   3.591
14693TIP3    H144036   5.871   0.043   3.609
14693TIP3    H244037   5.793   0.155   3.543
14694TIP3   OH244038   4.162   2.152   6.294
14694TIP3    H144039   4.129   2.064   6.311
14694TIP3    H244040   4.256   2.141   6.279
14695TIP3   OH244041   6.068   6.226   1.954
14695TIP3    H144042   6.105   6.286   1.890
14695TIP3    H244043   6.112   6.248   2.036
14696TIP3   OH244044   1.871   5.588   2.750
14696TIP3    H144045   1.870   5.680   2.724
14696TIP3    H244046   1.779   5.560   2.744
14697TIP3   OH244047   5.325   4.600   3.175
14697TIP3    H144048   5.407   4.596   3.125
14697TIP3    H244049   5.342   4.667   3.242
14698TIP3   OH244050   4.467   2.765   1.871
14698TIP3    H144051   4.396   2.747   1.809
14698TIP3    H244052   4.424   2.809   1.944
14699TIP3   OH244053   3.337   7.700   1.605
14699TIP3    H144054   3.386   7.693   1.523
14699TIP3    H244055   3.404   7.692   1.673
14700TIP3   OH244056   2.992   7.304   2.603
14700TIP3    H144057   2.948   7.388   2.589
14700TIP3    H244058   2.968   7.252   2.526
14701TIP3   OH244059   4.240   2.263   1.964
14701TIP3    H144060   4.332   2.248   1.985
14701TIP3    H244061   4.241   2.304   1.878
14702TIP3   OH244062   7.593   3.741   2.056
14702TIP3    H144063   7.553   3.827   2.068
14702TIP3    H244064   7.569   3.715   1.967
14703TIP3   OH244065   6.479   6.852   4.154
14703TIP3    H144066   6.421   6.921   4.122
14703TIP3    H244067   6.434   6.771   4.130
14704TIP3   OH244068   2.024   1.143   4.846
14704TIP3    H144069   2.014   1.126   4.939
14704TIP3    H244070   2.117   1.130   4.828
14705TIP3   OH244071   7.575   3.526   4.557
14705TIP3    H144072   7.648   3.566   4.605
14705TIP3    H244073   7.497   3.560   4.600
14706TIP3   OH244074   1.649   5.628   2.041
14706TIP3    H144075   1.613   5.576   2.113
14706TIP3    H244076   1.743   5.628   2.057
14707TIP3   OH244077   7.845   0.709   4.589
14707TIP3    H144078   7.786   0.646   4.549
14707TIP3    H244079   7.802   0.734   4.671
14708TIP3   OH244080   2.656   1.459   2.047
14708TIP3    H144081   2.651   1.533   1.986
14708TIP3    H244082   2.686   1.386   1.993
14709TIP3   OH244083   1.084   3.275   3.099
14709TIP3    H144084   1.121   3.343   3.155
14709TIP3    H244085   1.047   3.211   3.160
14710TIP3   OH244086   0.215   0.283   5.113
14710TIP3    H144087   0.220   0.247   5.202
14710TIP3    H244088   0.306   0.282   5.082
14711TIP3   OH244089   6.847   4.186   2.678
14711TIP3    H144090   6.901   4.207   2.754
14711TIP3    H244091   6.764   4.230   2.695
14712TIP3   OH244092   6.683   1.948   1.933
14712TIP3    H144093   6.683   2.002   2.012
14712TIP3    H244094   6.758   1.889   1.944
14713TIP3   OH244095   2.900   3.507   2.835
14713TIP3    H144096   2.825   3.562   2.812
14713TIP3    H244097   2.975   3.549   2.793
14714TIP3   OH244098   4.455   6.002   5.383
14714TIP3    H144099   4.374   6.045   5.355
14714TIP3    H244100   4.520   6.073   5.384
14715TIP3   OH244101   4.127   5.353   6.488
14715TIP3    H144102   4.155   5.276   6.538
14715TIP3    H244103   4.090   5.412   6.554
14716TIP3   OH244104   2.558   1.089   1.283
14716TIP3    H144105   2.531   1.099   1.374
14716TIP3    H244106   2.526   1.168   1.240
14717TIP3   OH244107   0.163   7.572   5.481
14717TIP3    H144108   0.119   7.630   5.543
14717TIP3    H244109   0.256   7.581   5.500
14718TIP3   OH244110   2.694   6.889   3.907
14718TIP3    H144111   2.747   6.969   3.910
14718TIP3    H244112   2.666   6.876   3.997
14719TIP3   OH244113   4.143   6.846   6.685
14719TIP3    H144114   4.220   6.790   6.676
14719TIP3    H244115   4.151   6.909   6.613
14720TIP3   OH244116   5.112   3.200   3.306
14720TIP3    H144117   5.155   3.125   3.348
14720TIP3    H244118   5.178   3.269   3.307
14721TIP3   OH244119   1.930   7.199   6.329
14721TIP3    H144120   1.857   7.137   6.320
14721TIP3    H244121   1.932   7.246   6.246
14722TIP3   OH244122   6.717   2.426   4.054
14722TIP3    H144123   6.789   2.451   4.112
14722TIP3    H244124   6.669   2.360   4.103
14723TIP3   OH244125   3.361   7.504   5.174
14723TIP3    H144126   3.366   7.595   5.144
14723TIP3    H244127   3.322   7.510   5.261
14724TIP3   OH244128   4.673   2.681   0.976
14724TIP3    H144129   4.622   2.661   0.898
14724TIP3    H244130   4.764   2.672   0.947
14725TIP3   OH244131   3.515   6.429   1.822
14725TIP3    H144132   3.463   6.417   1.742
14725TIP3    H244133   3.551   6.342   1.840
14726TIP3   OH244134   8.043   7.510   6.279
14726TIP3    H144135   8.127   7.503   6.325
14726TIP3    H244136   7.978   7.479   6.343
14727TIP3   OH244137   1.130   5.947   2.511
14727TIP3    H144138   1.210   5.977   2.467
14727TIP3    H244139   1.068   6.019   2.499
14728TIP3   OH244140   4.937   7.155   3.049
14728TIP3    H144141   4.863   7.215   3.042
14728TIP3    H244142   5.014   7.211   3.041
14729TIP3   OH244143   3.168   6.066   5.184
14729TIP3    H144144   3.157   6.067   5.089
14729TIP3    H244145   3.082   6.041   5.218
14730TIP3   OH244146   0.439   2.243   0.668
14730TIP3    H144147   0.407   2.183   0.736
14730TIP3    H244148   0.450   2.326   0.713
14731TIP3   OH244149   2.777   4.521   3.024
14731TIP3    H144150   2.855   4.498   2.973
14731TIP3    H244151   2.729   4.439   3.033
14732TIP3   OH244152   3.014   3.038   3.665
14732TIP3    H144153   3.091   3.094   3.669
14732TIP3    H244154   2.940   3.099   3.668
14733TIP3   OH244155   3.386   7.364   2.228
14733TIP3    H144156   3.362   7.334   2.315
14733TIP3    H244157   3.470   7.408   2.239
14734TIP3   OH244158   0.751   3.151   0.807
14734TIP3    H144159   0.715   3.068   0.777
14734TIP3    H244160   0.741   3.149   0.902
14735TIP3   OH244161   6.536   0.319   5.203
14735TIP3    H144162   6.626   0.341   5.226
14735TIP3    H244163   6.534   0.319   5.108
14736TIP3   OH244164   7.955   3.581   5.200
14736TIP3    H144165   7.863   3.561   5.186
14736TIP3    H244166   7.976   3.646   5.134
14737TIP3   OH244167   7.374   4.993   0.199
14737TIP3    H144168   7.283   4.979   0.225
14737TIP3    H244169   7.368   5.050   0.122
14738TIP3   OH244170   2.748   3.980   4.889
14738TIP3    H144171   2.776   3.916   4.954
14738TIP3    H244172   2.653   3.967   4.881
14739TIP3   OH244173   4.593   6.704   1.949
14739TIP3    H144174   4.667   6.758   1.978
14739TIP3    H244175   4.633   6.638   1.893
14740TIP3   OH244176   7.739   3.232   0.891
14740TIP3    H144177   7.680   3.307   0.889
14740TIP3    H244178   7.827   3.269   0.884
14741TIP3   OH244179   0.764   5.584   3.976
14741TIP3    H144180   0.830   5.567   4.044
14741TIP3    H244181   0.687   5.536   4.004
14742TIP3   OH244182   0.884   0.606   1.512
14742TIP3    H144183   0.948   0.676   1.502
14742TIP3    H244184   0.906   0.544   1.442
14743TIP3   OH244185   2.707   2.563   4.312
14743TIP3    H144186   2.644   2.535   4.379
14743TIP3    H244187   2.787   2.581   4.360
14744TIP3   OH244188   5.468   3.573   5.856
14744TIP3    H144189   5.545   3.574   5.798
14744TIP3    H244190   5.441   3.664   5.862
14745TIP3   OH244191   6.910   4.394   5.869
14745TIP3    H144192   6.936   4.310   5.832
14745TIP3    H244193   6.981   4.453   5.845
14746TIP3   OH244194   2.527   5.064   4.781
14746TIP3    H144195   2.469   5.094   4.711
14746TIP3    H244196   2.509   4.970   4.788
14747TIP3   OH244197   3.151   1.026   1.177
14747TIP3    H144198   3.238   1.045   1.213
14747TIP3    H244199   3.143   1.085   1.102
14748TIP3   OH244200   2.736   5.090   3.227
14748TIP3    H144201   2.702   5.135   3.149
14748TIP3    H244202   2.666   5.029   3.251
14749TIP3   OH244203   5.259   2.959   1.508
14749TIP3    H144204   5.315   3.003   1.445
14749TIP3    H244205   5.215   2.891   1.458
14750TIP3   OH244206   1.850   6.147   2.430
14750TIP3    H144207   1.844   6.229   2.479
14750TIP3    H244208   1.932   6.107   2.460
14751TIP3   OH244209   2.796   3.076   1.189
14751TIP3    H144210   2.748   3.109   1.113
14751TIP3    H244211   2.888   3.093   1.169
14752TIP3   OH244212   1.036   0.082   3.714
14752TIP3    H144213   1.061   0.106   3.625
14752TIP3    H244214   0.972   0.011   3.703
14753TIP3   OH244215   1.718   7.447   4.628
14753TIP3    H144216   1.749   7.358   4.648
14753TIP3    H244217   1.673   7.475   4.708
14754TIP3   OH244218   3.989   2.620   3.964
14754TIP3    H144219   3.990   2.595   4.056
14754TIP3    H244220   3.943   2.547   3.921
14755TIP3   OH244221   6.811   0.502   3.518
14755TIP3    H144222   6.765   0.586   3.525
14755TIP3    H244223   6.901   0.525   3.500
14756TIP3   OH244224   5.578   6.385   5.425
14756TIP3    H144225   5.616   6.394   5.337
14756TIP3    H244226   5.630   6.317   5.467
14757TIP3   OH244227   1.909   7.186   1.607
14757TIP3    H144228   1.827   7.136   1.600
14757TIP3    H244229   1.884   7.275   1.582
14758TIP3   OH244230   5.804   5.975   3.163
14758TIP3    H144231   5.755   6.029   3.102
14758TIP3    H244232   5.829   5.898   3.112
14759TIP3   OH244233   1.796   1.961   0.029
14759TIP3    H144234   1.871   2.021   0.027
14759TIP3    H244235   1.792   1.932   0.120
14760TIP3   OH244236   7.525   1.058   2.089
14760TIP3    H144237   7.496   1.149   2.093
14760TIP3    H244238   7.621   1.064   2.086
14761TIP3   OH244239   2.844   3.689   1.982
14761TIP3    H144240   2.777   3.633   1.941
14761TIP3    H244241   2.814   3.702   2.071
14762TIP3   OH244242   0.746   4.273   1.374
14762TIP3    H144243   0.754   4.252   1.281
14762TIP3    H244244   0.788   4.200   1.419
14763TIP3   OH244245   1.085   5.227   2.755
14763TIP3    H144246   1.075   5.279   2.675
14763TIP3    H244247   0.995   5.211   2.784
14764TIP3   OH244248   2.678   2.655   2.390
14764TIP3    H144249   2.609   2.613   2.441
14764TIP3    H244250   2.744   2.586   2.379
14765TIP3   OH244251   7.268   0.218   3.825
14765TIP3    H144252   7.246   0.130   3.797
14765TIP3    H244253   7.185   0.266   3.823
14766TIP3   OH244254   2.188   6.564   4.414
14766TIP3    H144255   2.106   6.558   4.463
14766TIP3    H244256   2.257   6.553   4.479
14767TIP3   OH244257   3.106   4.574   2.224
14767TIP3    H144258   3.085   4.652   2.172
14767TIP3    H244259   3.026   4.521   2.220
14768TIP3   OH244260   3.863   7.014   5.655
14768TIP3    H144261   3.844   7.037   5.746
14768TIP3    H244262   3.797   6.949   5.632
14769TIP3   OH244263   4.926   3.918   3.586
14769TIP3    H144264   4.866   3.993   3.589
14769TIP3    H244265   5.002   3.952   3.539
14770TIP3   OH244266   2.698   4.949   5.216
14770TIP3    H144267   2.725   5.011   5.148
14770TIP3    H244268   2.701   4.863   5.173
14771TIP3   OH244269   4.393   2.059   3.105
14771TIP3    H144270   4.324   2.063   3.038
14771TIP3    H244271   4.377   2.136   3.161
14772TIP3   OH244272   6.580   2.602   0.108
14772TIP3    H144273   6.509   2.553   0.148
14772TIP3    H244274   6.659   2.567   0.149
14773TIP3   OH244275   7.486   6.066   1.399
14773TIP3    H144276   7.422   6.035   1.463
14773TIP3    H244277   7.568   6.074   1.449
14774TIP3   OH244278   6.481   5.227   6.313
14774TIP3    H144279   6.570   5.199   6.293
14774TIP3    H244280   6.467   5.304   6.258
14775TIP3   OH244281   8.125   4.620   2.027
14775TIP3    H144282   8.051   4.679   2.042
14775TIP3    H244283   8.132   4.615   1.932
14776TIP3   OH244284   6.617   7.286   3.211
14776TIP3    H144285   6.683   7.350   3.238
14776TIP3    H244286   6.625   7.216   3.276
14777TIP3   OH244287   3.200   0.544   4.750
14777TIP3    H144288   3.155   0.627   4.738
14777TIP3    H244289   3.249   0.555   4.832
14778TIP3   OH244290   4.633   6.365   3.766
14778TIP3    H144291   4.679   6.281   3.756
14778TIP3    H244292   4.618   6.373   3.860
14779TIP3   OH244293   7.630   3.497   0.832
14779TIP3    H144294   7.580   3.549   0.769
14779TIP3    H244295   7.713   3.543   0.841
14780TIP3   OH244296   4.537   6.602   5.854
14780TIP3    H144297   4.511   6.693   5.843
14780TIP3    H244298   4.481   6.569   5.924
14781TIP3   OH244299   1.478   0.554   0.469
14781TIP3    H144300   1.533   0.477   0.486
14781TIP3    H244301   1.398   0.537   0.518
14782TIP3   OH244302   2.305   7.594   0.427
14782TIP3    H144303   2.270   7.517   0.471
14782TIP3    H244304   2.360   7.636   0.493
14783TIP3   OH244305   1.789   1.356   6.274
14783TIP3    H144306   1.866   1.397   6.313
14783TIP3    H244307   1.749   1.307   6.345
14784TIP3   OH244308   6.504   5.463   6.148
14784TIP3    H144309   6.476   5.455   6.057
14784TIP3    H244310   6.522   5.557   6.160
14785TIP3   OH244311   2.480   7.159   3.500
14785TIP3    H144312   2.544   7.096   3.466
14785TIP3    H244313   2.532   7.222   3.550
14786TIP3   OH244314   2.565   1.006   0.827
14786TIP3    H144315   2.595   0.922   0.862
14786TIP3    H244316   2.578   0.999   0.732
14787TIP3   OH244317   2.833   4.098   2.441
14787TIP3    H144318   2.823   4.096   2.536
14787TIP3    H244319   2.765   4.039   2.409
14788TIP3   OH244320   5.868   4.838   3.002
14788TIP3    H144321   5.958   4.855   2.972
14788TIP3    H244322   5.822   4.809   2.923
14789TIP3   OH244323   0.487   1.359   0.762
14789TIP3    H144324   0.547   1.299   0.719
14789TIP3    H244325   0.506   1.445   0.724
14790TIP3   OH244326   2.346   5.592   5.719
14790TIP3    H144327   2.375   5.676   5.683
14790TIP3    H244328   2.417   5.567   5.779
14791TIP3   OH244329   1.738   1.603   6.681
14791TIP3    H144330   1.722   1.654   6.760
14791TIP3    H244331   1.796   1.532   6.710
14792TIP3   OH244332   1.077   6.763   6.291
14792TIP3    H144333   0.993   6.717   6.296
14792TIP3    H244334   1.058   6.851   6.323
14793TIP3   OH244335   7.376   3.696   0.185
14793TIP3    H144336   7.352   3.748   0.262
14793TIP3    H244337   7.325   3.615   0.194
14794TIP3   OH244338   4.733   6.777   1.240
14794TIP3    H144339   4.766   6.813   1.158
14794TIP3    H244340   4.739   6.850   1.302
14795TIP3   OH244341   0.564   2.469   4.085
14795TIP3    H144342   0.635   2.447   4.025
14795TIP3    H244343   0.595   2.547   4.132
14796TIP3   OH244344   7.784   0.747   2.942
14796TIP3    H144345   7.833   0.722   3.021
14796TIP3    H244346   7.701   0.699   2.950
14797TIP3   OH244347   3.260   2.638   3.090
14797TIP3    H144348   3.288   2.725   3.062
14797TIP3    H244349   3.261   2.642   3.185
14798TIP3   OH244350   3.723   1.035   5.210
14798TIP3    H144351   3.632   1.043   5.236
14798TIP3    H244352   3.751   0.951   5.247
14799TIP3   OH244353   5.769   4.258   3.242
14799TIP3    H144354   5.780   4.163   3.251
14799TIP3    H244355   5.801   4.294   3.325
14800TIP3   OH244356   3.602   5.042   5.232
14800TIP3    H144357   3.679   5.074   5.183
14800TIP3    H244358   3.553   5.121   5.254
14801TIP3   OH244359   5.812   6.442   6.338
14801TIP3    H144360   5.811   6.433   6.433
14801TIP3    H244361   5.882   6.504   6.320
14802TIP3   OH244362   7.540   0.943   0.397
14802TIP3    H144363   7.628   0.925   0.363
14802TIP3    H244364   7.531   0.885   0.472
14803TIP3   OH244365   5.984   2.645   0.837
14803TIP3    H144366   6.030   2.714   0.885
14803TIP3    H244367   6.040   2.567   0.847
14804TIP3   OH244368   7.287   3.039   1.386
14804TIP3    H144369   7.220   3.065   1.323
14804TIP3    H244370   7.253   2.959   1.425
14805TIP3   OH244371   1.261   5.301   0.573
14805TIP3    H144372   1.209   5.224   0.596
14805TIP3    H244373   1.345   5.266   0.545
14806TIP3   OH244374   8.132   7.525   5.997
14806TIP3    H144375   8.085   7.510   5.915
14806TIP3    H244376   8.063   7.526   6.064
14807TIP3   OH244377   0.531   7.423   6.775
14807TIP3    H144378   0.593   7.414   6.703
14807TIP3    H244379   0.464   7.482   6.741
14808TIP3   OH244380   2.826   7.190   6.219
14808TIP3    H144381   2.877   7.233   6.287
14808TIP3    H244382   2.828   7.250   6.145
14809TIP3   OH244383   5.667   1.732   6.180
14809TIP3    H144384   5.645   1.812   6.133
14809TIP3    H244385   5.697   1.762   6.266
14810TIP3   OH244386   5.452   0.465   2.426
14810TIP3    H144387   5.389   0.526   2.389
14810TIP3    H244388   5.537   0.505   2.407
14811TIP3   OH244389   0.180   6.150   4.276
14811TIP3    H144390   0.170   6.127   4.368
14811TIP3    H244391   0.125   6.228   4.265
14812TIP3   OH244392   4.746   1.625   3.187
14812TIP3    H144393   4.775   1.714   3.208
14812TIP3    H244394   4.810   1.569   3.232
14813TIP3   OH244395   3.821   4.569   6.316
14813TIP3    H144396   3.905   4.606   6.288
14813TIP3    H244397   3.807   4.605   6.404
14814TIP3   OH244398   1.529   3.285   0.651
14814TIP3    H144399   1.573   3.200   0.657
14814TIP3    H244400   1.524   3.303   0.558
14815TIP3   OH244401   2.650   1.906   3.936
14815TIP3    H144402   2.722   1.964   3.913
14815TIP3    H244403   2.596   1.957   3.997
14816TIP3   OH244404   8.057   4.437   5.537
14816TIP3    H144405   8.144   4.401   5.557
14816TIP3    H244406   8.048   4.512   5.596
14817TIP3   OH244407   7.957   5.765   3.018
14817TIP3    H144408   7.975   5.849   3.061
14817TIP3    H244409   7.866   5.771   2.990
14818TIP3   OH244410   3.556   5.220   6.285
14818TIP3    H144411   3.535   5.153   6.219
14818TIP3    H244412   3.489   5.210   6.352
14819TIP3   OH244413   5.159   1.425   5.447
14819TIP3    H144414   5.082   1.421   5.389
14819TIP3    H244415   5.206   1.344   5.430
14820TIP3   OH244416   7.200   2.845   3.987
14820TIP3    H144417   7.202   2.864   4.081
14820TIP3    H244418   7.252   2.765   3.979
14821TIP3   OH244419   6.020   5.374   4.396
14821TIP3    H144420   6.072   5.295   4.408
14821TIP3    H244421   6.059   5.417   4.319
14822TIP3   OH244422   3.684   7.140   2.758
14822TIP3    H144423   3.687   7.071   2.691
14822TIP3    H244424   3.635   7.100   2.831
14823TIP3   OH244425   7.613   5.205   0.371
14823TIP3    H144426   7.654   5.283   0.408
14823TIP3    H244427   7.520   5.226   0.366
14824TIP3   OH244428   7.185   1.736   2.799
14824TIP3    H144429   7.099   1.759   2.832
14824TIP3    H244430   7.195   1.788   2.719
14825TIP3   OH244431   6.566   1.321   0.492
14825TIP3    H144432   6.476   1.301   0.469
14825TIP3    H244433   6.576   1.414   0.471
14826TIP3   OH244434   5.970   1.182   5.569
14826TIP3    H144435   6.025   1.197   5.646
14826TIP3    H244436   5.939   1.269   5.545
14827TIP3   OH244437   7.358   4.462   0.872
14827TIP3    H144438   7.270   4.439   0.903
14827TIP3    H244439   7.345   4.541   0.820
14828TIP3   OH244440   0.200   3.096   4.247
14828TIP3    H144441   0.293   3.093   4.270
14828TIP3    H244442   0.155   3.069   4.327
14829TIP3   OH244443   7.736   3.300   6.052
14829TIP3    H144444   7.758   3.207   6.043
14829TIP3    H244445   7.721   3.330   5.962
14830TIP3   OH244446   5.410   7.456   1.163
14830TIP3    H144447   5.367   7.373   1.184
14830TIP3    H244448   5.479   7.432   1.102
14831TIP3   OH244449   3.593   0.187   4.802
14831TIP3    H144450   3.512   0.207   4.850
14831TIP3    H244451   3.566   0.126   4.734
14832TIP3   OH244452   8.194   1.904   0.488
14832TIP3    H144453   8.121   1.852   0.522
14832TIP3    H244454   8.272   1.853   0.511
14833TIP3   OH244455   1.709   3.329   2.186
14833TIP3    H144456   1.793   3.341   2.231
14833TIP3    H244457   1.644   3.329   2.256
14834TIP3   OH244458   1.541   4.447   3.792
14834TIP3    H144459   1.500   4.499   3.861
14834TIP3    H244460   1.635   4.457   3.807
14835TIP3   OH244461   3.619   6.039   1.921
14835TIP3    H144462   3.589   6.108   1.980
14835TIP3    H244463   3.614   5.959   1.972
14836TIP3   OH244464   0.459   3.094   4.286
14836TIP3    H144465   0.488   3.178   4.323
14836TIP3    H244466   0.527   3.032   4.310
14837TIP3   OH244467   5.674   6.858   0.752
14837TIP3    H144468   5.690   6.875   0.845
14837TIP3    H244469   5.761   6.863   0.711
   8.29679   7.82228   6.77430   0.00000   0.00000  -2.76559   0.00000  -2.76559  -3.91115
