Title
44469
    1GLY      N    1   3.826   6.566   3.819  0.3261  0.4007 -0.0861
    1GLY    HT1    2   3.917   6.566   3.769  0.5935  0.2572  0.3884
    1GLY    HT2    3   3.793   6.468   3.823 -0.7804  0.7841  3.2813
    1GLY    HT3    4   3.838   6.596   3.918 -2.2421 -2.5008  1.2727
    1GLY     CA    5   3.727   6.648   3.749 -0.0271  0.0038  0.2918
    1GLY    HA1    6   3.766   6.749   3.752 -0.4173  0.1734 -0.1895
    1GLY    HA2    7   3.634   6.626   3.801 -0.6228 -1.3622 -1.2795
    1GLY      C    8   3.699   6.594   3.603 -0.2030 -0.4008  0.4294
    1GLY      O    9   3.685   6.475   3.591  0.6033  0.0045 -0.4387
    2PRO      N   10   3.690   6.668   3.494  0.1756 -0.0345  0.8205
    2PRO     CD   11   3.674   6.811   3.494  0.2799 -0.8872  0.3548
    2PRO    HD1   12   3.768   6.857   3.457 -0.7662  0.7179 -0.4101
    2PRO    HD2   13   3.652   6.864   3.588 -0.6095 -2.1619  0.8934
    2PRO     CA   14   3.645   6.611   3.364 -0.3002 -0.8254  0.6023
    2PRO     HA   15   3.555   6.553   3.375 -1.5980  0.9097 -0.3176
    2PRO     CB   16   3.618   6.737   3.279  0.5851  0.3113 -0.1387
    2PRO    HB1   17   3.539   6.708   3.206  1.5587  0.7104 -1.3865
    2PRO    HB2   18   3.707   6.782   3.231  0.0630  2.1915  0.5791
    2PRO     CG   19   3.564   6.839   3.379 -0.6952 -0.3336 -0.1735
    2PRO    HG1   20   3.589   6.939   3.338  0.3600 -0.0842  1.0047
    2PRO    HG2   21   3.465   6.830   3.427 -0.4581 -0.4446  0.3056
    2PRO      C   22   3.755   6.522   3.303 -0.0126  0.6935  0.6272
    2PRO      O   23   3.718   6.432   3.228  0.6303  0.8438 -0.2949
    3GLY      N   24   3.879   6.543   3.327 -0.5995  0.0831  0.1204
    3GLY     HN   25   3.904   6.619   3.387 -0.9622  0.1402  0.2060
    3GLY     CA   26   3.988   6.449   3.290  0.3614 -0.7197  0.3183
    3GLY    HA1   27   4.083   6.500   3.297 -1.0399  2.7739 -2.5286
    3GLY    HA2   28   3.976   6.413   3.189  1.6945 -1.6600  0.4616
    3GLY      C   29   4.005   6.328   3.371  0.0471 -0.5560  0.8474
    3GLY      O   30   3.921   6.279   3.444 -0.3157 -0.3002  0.2605
    4ASN      N   31   4.120   6.259   3.370  0.3984 -0.1468 -0.2026
    4ASN     HN   32   4.183   6.295   3.301 -0.0678  1.7113  0.2667
    4ASN     CA   33   4.159   6.135   3.441 -0.4846  0.3576  0.0551
    4ASN     HA   34   4.067   6.094   3.481 -1.9123  1.5362 -1.8310
    4ASN     CB   35   4.234   6.038   3.351  0.3141  0.1558  0.0364
    4ASN    HB1   36   4.284   5.960   3.412 -0.6952 -1.9560 -1.6726
    4ASN    HB2   37   4.306   6.095   3.289  2.0064 -0.7441  1.1148
    4ASN     CG   38   4.138   5.966   3.255  0.3712  0.1917  1.2453
    4ASN    OD1   39   4.023   5.943   3.286 -0.2254  0.0593 -0.3495
    4ASN    ND2   40   4.196   5.924   3.138 -0.5009 -0.3409  0.1754
    4ASN   HD21   41   4.136   5.869   3.081  0.0984 -1.2167  0.3626
    4ASN   HD22   42   4.283   5.959   3.102 -0.8597  0.1237 -0.2512
    4ASN      C   43   4.261   6.168   3.551 -0.4405 -0.3040 -0.5306
    4ASN      O   44   4.341   6.253   3.523 -0.2678 -0.2905 -0.3819
    5PRO      N   45   4.262   6.116   3.673 -0.2893 -0.5206 -0.6975
    5PRO     CD   46   4.145   6.048   3.733  0.0879  0.3889 -0.2840
    5PRO    HD1   47   4.143   5.941   3.701 -1.5313  0.8235 -1.8368
    5PRO    HD2   48   4.047   6.094   3.706 -0.3035  0.0592  0.5371
    5PRO     CA   49   4.365   6.142   3.775 -0.0790 -0.0836  0.4643
    5PRO     HA   50   4.353   6.246   3.798  1.2235 -0.1639  1.6639
    5PRO     CB   51   4.328   6.052   3.892  0.1740 -0.7535 -0.2249
    5PRO    HB1   52   4.370   6.084   3.989 -1.2132  1.3583 -0.2797
    5PRO    HB2   53   4.364   5.949   3.869 -1.9532 -1.4595 -0.6693
    5PRO     CG   54   4.174   6.042   3.888 -0.5122  0.4907 -0.0727
    5PRO    HG1   55   4.135   5.946   3.928 -0.2840 -0.3302 -1.7397
    5PRO    HG2   56   4.132   6.131   3.941 -0.0073 -0.0882  1.3548
    5PRO      C   57   4.518   6.134   3.732  0.2550 -0.8823  0.0261
    5PRO      O   58   4.558   6.039   3.669 -0.3779  0.9408  0.3113
    6GLY      N   59   4.596   6.242   3.766  0.6020 -0.1072 -0.1086
    6GLY     HN   60   4.548   6.325   3.795 -0.8717 -1.1378  0.5391
    6GLY     CA   61   4.744   6.249   3.742 -0.5003 -0.4323  0.3180
    6GLY    HA1   62   4.769   6.351   3.719 -0.6650 -0.3814  0.3635
    6GLY    HA2   63   4.780   6.177   3.669 -1.8144  0.6569 -1.4789
    6GLY      C   64   4.828   6.225   3.869  0.4834  0.3562 -0.1843
    6GLY      O   65   4.780   6.147   3.951  1.1115 -0.1958  0.4251
    7PRO      N   66   4.944   6.286   3.881  0.1321 -0.0142 -0.5811
    7PRO     CD   67   5.030   6.331   3.764  0.1887  0.2448 -0.2323
    7PRO    HD1   68   4.988   6.409   3.696  1.3563 -0.2164 -1.5324
    7PRO    HD2   69   5.059   6.249   3.694  0.6416  2.3888 -2.7327
    7PRO     CA   70   5.029   6.263   3.996 -0.4274  0.9689 -0.0111
    7PRO     HA   71   5.039   6.159   4.025 -0.2773  0.7240 -0.9223
    7PRO     CB   72   5.166   6.315   3.958 -0.1723 -0.1926  0.1614
    7PRO    HB1   73   5.235   6.233   3.929  0.2492 -0.4844  1.9000
    7PRO    HB2   74   5.214   6.370   4.042 -0.4627  2.4154 -1.2637
    7PRO     CG   75   5.151   6.399   3.834  0.2036  1.2069 -0.5341
    7PRO    HG1   76   5.130   6.502   3.870 -1.3187  0.1097  1.9509
    7PRO    HG2   77   5.240   6.404   3.768 -0.4353 -0.2978 -1.5511
    7PRO      C   78   4.979   6.333   4.122 -0.0903  0.3206  0.2173
    7PRO      O   79   4.932   6.449   4.119  0.3209 -0.8594 -0.1533
    8GLY      N   80   5.008   6.272   4.239  0.6017  0.1939  0.1068
    8GLY     HN   81   5.050   6.182   4.240  1.9446  0.7692 -0.7782
    8GLY     CA   82   4.970   6.326   4.375 -0.7008 -0.2728  0.0168
    8GLY    HA1   83   4.954   6.433   4.373  0.3628 -0.0868  0.4994
    8GLY    HA2   84   5.047   6.292   4.444 -0.1511 -0.7026 -0.7979
    8GLY      C   85   4.837   6.273   4.416 -0.0885  0.2616  0.4480
    8GLY      O   86   4.763   6.221   4.335 -0.4183  0.2722  0.1651
    9ASN      N   87   4.809   6.275   4.547  0.0427 -0.5968  0.1030
    9ASN     HN   88   4.868   6.326   4.609 -0.1723  0.0914 -0.2562
    9ASN     CA   89   4.686   6.232   4.620  0.1828  0.1951  0.0211
    9ASN     HA   90   4.679   6.125   4.617 -0.8352  0.2468 -2.6410
    9ASN     CB   91   4.693   6.282   4.771 -0.1507  0.2167 -0.7897
    9ASN    HB1   92   4.592   6.262   4.813 -0.2032 -3.0169 -2.1856
    9ASN    HB2   93   4.699   6.393   4.782 -0.4897  0.0087  2.8158
    9ASN     CG   94   4.797   6.210   4.849 -0.5600 -0.4674  0.5286
    9ASN    OD1   95   4.869   6.124   4.797  0.1030  0.2838  0.4153
    9ASN    ND2   96   4.806   6.243   4.976 -0.1273  0.1190  0.0594
    9ASN   HD21   97   4.878   6.197   5.028  0.2238 -0.5823 -1.0225
    9ASN   HD22   98   4.748   6.310   5.023 -0.2792 -1.3147  2.0714
    9ASN      C   99   4.562   6.300   4.562  0.2039 -0.3482 -0.1016
    9ASN      O  100   4.573   6.412   4.512  0.4646 -0.2846  0.0742
   10PRO      N  101   4.447   6.244   4.565  0.1045 -0.2057  0.4088
   10PRO     CD  102   4.420   6.117   4.629 -0.1753 -0.0748  0.0183
   10PRO    HD1  103   4.423   6.127   4.739 -0.0757  2.4499 -0.1425
   10PRO    HD2  104   4.491   6.044   4.584 -0.5380 -0.2206 -0.3199
   10PRO     CA  105   4.324   6.315   4.536  0.2137 -0.8779 -0.2741
   10PRO     HA  106   4.311   6.316   4.428  0.3762 -0.7667 -0.2922
   10PRO     CB  107   4.207   6.231   4.591  0.4691  0.2615  0.1592
   10PRO    HB1  108   4.120   6.234   4.522 -0.8239 -0.1436  1.7105
   10PRO    HB2  109   4.162   6.249   4.691 -0.0173 -4.7056  1.0857
   10PRO     CG  110   4.269   6.092   4.586  0.1876 -1.0178 -1.2311
   10PRO    HG1  111   4.211   6.031   4.660 -2.4200  0.0242 -2.2899
   10PRO    HG2  112   4.246   6.054   4.484  0.2464 -1.0354 -1.2376
   10PRO      C  113   4.301   6.468   4.574 -0.5877  0.6192 -0.4957
   10PRO      O  114   4.327   6.505   4.689 -0.3550  0.1291 -0.4022
   11GLY      N  115   4.249   6.553   4.484 -0.1422 -0.6172 -0.3114
   11GLY     HN  116   4.233   6.504   4.398  0.0506 -0.5390 -0.3935
   11GLY     CA  117   4.212   6.689   4.509 -0.8748  0.4192 -0.2106
   11GLY    HA1  118   4.201   6.729   4.409  0.4666 -2.1115 -1.4788
   11GLY    HA2  119   4.290   6.725   4.574 -0.7109  2.1910 -1.3321
   11GLY      C  120   4.085   6.706   4.583 -0.6607  0.2388  0.5546
   11GLY      O  121   4.014   6.609   4.595 -0.9193 -0.0855 -0.1075
   12PRO      N  122   4.041   6.829   4.634 -0.0289 -0.0115 -0.3933
   12PRO     CD  123   4.122   6.952   4.628  0.6921  0.1961 -0.2243
   12PRO    HD1  124   4.194   6.948   4.543  1.4985  0.4255  0.4321
   12PRO    HD2  125   4.175   6.967   4.725 -0.3709  2.9667  0.0241
   12PRO     CA  126   3.913   6.857   4.697  0.1011  0.2236  0.0247
   12PRO     HA  127   3.909   6.809   4.793 -0.1359  2.4364  1.1950
   12PRO     CB  128   3.910   7.014   4.712  0.1855 -0.5903 -0.7410
   12PRO    HB1  129   3.933   7.038   4.818 -1.4748  1.5947 -0.8254
   12PRO    HB2  130   3.811   7.061   4.694 -0.7040 -0.9794  2.5121
   12PRO     CG  131   4.021   7.068   4.618  0.4824 -0.7349 -0.6818
   12PRO    HG1  132   3.979   7.064   4.516 -0.1420  1.7798 -0.6069
   12PRO    HG2  133   4.060   7.169   4.645 -1.3541 -0.6782  2.2328
   12PRO      C  134   3.794   6.805   4.614  0.1406 -0.2104  0.0037
   12PRO      O  135   3.771   6.837   4.497 -0.0186  0.2231 -0.0126
   13GLY      N  136   3.701   6.729   4.675 -0.6535 -0.5165  0.0895
   13GLY     HN  137   3.689   6.717   4.773 -1.4109  0.0409  0.0739
   13GLY     CA  138   3.582   6.686   4.607 -0.4130  0.1108 -0.4559
   13GLY    HA1  139   3.549   6.766   4.543  1.7831  0.9119 -0.6560
   13GLY    HA2  140   3.504   6.658   4.676 -1.4385  0.3710 -1.4888
   13GLY      C  141   3.613   6.564   4.520 -0.1125  0.4095  0.3412
   13GLY      O  142   3.724   6.514   4.514 -0.3292  0.5930 -0.0904
   14ASN      N  143   3.513   6.510   4.451  0.6496 -0.3249  0.0072
   14ASN     HN  144   3.423   6.546   4.474  1.1358 -0.1523  1.7721
   14ASN     CA  145   3.520   6.387   4.378  0.4182  0.2967  0.1677
   14ASN     HA  146   3.550   6.306   4.443 -1.6825 -1.8504 -1.3632
   14ASN     CB  147   3.374   6.359   4.329 -0.8617 -0.1824 -0.5319
   14ASN    HB1  148   3.375   6.265   4.269  1.5915 -0.6015  0.0468
   14ASN    HB2  149   3.327   6.444   4.275  0.3849  0.8341 -0.0742
   14ASN     CG  150   3.276   6.333   4.447 -0.6538  0.1181  0.0870
   14ASN    OD1  151   3.296   6.328   4.567 -0.5153  0.2377 -0.8194
   14ASN    ND2  152   3.147   6.313   4.404 -0.1405  0.0366  0.1893
   14ASN   HD21  153   3.076   6.301   4.473 -2.0235 -0.2641 -1.6849
   14ASN   HD22  154   3.131   6.311   4.305  1.5651 -0.3861 -0.1127
   14ASN      C  155   3.611   6.394   4.251  0.1899  0.8556 -0.0433
   14ASN      O  156   3.616   6.495   4.179 -0.5462  0.0620  0.6606
   15PRO      N  157   3.690   6.295   4.214  0.2738  0.5596  0.3976
   15PRO     CD  158   3.701   6.160   4.274 -0.3794  0.7437  0.4100
   15PRO    HD1  159   3.604   6.107   4.271 -0.5942  1.1604 -0.0490
   15PRO    HD2  160   3.748   6.151   4.374  1.6796  0.9633 -0.4818
   15PRO     CA  161   3.767   6.302   4.092 -0.1763 -0.0105  0.9104
   15PRO     HA  162   3.816   6.398   4.087 -0.0223 -0.0958  0.7636
   15PRO     CB  163   3.874   6.195   4.112 -0.4108 -0.9466 -0.2357
   15PRO    HB1  164   3.955   6.229   4.179 -1.8661  0.8028  0.7344
   15PRO    HB2  165   3.923   6.157   4.020  1.1421  2.9480 -1.2306
   15PRO     CG  166   3.793   6.082   4.179  0.2740  0.3423  0.0414
   15PRO    HG1  167   3.726   6.028   4.109  0.5113 -0.9612  0.7862
   15PRO    HG2  168   3.857   6.016   4.242  0.5397  1.0864  0.5673
   15PRO      C  169   3.682   6.283   3.970  0.4952  0.6724 -0.8760
   15PRO    OT1  170   3.568   6.221   3.983 -0.0161  0.0354  0.4848
   15PRO    OT2  171   3.720   6.321   3.855  0.0953  0.2392 -0.0527
   16LIT    LIT  172   0.177   5.921   2.183  0.4797  0.1231  0.1388
   17LIT    LIT  173   2.114   4.769   4.793 -1.0469  0.1544  0.5105
   18LIT    LIT  174   3.435   3.228   2.101 -0.7692  1.1266  0.1812
   19LIT    LIT  175   2.431   5.645   1.830 -0.3527 -0.0284 -0.1028
   20LIT    LIT  176   7.263   0.539   1.609 -0.5037 -0.6983  0.0126
   21LIT    LIT  177   3.523   5.198   3.825  0.1086  0.2135  0.1903
   22LIT    LIT  178   1.989   5.725   1.306  1.2851 -0.7640 -0.2840
   23LIT    LIT  179   5.582   3.474   2.829  0.1388  0.8673  0.0573
   24LIT    LIT  180   1.868   4.961   2.155 -0.5205  1.1108 -0.9781
   25LIT    LIT  181   0.225   5.615   6.210 -0.4931  0.2025 -0.2165
   26LIT    LIT  182   0.010   7.355   2.168  0.5812 -0.1628 -0.2523
   27LIT    LIT  183   2.696   4.630   1.440 -0.0472 -0.1228  0.7411
   28LIT    LIT  184   7.406   6.214   0.195  0.1484 -0.4397  0.4322
   29LIT    LIT  185   5.570   0.531   0.052  0.1748 -1.0480 -0.2369
   30LIT    LIT  186   1.122   0.438   4.384  0.8108  0.5305 -1.0187
   31LIT    LIT  187   3.682   6.900   1.035  0.9790  0.6874  0.0349
   32LIT    LIT  188   4.731   1.176   3.529  0.5767  0.3046  0.4296
   33LIT    LIT  189   4.350   5.552   3.330 -0.0493 -0.7344 -0.2926
   34LIT    LIT  190   7.869   1.353   4.609 -0.5604 -0.4327  0.2854
   35LIT    LIT  191   6.176   6.664   1.666 -0.3826 -0.4795 -0.5839
   36LIT    LIT  192   2.607   1.452   5.568  0.0189  0.5127 -0.1400
   37LIT    LIT  193   0.212   0.454   6.471 -0.3549 -0.2074  1.3224
   38LIT    LIT  194   0.282   5.663   3.858 -0.0633 -0.8019  0.2455
   39LIT    LIT  195   2.837   2.945   6.033  0.3051  1.0586  0.2656
   40LIT    LIT  196   6.268   6.620   4.423 -1.1755  0.1097 -0.3290
   41LIT    LIT  197   0.320   0.552   1.824  0.3645  0.7998 -0.3582
   42LIT    LIT  198   2.087   1.993   6.714 -0.4822 -0.7582  1.3084
   43LIT    LIT  199   3.571   6.202   3.797 -0.0248 -0.6464  0.3262
   44LIT    LIT  200   6.713   0.811   6.721  0.0119 -0.7040  1.2926
   45LIT    LIT  201   2.967   6.680   2.330  1.0455  0.9544 -0.2321
   46LIT    LIT  202   6.455   7.535   3.709 -0.0408 -0.8534  0.3522
   47LIT    LIT  203   0.716   1.876   5.281 -1.2724 -0.1592 -0.7691
   48LIT    LIT  204   0.825   6.760   2.794  0.1540  0.6166  0.6060
   49LIT    LIT  205   4.490   3.426   4.707  0.1013 -0.3855  0.5263
   50LIT    LIT  206   6.091   3.308   3.760  0.5005  0.0335  1.1587
   51LIT    LIT  207   0.792   7.596   2.871  0.9252  0.8238  0.0891
   52LIT    LIT  208   1.537   5.488   1.038  0.4634 -0.3788  0.3204
   53LIT    LIT  209   5.736   3.551   2.003  1.0324 -0.0553 -0.4136
   54LIT    LIT  210   7.173   3.591   6.535  0.5309 -0.2603  0.7263
   55LIT    LIT  211   1.657   1.534   2.678 -0.1036 -0.4036  0.9665
   56LIT    LIT  212   7.881   0.451   5.724  0.0932 -0.6952  0.2102
   57LIT    LIT  213   5.894   7.205   4.001  0.1833  0.2671  0.2132
   58CLA    CLA  214   2.692   6.117   4.614 -0.0327  0.3759  0.1064
   59CLA    CLA  215   0.638   7.618   0.146 -0.2904 -0.1240 -0.1409
   60CLA    CLA  216   8.173   5.051   4.995 -0.1820 -0.2841  0.0638
   61CLA    CLA  217   4.537   6.164   3.019 -0.2461  0.3489  0.6138
   62CLA    CLA  218   6.236   1.754   4.930  0.3245  0.1427 -0.1067
   63CLA    CLA  219   2.487   0.107   2.759 -0.0241 -0.1875 -0.3856
   64CLA    CLA  220   0.452   3.568   2.334  0.2349 -0.1086 -0.0221
   65CLA    CLA  221   7.989   7.107   4.701  0.2334  0.1783  0.5988
   66CLA    CLA  222   5.853   4.976   1.602  0.0240  0.1624 -0.2851
   67CLA    CLA  223   8.142   0.787   6.516 -0.3367  0.4551  0.1750
   68CLA    CLA  224   5.049   7.333   0.321  0.0946 -0.0911  0.1500
   69CLA    CLA  225   6.318   7.663   4.256 -0.2047  0.2977 -0.0267
   70CLA    CLA  226   0.702   7.390   2.808 -0.2872 -0.0633 -0.1757
   71CLA    CLA  227   5.991   7.154   3.798 -0.0773  0.1982 -0.3500
   72CLA    CLA  228   5.133   4.817   2.703 -0.0859  0.1746 -0.1580
   73CLA    CLA  229   4.848   6.439   1.949  0.0604 -0.1121 -0.1169
   74CLA    CLA  230   7.112   3.624   3.835 -0.0975  0.2442  0.0173
   75CLA    CLA  231   0.999   3.853   2.387  0.3605  0.0317 -0.2176
   76CLA    CLA  232   7.334   2.345   4.176  0.0406 -0.1105 -0.3090
   77CLA    CLA  233   4.541   1.510   4.964  0.2587  0.5699 -0.1817
   78CLA    CLA  234   2.627   1.680   6.209 -0.6155 -0.3877 -0.0534
   79CLA    CLA  235   0.307   1.810   5.288 -0.3880  0.5202  0.1362
   80CLA    CLA  236   0.040   1.396   2.743 -0.0490  0.1062  0.1429
   81CLA    CLA  237   8.052   3.842   4.290 -0.1426 -0.0846 -0.4695
   82CLA    CLA  238   6.289   0.472   5.611 -0.2216 -0.0194  0.1855
   83CLA    CLA  239   3.761   1.933   2.240  0.2171 -0.1855 -0.1572
   84CLA    CLA  240   6.059   3.023   3.029  0.1024  0.1820 -0.1645
   85CLA    CLA  241   0.137   6.381   2.186 -0.1934 -0.4270  0.0784
   86CLA    CLA  242   2.546   6.707   1.857 -0.0799  0.3406  0.3843
   87CLA    CLA  243   7.569   1.278   2.196 -0.1098  0.0182 -0.0503
   88CLA    CLA  244   2.968   5.704   0.792  0.1550 -0.5022 -0.3150
   89CLA    CLA  245   3.337   4.768   0.063  0.0343  0.2884 -0.3656
   90CLA    CLA  246   1.804   4.743   2.086 -0.2841  0.2597 -0.6990
   91CLA    CLA  247   1.432   0.388   5.235  0.0200  0.0665  0.3958
   92CLA    CLA  248   7.893   4.959   6.668 -0.0150  0.1670 -0.2040
   93CLA    CLA  249   1.507   5.387   1.984  0.5037  0.0338  0.4890
   94CLA    CLA  250   7.278   0.082   2.064 -0.1733 -0.3455  0.4990
   95CLA    CLA  251   2.165   3.132   5.553 -0.0150 -0.3741 -0.1054
   96CLA    CLA  252   2.582   1.950   2.360 -0.1953  0.1202 -0.1693
   97CLA    CLA  253   4.013   0.103   4.263 -0.1799  0.0677 -0.3166
   98CLA    CLA  254   4.513   1.952   3.287  0.1147  0.4445 -0.2531
   99CLA    CLA  255   1.822   0.308   1.963  0.0671 -0.1526  0.2175
  100TIP3   OH2  256   4.031   2.217   1.203 -0.0322 -0.6299 -0.5172
  100TIP3    H1  257   4.116   2.174   1.196 -0.5819 -2.1104  1.1503
  100TIP3    H2  258   3.995   2.215   1.115  0.9202 -1.5421 -0.9048
  101TIP3   OH2  259   5.100   4.393   1.347  0.1959 -0.3731  0.3708
  101TIP3    H1  260   5.181   4.443   1.361 -1.6170  2.3533  2.0707
  101TIP3    H2  261   5.094   4.335   1.423  0.5940 -0.7214  0.1448
  102TIP3   OH2  262   5.422   5.930   6.632 -0.1030 -0.3267  0.3910
  102TIP3    H1  263   5.350   5.949   6.572  1.0396 -1.3881 -1.4283
  102TIP3    H2  264   5.475   6.009   6.633 -0.4597 -0.0894  0.4782
  103TIP3   OH2  265   4.510   4.742   2.960  0.0347  0.1034 -0.4340
  103TIP3    H1  266   4.561   4.784   3.029 -0.4100  0.5117 -0.3444
  103TIP3    H2  267   4.499   4.811   2.894  1.7608 -0.7105 -1.6437
  104TIP3   OH2  268   1.238   3.259   5.638  0.3841  0.1609 -0.6691
  104TIP3    H1  269   1.282   3.238   5.556  0.7875 -1.0518 -0.1819
  104TIP3    H2  270   1.266   3.189   5.698 -0.1260  0.8508  0.4131
  105TIP3   OH2  271   6.370   2.073   4.276  0.6655  0.1179  0.0699
  105TIP3    H1  272   6.334   2.061   4.364  1.9791 -0.4742  0.5506
  105TIP3    H2  273   6.422   2.153   4.282 -2.1962  2.2537 -1.2027
  106TIP3   OH2  274   0.106   5.738   4.209  0.0827 -0.0358  0.3675
  106TIP3    H1  275   0.071   5.720   4.121  2.4747 -0.6436 -0.5457
  106TIP3    H2  276   0.051   5.809   4.242 -0.0040  1.2749 -2.2572
  107TIP3   OH2  277   2.804   7.791   3.231  0.3375  0.5208 -0.2344
  107TIP3    H1  278   2.855   7.767   3.154 -0.0490 -1.9101  0.1777
  107TIP3    H2  279   2.723   7.828   3.195 -0.3281 -1.6098 -1.1191
  108TIP3   OH2  280   4.524   3.547   0.651 -0.1717 -0.0938 -0.2917
  108TIP3    H1  281   4.433   3.549   0.622  0.0754  0.4942 -1.0743
  108TIP3    H2  282   4.521   3.576   0.742 -0.7277  0.3334 -0.4413
  109TIP3   OH2  283   5.032   4.170   1.172 -0.2090  0.3792 -0.1154
  109TIP3    H1  284   5.031   4.239   1.238 -4.8332  0.1227  0.3821
  109TIP3    H2  285   4.969   4.199   1.106 -0.1744 -2.0977 -1.3507
  110TIP3   OH2  286   2.014   1.086   0.272 -0.3457  0.2883  0.0783
  110TIP3    H1  287   2.053   1.172   0.257 -0.2351  0.0955 -0.8124
  110TIP3    H2  288   2.082   1.024   0.247  0.2390 -0.0981  2.4602
  111TIP3   OH2  289   0.784   6.100   3.260  0.0788 -0.1069  0.1014
  111TIP3    H1  290   0.875   6.100   3.229 -0.3393  2.9356 -1.5135
  111TIP3    H2  291   0.749   6.016   3.231  1.2345  0.4014 -3.2093
  112TIP3   OH2  292   5.416   2.336   5.273  0.1818 -0.0591  0.1026
  112TIP3    H1  293   5.484   2.298   5.217  0.4589 -0.7012  0.8475
  112TIP3    H2  294   5.376   2.261   5.317  0.5968  0.4624  1.4471
  113TIP3   OH2  295   0.119   0.703   2.582 -0.2238  0.3304 -0.2306
  113TIP3    H1  296   0.183   0.756   2.629 -0.1650 -0.4109  0.5489
  113TIP3    H2  297   0.034   0.731   2.617 -0.1420 -0.6916  0.8393
  114TIP3   OH2  298   3.510   0.552   6.642  0.0001 -0.1114 -0.3762
  114TIP3    H1  299   3.482   0.467   6.606  0.1907 -0.9163  1.2425
  114TIP3    H2  300   3.451   0.566   6.716  1.1763  0.2357  0.5251
  115TIP3   OH2  301   1.450   3.967   0.188 -0.1732  0.0058  0.3778
  115TIP3    H1  302   1.484   3.878   0.195  1.0261  0.5704  2.5101
  115TIP3    H2  303   1.511   4.012   0.130 -1.3886 -0.7399 -1.6303
  116TIP3   OH2  304   7.326   4.520   1.535 -0.2270  0.6239 -0.3058
  116TIP3    H1  305   7.361   4.540   1.448 -0.1886  0.0600 -0.4250
  116TIP3    H2  306   7.231   4.525   1.525 -0.2254  3.0683  0.2347
  117TIP3   OH2  307   0.906   5.262   1.234 -0.0569 -0.0983 -0.4106
  117TIP3    H1  308   0.883   5.317   1.308 -2.0446 -1.3807 -0.0098
  117TIP3    H2  309   0.900   5.172   1.268 -0.2800 -0.6834 -1.9282
  118TIP3   OH2  310   1.843   0.003   4.942  0.0190  0.7544  0.1917
  118TIP3    H1  311   1.910   0.071   4.936  0.3779  0.2793 -2.5641
  118TIP3    H2  312   1.767   0.040   4.898 -2.1064  1.7077  4.1912
  119TIP3   OH2  313   6.748   3.336   6.118  0.5362 -0.6493 -0.0074
  119TIP3    H1  314   6.757   3.397   6.191  1.9485 -0.6620 -0.1336
  119TIP3    H2  315   6.654   3.326   6.106  0.2675 -0.6800  1.8298
  120TIP3   OH2  316   2.681   2.549   0.049 -0.0564 -0.0906 -0.5065
  120TIP3    H1  317   2.586   2.546   0.049 -0.0752 -0.1567  0.9796
  120TIP3    H2  318   2.708   2.464   0.014 -0.5637 -0.8384  0.8479
  121TIP3   OH2  319   1.024  -0.022   0.135  0.1599 -0.9765 -0.2579
  121TIP3    H1  320   1.095   0.041   0.145 -0.5507  0.1197 -1.7995
  121TIP3    H2  321   0.973  -0.014   0.215 -1.0474  1.9300 -1.1899
  122TIP3   OH2  322   3.598   2.097   4.746 -0.3273 -0.5251 -0.1876
  122TIP3    H1  323   3.651   2.127   4.820  0.4379 -0.2941 -0.8064
  122TIP3    H2  324   3.633   2.145   4.671 -0.4372 -1.4611 -0.8602
  123TIP3   OH2  325   4.860   5.473   2.079 -0.7571  0.0732 -0.5462
  123TIP3    H1  326   4.879   5.505   2.167  1.3706 -0.1292 -0.8805
  123TIP3    H2  327   4.871   5.549   2.022  0.9041 -0.4271 -0.9465
  124TIP3   OH2  328   2.653   1.513   2.488  0.7494 -0.7909 -0.7742
  124TIP3    H1  329   2.731   1.559   2.458  1.1933 -2.1117 -1.7704
  124TIP3    H2  330   2.655   1.521   2.583  1.6962 -0.1864 -0.8338
  125TIP3   OH2  331   5.087   4.104   2.934 -0.1277  0.6021  0.0838
  125TIP3    H1  332   5.029   4.077   3.005 -0.4990  0.8572 -0.1169
  125TIP3    H2  333   5.103   4.197   2.951 -1.4210  1.0383 -0.9881
  126TIP3   OH2  334   3.259   0.886   5.872 -0.2209  0.5997  0.6450
  126TIP3    H1  335   3.217   0.878   5.958 -1.6314  2.0885  0.1414
  126TIP3    H2  336   3.353   0.878   5.891 -0.3859  2.3338  2.5643
  127TIP3   OH2  337   4.051   1.915   1.215 -0.0472  0.3305  0.0979
  127TIP3    H1  338   4.143   1.936   1.201  0.2626 -0.7612  0.4161
  127TIP3    H2  339   4.038   1.927   1.309  0.5219 -2.2183  0.5663
  128TIP3   OH2  340   5.765   1.383   1.510 -0.2361 -0.4643 -0.0607
  128TIP3    H1  341   5.847   1.430   1.493 -0.1427 -0.3921  0.5516
  128TIP3    H2  342   5.715   1.441   1.566 -0.6006 -0.6195 -0.2248
  129TIP3   OH2  343   4.913   5.384   3.619  0.0360  0.0052 -0.3606
  129TIP3    H1  344   4.938   5.371   3.527 -4.3088 -0.7203 -1.6742
  129TIP3    H2  345   4.894   5.296   3.651 -1.8045  0.5259  0.0767
  130TIP3   OH2  346   4.559   4.023   1.842  0.0218 -0.1899 -0.3198
  130TIP3    H1  347   4.540   4.052   1.932  0.9158  0.7590 -0.4094
  130TIP3    H2  348   4.476   3.990   1.809 -0.9256  1.6938  0.0515
  131TIP3   OH2  349   0.446   7.178   3.976  0.2428  0.0051 -0.2084
  131TIP3    H1  350   0.483   7.258   3.937  0.2513  0.3550  0.5038
  131TIP3    H2  351   0.394   7.209   4.050 -0.5540 -0.5783 -0.5075
  132TIP3   OH2  352   7.087   6.234   1.355  0.5339 -0.0356 -0.2585
  132TIP3    H1  353   7.020   6.194   1.411  1.7573 -0.7654  0.7357
  132TIP3    H2  354   7.131   6.297   1.413  2.1598 -1.1644 -0.1979
  133TIP3   OH2  355   5.334   6.212   5.809 -0.1011 -0.4895  0.1967
  133TIP3    H1  356   5.270   6.197   5.879  0.1318 -0.0746  0.5073
  133TIP3    H2  357   5.401   6.268   5.850 -0.4335  0.5363 -0.6246
  134TIP3   OH2  358   7.030   5.198   2.979 -0.0745  0.4460 -0.1420
  134TIP3    H1  359   6.993   5.150   3.053  3.2365 -0.2350  1.2902
  134TIP3    H2  360   7.022   5.290   3.002 -0.5037  0.2942  0.3174
  135TIP3   OH2  361   4.279   0.457   3.014  0.0318  0.1247  1.0338
  135TIP3    H1  362   4.312   0.535   3.058  0.2218  0.8922 -0.4075
  135TIP3    H2  363   4.185   0.456   3.035 -0.1044  1.1285  0.5590
  136TIP3   OH2  364   2.131   4.894   0.978  0.4408 -0.3137  0.0636
  136TIP3    H1  365   2.128   4.799   0.972  0.1610 -0.2851 -0.2604
  136TIP3    H2  366   2.093   4.915   1.063  0.2520 -0.4759  0.0182
  137TIP3   OH2  367   6.866   5.461   0.253 -0.0274 -0.3431  0.3730
  137TIP3    H1  368   6.790   5.497   0.208 -0.1988 -1.7919 -0.5513
  137TIP3    H2  369   6.936   5.525   0.236 -0.7522  0.4588  0.3210
  138TIP3   OH2  370   8.062   6.548   4.429 -0.3194  0.1321 -0.7942
  138TIP3    H1  371   8.067   6.571   4.522  2.1750  1.8873 -1.2810
  138TIP3    H2  372   8.077   6.453   4.427 -0.5971  0.0375  0.5912
  139TIP3   OH2  373   5.141   0.873   5.602  0.3539  0.1639 -0.3306
  139TIP3    H1  374   5.126   0.800   5.661 -0.5115 -0.8605 -1.7437
  139TIP3    H2  375   5.079   0.858   5.530  2.5605  0.3402 -2.3712
  140TIP3   OH2  376   5.128   1.092   5.019  0.2916 -0.1215  0.2124
  140TIP3    H1  377   5.162   1.087   4.929 -0.1043 -0.5278  0.0791
  140TIP3    H2  378   5.033   1.080   5.008  0.1883  0.2907  0.6420
  141TIP3   OH2  379   1.800   1.597   3.923  0.0326  0.1487 -0.2323
  141TIP3    H1  380   1.759   1.585   3.837 -1.0258 -1.0409  0.4011
  141TIP3    H2  381   1.731   1.636   3.977  0.3298 -0.1478  0.3669
  142TIP3   OH2  382   1.822   1.079   0.037  0.2526 -0.2282  0.0880
  142TIP3    H1  383   1.889   1.097   0.102  1.3254 -2.2771 -0.3842
  142TIP3    H2  384   1.818   1.159  -0.016  0.0640  1.0869  1.9992
  143TIP3   OH2  385   7.800   6.612   1.834 -0.1339 -0.0932  0.3762
  143TIP3    H1  386   7.743   6.656   1.897  0.7619  1.4025  0.1887
  143TIP3    H2  387   7.779   6.652   1.750  0.9457  0.2468  0.2534
  144TIP3   OH2  388   8.237   7.411   4.859  0.0001  0.1425  0.3629
  144TIP3    H1  389   8.178   7.345   4.894  0.6116 -0.6582 -0.0776
  144TIP3    H2  390   8.280   7.448   4.937  2.7553 -2.9504  0.5277
  145TIP3   OH2  391   7.726   0.954   2.643 -0.0535  0.1367 -0.3103
  145TIP3    H1  392   7.639   0.931   2.611 -0.0902 -0.9358  0.4912
  145TIP3    H2  393   7.718   1.045   2.672 -1.1595 -0.2275  0.5834
  146TIP3   OH2  394   5.957   0.670   1.252  0.2025 -0.1962  0.1045
  146TIP3    H1  395   6.024   0.681   1.185 -0.0142 -1.2651 -0.3025
  146TIP3    H2  396   5.949   0.576   1.263 -0.9315 -0.0781  0.4512
  147TIP3   OH2  397   4.100   0.081   5.251 -1.0613 -0.4799 -0.1659
  147TIP3    H1  398   4.062   0.108   5.334 -0.4751 -0.1363 -0.0048
  147TIP3    H2  399   4.133  -0.008   5.266 -0.1026 -0.0654  0.2567
  148TIP3   OH2  400   7.203   0.725   3.132  0.5095 -0.1155 -0.3852
  148TIP3    H1  401   7.215   0.777   3.212  0.9046  2.3882 -1.9671
  148TIP3    H2  402   7.239   0.639   3.154 -0.8868 -0.0725  2.6347
  149TIP3   OH2  403   8.042   2.852   3.212  0.1809 -0.0267 -0.5494
  149TIP3    H1  404   8.012   2.800   3.137 -0.8474  0.3121 -0.3946
  149TIP3    H2  405   8.126   2.889   3.184  0.6809 -1.3372 -0.8593
  150TIP3   OH2  406   3.894   6.943   1.781  0.2931 -0.4734 -0.0965
  150TIP3    H1  407   3.965   6.883   1.757  0.4668 -0.8427  1.2610
  150TIP3    H2  408   3.895   6.945   1.876 -0.2072  1.1146 -0.0903
  151TIP3   OH2  409   7.555   7.289   3.692 -0.0527 -0.0000 -0.7209
  151TIP3    H1  410   7.586   7.367   3.738 -1.6371 -0.4361  1.2101
  151TIP3    H2  411   7.613   7.219   3.723 -1.1981 -0.3172  0.7869
  152TIP3   OH2  412   1.416   4.199   0.387 -0.5644 -0.6210 -0.2983
  152TIP3    H1  413   1.412   4.107   0.359 -0.8890 -0.5012 -0.6584
  152TIP3    H2  414   1.477   4.240   0.325  1.1290 -0.9920  1.0419
  153TIP3   OH2  415   4.716   2.912   2.791  0.1628  0.3580  0.1076
  153TIP3    H1  416   4.651   2.981   2.805  0.9279  1.2522 -0.6255
  153TIP3    H2  417   4.749   2.928   2.703  1.7542  0.2549  0.6645
  154TIP3   OH2  418   3.386   1.660   5.716  0.7598 -0.4968  0.0748
  154TIP3    H1  419   3.442   1.731   5.683  1.1585 -0.0669  1.6232
  154TIP3    H2  420   3.307   1.705   5.747  2.0701 -0.3065  3.5269
  155TIP3   OH2  421   0.045   1.033   5.118  0.2550  0.9925 -0.6657
  155TIP3    H1  422   0.029   1.124   5.093  0.0486  1.1278 -0.0708
  155TIP3    H2  423   0.137   1.019   5.097  0.2950  1.3450 -0.7455
  156TIP3   OH2  424   3.130   0.457   5.954  0.2061 -0.1069 -0.9659
  156TIP3    H1  425   3.094   0.369   5.947 -0.6727  0.2523 -1.0037
  156TIP3    H2  426   3.117   0.481   6.046 -2.2892  1.1181 -1.5744
  157TIP3   OH2  427   1.808   5.449   5.406  0.1056  0.1093 -0.1539
  157TIP3    H1  428   1.897   5.468   5.374  0.5779 -1.9606 -0.1778
  157TIP3    H2  429   1.770   5.394   5.338 -0.1597 -1.3889  1.1705
  158TIP3   OH2  430   3.263   7.254   5.435 -0.2429  0.1896 -0.0238
  158TIP3    H1  431   3.359   7.250   5.433 -0.1456  1.8243 -0.0919
  158TIP3    H2  432   3.240   7.229   5.524  0.2399 -0.2410 -0.0145
  159TIP3   OH2  433   4.695   0.481   6.188 -0.5103 -0.2114  0.4903
  159TIP3    H1  434   4.616   0.428   6.172 -0.1060  0.0894 -3.5414
  159TIP3    H2  435   4.677   0.564   6.143  2.3703 -0.4799 -1.3928
  160TIP3   OH2  436   1.398   2.278   5.447  0.4705 -0.0581 -0.4226
  160TIP3    H1  437   1.374   2.221   5.520 -0.6339 -0.0389 -0.7572
  160TIP3    H2  438   1.470   2.331   5.481  0.7603 -0.8680  0.2601
  161TIP3   OH2  439   0.224   7.751   4.413  0.1731 -0.0716  0.5503
  161TIP3    H1  440   0.196   7.723   4.500 -1.5409 -0.4946 -0.1088
  161TIP3    H2  441   0.266   7.836   4.428  0.8824 -0.6299  1.9086
  162TIP3   OH2  442   5.915   7.628   5.612  0.1376  0.2906 -0.1173
  162TIP3    H1  443   5.943   7.708   5.656 -0.7936  0.9287 -0.6607
  162TIP3    H2  444   5.821   7.625   5.625  0.2186 -0.9439  0.2485
  163TIP3   OH2  445   6.106   4.107   5.595 -0.4113 -0.1329  0.4177
  163TIP3    H1  446   6.104   4.202   5.590 -0.6869 -0.1838 -1.4032
  163TIP3    H2  447   6.090   4.086   5.687 -1.7296  1.5477  0.6032
  164TIP3   OH2  448   7.386   3.757   3.964  0.2376  0.2282  0.8668
  164TIP3    H1  449   7.397   3.681   4.021 -0.7475  0.2241  1.0655
  164TIP3    H2  450   7.298   3.747   3.929  0.1589  1.2103  0.7815
  165TIP3   OH2  451   0.408   3.716   4.511 -0.5818  0.1853  0.3472
  165TIP3    H1  452   0.400   3.674   4.425  0.8068  0.3652  0.1119
  165TIP3    H2  453   0.332   3.686   4.559 -2.0202  0.9520 -1.3152
  166TIP3   OH2  454   1.928   3.445   3.573 -0.3861 -0.1016 -0.4741
  166TIP3    H1  455   1.897   3.529   3.539  1.0558 -0.0384 -1.7190
  166TIP3    H2  456   1.903   3.381   3.507  0.5285 -0.3031 -0.6393
  167TIP3   OH2  457   0.573   5.228   6.080  0.4023  0.0376 -0.0927
  167TIP3    H1  458   0.635   5.241   6.152  0.7919  0.5614 -0.5116
  167TIP3    H2  459   0.490   5.209   6.124  0.9905 -1.3999  0.4654
  168TIP3   OH2  460   7.573   5.740   0.800  0.9544 -0.6296  0.1304
  168TIP3    H1  461   7.639   5.671   0.807  1.7410 -0.1236 -1.7777
  168TIP3    H2  462   7.596   5.788   0.720 -1.8416 -0.5851 -0.7533
  169TIP3   OH2  463   1.778   5.171   2.734  0.2765 -0.0303  0.0247
  169TIP3    H1  464   1.854   5.132   2.777 -0.2688 -0.4487  0.6213
  169TIP3    H2  465   1.803   5.262   2.719  1.4090 -0.4843 -1.0246
  170TIP3   OH2  466   3.655   3.026   1.174 -0.0866  0.2187 -0.2422
  170TIP3    H1  467   3.743   3.041   1.138  0.0388  0.2593  0.0799
  170TIP3    H2  468   3.609   2.979   1.104  0.8843 -1.8204  0.3877
  171TIP3   OH2  469   6.665   6.062   0.697 -0.4274 -0.1945 -0.0287
  171TIP3    H1  470   6.750   6.069   0.741  0.3617  0.9950 -1.6503
  171TIP3    H2  471   6.605   6.113   0.752 -0.0632 -0.8838  1.0274
  172TIP3   OH2  472   1.492   1.143   1.054  0.1088 -0.4427  0.4332
  172TIP3    H1  473   1.564   1.168   1.111 -0.5187  0.6963  0.7534
  172TIP3    H2  474   1.527   1.071   1.001  1.6339  0.3883  0.2495
  173TIP3   OH2  475   0.396   5.567   0.170 -0.4973  0.4711 -0.1005
  173TIP3    H1  476   0.444   5.648   0.155 -0.9968  1.1722  1.8060
  173TIP3    H2  477   0.344   5.584   0.248 -0.9548 -1.5387  0.0857
  174TIP3   OH2  478   7.154   3.599   5.716  0.0960  0.1347 -0.3016
  174TIP3    H1  479   7.184   3.607   5.806  0.0500  0.3202 -0.3031
  174TIP3    H2  480   7.124   3.508   5.709 -2.8118  0.8996  0.7775
  175TIP3   OH2  481   3.683   6.583   0.652 -0.3577  0.3051 -0.1859
  175TIP3    H1  482   3.720   6.581   0.740 -1.0595 -1.1209  0.1002
  175TIP3    H2  483   3.629   6.662   0.651 -0.3774  0.3119  0.6762
  176TIP3   OH2  484   0.901   6.943   4.895  0.2862 -0.6619 -0.0530
  176TIP3    H1  485   0.817   6.981   4.922  1.9545  1.1771  3.1752
  176TIP3    H2  486   0.934   7.002   4.828 -0.2311 -0.4588 -0.1334
  177TIP3   OH2  487   7.436   3.577   3.232 -0.1705 -0.3170  0.2289
  177TIP3    H1  488   7.524   3.539   3.227 -0.2299 -0.3171 -1.3700
  177TIP3    H2  489   7.451   3.671   3.238 -0.0439 -0.2393 -1.0630
  178TIP3   OH2  490   2.865   6.180   1.830 -0.1885 -0.4193 -0.2319
  178TIP3    H1  491   2.906   6.198   1.915  1.7522 -1.8009 -0.8057
  178TIP3    H2  492   2.850   6.266   1.792  1.6633  0.1860  0.2992
  179TIP3   OH2  493   0.910   0.493   5.917  0.6433 -0.2135 -0.0517
  179TIP3    H1  494   0.919   0.571   5.971  0.9185  1.9554 -2.9870
  179TIP3    H2  495   1.000   0.470   5.894  0.5685 -1.5173  0.8725
  180TIP3   OH2  496   7.821   2.185   2.259 -0.0541  0.5005 -0.0348
  180TIP3    H1  497   7.828   2.172   2.354 -0.3655  1.5709  0.1392
  180TIP3    H2  498   7.733   2.153   2.237 -0.3107  1.0410  0.1823
  181TIP3   OH2  499   5.037   0.148   0.828  0.3060  0.5954  0.2956
  181TIP3    H1  500   5.104   0.161   0.761  0.6278 -0.5366  0.3807
  181TIP3    H2  501   5.080   0.095   0.895 -0.3500  0.7774  0.8712
  182TIP3   OH2  502   6.134   2.994   6.562 -0.3571 -0.5838  0.1857
  182TIP3    H1  503   6.152   2.989   6.656 -1.0277  0.2957  0.3768
  182TIP3    H2  504   6.118   3.087   6.546  0.3550 -0.6424 -0.9252
  183TIP3   OH2  505   0.156   6.533   3.195 -0.1045  0.3438 -0.1940
  183TIP3    H1  506   0.113   6.614   3.168  0.2489  0.6974  0.2892
  183TIP3    H2  507   0.138   6.471   3.124  0.3917  1.1082 -1.0022
  184TIP3   OH2  508   2.692   5.545   3.939 -0.0667 -0.2783  0.3102
  184TIP3    H1  509   2.638   5.587   3.872  0.6396  0.0324 -0.0684
  184TIP3    H2  510   2.662   5.584   4.021 -0.7998 -0.5191  0.1707
  185TIP3   OH2  511   5.092   3.526   1.234 -0.1672  0.3133  0.2913
  185TIP3    H1  512   5.151   3.479   1.293 -0.6964  0.7408  1.1825
  185TIP3    H2  513   5.117   3.496   1.146  1.6407  0.7838  0.6064
  186TIP3   OH2  514   1.943   4.424   6.421  0.0135 -0.5289  0.0893
  186TIP3    H1  515   2.030   4.427   6.461 -0.7181 -2.0685  1.9732
  186TIP3    H2  516   1.943   4.342   6.371  0.5340  0.8398 -2.2908
  187TIP3   OH2  517   4.549   4.687   6.546 -0.1714  0.4296  0.1897
  187TIP3    H1  518   4.584   4.776   6.557  1.6149 -0.2769  0.4519
  187TIP3    H2  519   4.621   4.629   6.570 -0.4479 -1.1525 -2.4031
  188TIP3   OH2  520   5.629   0.469   5.023  0.1987  0.2552 -0.0043
  188TIP3    H1  521   5.648   0.540   5.084  0.7633  2.0613 -2.1216
  188TIP3    H2  522   5.588   0.513   4.948  2.2547 -1.3378 -2.2009
  189TIP3   OH2  523   1.057   2.133   3.871 -0.2126 -0.4912 -0.0934
  189TIP3    H1  524   0.980   2.076   3.865  0.3319 -1.2901  0.3805
  189TIP3    H2  525   1.062   2.175   3.785 -2.9540  1.9597  0.7890
  190TIP3   OH2  526   4.736   7.379   4.095 -0.5082 -0.1365  0.3754
  190TIP3    H1  527   4.711   7.288   4.079 -0.2085 -0.1666  0.0597
  190TIP3    H2  528   4.809   7.373   4.157  0.3287 -0.1904 -0.5776
  191TIP3   OH2  529   1.975   5.988   1.967 -0.0470 -1.1252 -0.3039
  191TIP3    H1  530   1.880   5.996   1.958  0.0250 -1.1090 -1.1711
  191TIP3    H2  531   1.997   5.912   1.913  0.3183 -1.7880  0.7442
  192TIP3   OH2  532   2.623   2.654   5.439  0.5963 -0.2178 -0.3596
  192TIP3    H1  533   2.586   2.623   5.356  1.4338  0.1413 -0.8841
  192TIP3    H2  534   2.688   2.588   5.462  1.2609  0.3187 -0.6598
  193TIP3   OH2  535   3.597   2.538   2.456  0.0260  0.4318 -0.4556
  193TIP3    H1  536   3.515   2.576   2.487 -0.2742 -0.0073 -0.6989
  193TIP3    H2  537   3.648   2.613   2.425 -0.1276  0.7475  0.0479
  194TIP3   OH2  538   2.979   0.225   5.999 -0.4638  0.1457  0.3215
  194TIP3    H1  539   2.898   0.263   6.033 -1.9721 -1.5895 -1.1166
  194TIP3    H2  540   2.952   0.180   5.918  1.9135 -0.6044 -0.1199
  195TIP3   OH2  541   0.093   6.844   4.566  1.0037 -0.1818  0.3779
  195TIP3    H1  542   0.115   6.751   4.561 -0.5278 -0.5933  0.8330
  195TIP3    H2  543   0.084   6.872   4.475 -0.5835 -1.0260  0.2373
  196TIP3   OH2  544   6.903   6.704   1.208  0.2009  0.1436  0.0371
  196TIP3    H1  545   6.982   6.664   1.246  0.0936 -0.6591 -0.5694
  196TIP3    H2  546   6.870   6.639   1.147 -0.7838  0.5978  0.0732
  197TIP3   OH2  547   5.910   1.859   6.583 -0.0529 -0.2885 -0.2644
  197TIP3    H1  548   5.866   1.774   6.579  0.2402 -0.3896 -2.3365
  197TIP3    H2  549   5.848   1.916   6.627 -0.9666 -1.1796 -0.3689
  198TIP3   OH2  550   2.899   0.188   0.677  0.1023  0.1771 -1.0216
  198TIP3    H1  551   2.866   0.276   0.695 -1.0666 -0.5861  0.8958
  198TIP3    H2  552   2.904   0.183   0.582 -1.1397  1.8382 -1.2226
  199TIP3   OH2  553   3.353   0.441   0.578 -0.5753  0.0056  0.2462
  199TIP3    H1  554   3.430   0.448   0.522  0.1601  1.1629  1.3308
  199TIP3    H2  555   3.381   0.383   0.649 -1.1551 -0.6302 -0.0388
  200TIP3   OH2  556   0.562   4.026   5.052  0.2277  0.0979  1.2430
  200TIP3    H1  557   0.652   4.007   5.027  0.2084 -1.9304  2.4580
  200TIP3    H2  558   0.534   3.948   5.100 -2.0416  0.8505  1.2602
  201TIP3   OH2  559   0.379   4.293   2.401  0.0060  0.4402 -0.1296
  201TIP3    H1  560   0.302   4.253   2.440  0.6064 -0.4630  0.1575
  201TIP3    H2  561   0.351   4.381   2.376 -1.1088  0.1147 -0.0388
  202TIP3   OH2  562   6.385   1.161   1.133 -0.0793 -0.5807  0.6629
  202TIP3    H1  563   6.415   1.119   1.215 -1.0551  0.9445  1.8511
  202TIP3    H2  564   6.366   1.088   1.075 -1.9036 -1.8822  2.7236
  203TIP3   OH2  565   7.325   3.115   1.908  0.3113 -0.1236 -0.3845
  203TIP3    H1  566   7.351   3.191   1.856 -0.3705 -0.1878 -0.8278
  203TIP3    H2  567   7.271   3.153   1.978  2.6592  0.1886  1.3807
  204TIP3   OH2  568   1.677   5.713   0.347 -0.8271 -0.2690  0.0862
  204TIP3    H1  569   1.656   5.621   0.332 -0.2514 -0.6088  1.2511
  204TIP3    H2  570   1.761   5.726   0.302 -1.2042 -0.1505 -0.5877
  205TIP3   OH2  571   1.099   1.401   2.737 -0.1612 -0.1025 -0.4638
  205TIP3    H1  572   1.030   1.463   2.715  0.2991  0.2147 -1.0390
  205TIP3    H2  573   1.116   1.353   2.655  0.1984 -0.2737 -0.2939
  206TIP3   OH2  574   4.966   5.821   2.635 -0.5907 -0.0388  0.4809
  206TIP3    H1  575   5.039   5.823   2.572  0.8189 -0.0172  2.0334
  206TIP3    H2  576   4.914   5.898   2.614  0.8416  0.9572  0.4303
  207TIP3   OH2  577   6.817   6.183   4.572  0.4528 -0.2072  0.1288
  207TIP3    H1  578   6.816   6.103   4.519 -0.6835  0.8744 -1.6169
  207TIP3    H2  579   6.736   6.177   4.624  1.4030 -1.1101  1.5962
  208TIP3   OH2  580   0.323   5.797   4.513  0.5034  0.5511 -0.3624
  208TIP3    H1  581   0.414   5.792   4.482  0.4569 -1.1460 -0.3347
  208TIP3    H2  582   0.316   5.883   4.553  0.7517  2.6530 -4.3799
  209TIP3   OH2  583   6.441   2.976   6.669 -0.2296 -0.3759 -0.3439
  209TIP3    H1  584   6.362   2.925   6.688 -0.6991  1.1712  2.3911
  209TIP3    H2  585   6.507   2.942   6.728  1.1968 -1.5395 -2.4934
  210TIP3   OH2  586   2.947   5.336   4.889  0.0406 -0.5226 -0.0437
  210TIP3    H1  587   2.896   5.383   4.956  0.0361 -1.3699  0.5740
  210TIP3    H2  588   3.033   5.377   4.892 -0.6595  1.1792 -1.3552
  211TIP3   OH2  589   6.129   2.561   0.340  0.4357 -0.0529  0.1815
  211TIP3    H1  590   6.211   2.532   0.300  1.1679 -0.5136  1.9032
  211TIP3    H2  591   6.157   2.620   0.411 -0.7654  0.3357  0.3502
  212TIP3   OH2  592   4.945   1.048   5.299  0.3499  0.0310 -0.3954
  212TIP3    H1  593   4.922   1.064   5.208  0.8884 -0.3732 -0.6068
  212TIP3    H2  594   4.958   1.135   5.336  0.6330  0.1780 -0.8371
  213TIP3   OH2  595   0.676   0.026   4.640 -0.0894  0.2357 -0.1673
  213TIP3    H1  596   0.760  -0.005   4.675  0.2333  1.0429 -0.2158
  213TIP3    H2  597   0.685   0.017   4.545 -0.4406 -0.6216 -0.1303
  214TIP3   OH2  598   5.779   7.520   6.373 -0.0770  0.5513 -0.1606
  214TIP3    H1  599   5.707   7.504   6.312 -0.2057  1.7259 -0.3372
  214TIP3    H2  600   5.857   7.518   6.318 -0.2203  1.9385 -0.4518
  215TIP3   OH2  601   7.202   4.361   4.485  0.2225 -0.1395 -0.2940
  215TIP3    H1  602   7.138   4.393   4.549 -0.5282  0.1145 -1.1518
  215TIP3    H2  603   7.277   4.335   4.538 -0.0652  0.8236  0.6366
  216TIP3   OH2  604   2.768   6.106   5.818  0.4374  0.0382  0.0387
  216TIP3    H1  605   2.863   6.114   5.823  0.7015 -0.3557 -2.5625
  216TIP3    H2  606   2.751   6.013   5.828  0.5225 -0.1040 -0.9595
  217TIP3   OH2  607   5.514   5.230   2.770 -0.1527 -0.3050  0.0217
  217TIP3    H1  608   5.435   5.190   2.807 -0.8344  0.7284 -0.2896
  217TIP3    H2  609   5.492   5.323   2.760  1.3722  0.1657  0.6837
  218TIP3   OH2  610   2.885   3.569   0.299  0.0317  0.5970  0.2004
  218TIP3    H1  611   2.809   3.601   0.347 -0.6952 -0.6951 -0.0356
  218TIP3    H2  612   2.960   3.614   0.338 -0.7649  1.1896  1.0586
  219TIP3   OH2  613   0.664   5.729   4.027 -0.1881 -0.1137  0.6771
  219TIP3    H1  614   0.636   5.647   4.069  0.3742 -0.3950  0.5085
  219TIP3    H2  615   0.746   5.707   3.983 -0.1092  0.5051  0.5027
  220TIP3   OH2  616   1.118   6.750   0.668  0.3064  0.2181  0.1360
  220TIP3    H1  617   1.126   6.733   0.574 -1.7413  1.8429 -0.3977
  220TIP3    H2  618   1.147   6.841   0.679  2.4778 -0.5423  1.4716
  221TIP3   OH2  619   7.146   3.591   0.028  0.2018  0.5347 -0.0145
  221TIP3    H1  620   7.069   3.538   0.048  0.7666  0.0674  1.0487
  221TIP3    H2  621   7.114   3.661  -0.029 -0.9949  0.3332  0.3889
  222TIP3   OH2  622   7.607   0.732   0.917 -0.1726  0.4411  0.2328
  222TIP3    H1  623   7.587   0.661   0.979 -1.2695  0.8171  0.3365
  222TIP3    H2  624   7.675   0.783   0.961 -0.5294  0.3760  0.8821
  223TIP3   OH2  625   2.756   5.726   1.742  0.1576 -0.1371  0.2439
  223TIP3    H1  626   2.676   5.760   1.701 -0.0580 -0.2063  0.6031
  223TIP3    H2  627   2.826   5.753   1.683 -0.2240 -0.9808 -0.6281
  224TIP3   OH2  628   4.103   2.535   1.195  0.1895  0.0741  0.4212
  224TIP3    H1  629   4.127   2.450   1.234 -0.7006  0.2897  1.4860
  224TIP3    H2  630   4.087   2.515   1.103  1.0225 -0.7146  0.4302
  225TIP3   OH2  631   5.708   3.586   2.965 -0.1851 -0.5730 -0.2091
  225TIP3    H1  632   5.743   3.570   3.053  0.6180 -1.7957 -0.7235
  225TIP3    H2  633   5.770   3.646   2.925 -1.7063  1.7689  0.7592
  226TIP3   OH2  634   2.438   1.400   3.112 -0.5018 -0.1550 -0.5372
  226TIP3    H1  635   2.500   1.330   3.090  0.9999  1.2354 -0.8950
  226TIP3    H2  636   2.404   1.429   3.027 -2.0752 -1.2404 -0.3156
  227TIP3   OH2  637   2.685   1.853   2.952  0.6231  0.5016  0.2794
  227TIP3    H1  638   2.654   1.848   2.861  0.7863 -0.5938  0.2593
  227TIP3    H2  639   2.744   1.928   2.953 -0.4212  1.3485 -0.1850
  228TIP3   OH2  640   6.972   5.482   1.715  0.3348 -0.3038 -0.0915
  228TIP3    H1  641   7.005   5.413   1.773  0.6426  1.1190  1.4943
  228TIP3    H2  642   7.040   5.549   1.715 -0.4021  0.4800 -0.7714
  229TIP3   OH2  643   8.219   0.772   5.130  0.2886 -0.5311  0.1172
  229TIP3    H1  644   8.290   0.831   5.157 -0.2296  0.4488 -0.5901
  229TIP3    H2  645   8.163   0.826   5.074 -2.2909 -0.5627  2.4631
  230TIP3   OH2  646   4.343   0.722   5.307  0.3647  0.6685 -0.6077
  230TIP3    H1  647   4.267   0.712   5.249 -0.3854  0.9330  0.3002
  230TIP3    H2  648   4.386   0.636   5.305 -0.9020 -0.0149  0.1298
  231TIP3   OH2  649   6.173   0.514   2.143 -0.0756 -0.0472 -0.5343
  231TIP3    H1  650   6.204   0.529   2.053 -0.2790 -1.3949 -0.8571
  231TIP3    H2  651   6.132   0.428   2.140 -1.3188  0.4748  0.5559
  232TIP3   OH2  652   4.454   4.647   6.005  0.2407  0.2993  0.2067
  232TIP3    H1  653   4.431   4.558   5.980  2.2755 -0.0829 -0.4722
  232TIP3    H2  654   4.466   4.643   6.100  0.0226 -0.0690  0.2182
  233TIP3   OH2  655   6.873   5.754   2.169 -0.0269  0.4503 -0.0578
  233TIP3    H1  656   6.780   5.740   2.187 -0.2791  1.9005 -0.0304
  233TIP3    H2  657   6.919   5.692   2.226 -0.9474  1.1972  1.5649
  234TIP3   OH2  658   3.681   6.328   1.539 -0.6931  0.3969  0.8878
  234TIP3    H1  659   3.765   6.285   1.556 -0.3898  0.8327  0.5010
  234TIP3    H2  660   3.678   6.401   1.601  0.9324  2.6988 -1.5344
  235TIP3   OH2  661   5.879   4.900   1.046  0.4302 -0.4094  0.6296
  235TIP3    H1  662   5.906   4.868   1.132  1.0509  0.2403  0.6829
  235TIP3    H2  663   5.929   4.846   0.984  0.7718 -0.1795  0.7007
  236TIP3   OH2  664   0.236   3.139   1.850  0.2938 -0.0260  0.5733
  236TIP3    H1  665   0.199   3.149   1.762  0.4517 -1.7286  0.2732
  236TIP3    H2  666   0.227   3.226   1.890  0.2459  0.7993 -1.1228
  237TIP3   OH2  667   4.228   1.995   1.840  0.0470  0.4870  0.2677
  237TIP3    H1  668   4.259   2.052   1.770  0.0904 -2.7601 -2.6236
  237TIP3    H2  669   4.286   2.013   1.914  0.8085  3.1990 -0.8959
  238TIP3   OH2  670   5.507   3.816   5.706  0.5469  0.2488  0.2702
  238TIP3    H1  671   5.498   3.812   5.611 -0.6300 -1.0019  0.4035
  238TIP3    H2  672   5.582   3.760   5.725 -0.6075 -1.3955  0.2100
  239TIP3   OH2  673   7.019   1.050   6.771 -0.0638 -0.2877  0.5870
  239TIP3    H1  674   6.948   1.090   6.720 -1.3846 -1.3305  1.5430
  239TIP3    H2  675   7.067   1.124   6.809 -0.9399  0.4285  0.3123
  240TIP3   OH2  676   0.972   4.015   1.568  0.1505 -0.4519 -0.2246
  240TIP3    H1  677   0.950   3.925   1.544  1.4234 -0.4645 -1.5032
  240TIP3    H2  678   0.992   4.011   1.661  3.7253 -2.3029 -0.8964
  241TIP3   OH2  679   0.609   3.799   0.928 -0.1498 -0.8736  0.3242
  241TIP3    H1  680   0.538   3.774   0.868 -0.6397 -1.6762  1.1948
  241TIP3    H2  681   0.645   3.879   0.891 -0.7851 -1.0630 -0.7488
  242TIP3   OH2  682   7.053   3.536   6.182 -0.5120 -0.3931  0.0296
  242TIP3    H1  683   7.081   3.627   6.178 -2.2980  0.2511  1.0705
  242TIP3    H2  684   7.044   3.510   6.090  0.9516  0.1303 -0.2888
  243TIP3   OH2  685   6.244   1.035   6.414  0.1234  0.5606  0.0305
  243TIP3    H1  686   6.168   0.979   6.421 -1.3028  2.2783 -0.8873
  243TIP3    H2  687   6.224   1.095   6.342  2.4360  0.9494 -0.3924
  244TIP3   OH2  688   3.980   6.219   0.727 -0.6505  0.6073 -0.4589
  244TIP3    H1  689   3.978   6.130   0.692  0.0702  0.0457  0.8408
  244TIP3    H2  690   3.894   6.231   0.767 -1.4249  1.2022 -2.2312
  245TIP3   OH2  691   6.914   1.361   2.575  0.0158 -0.0630  0.0553
  245TIP3    H1  692   6.868   1.296   2.521  1.2011 -0.7869 -0.1305
  245TIP3    H2  693   7.001   1.323   2.588 -0.4171 -0.2479  3.0699
  246TIP3   OH2  694   2.696   7.525   6.795 -0.0162 -0.1004  0.2438
  246TIP3    H1  695   2.699   7.613   6.758  0.5979 -0.1040  0.2683
  246TIP3    H2  696   2.773   7.481   6.758 -0.6456 -0.8178 -0.2377
  247TIP3   OH2  697   7.086   2.896   5.597 -0.0368  0.1319  0.0494
  247TIP3    H1  698   7.103   2.954   5.523 -0.2856  0.6495  0.3929
  247TIP3    H2  699   7.072   2.955   5.671  0.6286 -0.3928  0.6012
  248TIP3   OH2  700   4.486   7.671   6.313  0.0110 -0.7257 -0.3786
  248TIP3    H1  701   4.490   7.674   6.217  0.0265  0.5837 -0.3603
  248TIP3    H2  702   4.497   7.762   6.340  1.8789 -1.2820  0.9621
  249TIP3   OH2  703   1.509   6.312   2.917 -0.1285 -0.1719  0.0434
  249TIP3    H1  704   1.599   6.314   2.949 -0.2600  0.8503  0.4211
  249TIP3    H2  705   1.516   6.323   2.823  0.0924  2.8253  0.3041
  250TIP3   OH2  706   5.737   7.522   0.106  0.0719  0.5856 -0.0725
  250TIP3    H1  707   5.768   7.469   0.180 -0.5221  0.6101  0.2033
  250TIP3    H2  708   5.673   7.581   0.145 -0.0301  0.8002 -0.5623
  251TIP3   OH2  709   2.862   2.611   4.213  0.0411 -0.4516 -0.3443
  251TIP3    H1  710   2.902   2.536   4.171 -1.0041 -0.4269 -1.4484
  251TIP3    H2  711   2.908   2.687   4.176  0.8057 -0.5224  0.4482
  252TIP3   OH2  712   1.015   1.122   1.317 -0.0514  0.1774  0.5878
  252TIP3    H1  713   1.022   1.105   1.411  0.1747  0.0101  0.5439
  252TIP3    H2  714   1.102   1.100   1.283 -0.1307  0.2446  0.3407
  253TIP3   OH2  715   1.510   0.468   6.027  0.8774  0.2008  0.2438
  253TIP3    H1  716   1.466   0.553   6.026  0.6823  0.0984  0.0321
  253TIP3    H2  717   1.479   0.426   6.107  0.4670  0.0677  0.0187
  254TIP3   OH2  718   7.814   4.248   2.576  0.2879  0.2121  0.2237
  254TIP3    H1  719   7.815   4.320   2.513 -0.1333  1.0955  1.1908
  254TIP3    H2  720   7.744   4.271   2.637 -0.3507 -1.4088  0.1280
  255TIP3   OH2  721   0.844   1.388   2.019 -0.3448  0.0378  0.4142
  255TIP3    H1  722   0.897   1.444   2.076 -2.2896  2.6892 -0.1786
  255TIP3    H2  723   0.883   1.396   1.933  1.0875 -1.9623  0.7983
  256TIP3   OH2  724   7.343   0.388   0.131  0.5272  0.1254  0.3755
  256TIP3    H1  725   7.376   0.316   0.078  0.0964 -0.5204  0.9603
  256TIP3    H2  726   7.249   0.390   0.112  0.3900 -0.0348  1.0049
  257TIP3   OH2  727   7.618   3.388   4.920 -0.2460 -0.0651  0.2155
  257TIP3    H1  728   7.680   3.370   4.990  0.0349  0.6062  0.1498
  257TIP3    H2  729   7.673   3.409   4.844 -0.5466 -0.6283 -0.1676
  258TIP3   OH2  730   6.187   4.124   3.839 -0.3666  0.9544 -0.0997
  258TIP3    H1  731   6.239   4.089   3.767 -2.2999  1.7786 -2.0159
  258TIP3    H2  732   6.112   4.066   3.845 -1.0551  1.8426  0.1371
  259TIP3   OH2  733   1.369   0.752   1.407  0.1556 -0.4578 -0.0644
  259TIP3    H1  734   1.424   0.689   1.454  0.5811 -0.8461 -1.0468
  259TIP3    H2  735   1.398   0.838   1.440 -0.1527 -0.7483  0.9899
  260TIP3   OH2  736   0.905   5.101   3.194 -0.1395 -0.1990  0.0432
  260TIP3    H1  737   0.961   5.074   3.266 -1.3116 -2.1991  0.2595
  260TIP3    H2  738   0.851   5.172   3.230 -1.7113 -2.1033  1.6678
  261TIP3   OH2  739   7.743   3.803   2.279  0.3920 -0.0200  0.6157
  261TIP3    H1  740   7.787   3.876   2.324 -0.3085 -0.2608  1.7360
  261TIP3    H2  741   7.700   3.844   2.204 -0.3967  0.8204  1.5011
  262TIP3   OH2  742   7.701   1.198   5.921 -0.3270 -0.3728  0.1098
  262TIP3    H1  743   7.675   1.280   5.879  0.6112 -0.3057 -0.3502
  262TIP3    H2  744   7.796   1.202   5.926 -0.3628 -0.8262  1.3547
  263TIP3   OH2  745   3.037   2.867   5.010 -0.4996  0.5520  0.6999
  263TIP3    H1  746   3.063   2.814   4.935  2.0359 -0.2130  2.0212
  263TIP3    H2  747   2.941   2.862   5.011 -0.4528 -1.9140 -0.6606
  264TIP3   OH2  748   2.037   6.034   6.561 -0.4068  0.7544 -0.2134
  264TIP3    H1  749   2.022   6.127   6.581 -0.1135  0.8699 -0.5295
  264TIP3    H2  750   2.021   6.027   6.467  0.0024  0.5713 -0.2690
  265TIP3   OH2  751   8.073   2.003   3.171  0.3385 -0.4003 -0.4285
  265TIP3    H1  752   8.166   2.000   3.149  0.5834 -0.4189  0.5483
  265TIP3    H2  753   8.060   1.929   3.231  0.1724  0.8347  1.1291
  266TIP3   OH2  754   0.952   5.034   5.083  0.5819 -0.1120 -0.0936
  266TIP3    H1  755   0.866   5.059   5.118  0.2669 -3.0095  1.4149
  266TIP3    H2  756   1.013   5.095   5.125 -0.6290  2.0491 -1.2412
  267TIP3   OH2  757   5.455   4.858   2.396  0.1521  0.0563 -0.1469
  267TIP3    H1  758   5.417   4.797   2.333  0.1177 -0.5136  0.4104
  267TIP3    H2  759   5.380   4.896   2.441  0.1939 -0.0213 -0.0097
  268TIP3   OH2  760   4.152   2.676   2.857 -0.0222  0.2842 -0.4240
  268TIP3    H1  761   4.150   2.738   2.785  0.4645  1.0238  0.1831
  268TIP3    H2  762   4.078   2.617   2.840 -0.7960  1.3191 -0.7491
  269TIP3   OH2  763   2.257   7.383   6.236 -0.0263 -0.2516  0.1651
  269TIP3    H1  764   2.238   7.410   6.325 -2.4128 -0.0787 -0.3349
  269TIP3    H2  765   2.254   7.288   6.237  0.4958 -0.2673  0.3665
  270TIP3   OH2  766   0.321   4.491   3.908  0.1103  0.1269  0.4010
  270TIP3    H1  767   0.296   4.459   3.821 -1.3776  1.4659  0.2725
  270TIP3    H2  768   0.365   4.574   3.891  0.1543  0.2074  0.8981
  271TIP3   OH2  769   2.408   6.940   2.209  0.1333 -0.0527  0.4257
  271TIP3    H1  770   2.464   6.864   2.194  1.3913  1.0883 -0.9951
  271TIP3    H2  771   2.458   7.014   2.176 -0.7591  1.5278  2.3828
  272TIP3   OH2  772   4.211   4.469   3.255  0.7593 -0.2494  0.0092
  272TIP3    H1  773   4.135   4.521   3.281 -0.3214 -1.9208  0.3709
  272TIP3    H2  774   4.282   4.533   3.246 -0.6851  1.3911 -0.4398
  273TIP3   OH2  775   6.398   0.513   6.606  0.1256  0.0284  0.6804
  273TIP3    H1  776   6.349   0.481   6.531 -2.0276  0.4039  1.8460
  273TIP3    H2  777   6.429   0.600   6.579  1.0917 -0.6319 -0.4344
  274TIP3   OH2  778   5.401   2.783   1.075 -0.3728  0.1385  0.1110
  274TIP3    H1  779   5.491   2.777   1.107 -0.2902  0.2968 -0.0887
  274TIP3    H2  780   5.407   2.837   0.996 -0.7414  0.7553  0.4970
  275TIP3   OH2  781   0.564   3.023   2.799  0.5279  0.7104 -0.7352
  275TIP3    H1  782   0.579   2.937   2.761  0.0196  0.5592 -0.6036
  275TIP3    H2  783   0.534   3.077   2.727  0.4250  0.6608 -0.7295
  276TIP3   OH2  784   4.824   0.379   3.562 -0.0506  0.1703  0.0208
  276TIP3    H1  785   4.776   0.299   3.580  0.7563 -0.1155  1.0231
  276TIP3    H2  786   4.797   0.440   3.631  0.3399  0.3048  0.0585
  277TIP3   OH2  787   4.576   7.160   6.267  0.4294  0.4712 -0.6706
  277TIP3    H1  788   4.537   7.225   6.208 -2.2923 -0.3306  0.0799
  277TIP3    H2  789   4.512   7.151   6.338  0.8794 -2.6335 -0.4982
  278TIP3   OH2  790   3.095   2.670   4.450 -0.2398  0.6253 -0.1618
  278TIP3    H1  791   3.030   2.721   4.402 -0.7774 -0.1946 -0.3331
  278TIP3    H2  792   3.071   2.579   4.432  2.1184  0.2483 -1.8579
  279TIP3   OH2  793   3.652   5.898   3.283  0.5817 -0.2527  0.5197
  279TIP3    H1  794   3.725   5.927   3.336  2.0944 -0.1659 -1.5060
  279TIP3    H2  795   3.638   5.968   3.220 -1.1249 -0.3681  0.7221
  280TIP3   OH2  796   3.321   0.637   3.801  0.1072 -0.1958  0.3151
  280TIP3    H1  797   3.389   0.583   3.842 -1.1614 -1.8196  0.3920
  280TIP3    H2  798   3.365   0.678   3.727  1.8878  1.1029  1.9727
  281TIP3   OH2  799   0.322   0.730   5.796 -0.0135  0.4105 -0.8398
  281TIP3    H1  800   0.363   0.646   5.780 -0.7407 -0.3243  0.8295
  281TIP3    H2  801   0.379   0.772   5.861 -0.3112  0.6468 -0.7285
  282TIP3   OH2  802   2.954   1.328   2.289 -0.8668  0.6301  0.2198
  282TIP3    H1  803   3.041   1.363   2.307  0.4314 -1.9318 -0.6006
  282TIP3    H2  804   2.904   1.403   2.258  1.2330  2.0753  0.1228
  283TIP3   OH2  805   2.977   6.920   5.348  0.7580 -0.4248 -0.2677
  283TIP3    H1  806   3.043   6.961   5.292 -0.0847  0.3966 -0.6664
  283TIP3    H2  807   2.894   6.934   5.303  0.0760  0.1156  1.1091
  284TIP3   OH2  808   2.478   4.578   5.902 -0.1605 -0.0181 -0.4573
  284TIP3    H1  809   2.527   4.502   5.934 -0.6034 -0.4587 -0.7975
  284TIP3    H2  810   2.503   4.586   5.810  1.2286  1.3416  0.0044
  285TIP3   OH2  811   4.479   7.253   3.044  0.3098  0.1131  0.2361
  285TIP3    H1  812   4.472   7.344   3.072  1.9148  0.8488 -1.5106
  285TIP3    H2  813   4.415   7.245   2.973 -0.5464 -0.4512  1.0422
  286TIP3   OH2  814   0.145   2.329   1.034 -0.5545  0.4332 -0.0262
  286TIP3    H1  815   0.212   2.360   0.973 -0.9725  0.1383 -0.6450
  286TIP3    H2  816   0.163   2.236   1.045  0.2475  0.7069  1.2562
  287TIP3   OH2  817   5.554   2.252   2.357  0.3659  0.0039 -0.4628
  287TIP3    H1  818   5.633   2.227   2.404 -0.9586  0.2024  2.0482
  287TIP3    H2  819   5.548   2.190   2.284  1.2629 -1.9554  1.0612
  288TIP3   OH2  820   1.033   2.594   0.777 -0.0211  0.6592 -0.2787
  288TIP3    H1  821   0.964   2.657   0.755 -2.0358 -0.3183  2.5912
  288TIP3    H2  822   0.990   2.509   0.771  0.8439  0.0117  1.6533
  289TIP3   OH2  823   6.636   0.970   6.638  0.2368 -0.4634  0.5030
  289TIP3    H1  824   6.634   1.011   6.552  2.0515 -0.0380  0.6161
  289TIP3    H2  825   6.612   1.039   6.699 -0.4012 -0.5870  0.3912
  290TIP3   OH2  826   6.555   1.771   6.034 -0.1550  0.3960  0.0360
  290TIP3    H1  827   6.614   1.779   5.959 -0.8372  0.1002 -0.5469
  290TIP3    H2  828   6.495   1.846   6.026 -0.2181  0.3760  0.2993
  291TIP3   OH2  829   6.170   5.628   6.559 -0.0820  0.0481  0.1997
  291TIP3    H1  830   6.153   5.716   6.525  1.8119  0.3893 -0.0046
  291TIP3    H2  831   6.155   5.635   6.653  0.9517  0.8697  0.3225
  292TIP3   OH2  832   6.680   6.117   5.221 -0.0680 -0.0796  1.1447
  292TIP3    H1  833   6.648   6.147   5.136  1.6595  1.9157  1.1193
  292TIP3    H2  834   6.689   6.022   5.211 -1.6948 -0.1321 -0.2406
  293TIP3   OH2  835   2.510   1.134   2.813  0.4166  0.6752 -0.0600
  293TIP3    H1  836   2.552   1.126   2.727 -1.7044 -1.1265 -1.0257
  293TIP3    H2  837   2.417   1.144   2.793 -0.7066 -3.4598  1.9194
  294TIP3   OH2  838   0.294   4.149   0.177  0.6883 -0.1281 -0.0768
  294TIP3    H1  839   0.229   4.090   0.214 -0.0624  2.1667  2.7255
  294TIP3    H2  840   0.352   4.093   0.126 -0.3320 -3.1361  1.7925
  295TIP3   OH2  841   0.376   0.335   2.642  0.0851 -1.1104  1.1296
  295TIP3    H1  842   0.428   0.264   2.681  0.6163 -0.2964  1.9699
  295TIP3    H2  843   0.424   0.415   2.666 -1.4604 -0.3356  1.7885
  296TIP3   OH2  844   1.235   4.594   4.442 -0.3501  0.3511  0.6130
  296TIP3    H1  845   1.317   4.571   4.398 -0.8167  1.6593 -1.0812
  296TIP3    H2  846   1.216   4.520   4.499  0.2263 -1.5723 -1.5579
  297TIP3   OH2  847   1.618   7.480   1.839  0.4101  0.1559  0.3187
  297TIP3    H1  848   1.680   7.546   1.807  2.4214 -1.9614 -0.4758
  297TIP3    H2  849   1.539   7.494   1.788  1.2801  1.0859 -0.8322
  298TIP3   OH2  850   5.004   7.142   6.723  0.4614  0.1409  0.4274
  298TIP3    H1  851   4.913   7.153   6.696  0.2922 -0.1306  0.8665
  298TIP3    H2  852   5.037   7.231   6.732  0.1157  0.2527  0.6527
  299TIP3   OH2  853   1.392   1.812   6.695 -0.1574  0.0095 -0.5384
  299TIP3    H1  854   1.474   1.778   6.730 -1.3822 -2.4567  0.1504
  299TIP3    H2  855   1.378   1.765   6.613 -1.0105  0.1853 -0.5092
  300TIP3   OH2  856   5.530   2.218   1.641 -0.1414 -0.4071 -0.1020
  300TIP3    H1  857   5.569   2.176   1.718  0.9023  0.7302  0.0069
  300TIP3    H2  858   5.454   2.264   1.675 -0.4764 -1.0238  0.0082
  301TIP3   OH2  859   0.857   3.732   4.582 -0.2563 -1.1922  0.2198
  301TIP3    H1  860   0.830   3.805   4.637  0.8030 -2.4241  2.4800
  301TIP3    H2  861   0.778   3.680   4.570 -1.0257  0.2474 -1.4274
  302TIP3   OH2  862   1.029   0.371   2.050 -0.1675  0.3840 -0.5256
  302TIP3    H1  863   1.047   0.391   1.958 -1.5930 -1.5901 -1.3180
  302TIP3    H2  864   0.935   0.384   2.060  0.0229  0.9328  0.7712
  303TIP3   OH2  865   0.590   4.000   2.549  0.2921  0.4215  0.3442
  303TIP3    H1  866   0.528   4.051   2.600 -0.8728  0.5326 -1.1021
  303TIP3    H2  867   0.542   3.921   2.524  1.1349 -0.0602  0.1841
  304TIP3   OH2  868   6.246   2.633   3.379 -0.7283  0.0732  0.2707
  304TIP3    H1  869   6.199   2.619   3.297 -0.8123 -1.6882  0.5687
  304TIP3    H2  870   6.259   2.545   3.414  1.3430  0.6082  1.0243
  305TIP3   OH2  871   4.222   3.059   2.476 -0.7805 -0.4736  0.3295
  305TIP3    H1  872   4.276   3.040   2.399 -0.9388  1.7000 -0.3699
  305TIP3    H2  873   4.132   3.061   2.443 -0.7514  1.7169  0.2361
  306TIP3   OH2  874   0.643   5.619   5.521 -0.3130  0.6420  0.0184
  306TIP3    H1  875   0.609   5.663   5.443 -0.5106  0.2793 -0.1020
  306TIP3    H2  876   0.678   5.690   5.574 -0.5585  0.9404 -0.2081
  307TIP3   OH2  877   4.837   0.561   6.413  0.0007  0.2268 -0.1377
  307TIP3    H1  878   4.922   0.524   6.391  0.9546  1.8678  0.5721
  307TIP3    H2  879   4.782   0.543   6.337  0.9927 -0.8059 -0.6402
  308TIP3   OH2  880   1.257   0.748   2.316 -0.1255  0.5134  0.1478
  308TIP3    H1  881   1.332   0.806   2.304  1.7190 -1.5434  1.1402
  308TIP3    H2  882   1.230   0.725   2.227  1.0423  0.5411 -0.2355
  309TIP3   OH2  883   4.178   6.434   0.694  0.0460  0.0685 -0.1779
  309TIP3    H1  884   4.090   6.449   0.728  0.1922 -0.1798  0.3125
  309TIP3    H2  885   4.186   6.339   0.687  1.0642 -0.0767  1.9614
  310TIP3   OH2  886   3.170   3.851   0.646 -0.1490 -0.5025  0.2541
  310TIP3    H1  887   3.095   3.907   0.627 -1.3867 -2.2114 -0.2093
  310TIP3    H2  888   3.166   3.837   0.740  0.1778  0.1881  0.3738
  311TIP3   OH2  889   2.328   0.289   3.817  0.1196 -0.3772 -0.0538
  311TIP3    H1  890   2.394   0.342   3.772 -0.1729  0.6126  0.6529
  311TIP3    H2  891   2.303   0.222   3.753  0.3673  0.4433 -1.0286
  312TIP3   OH2  892   3.394   2.539   6.288 -0.3306 -0.0298  0.2662
  312TIP3    H1  893   3.435   2.458   6.317  1.2965  0.9851  0.9108
  312TIP3    H2  894   3.323   2.554   6.350 -1.2391 -1.3969 -0.3928
  313TIP3   OH2  895   7.096   3.065   3.152  0.0033 -0.0949 -0.0489
  313TIP3    H1  896   7.122   3.008   3.225  1.0113  0.5855  0.1408
  313TIP3    H2  897   7.008   3.096   3.177 -0.3700 -1.1940  0.0538
  314TIP3   OH2  898   4.422   5.019   1.417 -0.2752 -0.8944  0.1768
  314TIP3    H1  899   4.499   4.981   1.374 -0.7569 -0.4888 -1.0703
  314TIP3    H2  900   4.359   4.947   1.419 -0.2691 -0.8999  0.1887
  315TIP3   OH2  901   4.807   3.177   4.679 -0.4854  0.2282 -0.3489
  315TIP3    H1  902   4.733   3.162   4.620  0.5942  0.2805 -1.7527
  315TIP3    H2  903   4.875   3.215   4.623  0.4034  0.7539  1.0419
  316TIP3   OH2  904   6.704   1.921   2.070  0.0566 -0.6796 -0.2627
  316TIP3    H1  905   6.623   1.881   2.040 -0.7826  0.6145  0.1905
  316TIP3    H2  906   6.724   1.875   2.152 -0.3144 -0.8754 -0.2780
  317TIP3   OH2  907   5.199   7.389   2.094 -0.7573 -0.2661 -0.0125
  317TIP3    H1  908   5.270   7.371   2.156 -1.4859  1.1965  1.3063
  317TIP3    H2  909   5.130   7.327   2.117 -1.3697  0.8464  1.2809
  318TIP3   OH2  910   3.558   4.524   2.624 -0.0659  0.1101 -0.1043
  318TIP3    H1  911   3.495   4.451   2.623 -0.6961  0.6144 -2.2375
  318TIP3    H2  912   3.503   4.602   2.619  0.6863  0.5984 -0.9063
  319TIP3   OH2  913   8.012   6.948   6.499 -0.1466 -0.3772 -0.4398
  319TIP3    H1  914   7.995   7.021   6.440  0.0348  0.6941  0.7704
  319TIP3    H2  915   7.928   6.902   6.505 -0.5230  0.2955 -0.4834
  320TIP3   OH2  916   2.152   4.098   3.353  0.2492  0.3374 -0.3895
  320TIP3    H1  917   2.060   4.120   3.368  0.3042  1.1240 -1.1102
  320TIP3    H2  918   2.184   4.166   3.294  1.7276  0.9965  1.0881
  321TIP3   OH2  919   2.032   0.402   5.996  0.5959 -0.6459  0.4041
  321TIP3    H1  920   1.944   0.436   6.010  0.9508 -0.5059  2.6691
  321TIP3    H2  921   2.089   0.467   6.036  1.7016 -1.1269 -0.3341
  322TIP3   OH2  922   5.902   5.582   4.266  0.3889 -0.0364  0.0330
  322TIP3    H1  923   5.834   5.645   4.242  1.4339  0.4488 -1.9029
  322TIP3    H2  924   5.971   5.595   4.200  2.2234 -0.7383  1.7093
  323TIP3   OH2  925   0.365   3.163   3.007 -0.6349 -0.3243 -0.1436
  323TIP3    H1  926   0.436   3.107   2.976  0.3426  0.4165  0.6742
  323TIP3    H2  927   0.287   3.107   3.004  0.1552 -1.4557 -0.1519
  324TIP3   OH2  928   6.417   0.622   2.607 -0.3407 -0.2980 -0.0203
  324TIP3    H1  929   6.332   0.590   2.638 -1.1313  0.7755 -0.9800
  324TIP3    H2  930   6.412   0.613   2.512  0.2971  0.5356 -0.1417
  325TIP3   OH2  931   3.179   0.879   3.756  0.5121 -0.0948 -0.7135
  325TIP3    H1  932   3.216   0.791   3.761  1.2645  0.2928  2.2434
  325TIP3    H2  933   3.236   0.933   3.811 -0.7664  1.9306 -1.2570
  326TIP3   OH2  934   5.779   6.049   5.550 -0.4421  0.2983 -0.1794
  326TIP3    H1  935   5.828   5.968   5.563 -0.0171  0.2225 -2.0057
  326TIP3    H2  936   5.723   6.031   5.475  0.0897  1.8626 -1.0032
  327TIP3   OH2  937   3.306   0.156   4.228 -0.1623 -0.4596  0.6644
  327TIP3    H1  938   3.341   0.233   4.273  3.6428 -0.8309 -1.2642
  327TIP3    H2  939   3.323   0.083   4.288 -0.2279 -0.2809  0.9003
  328TIP3   OH2  940   2.201   1.137   1.108  0.2390 -0.1615 -0.1295
  328TIP3    H1  941   2.268   1.150   1.041 -1.5967 -0.6596 -2.2135
  328TIP3    H2  942   2.234   1.065   1.162  0.9994 -0.9896 -1.6449
  329TIP3   OH2  943   5.284   5.677   0.980 -0.4256  0.5611  0.0723
  329TIP3    H1  944   5.241   5.753   0.941 -1.4445  1.2093  2.2835
  329TIP3    H2  945   5.219   5.606   0.972  0.5725 -0.2139 -2.1089
  330TIP3   OH2  946   7.148   4.234   5.866 -0.2828  0.3163  0.5866
  330TIP3    H1  947   7.147   4.274   5.952 -0.1253 -0.0550  0.7656
  330TIP3    H2  948   7.128   4.305   5.805 -0.4959  0.5543  0.9379
  331TIP3   OH2  949   5.614   6.518   1.756  0.1189  0.2882  0.1488
  331TIP3    H1  950   5.527   6.478   1.764  0.2571 -0.3634 -1.3629
  331TIP3    H2  951   5.666   6.476   1.825 -0.9420  1.3197  1.6661
  332TIP3   OH2  952   7.042   0.376   4.385 -0.5867  0.3056 -0.1838
  332TIP3    H1  953   7.006   0.397   4.472 -1.7438  1.7152 -0.9669
  332TIP3    H2  954   7.080   0.289   4.396 -0.6248  0.4788  1.7635
  333TIP3   OH2  955   2.878   1.773   2.645 -0.2490 -0.0642  0.0937
  333TIP3    H1  956   2.888   1.738   2.556  2.2793  0.6839  0.0179
  333TIP3    H2  957   2.928   1.713   2.700  1.0507  1.3277  0.4857
  334TIP3   OH2  958   7.004   0.801   1.826 -0.1148 -0.6400 -0.1880
  334TIP3    H1  959   6.963   0.769   1.745 -0.5212  0.3144 -0.3766
  334TIP3    H2  960   7.081   0.849   1.795 -1.1871  1.1727 -0.1620
  335TIP3   OH2  961   7.346   5.325   0.520 -0.2247  0.4106 -0.1913
  335TIP3    H1  962   7.354   5.245   0.467 -0.2245  1.3535 -1.6657
  335TIP3    H2  963   7.422   5.378   0.495  0.0091  0.7055  1.0922
  336TIP3   OH2  964   6.733   1.796   2.768  0.2841 -0.0494 -0.3984
  336TIP3    H1  965   6.778   1.711   2.770 -1.3709 -1.0063 -1.2062
  336TIP3    H2  966   6.640   1.773   2.760 -0.5287  1.7830  2.2838
  337TIP3   OH2  967   4.861   2.086   6.169  0.1259 -0.3648  0.0974
  337TIP3    H1  968   4.906   2.080   6.254  0.3434  1.9956  0.2236
  337TIP3    H2  969   4.912   2.030   6.111  0.2095 -1.7168  1.3953
  338TIP3   OH2  970   1.130   1.884   4.171  0.1352 -0.6314  0.2543
  338TIP3    H1  971   1.090   1.970   4.160 -0.0161 -0.6743  0.4532
  338TIP3    H2  972   1.068   1.835   4.225  0.5419 -0.6336  0.7364
  339TIP3   OH2  973   6.406   5.625   1.312  0.0150 -0.7650 -0.2083
  339TIP3    H1  974   6.336   5.560   1.318 -1.9161  1.2201  0.0018
  339TIP3    H2  975   6.473   5.595   1.373 -2.0464 -1.1391  1.9835
  340TIP3   OH2  976   7.396   2.311   2.817 -0.4597 -0.2919 -0.3215
  340TIP3    H1  977   7.382   2.217   2.828 -0.2195 -0.2077  0.8829
  340TIP3    H2  978   7.407   2.344   2.907  2.1058  0.4686 -0.8333
  341TIP3   OH2  979   5.267   3.019   3.933 -0.3042  0.5378 -0.7562
  341TIP3    H1  980   5.290   2.927   3.947 -0.6545  0.3323 -1.5101
  341TIP3    H2  981   5.176   3.018   3.905  0.0538  1.0005 -2.0140
  342TIP3   OH2  982   5.314   1.789   4.705  0.7632  0.3281 -0.4172
  342TIP3    H1  983   5.306   1.755   4.617  3.6589 -2.2260  0.1356
  342TIP3    H2  984   5.409   1.792   4.721  0.3509  0.9177  2.5062
  343TIP3   OH2  985   3.400   3.528   6.749 -0.1766  0.0428  0.5434
  343TIP3    H1  986   3.335   3.575   6.800  0.6337  0.0930  1.5687
  343TIP3    H2  987   3.443   3.596   6.696 -0.0817  0.2201  0.8432
  344TIP3   OH2  988   7.798   5.333   3.598 -0.3340 -0.8669 -0.3449
  344TIP3    H1  989   7.703   5.327   3.592 -0.3704 -0.3545 -0.3224
  344TIP3    H2  990   7.822   5.266   3.662 -0.9776  0.9272  1.9349
  345TIP3   OH2  991   5.509   0.526   4.318  0.7259 -0.0592 -0.0910
  345TIP3    H1  992   5.555   0.499   4.239 -0.6229  0.9047 -1.2518
  345TIP3    H2  993   5.477   0.614   4.298 -1.9815 -0.8248  0.4394
  346TIP3   OH2  994   5.937   4.217   6.343 -0.4660  0.2022  0.1559
  346TIP3    H1  995   5.869   4.205   6.409  0.4565  0.6280  1.2171
  346TIP3    H2  996   5.916   4.152   6.276 -2.6363  1.1724 -0.1851
  347TIP3   OH2  997   3.452   4.428   2.089  0.4477  0.0366  0.0051
  347TIP3    H1  998   3.414   4.346   2.059 -0.3255  0.1288  0.6900
  347TIP3    H2  999   3.527   4.401   2.142 -0.6659 -0.3388  1.4750
  348TIP3   OH2 1000   7.183   4.178   6.626 -0.0317  0.5213  0.2385
  348TIP3    H1 1001   7.181   4.241   6.698  1.4917 -0.9452  1.6796
  348TIP3    H2 1002   7.203   4.094   6.669 -0.4924 -0.6758 -1.7569
  349TIP3   OH2 1003   1.304   0.381   0.576  0.3718 -0.2063 -0.1140
  349TIP3    H1 1004   1.321   0.346   0.664  0.5745 -0.2443 -0.1662
  349TIP3    H2 1005   1.389   0.414   0.547  0.4636 -0.8168 -0.5674
  350TIP3   OH2 1006   2.301   0.199   5.708 -0.2391  0.2394  0.3847
  350TIP3    H1 1007   2.315   0.104   5.715 -1.3336  0.1567  2.0375
  350TIP3    H2 1008   2.212   0.212   5.741 -0.0287  1.8654  0.3585
  351TIP3   OH2 1009   7.749   6.316   2.772 -0.2454 -0.4721 -0.2315
  351TIP3    H1 1010   7.763   6.381   2.841 -0.2775 -1.7397  1.0235
  351TIP3    H2 1011   7.655   6.316   2.758 -0.0434  1.5293 -2.0966
  352TIP3   OH2 1012   0.167   0.942   1.833 -0.4233 -0.2260  0.2434
  352TIP3    H1 1013   0.097   0.877   1.829 -0.6052 -0.0096 -0.3472
  352TIP3    H2 1014   0.194   0.943   1.924  1.2250 -2.8421 -0.1158
  353TIP3   OH2 1015   8.238   0.821   1.886  0.7697  0.1768  0.4487
  353TIP3    H1 1016   8.157   0.833   1.837  0.8102 -1.2648 -0.0232
  353TIP3    H2 1017   8.213   0.831   1.978 -0.3027 -1.8090  0.4263
  354TIP3   OH2 1018   1.166   6.918   2.248  0.4490  0.0850 -0.2878
  354TIP3    H1 1019   1.125   6.919   2.334 -2.2683  0.4070 -1.5013
  354TIP3    H2 1020   1.173   6.826   2.224 -1.8981  0.0426 -1.0328
  355TIP3   OH2 1021   7.168   0.649   3.599 -0.5192  0.2675  0.1376
  355TIP3    H1 1022   7.160   0.719   3.535  1.1813  0.1257 -0.2826
  355TIP3    H2 1023   7.175   0.693   3.684  0.5454  0.6335 -0.1262
  356TIP3   OH2 1024   7.276   7.181   1.303  0.0415  0.0925  0.0180
  356TIP3    H1 1025   7.276   7.163   1.209  0.1166  4.6891 -1.1487
  356TIP3    H2 1026   7.355   7.235   1.317 -0.6429  0.6229  2.4302
  357TIP3   OH2 1027   3.552   0.867   2.197 -0.0106  0.0083 -0.1969
  357TIP3    H1 1028   3.544   0.956   2.164  1.1938 -0.2012 -1.0980
  357TIP3    H2 1029   3.467   0.849   2.237 -0.3642  1.4524 -0.2377
  358TIP3   OH2 1030   3.843   4.982   4.444  0.3866 -0.4682  0.4243
  358TIP3    H1 1031   3.877   4.923   4.512 -0.9859 -0.7720  0.8726
  358TIP3    H2 1032   3.869   5.069   4.474 -1.2336 -0.4651  2.0522
  359TIP3   OH2 1033   3.062   4.343   5.214  0.3423 -0.7059 -0.1894
  359TIP3    H1 1034   3.000   4.307   5.150  0.2337 -2.2256  0.7201
  359TIP3    H2 1035   3.118   4.269   5.237  2.6736  0.6683 -1.1220
  360TIP3   OH2 1036   3.031   1.469   6.549  0.2179  0.1622 -0.3191
  360TIP3    H1 1037   3.004   1.487   6.459  1.2173 -0.0406 -0.6686
  360TIP3    H2 1038   2.995   1.382   6.567 -0.1814  0.3008 -0.4410
  361TIP3   OH2 1039   8.230   2.401   3.314 -0.0421  0.1741  0.3366
  361TIP3    H1 1040   8.147   2.417   3.270 -0.9908 -0.7598  1.6774
  361TIP3    H2 1041   8.256   2.486   3.349 -0.1540  0.5770 -0.5524
  362TIP3   OH2 1042   6.449   6.432   5.740 -0.0896  0.2660  0.1318
  362TIP3    H1 1043   6.477   6.505   5.795  1.1600  1.3073 -1.7623
  362TIP3    H2 1044   6.396   6.472   5.672 -0.6569 -0.8160 -0.0854
  363TIP3   OH2 1045   7.371   2.329   0.830  0.0560  0.2279  0.1635
  363TIP3    H1 1046   7.376   2.408   0.776  0.3126 -1.1376 -1.9565
  363TIP3    H2 1047   7.399   2.357   0.917 -0.1383  2.5028 -0.4482
  364TIP3   OH2 1048   1.212   6.936   5.262  0.5866 -0.5701 -0.0496
  364TIP3    H1 1049   1.124   6.945   5.227  0.6291  0.4671  0.0577
  364TIP3    H2 1050   1.269   6.946   5.185  0.6193 -1.1865 -0.1114
  365TIP3   OH2 1051   4.367   6.807   3.137 -0.1667 -0.5126  0.3486
  365TIP3    H1 1052   4.417   6.830   3.058 -1.3541  0.5696 -0.1184
  365TIP3    H2 1053   4.432   6.767   3.195  0.8013 -1.0448 -1.0451
  366TIP3   OH2 1054   6.139   4.190   2.542  0.7451  0.0187 -0.0353
  366TIP3    H1 1055   6.113   4.231   2.625  1.2069  1.2065 -0.4657
  366TIP3    H2 1056   6.136   4.261   2.478  1.2945 -0.6821 -0.8537
  367TIP3   OH2 1057   6.692   5.381   0.944 -0.2139 -0.7108  0.6977
  367TIP3    H1 1058   6.739   5.317   0.890 -0.9111 -1.0365  0.4700
  367TIP3    H2 1059   6.624   5.416   0.887 -1.3036 -1.4456  1.5064
  368TIP3   OH2 1060   5.846   1.329   0.616  0.2078  0.0264  0.1934
  368TIP3    H1 1061   5.838   1.280   0.534 -1.6405  1.4721 -0.5568
  368TIP3    H2 1062   5.832   1.263   0.684 -0.1291 -0.8739 -0.7242
  369TIP3   OH2 1063   0.261   6.608   0.959 -0.2663  0.3608  0.5071
  369TIP3    H1 1064   0.223   6.674   0.901 -0.1567  0.7187  0.8417
  369TIP3    H2 1065   0.185   6.570   1.004 -0.5785 -1.3379 -1.3117
  370TIP3   OH2 1066   4.801   2.484   0.754 -0.0374  0.1942  0.2017
  370TIP3    H1 1067   4.871   2.474   0.690 -0.7857 -0.8666 -0.4809
  370TIP3    H2 1068   4.727   2.516   0.703 -0.2098  0.8193  0.8281
  371TIP3   OH2 1069   2.293   4.892   5.480  0.2715  0.6602  0.1249
  371TIP3    H1 1070   2.305   4.874   5.574  0.5204 -1.0141 -0.1903
  371TIP3    H2 1071   2.200   4.877   5.465  0.7915 -2.7656 -0.5262
  372TIP3   OH2 1072   7.306   0.970   6.724  0.1685  0.1870  0.2046
  372TIP3    H1 1073   7.336   0.921   6.647  3.3190  0.6716  1.0171
  372TIP3    H2 1074   7.245   0.910   6.767 -0.2030 -0.8486 -1.6402
  373TIP3   OH2 1075   4.184   1.252   0.706 -0.1527 -0.0465  0.2068
  373TIP3    H1 1076   4.170   1.278   0.797  0.3551  0.8883  0.0309
  373TIP3    H2 1077   4.277   1.270   0.690 -0.8369  2.5265 -1.3362
  374TIP3   OH2 1078   0.134   4.906   5.595 -0.1717  0.0879  0.0084
  374TIP3    H1 1079   0.070   4.836   5.601 -1.8711  1.5745  0.1868
  374TIP3    H2 1080   0.103   4.962   5.524  1.3450  0.4686 -0.3998
  375TIP3   OH2 1081   2.922   5.367   5.175 -0.1438  0.2107  0.1818
  375TIP3    H1 1082   3.006   5.358   5.221 -0.1500 -2.8560 -0.2528
  375TIP3    H2 1083   2.908   5.283   5.133 -3.8571  0.2950  0.9151
  376TIP3   OH2 1084   2.171   0.662   1.041  0.7488  0.4434 -0.0317
  376TIP3    H1 1085   2.255   0.702   1.017 -0.1471  2.3690 -0.1339
  376TIP3    H2 1086   2.149   0.701   1.125  0.5868 -1.1057  0.6771
  377TIP3   OH2 1087   5.322   2.740   0.302  0.5555  0.5457  0.5621
  377TIP3    H1 1088   5.338   2.755   0.209 -2.6729  0.4940 -0.1248
  377TIP3    H2 1089   5.404   2.705   0.335  1.7733  0.4213 -2.2989
  378TIP3   OH2 1090   6.116   7.796   2.272  0.4042 -0.1818  0.3531
  378TIP3    H1 1091   6.158   7.729   2.325 -1.2809 -1.0573  0.6343
  378TIP3    H2 1092   6.113   7.759   2.183  1.1703  0.3356  0.0987
  379TIP3   OH2 1093   3.167   7.832   0.186 -0.1712 -0.5282  0.4513
  379TIP3    H1 1094   3.188   7.829   0.093 -0.7405  1.1505  0.2334
  379TIP3    H2 1095   3.072   7.825   0.190 -0.2773  0.7484  0.7774
  380TIP3   OH2 1096   0.435   3.401   6.698  0.1199  0.0294  0.1219
  380TIP3    H1 1097   0.363   3.340   6.679  1.1800 -1.2659  0.0634
  380TIP3    H2 1098   0.453   3.388   6.791  1.0706 -0.5789 -0.1344
  381TIP3   OH2 1099   4.141   5.346   6.407 -0.5344 -0.3994 -0.1444
  381TIP3    H1 1100   4.057   5.365   6.449  0.4587  0.7727  1.4752
  381TIP3    H2 1101   4.135   5.387   6.321 -1.1532  0.8778  0.4825
  382TIP3   OH2 1102   3.098   7.366   3.166  0.1980  0.5688 -0.5047
  382TIP3    H1 1103   3.046   7.445   3.151 -1.1320 -0.0783  0.4902
  382TIP3    H2 1104   3.116   7.367   3.260  0.3315 -0.2082 -0.5162
  383TIP3   OH2 1105   7.883   4.896   3.680 -0.1829  0.0850  0.3215
  383TIP3    H1 1106   7.908   4.822   3.625  0.2088 -0.3961  1.1172
  383TIP3    H2 1107   7.948   4.963   3.660 -1.1464  0.6086 -1.1565
  384TIP3   OH2 1108   0.166   0.808   1.014  0.6391 -0.1280 -0.4347
  384TIP3    H1 1109   0.188   0.719   1.042 -0.8275 -0.0814  1.0627
  384TIP3    H2 1110   0.206   0.864   1.079 -1.1347  0.0963  0.5326
  385TIP3   OH2 1111   5.782   6.047   3.736  0.2344 -0.5073 -0.4135
  385TIP3    H1 1112   5.772   6.142   3.730  0.8869 -0.1330  2.7491
  385TIP3    H2 1113   5.872   6.030   3.705  0.2734 -0.0477 -0.5497
  386TIP3   OH2 1114   7.519   3.523   5.799 -0.8161 -0.2684  0.1123
  386TIP3    H1 1115   7.453   3.458   5.827 -1.0893 -0.7340 -1.5438
  386TIP3    H2 1116   7.512   3.525   5.704 -0.0873  1.4665  0.0625
  387TIP3   OH2 1117   6.208   0.586   6.039  0.1112  0.2669  0.4636
  387TIP3    H1 1118   6.132   0.642   6.021  0.3998  0.5301  0.0652
  387TIP3    H2 1119   6.173   0.497   6.032  0.5996  0.1879 -3.7364
  388TIP3   OH2 1120   0.112   6.843   0.454 -0.3461 -0.3142  0.0952
  388TIP3    H1 1121   0.094   6.935   0.471  2.0496  0.3362 -0.4314
  388TIP3    H2 1122   0.136   6.807   0.540 -0.2995 -0.1810  0.1375
  389TIP3   OH2 1123   4.599   1.538   5.257  0.1868 -0.5082  0.1215
  389TIP3    H1 1124   4.574   1.447   5.274 -0.0388 -0.1329  2.0363
  389TIP3    H2 1125   4.566   1.555   5.169 -1.1246 -1.8327  0.2999
  390TIP3   OH2 1126   4.912   1.406   6.135  0.1479 -0.3381 -0.4546
  390TIP3    H1 1127   4.840   1.364   6.087 -0.1092 -0.0362 -0.3330
  390TIP3    H2 1128   4.924   1.350   6.212 -2.3931  1.5112  1.4775
  391TIP3   OH2 1129   2.019   7.017   2.428  0.0164  0.3931 -1.2307
  391TIP3    H1 1130   2.030   7.073   2.350  0.1894  1.0098 -0.7754
  391TIP3    H2 1131   1.959   7.066   2.484  0.1784  0.1209 -0.8168
  392TIP3   OH2 1132   0.726   3.224   6.219 -0.3845  0.0553 -0.0207
  392TIP3    H1 1133   0.700   3.138   6.186  0.8563 -0.0927 -0.6767
  392TIP3    H2 1134   0.804   3.247   6.168 -0.1029  1.1203  0.8434
  393TIP3   OH2 1135   4.920   1.581   1.439 -0.2454  0.1151 -0.0072
  393TIP3    H1 1136   4.900   1.550   1.350  0.1683  1.7669 -0.7144
  393TIP3    H2 1137   4.942   1.673   1.427  0.7269  0.1329  1.7099
  394TIP3   OH2 1138   5.864   0.355   2.781 -0.1297  0.5527 -0.3122
  394TIP3    H1 1139   5.917   0.290   2.827 -0.5366  0.3410 -0.1347
  394TIP3    H2 1140   5.818   0.403   2.850 -0.4852  0.4581 -0.4778
  395TIP3   OH2 1141   5.146   2.103   3.796 -0.0359  0.0996 -0.4050
  395TIP3    H1 1142   5.160   2.008   3.791  1.9471  0.3938 -1.3360
  395TIP3    H2 1143   5.061   2.116   3.753 -0.2867 -1.2403 -0.3714
  396TIP3   OH2 1144   0.033   3.857   5.672  0.3096 -0.2527 -0.1612
  396TIP3    H1 1145   0.005   3.926   5.611  0.8907 -0.4402 -0.6462
  396TIP3    H2 1146   0.090   3.801   5.620  0.1809 -0.8649  0.3508
  397TIP3   OH2 1147   6.096   7.766   6.681 -0.2748 -0.4514  0.1425
  397TIP3    H1 1148   6.166   7.821   6.716 -0.0580 -0.2014 -0.6502
  397TIP3    H2 1149   6.137   7.717   6.610 -0.8590 -0.4091 -0.2351
  398TIP3   OH2 1150   3.478   6.025   1.262 -0.3729  0.0823 -0.8504
  398TIP3    H1 1151   3.546   5.978   1.310  0.2096  1.1830 -0.5479
  398TIP3    H2 1152   3.456   6.099   1.319 -2.1385 -0.4833 -0.7544
  399TIP3   OH2 1153   3.120   6.366   5.304  0.0618 -0.7702 -0.7345
  399TIP3    H1 1154   3.075   6.288   5.271 -1.1981 -0.3290 -0.1168
  399TIP3    H2 1155   3.205   6.334   5.334 -0.6390 -2.0032  0.0133
  400TIP3   OH2 1156   0.430   6.943   3.831 -0.5902  0.3318  0.6838
  400TIP3    H1 1157   0.514   6.904   3.857 -1.2285 -1.7378 -0.0814
  400TIP3    H2 1158   0.424   7.024   3.881  2.2409  0.9834  0.1288
  401TIP3   OH2 1159   7.304   7.665   2.876 -0.4493  0.2139  0.3135
  401TIP3    H1 1160   7.294   7.574   2.847 -1.0687  0.4687 -0.3099
  401TIP3    H2 1161   7.390   7.691   2.844 -0.2211 -0.1877  0.5945
  402TIP3   OH2 1162   6.767   2.683   4.941 -0.0638 -0.5355  0.0543
  402TIP3    H1 1163   6.816   2.648   4.867 -0.6478 -0.4025 -0.3982
  402TIP3    H2 1164   6.738   2.770   4.912  1.5896  0.4944  1.2498
  403TIP3   OH2 1165   1.243   2.726   2.222  0.1683 -0.2719  0.4811
  403TIP3    H1 1166   1.224   2.634   2.240 -2.2536  0.5476  2.7339
  403TIP3    H2 1167   1.174   2.755   2.163 -0.8408  0.7385  2.0780
  404TIP3   OH2 1168   1.160   5.997   1.408  0.1066 -0.1599 -0.5229
  404TIP3    H1 1169   1.122   6.084   1.411  1.0650  0.2528  0.7937
  404TIP3    H2 1170   1.090   5.940   1.376 -2.0899  0.3471  2.9220
  405TIP3   OH2 1171   0.270   0.051   4.819  0.7423 -0.2058 -0.5566
  405TIP3    H1 1172   0.229   0.100   4.891 -0.4592  2.0968 -2.6229
  405TIP3    H2 1173   0.341   0.002   4.860  0.5373  1.4954  2.0781
  406TIP3   OH2 1174   4.765   7.343   6.037 -0.0466  0.4162 -0.1122
  406TIP3    H1 1175   4.673   7.341   6.014 -0.4657  1.2247  1.3510
  406TIP3    H2 1176   4.806   7.398   5.971 -0.5156 -0.2851 -1.0110
  407TIP3   OH2 1177   0.800   1.159   6.383  0.1476  0.0078 -0.4368
  407TIP3    H1 1178   0.845   1.186   6.303  1.8739  0.4550  0.6190
  407TIP3    H2 1179   0.819   1.066   6.390  1.1977  0.2444  0.1365
  408TIP3   OH2 1180   0.833   2.074   4.096 -0.1899  0.2412 -0.3540
  408TIP3    H1 1181   0.839   2.090   4.190 -0.6637 -0.3126 -0.2216
  408TIP3    H2 1182   0.827   2.161   4.057 -1.6198  0.4481  0.2597
  409TIP3   OH2 1183   0.936   2.412   4.848  0.2307 -0.1378  0.5689
  409TIP3    H1 1184   0.985   2.332   4.867 -0.6656 -0.6668  0.6616
  409TIP3    H2 1185   0.946   2.423   4.753  1.1044  0.1531  0.6771
  410TIP3   OH2 1186   7.929   4.251   0.465 -0.2274  0.2924  0.4298
  410TIP3    H1 1187   7.990   4.269   0.393  0.7645 -0.4211  1.0759
  410TIP3    H2 1188   7.984   4.250   0.543 -0.8027 -1.7694  0.8629
  411TIP3   OH2 1189   6.661   1.054   0.933 -0.0605  0.0708  0.5508
  411TIP3    H1 1190   6.597   1.052   0.862 -0.5581 -0.0528  0.9980
  411TIP3    H2 1191   6.746   1.052   0.889 -0.3464 -1.7538 -0.0334
  412TIP3   OH2 1192   2.075   7.776   2.242  0.5617 -0.0877 -0.1603
  412TIP3    H1 1193   2.016   7.842   2.277 -0.7293 -1.7048  0.8733
  412TIP3    H2 1194   2.163   7.811   2.258 -0.0634  0.8266  1.5111
  413TIP3   OH2 1195   0.326   5.203   6.218 -0.1024  0.7271  0.0040
  413TIP3    H1 1196   0.276   5.196   6.300  1.9195  1.0179  1.3249
  413TIP3    H2 1197   0.347   5.113   6.195 -0.4289  0.6618 -0.0476
  414TIP3   OH2 1198   6.647   0.394   2.926 -0.6061 -0.4955  0.1186
  414TIP3    H1 1199   6.575   0.331   2.924  0.5622 -1.8759 -0.4553
  414TIP3    H2 1200   6.650   0.431   2.838 -1.1369  0.2084  0.3865
  415TIP3   OH2 1201   3.723   1.927   6.631  0.0694 -0.2277  0.3703
  415TIP3    H1 1202   3.728   2.016   6.595  0.0657  0.0768  1.1132
  415TIP3    H2 1203   3.753   1.871   6.559  0.8328  0.4389  0.1473
  416TIP3   OH2 1204   5.110   3.355   4.104 -0.1216  0.6529 -0.4447
  416TIP3    H1 1205   5.072   3.387   4.022 -0.7682 -0.4142 -0.5846
  416TIP3    H2 1206   5.193   3.316   4.078  0.0865  1.1007 -0.4573
  417TIP3   OH2 1207   1.586   1.136   2.219  0.0072  0.3746 -0.3252
  417TIP3    H1 1208   1.646   1.087   2.162  0.2743 -0.0479  0.3068
  417TIP3    H2 1209   1.562   1.213   2.168 -2.3284 -1.5357 -2.3596
  418TIP3   OH2 1210   2.354   3.768   6.311 -0.0053  0.0108 -0.2257
  418TIP3    H1 1211   2.401   3.715   6.247  0.4400 -1.5562  1.3304
  418TIP3    H2 1212   2.369   3.859   6.283  0.8178 -0.5960 -1.8616
  419TIP3   OH2 1213   2.649   6.677   5.470 -0.0766 -0.0103  0.3666
  419TIP3    H1 1214   2.565   6.641   5.444  0.1224  0.1222 -0.4767
  419TIP3    H2 1215   2.705   6.600   5.483  0.4173 -0.0522 -1.6630
  420TIP3   OH2 1216   4.513   2.140   0.197 -0.0221 -0.0175 -0.1889
  420TIP3    H1 1217   4.464   2.108   0.273  0.0523 -0.4579 -0.3226
  420TIP3    H2 1218   4.506   2.069   0.133  0.4468  0.0857 -0.3591
  421TIP3   OH2 1219   6.367   3.512   0.805 -0.0972  0.2108  0.6479
  421TIP3    H1 1220   6.452   3.519   0.848 -0.1716 -0.5855  0.9327
  421TIP3    H2 1221   6.318   3.588   0.838  0.9713  1.4959 -0.6341
  422TIP3   OH2 1222   0.296   4.733   2.731  0.8101 -0.5932  0.0473
  422TIP3    H1 1223   0.212   4.738   2.686  2.1025 -1.4963 -2.7128
  422TIP3    H2 1224   0.280   4.676   2.806 -1.1118 -0.3578 -0.1342
  423TIP3   OH2 1225   5.578   2.453   5.839  0.0757 -0.3751 -0.2151
  423TIP3    H1 1226   5.509   2.519   5.854  1.0257  0.5272  0.3505
  423TIP3    H2 1227   5.580   2.442   5.744  0.4199  1.0069 -0.3945
  424TIP3   OH2 1228   2.632   3.499   3.087 -0.5111 -0.6228  0.3661
  424TIP3    H1 1229   2.646   3.593   3.102 -1.7401 -0.3942  0.2121
  424TIP3    H2 1230   2.669   3.482   3.001  0.5963 -0.5045  0.7982
  425TIP3   OH2 1231   2.197   3.911   2.534 -0.4256 -0.7562  0.3107
  425TIP3    H1 1232   2.215   3.855   2.460 -3.2498 -0.4597 -0.7118
  425TIP3    H2 1233   2.171   3.995   2.496  1.2085  0.4920  1.7451
  426TIP3   OH2 1234   2.727   6.812   4.809  0.0762  0.3957 -0.4026
  426TIP3    H1 1235   2.781   6.734   4.823  0.9184  1.1554  0.7128
  426TIP3    H2 1236   2.788   6.885   4.814 -1.0272  1.2745  0.8162
  427TIP3   OH2 1237   4.927   0.831   3.769 -0.1918 -0.4505  0.1250
  427TIP3    H1 1238   4.987   0.884   3.716 -0.0487  0.0821  0.7915
  427TIP3    H2 1239   4.984   0.791   3.835 -0.6628  0.7642  1.3132
  428TIP3   OH2 1240   6.997   1.805   6.553 -0.6510  0.6817 -0.1327
  428TIP3    H1 1241   6.939   1.804   6.629 -0.0101 -0.6551  0.3578
  428TIP3    H2 1242   7.072   1.858   6.581  0.3271 -1.0923  0.7804
  429TIP3   OH2 1243   3.311   2.776   3.870  0.0070 -0.3360 -0.0986
  429TIP3    H1 1244   3.323   2.691   3.914 -1.7694 -0.6689 -0.1670
  429TIP3    H2 1245   3.294   2.753   3.779  2.7403  0.3102 -0.8450
  430TIP3   OH2 1246   5.365   7.758   4.198  1.0369 -0.7400  0.4243
  430TIP3    H1 1247   5.335   7.840   4.159  0.6995 -1.0844 -0.0635
  430TIP3    H2 1248   5.422   7.785   4.270  0.4507 -0.0783  0.6496
  431TIP3   OH2 1249   7.184   4.003   4.437  0.3701  0.5728  0.4588
  431TIP3    H1 1250   7.199   3.995   4.343  0.5467  0.8751  0.4572
  431TIP3    H2 1251   7.123   4.077   4.446  0.6546  0.7948  0.6012
  432TIP3   OH2 1252   2.143   5.802   2.127  0.3567  0.3220 -0.8636
  432TIP3    H1 1253   2.118   5.894   2.136 -0.4243  0.1000 -0.7074
  432TIP3    H2 1254   2.110   5.775   2.042  0.1064  0.0399 -0.6800
  433TIP3   OH2 1255   8.125   4.802   1.633  0.5995  0.6234 -0.1215
  433TIP3    H1 1256   8.032   4.791   1.653  0.5883  0.1432 -0.4092
  433TIP3    H2 1257   8.160   4.713   1.634  1.3799  0.9289  1.5025
  434TIP3   OH2 1258   8.004   2.838   2.726  0.6874  0.9043  0.2641
  434TIP3    H1 1259   7.979   2.777   2.656  2.6447 -1.2210  1.2928
  434TIP3    H2 1260   7.941   2.910   2.719 -1.5391 -1.0660 -1.2325
  435TIP3   OH2 1261   5.539   6.497   4.732 -0.3822  0.3094  0.0710
  435TIP3    H1 1262   5.531   6.420   4.788 -1.4380 -0.1702 -0.7028
  435TIP3    H2 1263   5.531   6.463   4.643 -0.5371  1.2758 -0.2992
  436TIP3   OH2 1264   0.779   3.173   4.745  0.0673  0.1308  0.0417
  436TIP3    H1 1265   0.854   3.232   4.744 -0.0023  0.2799  1.7539
  436TIP3    H2 1266   0.818   3.085   4.743  0.3075  0.2069  0.9189
  437TIP3   OH2 1267   3.777   6.249   0.115  0.3731  0.3073 -1.1920
  437TIP3    H1 1268   3.740   6.325   0.071 -2.1586 -0.5841 -0.7811
  437TIP3    H2 1269   3.767   6.268   0.208  2.5104  0.6973 -0.9819
  438TIP3   OH2 1270   2.461   7.022   0.542 -0.3732  0.4687  0.1160
  438TIP3    H1 1271   2.522   7.062   0.604 -0.6228  1.6871 -0.3823
  438TIP3    H2 1272   2.517   6.976   0.479 -0.0075  0.9198  0.1041
  439TIP3   OH2 1273   5.352   3.434   6.389  0.3846  0.5809 -0.3674
  439TIP3    H1 1274   5.354   3.383   6.471  2.6080  0.5318 -0.3965
  439TIP3    H2 1275   5.345   3.368   6.320  2.0296  0.3636 -0.3493
  440TIP3   OH2 1276   3.959   4.631   0.398  0.2845 -0.3405 -0.0338
  440TIP3    H1 1277   3.869   4.658   0.414  0.6356  0.0759  1.4550
  440TIP3    H2 1278   3.953   4.538   0.374 -0.6822  0.2214 -2.1820
  441TIP3   OH2 1279   7.578   1.913   6.777 -0.1372 -0.2248  0.1588
  441TIP3    H1 1280   7.598   1.890   6.686  0.6173 -0.1249  0.2907
  441TIP3    H2 1281   7.503   1.972   6.771  0.3182  0.3113 -0.4550
  442TIP3   OH2 1282   5.284   5.396   2.266 -0.1284 -0.2554  0.6367
  442TIP3    H1 1283   5.322   5.310   2.285  1.1356  0.3816  1.1138
  442TIP3    H2 1284   5.358   5.456   2.273 -0.8813  0.8018 -0.2664
  443TIP3   OH2 1285   4.029   1.458   3.345  0.3340 -0.0980 -0.1436
  443TIP3    H1 1286   4.075   1.374   3.349  1.2002  0.3794  0.1892
  443TIP3    H2 1287   4.010   1.480   3.436  0.9963  0.5349 -0.1492
  444TIP3   OH2 1288   4.431   6.734   0.224  0.2828 -0.1779  0.0496
  444TIP3    H1 1289   4.361   6.723   0.288  1.4373  0.0644  1.4085
  444TIP3    H2 1290   4.441   6.829   0.216  0.0711 -0.2074 -0.5784
  445TIP3   OH2 1291   0.597   2.678   0.148  0.3926  0.0071 -0.2590
  445TIP3    H1 1292   0.519   2.721   0.114  0.5404  0.3309 -0.1924
  445TIP3    H2 1293   0.630   2.625   0.075 -0.2923 -0.7036 -0.0716
  446TIP3   OH2 1294   3.598   1.915   0.311 -0.5319 -0.5482  0.0381
  446TIP3    H1 1295   3.560   1.828   0.322 -0.6996 -0.6749 -1.3196
  446TIP3    H2 1296   3.548   1.971   0.369 -3.3170 -0.5775 -2.1270
  447TIP3   OH2 1297   1.756   1.350   3.468  0.1981 -0.9797  0.4010
  447TIP3    H1 1298   1.813   1.315   3.400 -0.4304  0.9600 -1.1889
  447TIP3    H2 1299   1.816   1.371   3.540  1.4407  0.3264 -0.9427
  448TIP3   OH2 1300   0.936   2.089   3.471  0.3777 -0.7772  0.1646
  448TIP3    H1 1301   0.950   2.145   3.394 -0.4278  0.1088  0.6303
  448TIP3    H2 1302   0.868   2.027   3.443 -2.9741  2.0523  1.2470
  449TIP3   OH2 1303   5.800   5.989   2.875  0.1296  0.1876  0.9251
  449TIP3    H1 1304   5.783   6.083   2.882 -0.2296  0.4946 -2.5282
  449TIP3    H2 1305   5.779   5.955   2.962 -0.0963  3.2103  2.1840
  450TIP3   OH2 1306   6.847   2.196   3.731 -0.5685  0.4671 -0.5688
  450TIP3    H1 1307   6.753   2.203   3.750 -0.8110 -0.1899 -1.4705
  450TIP3    H2 1308   6.887   2.178   3.816 -1.2480  0.7734 -0.1671
  451TIP3   OH2 1309   4.652   4.846   5.971 -0.3024  0.0178  0.1826
  451TIP3    H1 1310   4.578   4.814   6.021 -0.6189 -0.6418 -0.6809
  451TIP3    H2 1311   4.714   4.772   5.969 -0.5245 -0.1557 -0.8247
  452TIP3   OH2 1312   3.454   4.263   0.878 -0.0143  0.3153  0.2019
  452TIP3    H1 1313   3.428   4.207   0.804 -1.2984  0.5378  0.4657
  452TIP3    H2 1314   3.371   4.291   0.917  0.6450  0.8698  1.2317
  453TIP3   OH2 1315   7.405   5.092   0.347 -0.2807 -0.1279  0.4332
  453TIP3    H1 1316   7.480   5.066   0.294 -0.2767 -0.0775  0.4143
  453TIP3    H2 1317   7.333   5.039   0.313 -0.5373  0.7343 -0.4025
  454TIP3   OH2 1318   5.160   3.348   3.332  0.3741  0.0528 -0.2580
  454TIP3    H1 1319   5.166   3.286   3.405 -1.6736  0.5446  0.4098
  454TIP3    H2 1320   5.208   3.306   3.261 -1.5785 -2.7723 -0.0970
  455TIP3   OH2 1321   1.555   0.489   1.953 -0.5702  0.1632  0.3650
  455TIP3    H1 1322   1.488   0.437   1.998  0.1709 -1.4574 -0.3218
  455TIP3    H2 1323   1.629   0.430   1.945 -0.3452  0.6793 -2.1479
  456TIP3   OH2 1324   1.721   0.813   0.202 -0.0041 -0.2862 -0.2419
  456TIP3    H1 1325   1.737   0.875   0.130 -0.0311  0.0561  0.0399
  456TIP3    H2 1326   1.635   0.839   0.236 -0.7362 -1.4710 -1.1073
  457TIP3   OH2 1327   6.359   2.710   2.618 -0.2933  0.4789  0.2351
  457TIP3    H1 1328   6.364   2.626   2.572 -2.2416  1.2565 -1.5817
  457TIP3    H2 1329   6.442   2.717   2.664  0.4902 -1.8122 -0.6758
  458TIP3   OH2 1330   4.438   4.617   4.164  0.0772  0.2683 -0.3555
  458TIP3    H1 1331   4.412   4.617   4.256  2.1213 -1.0964  0.2855
  458TIP3    H2 1332   4.464   4.526   4.146  1.4176  0.8897 -1.7728
  459TIP3   OH2 1333   0.815   2.942   2.296  0.8880  0.2798 -0.2337
  459TIP3    H1 1334   0.801   3.026   2.252 -1.6683 -0.3912 -0.8437
  459TIP3    H2 1335   0.830   2.966   2.387 -3.1001  1.4110  0.3112
  460TIP3   OH2 1336   3.602   4.904   3.450 -0.2010  0.1881  0.0223
  460TIP3    H1 1337   3.685   4.948   3.469 -1.1447  1.5678  1.1065
  460TIP3    H2 1338   3.601   4.829   3.510  0.6838 -0.4313 -0.7002
  461TIP3   OH2 1339   0.583   4.783   5.221  0.6342 -0.2057  0.4535
  461TIP3    H1 1340   0.654   4.737   5.266 -0.6030 -1.1853  1.4452
  461TIP3    H2 1341   0.511   4.784   5.283  0.4089  2.6731  0.2825
  462TIP3   OH2 1342   0.223   2.008   3.651  0.6164 -0.0401 -0.3853
  462TIP3    H1 1343   0.146   2.040   3.697  0.2187  1.0749 -1.7447
  462TIP3    H2 1344   0.245   1.926   3.694 -0.5143  0.3031  0.8966
  463TIP3   OH2 1345   0.466   1.255   6.214 -0.2253  0.0384  0.2542
  463TIP3    H1 1346   0.488   1.217   6.299 -1.1166 -1.2318 -0.0637
  463TIP3    H2 1347   0.530   1.325   6.202 -0.3808  0.5643  2.1871
  464TIP3   OH2 1348   1.582   5.088   5.652 -0.6694  0.1678 -0.0547
  464TIP3    H1 1349   1.543   5.099   5.565 -0.0271 -0.2062 -0.3954
  464TIP3    H2 1350   1.675   5.104   5.639 -0.5407 -0.0798  0.5291
  465TIP3   OH2 1351   4.228   0.442   2.735  0.1445  0.2547 -0.3563
  465TIP3    H1 1352   4.172   0.519   2.729 -0.8795 -0.3818  0.6716
  465TIP3    H2 1353   4.247   0.432   2.828 -0.5094 -1.2554 -0.3595
  466TIP3   OH2 1354   5.991   7.020   5.666 -0.0257  0.0137  0.4619
  466TIP3    H1 1355   5.995   7.083   5.594  1.4636 -0.6401 -0.0710
  466TIP3    H2 1356   5.964   6.938   5.626 -1.0267  0.0613  0.9942
  467TIP3   OH2 1357   5.320   2.617   5.821  0.1109 -0.0957  0.3339
  467TIP3    H1 1358   5.228   2.605   5.843 -0.0174 -0.7031 -0.4751
  467TIP3    H2 1359   5.325   2.597   5.727  1.0377  0.0605  0.3431
  468TIP3   OH2 1360   1.346   5.638   3.949 -0.1137 -0.5951 -0.0559
  468TIP3    H1 1361   1.267   5.691   3.946  1.0717  1.2373 -0.5316
  468TIP3    H2 1362   1.398   5.667   3.874  2.0549  0.0229  1.5708
  469TIP3   OH2 1363   5.850   6.798   5.579 -1.0106 -0.1165 -0.5891
  469TIP3    H1 1364   5.815   6.771   5.494 -3.2629  0.0592  0.1899
  469TIP3    H2 1365   5.802   6.745   5.643  0.9632 -0.5757  0.5767
  470TIP3   OH2 1366   3.572   0.898   5.381  0.0350 -0.2912 -0.4688
  470TIP3    H1 1367   3.556   0.933   5.469  1.5393  0.6606 -0.5462
  470TIP3    H2 1368   3.497   0.841   5.364 -0.0497 -0.8753  1.6193
  471TIP3   OH2 1369   6.238   7.657   1.473 -0.1753 -0.1764  0.2841
  471TIP3    H1 1370   6.241   7.561   1.471 -2.4630 -0.3012  0.2343
  471TIP3    H2 1371   6.283   7.685   1.393 -1.5019 -1.3197 -0.9118
  472TIP3   OH2 1372   4.107   5.136   2.396  0.3281 -1.0094  0.0053
  472TIP3    H1 1373   4.102   5.103   2.306  1.3860 -1.5611  0.1353
  472TIP3    H2 1374   4.064   5.221   2.392  0.0011 -1.2000 -0.9369
  473TIP3   OH2 1375   1.828   2.750   0.649  0.5729 -0.3750  0.1888
  473TIP3    H1 1376   1.788   2.770   0.564 -1.2561 -1.5303  0.7082
  473TIP3    H2 1377   1.786   2.668   0.676  1.7073 -0.4542  1.8520
  474TIP3   OH2 1378   0.965   3.014   1.647  0.8160 -0.0301 -0.0797
  474TIP3    H1 1379   1.038   3.002   1.587  0.8887 -0.8781  0.1654
  474TIP3    H2 1380   0.999   3.072   1.715  1.0883  0.0162 -0.2538
  475TIP3   OH2 1381   5.503   2.590   1.450 -0.0511 -0.3979  0.0420
  475TIP3    H1 1382   5.487   2.589   1.544 -0.5465  2.4508  0.0812
  475TIP3    H2 1383   5.426   2.549   1.411 -1.3412  1.1856  0.8086
  476TIP3   OH2 1384   1.092   6.635   4.249  0.4767 -0.4804  0.1104
  476TIP3    H1 1385   1.068   6.695   4.179  1.0564 -0.4387 -0.0563
  476TIP3    H2 1386   1.080   6.686   4.329  1.7593  0.1414 -0.0742
  477TIP3   OH2 1387   4.661   4.897   1.353  0.5492 -0.0835  0.3391
  477TIP3    H1 1388   4.637   4.805   1.369  0.5642  0.0177  0.9579
  477TIP3    H2 1389   4.690   4.929   1.438 -1.6599  1.1632  0.7000
  478TIP3   OH2 1390   3.663   3.848   5.505 -0.6020  0.0515 -0.2367
  478TIP3    H1 1391   3.726   3.853   5.577 -0.3630  0.3489 -0.4625
  478TIP3    H2 1392   3.631   3.758   5.507 -1.3826  0.3474  0.8926
  479TIP3   OH2 1393   1.404   2.559   4.302 -0.2012 -0.2851  0.1542
  479TIP3    H1 1394   1.359   2.574   4.386  0.5690  0.6606  0.4150
  479TIP3    H2 1395   1.496   2.550   4.326 -0.2490 -2.8507 -0.3000
  480TIP3   OH2 1396   2.222   7.614   5.444 -0.3098  0.0770  0.0081
  480TIP3    H1 1397   2.131   7.602   5.417 -0.1288  0.1488 -0.6417
  480TIP3    H2 1398   2.239   7.708   5.431  0.0515 -0.0542 -0.4791
  481TIP3   OH2 1399   6.956   5.034   3.309 -0.2057 -0.6044 -0.1489
  481TIP3    H1 1400   6.965   4.940   3.300  0.2619 -0.3750 -3.2826
  481TIP3    H2 1401   7.039   5.064   3.347  0.3865 -1.2845 -0.8985
  482TIP3   OH2 1402   7.919   5.229   2.441  0.0087  0.1544 -0.3272
  482TIP3    H1 1403   7.832   5.267   2.435 -0.0092  0.1015 -0.4038
  482TIP3    H2 1404   7.904   5.134   2.447 -0.0440  0.2411  1.8720
  483TIP3   OH2 1405   5.559   2.355   0.140  0.3894  0.3927  0.1082
  483TIP3    H1 1406   5.471   2.384   0.119  1.0636  2.6220  0.0551
  483TIP3    H2 1407   5.547   2.275   0.191 -1.5526 -0.4634 -1.5419
  484TIP3   OH2 1408   1.125   3.925   6.393  0.5517  0.2472 -0.5072
  484TIP3    H1 1409   1.117   3.865   6.467  0.1696  0.2076 -0.5788
  484TIP3    H2 1410   1.103   4.011   6.429  0.6190  0.2699 -0.5188
  485TIP3   OH2 1411   1.884   7.179   2.615  0.5776  0.1450  0.1625
  485TIP3    H1 1412   1.793   7.154   2.602  0.6903 -0.9868  1.3440
  485TIP3    H2 1413   1.880   7.270   2.645 -0.3074 -0.4146  1.8484
  486TIP3   OH2 1414   7.465   2.188   1.978 -0.0511 -0.2278  0.5030
  486TIP3    H1 1415   7.531   2.217   1.915  0.7794 -1.2891  0.8427
  486TIP3    H2 1416   7.385   2.179   1.926 -0.3458  2.4419  0.3619
  487TIP3   OH2 1417   6.449   6.508   1.294  0.1171 -0.2719 -0.0682
  487TIP3    H1 1418   6.500   6.587   1.276 -1.1013  0.2147 -1.6842
  487TIP3    H2 1419   6.484   6.475   1.377  1.8581  0.9611 -0.2485
  488TIP3   OH2 1420   4.583   4.413   5.089  0.0754  0.4388  0.7202
  488TIP3    H1 1421   4.590   4.471   5.165 -0.8103  2.0535 -0.3722
  488TIP3    H2 1422   4.523   4.344   5.117 -0.2997  1.0512  1.4601
  489TIP3   OH2 1423   3.527   6.791   5.601  0.1184  0.5098  0.4767
  489TIP3    H1 1424   3.437   6.823   5.601 -0.1559 -0.2503  0.8937
  489TIP3    H2 1425   3.535   6.740   5.681  1.1721  1.2414  0.8641
  490TIP3   OH2 1426   5.047   2.593   6.162 -0.8550  0.3626 -0.0017
  490TIP3    H1 1427   5.003   2.515   6.197  0.4023  0.2164  1.3529
  490TIP3    H2 1428   5.133   2.593   6.204 -0.4066  1.8777 -0.8440
  491TIP3   OH2 1429   5.276   7.342   6.315 -0.5216  0.6981 -0.0005
  491TIP3    H1 1430   5.318   7.393   6.384  1.3573  1.8169 -1.8558
  491TIP3    H2 1431   5.268   7.254   6.351  1.5005  0.9630  1.2416
  492TIP3   OH2 1432   1.322   0.927   5.427  0.0210 -0.5796 -1.0812
  492TIP3    H1 1433   1.280   0.874   5.359 -1.0001 -0.1586 -0.7945
  492TIP3    H2 1434   1.399   0.876   5.453 -0.8083 -1.8085 -0.9832
  493TIP3   OH2 1435   4.750   6.729   3.009  0.1729 -0.2812  0.0737
  493TIP3    H1 1436   4.828   6.708   2.958  1.3868  1.6478  1.0297
  493TIP3    H2 1437   4.755   6.672   3.086  0.6106 -0.2441  0.0755
  494TIP3   OH2 1438   0.038   7.595   5.054 -0.2074 -0.1275 -0.1515
  494TIP3    H1 1439   0.108   7.606   5.118 -1.7202 -0.0058  1.5581
  494TIP3    H2 1440   0.017   7.685   5.027 -1.7922  0.1484  1.7625
  495TIP3   OH2 1441   7.693   3.290   3.986 -0.4515 -0.6340  0.4506
  495TIP3    H1 1442   7.625   3.353   3.961  1.2828  0.2601 -2.5525
  495TIP3    H2 1443   7.698   3.297   4.081 -1.7051  2.3248  0.4160
  496TIP3   OH2 1444   1.410   6.052   1.288  0.0802  0.0857  0.8128
  496TIP3    H1 1445   1.423   6.145   1.273  1.5467 -0.5762 -2.9026
  496TIP3    H2 1446   1.318   6.044   1.312 -0.5923  2.3216 -0.7598
  497TIP3   OH2 1447   3.687   1.463   3.017  0.0410  0.2407 -0.5924
  497TIP3    H1 1448   3.781   1.448   3.029 -0.2431  0.2562  2.1262
  497TIP3    H2 1449   3.679   1.558   3.011  0.0243  0.4454  1.7518
  498TIP3   OH2 1450   5.742   3.739   2.065 -0.0079  0.3368 -0.3297
  498TIP3    H1 1451   5.827   3.765   2.100 -0.0028  0.0762 -0.1428
  498TIP3    H2 1452   5.691   3.820   2.063 -0.0751  0.3268  0.4868
  499TIP3   OH2 1453   3.953   0.010   6.702  0.0497 -0.1226 -0.3108
  499TIP3    H1 1454   4.015   0.065   6.656 -0.1957 -0.0726 -0.5877
  499TIP3    H2 1455   3.989   0.001   6.790 -0.4625  1.4034  0.0887
  500TIP3   OH2 1456   7.922   4.105   3.644 -0.4198  0.4616  0.0313
  500TIP3    H1 1457   7.837   4.102   3.600  0.0444  0.1948 -0.8861
  500TIP3    H2 1458   7.903   4.137   3.732 -1.3775  1.0381 -0.3700
  501TIP3   OH2 1459   6.076   0.374   0.921 -0.1254 -0.3081 -0.0722
  501TIP3    H1 1460   6.100   0.350   0.832  0.5005  0.3219 -0.0826
  501TIP3    H2 1461   6.026   0.299   0.954 -2.5247  0.4539 -1.7675
  502TIP3   OH2 1462   3.113   7.167   6.508 -0.1634 -0.0607  0.4030
  502TIP3    H1 1463   3.170   7.162   6.431 -0.0531 -0.6818  0.5164
  502TIP3    H2 1464   3.050   7.236   6.487  2.1611  2.5379  1.3253
  503TIP3   OH2 1465   5.641   3.664   0.603  0.3592 -0.2667  0.0622
  503TIP3    H1 1466   5.666   3.578   0.638 -3.2427 -0.6024  2.3100
  503TIP3    H2 1467   5.581   3.643   0.531 -0.8790  0.2980  0.9023
  504TIP3   OH2 1468   5.754   4.621   2.250 -0.5482  0.6453  0.5200
  504TIP3    H1 1469   5.844   4.651   2.244 -0.4680  0.1781 -0.9547
  504TIP3    H2 1470   5.720   4.663   2.329  1.1429  0.2759  1.4889
  505TIP3   OH2 1471   3.432   2.832   3.166  0.2921 -0.7426 -0.3366
  505TIP3    H1 1472   3.525   2.835   3.141  1.1177 -1.3050  2.3177
  505TIP3    H2 1473   3.430   2.872   3.253 -2.0299 -0.5701 -0.4134
  506TIP3   OH2 1474   2.042   6.489   6.042 -0.4903 -0.0477  0.6185
  506TIP3    H1 1475   2.111   6.555   6.046 -0.4306 -0.0507 -0.1122
  506TIP3    H2 1476   2.037   6.466   5.949 -0.0792 -1.5219  0.9287
  507TIP3   OH2 1477   2.204   7.111   6.221 -0.3028  0.2154 -0.0865
  507TIP3    H1 1478   2.132   7.057   6.189  0.3697 -1.2549  0.7853
  507TIP3    H2 1479   2.266   7.049   6.260  0.3981  1.6353  1.1755
  508TIP3   OH2 1480   6.928   4.860   4.378 -0.3385 -0.1849  0.1566
  508TIP3    H1 1481   6.993   4.818   4.433  1.4808  1.2407 -0.7625
  508TIP3    H2 1482   6.859   4.795   4.367  0.4535 -1.4053  1.9749
  509TIP3   OH2 1483   4.462   1.326   0.663  0.3760 -0.4060  0.4407
  509TIP3    H1 1484   4.445   1.333   0.570  0.7155 -0.4191  0.3765
  509TIP3    H2 1485   4.491   1.235   0.676 -1.4887 -0.9916  0.8579
  510TIP3   OH2 1486   2.685   1.836   6.652 -0.0769  0.5423  0.0077
  510TIP3    H1 1487   2.653   1.901   6.714  0.1706  1.7424 -1.0899
  510TIP3    H2 1488   2.761   1.876   6.611  0.6202 -0.7994 -0.0816
  511TIP3   OH2 1489   0.464   1.694   5.531 -0.1444  0.9882 -0.0250
  511TIP3    H1 1490   0.410   1.643   5.591  0.9661 -2.0370 -1.3671
  511TIP3    H2 1491   0.406   1.763   5.498 -1.4702  1.2594  2.5980
  512TIP3   OH2 1492   2.830   2.384   1.145 -0.5426 -0.7188  0.7544
  512TIP3    H1 1493   2.822   2.446   1.072 -0.2468 -0.6710  0.7602
  512TIP3    H2 1494   2.893   2.319   1.113 -0.8012 -0.9802  0.7734
  513TIP3   OH2 1495   2.672   2.716   4.395  0.3466 -0.0942  0.2521
  513TIP3    H1 1496   2.731   2.689   4.324 -1.2982  0.6933 -1.5214
  513TIP3    H2 1497   2.638   2.634   4.431  2.5193 -0.5781  1.4159
  514TIP3   OH2 1498   0.833   4.298   0.395 -0.6597 -0.0573 -0.8784
  514TIP3    H1 1499   0.856   4.219   0.444  1.9998  0.1195 -1.6548
  514TIP3    H2 1500   0.760   4.337   0.443  0.8291 -0.6832  2.0907
  515TIP3   OH2 1501   0.637   4.398   1.269  0.0643 -0.5336 -0.5361
  515TIP3    H1 1502   0.726   4.380   1.239 -0.0449  0.8117 -1.7619
  515TIP3    H2 1503   0.609   4.316   1.310  1.4562 -1.3415 -1.1106
  516TIP3   OH2 1504   3.042   3.384   6.550  0.2338  0.3516  0.1397
  516TIP3    H1 1505   3.094   3.374   6.631 -1.3515 -0.5808  1.1049
  516TIP3    H2 1506   2.965   3.434   6.577 -0.3857 -0.0863 -0.7761
  517TIP3   OH2 1507   5.051   0.892   2.746  0.5067 -0.1445  0.1884
  517TIP3    H1 1508   5.033   0.802   2.776  0.8784 -0.4716 -0.5537
  517TIP3    H2 1509   5.079   0.882   2.655 -0.3410  0.8160 -0.1901
  518TIP3   OH2 1510   1.333   4.769   1.489 -0.8362 -0.2522  0.5066
  518TIP3    H1 1511   1.408   4.709   1.489 -0.5588  0.0771 -0.4929
  518TIP3    H2 1512   1.257   4.711   1.496 -0.5403 -0.6650  0.3757
  519TIP3   OH2 1513   6.273   6.810   4.453  0.1389 -0.2458  0.4969
  519TIP3    H1 1514   6.339   6.875   4.430  1.5225 -2.0669 -1.0212
  519TIP3    H2 1515   6.253   6.828   4.545  1.6375  1.3043  0.5750
  520TIP3   OH2 1516   5.256   7.526   3.113 -0.8084 -0.2077 -0.9529
  520TIP3    H1 1517   5.237   7.541   3.205 -1.5239 -0.5619 -1.0342
  520TIP3    H2 1518   5.262   7.614   3.075  1.2244  0.0172 -0.2618
  521TIP3   OH2 1519   6.446   5.068   5.207  0.1574  0.3941 -0.0474
  521TIP3    H1 1520   6.420   5.106   5.123  1.8819  0.9370 -0.3763
  521TIP3    H2 1521   6.481   4.982   5.185 -1.2535 -0.3160  0.3833
  522TIP3   OH2 1522   4.694   5.980   5.358  0.4994 -0.1195 -0.0763
  522TIP3    H1 1523   4.626   5.992   5.425  1.1919  0.1710  0.6035
  522TIP3    H2 1524   4.717   6.070   5.333 -0.4042 -0.2373 -1.4063
  523TIP3   OH2 1525   2.842   0.248   1.102 -0.1843  0.7241 -0.1364
  523TIP3    H1 1526   2.873   0.333   1.072  1.7060  0.2412  0.3126
  523TIP3    H2 1527   2.919   0.191   1.097 -1.4258 -0.9915 -0.5042
  524TIP3   OH2 1528   1.971   7.609   2.006 -0.6695  0.4550  0.1538
  524TIP3    H1 1529   1.999   7.674   2.070 -0.7819  0.0849  0.5857
  524TIP3    H2 1530   1.941   7.535   2.059 -1.0894  0.2803 -0.3231
  525TIP3   OH2 1531   5.966   6.328   3.382 -0.2018  0.1898  0.0718
  525TIP3    H1 1532   6.009   6.377   3.453  1.1220  1.2165 -1.3759
  525TIP3    H2 1533   5.959   6.239   3.415  1.1029  0.4800  1.1979
  526TIP3   OH2 1534   6.536   2.149   5.348 -0.3629 -0.3580  0.5504
  526TIP3    H1 1535   6.524   2.080   5.414 -1.0822  0.4548  1.2971
  526TIP3    H2 1536   6.468   2.214   5.369  0.8206  0.9688  0.3721
  527TIP3   OH2 1537   5.139   1.346   5.085  0.0061 -0.5787  0.4340
  527TIP3    H1 1538   5.159   1.253   5.075 -0.1565 -0.4853 -0.8940
  527TIP3    H2 1539   5.132   1.379   4.995  0.3439  0.7764  0.8847
  528TIP3   OH2 1540   5.025   6.859   3.933  0.7596 -0.3340 -0.3606
  528TIP3    H1 1541   5.018   6.917   3.857  0.4646 -0.8584 -0.7463
  528TIP3    H2 1542   4.948   6.802   3.926  0.7583 -0.4227  0.3064
  529TIP3   OH2 1543   2.201   0.046   1.506  0.4438 -0.4733  0.0506
  529TIP3    H1 1544   2.266   0.086   1.564 -0.7072 -1.7969  2.4280
  529TIP3    H2 1545   2.252  -0.013   1.450  1.5833  0.7005 -0.1864
  530TIP3   OH2 1546   8.278   1.969   3.492  0.4013  0.0422 -0.0667
  530TIP3    H1 1547   8.372   1.988   3.496  0.2801  0.8321 -0.6184
  530TIP3    H2 1548   8.236   2.051   3.517 -0.1467 -0.6730  1.4452
  531TIP3   OH2 1549   5.028   6.415   0.391  0.4159  0.0752  0.3748
  531TIP3    H1 1550   5.071   6.338   0.427  1.1243 -0.4143 -1.4188
  531TIP3    H2 1551   5.100   6.471   0.362 -0.1171  0.6534  0.1645
  532TIP3   OH2 1552   1.045   6.646   5.175  0.0738 -0.1178  0.7998
  532TIP3    H1 1553   1.137   6.622   5.165 -0.1067 -0.2032 -0.9118
  532TIP3    H2 1554   1.015   6.662   5.086 -1.4416  0.4195  1.3835
  533TIP3   OH2 1555   6.249   0.741   4.747 -0.0144  1.0898 -0.1609
  533TIP3    H1 1556   6.188   0.804   4.783 -0.3388 -0.4071  2.0977
  533TIP3    H2 1557   6.236   0.662   4.799  2.0253 -0.1103 -1.3247
  534TIP3   OH2 1558   1.067   1.627   3.515 -0.7080  0.0480 -0.5191
  534TIP3    H1 1559   1.086   1.549   3.568  0.9202  0.9919  0.3757
  534TIP3    H2 1560   0.973   1.641   3.524 -0.8207 -1.1297  0.2756
  535TIP3   OH2 1561   7.418   5.413   4.104 -0.4004 -0.1194  0.1540
  535TIP3    H1 1562   7.464   5.330   4.115 -0.3793 -0.1657 -0.2805
  535TIP3    H2 1563   7.455   5.470   4.171  0.4521 -0.0839 -0.3290
  536TIP3   OH2 1564   1.958   3.834   5.653 -0.3450  0.5075  0.3611
  536TIP3    H1 1565   1.879   3.887   5.649  0.0428  1.0756  0.1281
  536TIP3    H2 1566   1.926   3.744   5.663 -1.0595  0.6094 -0.8051
  537TIP3   OH2 1567   7.677   1.399   1.653 -0.0661 -0.0737 -0.2837
  537TIP3    H1 1568   7.768   1.429   1.661  0.1228 -1.0980  3.5613
  537TIP3    H2 1569   7.625   1.478   1.671  0.1946 -0.1118  0.7178
  538TIP3   OH2 1570   2.307   6.144   4.873 -0.1327  0.4703 -0.4741
  538TIP3    H1 1571   2.262   6.225   4.851 -2.6108 -1.0408 -1.3573
  538TIP3    H2 1572   2.325   6.103   4.789  0.3540 -0.2713 -0.0195
  539TIP3   OH2 1573   3.069   3.321   6.289 -0.1988  0.2172  0.1610
  539TIP3    H1 1574   3.078   3.313   6.384  0.4385 -2.2778 -0.0499
  539TIP3    H2 1575   3.159   3.315   6.255 -0.6323 -2.4283 -0.7382
  540TIP3   OH2 1576   0.589   5.844   2.573 -0.0813 -0.6824 -0.0171
  540TIP3    H1 1577   0.610   5.759   2.612 -2.7095 -0.1136  3.0834
  540TIP3    H2 1578   0.500   5.834   2.540 -0.3279  0.7647  0.1566
  541TIP3   OH2 1579   8.052   1.059   0.836  0.0612  0.1294  0.4799
  541TIP3    H1 1580   8.090   0.972   0.847  1.2780  0.4774 -0.7291
  541TIP3    H2 1581   7.986   1.065   0.905  0.2826 -1.5617  0.8822
  542TIP3   OH2 1582   2.033   4.271   2.114 -0.2699  0.2602 -0.1823
  542TIP3    H1 1583   1.966   4.242   2.052 -1.1537 -0.9211  1.2586
  542TIP3    H2 1584   2.004   4.359   2.140 -0.8942  0.0400 -0.1023
  543TIP3   OH2 1585   1.767   3.976   5.014 -0.1895  0.2908  0.1500
  543TIP3    H1 1586   1.843   3.927   4.983 -1.4403 -1.0357 -0.9657
  543TIP3    H2 1587   1.710   3.983   4.937 -1.8637 -0.0570  1.3054
  544TIP3   OH2 1588   5.811   4.457   3.428 -0.1292 -0.3117  0.9198
  544TIP3    H1 1589   5.896   4.424   3.399 -0.6681 -0.9364 -0.0045
  544TIP3    H2 1590   5.801   4.541   3.382  1.3351  1.3738  3.4314
  545TIP3   OH2 1591   1.213   1.199   4.209  0.4974 -0.0982  0.2637
  545TIP3    H1 1592   1.165   1.245   4.139  0.5939  0.2780  0.4457
  545TIP3    H2 1593   1.300   1.183   4.172 -0.0755 -1.7457 -0.4809
  546TIP3   OH2 1594   4.798   5.192   6.486  0.1042  0.2596 -0.7446
  546TIP3    H1 1595   4.704   5.193   6.467  0.0363  1.0913 -0.4290
  546TIP3    H2 1596   4.821   5.285   6.498  0.6626 -0.0382  0.6695
  547TIP3   OH2 1597   4.672   3.174   4.227  0.2022  0.4345 -0.0090
  547TIP3    H1 1598   4.624   3.253   4.205  0.5523  0.7197  0.2276
  547TIP3    H2 1599   4.763   3.204   4.236  0.2014  0.1689  0.9402
  548TIP3   OH2 1600   1.746   5.839   6.489  0.1703  0.9204 -0.4877
  548TIP3    H1 1601   1.834   5.824   6.454 -0.9312 -0.7517 -2.8042
  548TIP3    H2 1602   1.713   5.914   6.438 -0.4150  0.3156 -1.0093
  549TIP3   OH2 1603   3.204   7.672   4.449  0.4124  0.2591 -0.2645
  549TIP3    H1 1604   3.190   7.765   4.464  1.0014  0.3525 -0.2870
  549TIP3    H2 1605   3.161   7.654   4.366 -2.1480 -0.0851  1.0156
  550TIP3   OH2 1606   6.480   0.698   3.683 -0.3243 -0.5280 -0.4680
  550TIP3    H1 1607   6.472   0.793   3.694  0.3112 -0.3719 -1.2852
  550TIP3    H2 1608   6.574   0.682   3.677 -0.4790 -1.0546 -1.6698
  551TIP3   OH2 1609   1.655   1.482   5.726  0.4822 -0.3861  0.3666
  551TIP3    H1 1610   1.714   1.461   5.654 -0.7742 -0.8715 -0.5579
  551TIP3    H2 1611   1.700   1.449   5.804  2.0322  0.4753 -0.1177
  552TIP3   OH2 1612   0.475   4.644   1.069  0.1057 -0.4129  0.0937
  552TIP3    H1 1613   0.469   4.691   1.152  1.6800  0.4871 -0.2641
  552TIP3    H2 1614   0.487   4.552   1.093 -0.5232 -0.3026  0.8402
  553TIP3   OH2 1615   6.865   6.846   2.106 -0.3826 -0.1658  0.0345
  553TIP3    H1 1616   6.785   6.810   2.067 -0.1404 -1.5648  0.7539
  553TIP3    H2 1617   6.936   6.811   2.052 -0.1718 -0.4504  0.4784
  554TIP3   OH2 1618   7.366   5.816   1.769  0.0283  0.3189 -0.6271
  554TIP3    H1 1619   7.386   5.824   1.863  0.4826  2.0434 -0.8468
  554TIP3    H2 1620   7.421   5.743   1.740 -0.6736 -0.7248  0.5806
  555TIP3   OH2 1621   6.642   6.680   2.016 -0.4265  0.5414 -0.0994
  555TIP3    H1 1622   6.658   6.595   1.974 -0.2349  1.2066 -1.4405
  555TIP3    H2 1623   6.599   6.658   2.098  0.8966 -0.9255  0.2612
  556TIP3   OH2 1624   5.702   7.353   3.444 -0.0683 -0.1613 -0.4956
  556TIP3    H1 1625   5.656   7.400   3.374  0.5345  0.8892 -0.2184
  556TIP3    H2 1626   5.743   7.279   3.401 -0.6953 -0.2041 -1.0331
  557TIP3   OH2 1627   6.623   3.842   5.139  0.3077  0.0460 -0.4700
  557TIP3    H1 1628   6.663   3.805   5.219 -0.4802 -0.9382 -0.5059
  557TIP3    H2 1629   6.612   3.766   5.082 -0.6589  0.4742 -0.8608
  558TIP3   OH2 1630   2.035   6.690   0.012 -1.0158 -0.0284 -0.3165
  558TIP3    H1 1631   2.100   6.712   0.079 -4.0459  0.4644  2.6855
  558TIP3    H2 1632   2.041   6.595   0.003 -0.5744 -0.1054  0.6885
  559TIP3   OH2 1633   3.587   0.558   4.355 -0.4147  0.1272  0.2137
  559TIP3    H1 1634   3.524   0.491   4.382  1.0719 -1.0929  0.7907
  559TIP3    H2 1635   3.564   0.634   4.409 -0.0483 -0.9963  2.0698
  560TIP3   OH2 1636   7.611   7.385   0.897 -0.3983  0.3001  0.2131
  560TIP3    H1 1637   7.683   7.370   0.835  0.6058  0.9925  1.1742
  560TIP3    H2 1638   7.560   7.304   0.893  0.6745 -0.3937 -0.1937
  561TIP3   OH2 1639   6.490   3.110   2.115 -0.0431  0.0412 -0.1795
  561TIP3    H1 1640   6.557   3.043   2.101  0.7000  0.7628 -0.1763
  561TIP3    H2 1641   6.408   3.068   2.090  0.4690 -0.7142 -0.6308
  562TIP3   OH2 1642   7.551   4.166   6.386  0.0524  0.2910 -0.3816
  562TIP3    H1 1643   7.618   4.119   6.436 -0.6549  0.5305  0.8323
  562TIP3    H2 1644   7.529   4.107   6.313  2.2072  0.5953 -1.3516
  563TIP3   OH2 1645   7.673   4.979   4.031 -0.1969 -0.1016 -0.1760
  563TIP3    H1 1646   7.587   4.940   4.043 -1.0018  0.8233 -2.3402
  563TIP3    H2 1647   7.734   4.907   4.045 -1.2936 -0.7845  1.3746
  564TIP3   OH2 1648   0.570   4.528   5.336  0.4004 -0.3648 -0.1006
  564TIP3    H1 1649   0.513   4.474   5.281 -0.4025 -2.3507  2.4980
  564TIP3    H2 1650   0.647   4.475   5.352 -0.3880 -0.8959  2.4797
  565TIP3   OH2 1651   7.026   3.906   3.678 -0.2022 -0.1888  0.1037
  565TIP3    H1 1652   7.023   3.830   3.735  2.2179  0.5734  1.4309
  565TIP3    H2 1653   7.118   3.933   3.679 -0.6691  1.7815 -1.6251
  566TIP3   OH2 1654   1.161   2.191   4.437 -0.5061  0.2815  0.5164
  566TIP3    H1 1655   1.214   2.258   4.481  1.8889 -1.0427 -0.1385
  566TIP3    H2 1656   1.163   2.216   4.344  0.5461 -0.7219  0.2442
  567TIP3   OH2 1657   0.467   3.780   3.019  0.1162  0.1419  0.1155
  567TIP3    H1 1658   0.429   3.774   3.107 -0.0880 -1.4921 -0.0478
  567TIP3    H2 1659   0.521   3.702   3.011  0.6963  0.6336 -0.9630
  568TIP3   OH2 1660   7.829   7.364   5.569  0.3544  0.7162  0.5115
  568TIP3    H1 1661   7.883   7.301   5.522  1.0395  1.5433  0.1672
  568TIP3    H2 1662   7.835   7.445   5.518  0.4950  1.4182  1.6035
  569TIP3   OH2 1663   7.563   3.130   5.718  0.3624 -0.1255  0.2654
  569TIP3    H1 1664   7.604   3.086   5.644 -0.2137  1.8647 -1.3151
  569TIP3    H2 1665   7.475   3.093   5.722  0.0208  0.5384 -0.7814
  570TIP3   OH2 1666   7.217   5.399   6.552 -0.3586  0.7030 -0.4979
  570TIP3    H1 1667   7.255   5.394   6.640 -1.6853  0.6606  0.1065
  570TIP3    H2 1668   7.288   5.374   6.493  0.0192 -1.3791  0.7152
  571TIP3   OH2 1669   7.796   1.439   2.898 -0.0180 -0.1194  0.0357
  571TIP3    H1 1670   7.834   1.412   2.982  0.2007 -1.5697 -0.4974
  571TIP3    H2 1671   7.749   1.519   2.918  1.3824  0.4571  1.2080
  572TIP3   OH2 1672   2.366   1.852   0.967 -0.2073  0.1344 -0.0107
  572TIP3    H1 1673   2.388   1.920   1.031  1.5803 -1.1698  0.8661
  572TIP3    H2 1674   2.412   1.878   0.887 -0.2617  0.4145  0.0489
  573TIP3   OH2 1675   5.159   7.264   0.038  0.7080 -0.0315 -0.2827
  573TIP3    H1 1676   5.132   7.172   0.035  1.3854 -0.2258 -0.6782
  573TIP3    H2 1677   5.123   7.297   0.120 -2.9020  0.4249 -1.8420
  574TIP3   OH2 1678   5.921   6.769   6.459 -0.1897  0.4138  0.7495
  574TIP3    H1 1679   6.016   6.780   6.456 -0.1173 -0.1534  0.8227
  574TIP3    H2 1680   5.886   6.850   6.422  0.3686 -0.0826 -0.9687
  575TIP3   OH2 1681   7.639   0.042   0.292  0.3990 -0.1044 -0.3874
  575TIP3    H1 1682   7.547   0.067   0.291 -0.1685 -1.9911 -2.2685
  575TIP3    H2 1683   7.668   0.053   0.201  1.7307 -0.5157 -0.0372
  576TIP3   OH2 1684   8.223   5.975   2.987 -0.1658  0.0285 -0.1620
  576TIP3    H1 1685   8.225   6.067   2.960 -0.0724  0.5510  1.4956
  576TIP3    H2 1686   8.138   5.964   3.030 -0.8578 -1.1174 -1.7416
  577TIP3   OH2 1687   6.168   3.187   1.183 -0.0922  0.7111 -0.5985
  577TIP3    H1 1688   6.073   3.186   1.193  0.0238 -0.1007  0.6264
  577TIP3    H2 1689   6.190   3.280   1.175 -0.8257  1.0510  1.0059
  578TIP3   OH2 1690   0.117   3.461   5.144  0.0602 -0.4654 -0.1012
  578TIP3    H1 1691   0.191   3.466   5.205 -0.6132 -0.2844  0.7200
  578TIP3    H2 1692   0.044   3.429   5.197 -0.9897  1.3242 -0.3754
  579TIP3   OH2 1693   5.626   0.364   3.618  0.2402  0.0761  0.3289
  579TIP3    H1 1694   5.542   0.355   3.573  1.7176 -0.4266 -2.5470
  579TIP3    H2 1695   5.606   0.417   3.695 -2.4689  1.1934 -1.0148
  580TIP3   OH2 1696   7.891   4.422   3.819 -0.1694  0.2039  0.4751
  580TIP3    H1 1697   7.840   4.484   3.767 -0.0798  0.7916  1.0628
  580TIP3    H2 1698   7.836   4.344   3.826 -1.1520  0.9515  1.3870
  581TIP3   OH2 1699   1.515   4.389   5.917  0.1437 -0.2650 -0.0230
  581TIP3    H1 1700   1.569   4.405   5.839  2.0046 -1.3265  0.9820
  581TIP3    H2 1701   1.439   4.342   5.883 -0.0782  1.0373 -1.4550
  582TIP3   OH2 1702   5.354   7.623   5.629 -0.0028 -0.0510 -0.1251
  582TIP3    H1 1703   5.276   7.678   5.623  0.9522  1.8101  2.4792
  582TIP3    H2 1704   5.404   7.644   5.551  0.1798  2.7101  0.6382
  583TIP3   OH2 1705   6.587   5.302   1.214 -0.4689  0.0234 -0.4685
  583TIP3    H1 1706   6.626   5.335   1.295 -2.5875 -0.8669  1.0195
  583TIP3    H2 1707   6.639   5.342   1.144  1.5116  0.7419  1.3023
  584TIP3   OH2 1708   4.326   0.274   6.398 -0.2791 -0.3626 -0.7143
  584TIP3    H1 1709   4.313   0.265   6.304 -1.1859 -1.2084 -0.5200
  584TIP3    H2 1710   4.249   0.324   6.428 -1.0788 -1.8883 -0.1399
  585TIP3   OH2 1711   5.230   4.716   6.319  0.0351  0.3604  0.1220
  585TIP3    H1 1712   5.207   4.642   6.376  0.7123  0.3819  0.4377
  585TIP3    H2 1713   5.161   4.718   6.253 -0.0899 -0.4437  0.2185
  586TIP3   OH2 1714   3.758   5.491   1.424  0.0062 -0.4032 -0.0314
  586TIP3    H1 1715   3.767   5.462   1.515  0.4648 -0.0563  0.0399
  586TIP3    H2 1716   3.795   5.579   1.423 -0.6983 -0.1050 -0.3981
  587TIP3   OH2 1717   7.982   5.590   0.921  0.1211  0.0520  0.1772
  587TIP3    H1 1718   8.061   5.643   0.916 -0.0002  0.1641 -0.9768
  587TIP3    H2 1719   8.012   5.501   0.903  0.1477 -0.0860  0.8899
  588TIP3   OH2 1720   7.114   6.745   4.243 -0.0609  0.0170 -0.2701
  588TIP3    H1 1721   7.040   6.802   4.220  0.0265  0.0386 -0.4943
  588TIP3    H2 1722   7.116   6.747   4.339 -2.6203 -2.8405  0.0130
  589TIP3   OH2 1723   5.916   5.558   5.665  0.5938 -0.1412 -0.4155
  589TIP3    H1 1724   5.851   5.573   5.733  0.8614 -0.4366 -0.0849
  589TIP3    H2 1725   5.897   5.623   5.598 -0.3337 -0.5263 -0.5450
  590TIP3   OH2 1726   5.929   0.298   3.700  0.2132 -0.5078  0.4458
  590TIP3    H1 1727   5.870   0.223   3.699  0.0984 -0.4482  1.5952
  590TIP3    H2 1728   5.876   0.370   3.734  0.9810 -0.5006  1.6618
  591TIP3   OH2 1729   0.711   0.509   6.490  0.3480  0.3196 -0.1651
  591TIP3    H1 1730   0.694   0.513   6.584 -1.2260  1.5288 -0.4638
  591TIP3    H2 1731   0.710   0.600   6.461  1.3035  0.0012 -1.2964
  592TIP3   OH2 1732   6.694   6.413   1.933  0.4690 -0.8510  0.5239
  592TIP3    H1 1733   6.742   6.330   1.933  3.5954  0.7994 -0.2609
  592TIP3    H2 1734   6.744   6.469   1.874 -1.9289  1.4148  0.4886
  593TIP3   OH2 1735   0.391   7.121   6.192 -0.2677  0.5455 -0.4321
  593TIP3    H1 1736   0.418   7.040   6.148 -2.0939  0.0247 -0.6581
  593TIP3    H2 1737   0.360   7.178   6.122  0.2107  1.1342 -0.1803
  594TIP3   OH2 1738   0.722   4.783   3.937 -0.1405  0.1089  0.3635
  594TIP3    H1 1739   0.634   4.764   3.968 -0.1171  1.0583  1.0487
  594TIP3    H2 1740   0.774   4.706   3.962 -0.6324 -0.1617  0.5514
  595TIP3   OH2 1741   6.089   2.152   2.310 -0.7341  0.0772  0.2644
  595TIP3    H1 1742   6.098   2.247   2.295 -1.7480 -0.1730 -2.5354
  595TIP3    H2 1743   6.039   2.121   2.234  2.8436 -3.3173 -1.0312
  596TIP3   OH2 1744   6.436   6.011   5.633  0.3961 -0.6134 -0.4506
  596TIP3    H1 1745   6.502   5.949   5.663  0.3738 -1.0173 -1.2060
  596TIP3    H2 1746   6.482   6.065   5.568 -0.2049 -1.3985 -1.5495
  597TIP3   OH2 1747   2.320   6.985   0.880  0.4228 -0.1204  0.1930
  597TIP3    H1 1748   2.297   7.055   0.818 -0.0651 -0.3871  0.0668
  597TIP3    H2 1749   2.414   6.975   0.870  0.7448  1.4601  1.1922
  598TIP3   OH2 1750   3.476   2.082   4.442  0.4130 -0.6045  0.2523
  598TIP3    H1 1751   3.498   2.137   4.367  1.1155 -0.8599  0.2653
  598TIP3    H2 1752   3.546   2.017   4.446 -0.8541 -2.0672 -0.3173
  599TIP3   OH2 1753   4.212   2.972   0.145 -0.1671  0.8386 -0.5644
  599TIP3    H1 1754   4.157   2.971   0.224 -0.7597 -0.2287 -0.9818
  599TIP3    H2 1755   4.269   2.896   0.154 -1.1472 -0.0752 -1.7846
  600TIP3   OH2 1756   7.580   3.270   2.703  0.0452 -0.4218 -0.5670
  600TIP3    H1 1757   7.570   3.178   2.681  1.3466 -0.2277 -2.2671
  600TIP3    H2 1758   7.554   3.316   2.623  3.0751  0.4574 -1.1871
  601TIP3   OH2 1759   0.781   3.982   4.690 -0.4073 -0.4501 -0.2651
  601TIP3    H1 1760   0.869   3.974   4.727 -0.7710 -0.4572  0.6290
  601TIP3    H2 1761   0.780   4.069   4.650 -0.9339  0.9088  2.4272
  602TIP3   OH2 1762   2.738   7.367   1.669  0.2281 -0.1036  0.3135
  602TIP3    H1 1763   2.742   7.463   1.672  1.6600 -0.1572  2.5890
  602TIP3    H2 1764   2.650   7.348   1.635 -0.6705  2.0220  1.2532
  603TIP3   OH2 1765   5.132   6.633   0.870  0.0839  0.5600  0.1577
  603TIP3    H1 1766   5.132   6.599   0.781 -0.9310  0.8176  0.0447
  603TIP3    H2 1767   5.193   6.707   0.868  1.5654 -0.6097  0.1728
  604TIP3   OH2 1768   6.897   4.255   0.539 -0.0996 -0.0361 -0.1487
  604TIP3    H1 1769   6.945   4.236   0.619  0.8225 -1.7912 -1.0654
  604TIP3    H2 1770   6.865   4.170   0.509  1.0495  0.2968 -2.5580
  605TIP3   OH2 1771   2.806   2.728   6.438 -0.5790 -0.0232  0.3689
  605TIP3    H1 1772   2.815   2.700   6.529 -0.2834  0.5567  0.5229
  605TIP3    H2 1773   2.882   2.690   6.394  0.0369  0.8370  0.6583
  606TIP3   OH2 1774   3.402   7.710   5.094  0.1375 -0.4442 -0.7990
  606TIP3    H1 1775   3.325   7.731   5.042  1.4129 -1.6374 -3.3366
  606TIP3    H2 1776   3.382   7.625   5.134 -0.6673  0.2681  0.3819
  607TIP3   OH2 1777   6.883   0.407   3.082 -0.6336 -0.2016 -0.6305
  607TIP3    H1 1778   6.850   0.440   3.166 -0.9446 -1.2622 -0.3241
  607TIP3    H2 1779   6.805   0.379   3.035 -0.4318  0.1095 -1.1618
  608TIP3   OH2 1780   6.666   6.413   3.578  0.0208 -0.6786 -0.0230
  608TIP3    H1 1781   6.633   6.327   3.552 -1.0693 -0.5168  0.7502
  608TIP3    H2 1782   6.634   6.472   3.509 -0.4195 -0.6877  0.1685
  609TIP3   OH2 1783   6.014   2.066   4.434  0.6109 -0.3485 -0.2690
  609TIP3    H1 1784   6.071   2.112   4.373  1.4337 -0.5405  0.3437
  609TIP3    H2 1785   6.073   2.014   4.488 -0.2837 -1.9831 -0.8199
  610TIP3   OH2 1786   0.283   6.653   1.882 -0.0055 -0.0649  0.1741
  610TIP3    H1 1787   0.313   6.664   1.792 -2.3110 -1.2987 -0.8205
  610TIP3    H2 1788   0.316   6.567   1.908 -0.6778 -0.4090 -0.0891
  611TIP3   OH2 1789   5.965   7.439   3.489  0.2853 -0.2512 -0.3575
  611TIP3    H1 1790   5.873   7.414   3.483  0.2677  0.0489 -1.5158
  611TIP3    H2 1791   5.964   7.524   3.534 -0.3123  1.2568 -2.9968
  612TIP3   OH2 1792   4.871   0.107   3.147 -0.2427 -0.3452  0.4404
  612TIP3    H1 1793   4.837   0.085   3.060  1.0948 -0.3053 -0.1211
  612TIP3    H2 1794   4.843   0.198   3.161  2.5056  0.9580 -1.5719
  613TIP3   OH2 1795   5.317   5.991   4.084 -0.4632 -0.4075  0.3028
  613TIP3    H1 1796   5.298   6.033   4.168  1.8375 -1.6832  1.5640
  613TIP3    H2 1797   5.235   5.951   4.058 -1.9352  2.1761  0.5721
  614TIP3   OH2 1798   1.947   6.769   6.555  0.2615  0.4827  0.1482
  614TIP3    H1 1799   1.966   6.751   6.647 -1.6661  1.2392  0.7464
  614TIP3    H2 1800   1.928   6.863   6.552  3.0786  1.1275 -1.6005
  615TIP3   OH2 1801   5.463   6.183   2.997 -0.0327 -0.0825  0.2658
  615TIP3    H1 1802   5.557   6.201   2.990 -0.1869  0.5731 -0.2607
  615TIP3    H2 1803   5.424   6.229   2.923 -0.7906 -0.2247  0.5629
  616TIP3   OH2 1804   4.186   1.443   0.355 -0.4825  1.0101 -0.2882
  616TIP3    H1 1805   4.184   1.503   0.429 -2.0625  1.8531 -0.9568
  616TIP3    H2 1806   4.210   1.498   0.280  0.1393  0.3680 -0.5747
  617TIP3   OH2 1807   1.062   3.078   1.158  0.1696 -0.3285 -0.1102
  617TIP3    H1 1808   1.049   3.172   1.171  0.4187 -0.1614 -0.9882
  617TIP3    H2 1809   1.051   3.039   1.245 -0.2429  0.4760  0.2023
  618TIP3   OH2 1810   5.657   6.078   1.870  0.3906 -0.1196  0.2628
  618TIP3    H1 1811   5.741   6.119   1.888 -0.0427  1.9886 -1.9597
  618TIP3    H2 1812   5.609   6.085   1.953  1.1562  1.9646  0.5995
  619TIP3   OH2 1813   2.270   1.526   6.276 -0.3633 -0.2603  0.4532
  619TIP3    H1 1814   2.351   1.567   6.246 -1.1957  2.5602  1.7528
  619TIP3    H2 1815   2.298   1.443   6.314  1.7200 -0.0368 -0.4568
  620TIP3   OH2 1816   4.091   2.597   6.494 -0.2010 -0.2852 -0.2299
  620TIP3    H1 1817   4.163   2.575   6.435  0.0418 -0.1165 -0.0022
  620TIP3    H2 1818   4.087   2.693   6.493  0.7084 -0.2023  1.0714
  621TIP3   OH2 1819   7.919   2.655   4.502 -0.2659 -0.4017  0.1579
  621TIP3    H1 1820   7.897   2.748   4.489  1.6471  0.2776  1.3605
  621TIP3    H2 1821   7.990   2.639   4.441 -0.5209 -1.0602  0.0306
  622TIP3   OH2 1822   2.923   7.562   3.364 -0.2712 -0.0071  0.4471
  622TIP3    H1 1823   2.875   7.630   3.318 -0.8550 -0.2836  0.6435
  622TIP3    H2 1824   3.011   7.597   3.374 -0.4235  0.4883  0.0583
  623TIP3   OH2 1825   5.762   6.850   0.685 -0.5000 -0.1442  0.0175
  623TIP3    H1 1826   5.714   6.933   0.691 -1.4678 -0.6946  0.1262
  623TIP3    H2 1827   5.849   6.875   0.656 -1.3963  0.7408 -2.1483
  624TIP3   OH2 1828   5.112   5.904   2.046  0.3071  0.3066  0.4368
  624TIP3    H1 1829   5.088   5.981   1.995  1.5473  0.2637 -0.2544
  624TIP3    H2 1830   5.207   5.903   2.044  0.3176 -1.0418  0.7474
  625TIP3   OH2 1831   0.720   2.331   5.820 -0.2914  0.2267 -0.0308
  625TIP3    H1 1832   0.703   2.346   5.913 -0.4016  0.2604 -0.0565
  625TIP3    H2 1833   0.634   2.314   5.782 -0.3418  1.0520 -0.2871
  626TIP3   OH2 1834   7.680   6.748   1.395 -0.3743  0.0074  0.2866
  626TIP3    H1 1835   7.693   6.841   1.375 -1.1572  0.1007  0.1899
  626TIP3    H2 1836   7.737   6.702   1.333  0.4604  0.4297  0.7174
  627TIP3   OH2 1837   2.465   6.190   1.322  0.5332 -0.0970 -0.2179
  627TIP3    H1 1838   2.553   6.166   1.294  0.8054 -0.6612  1.0325
  627TIP3    H2 1839   2.431   6.245   1.252  1.3830 -0.9521 -1.3316
  628TIP3   OH2 1840   7.783   1.448   2.368  0.4879  0.3495 -0.8772
  628TIP3    H1 1841   7.789   1.543   2.371  0.7738  0.3454 -1.2417
  628TIP3    H2 1842   7.712   1.430   2.305 -0.9165  0.3423  0.6438
  629TIP3   OH2 1843   6.914   5.378   6.101  0.2534 -0.4913  0.1111
  629TIP3    H1 1844   6.884   5.373   6.010 -1.8779 -0.3281  0.7438
  629TIP3    H2 1845   6.870   5.306   6.146 -0.1465  0.4771  1.3514
  630TIP3   OH2 1846   7.335   4.584   6.665  0.2415 -0.3051  0.9152
  630TIP3    H1 1847   7.257   4.612   6.618  0.5618  0.6802  0.9443
  630TIP3    H2 1848   7.367   4.508   6.616  0.7481  0.8758 -0.6853
  631TIP3   OH2 1849   3.534   3.507   4.190  0.0911  0.5211 -0.2717
  631TIP3    H1 1850   3.486   3.449   4.248  1.8894 -0.4946  0.2875
  631TIP3    H2 1851   3.600   3.451   4.149  0.2103  1.6445 -1.7262
  632TIP3   OH2 1852   2.184   4.433   5.624 -0.0977  0.1062  0.0294
  632TIP3    H1 1853   2.264   4.481   5.601  0.7890 -1.0285  0.6019
  632TIP3    H2 1854   2.113   4.493   5.604  0.9917  2.1076  1.8045
  633TIP3   OH2 1855   8.083   2.712   2.124 -0.2149 -1.0990  0.0166
  633TIP3    H1 1856   7.988   2.712   2.109 -0.0058 -0.2480 -1.5335
  633TIP3    H2 1857   8.092   2.731   2.218 -1.5748  0.2823 -0.0786
  634TIP3   OH2 1858   4.080   5.031   4.802  0.3969  0.3887  0.3041
  634TIP3    H1 1859   4.166   5.015   4.841  1.4430 -0.7116 -2.2685
  634TIP3    H2 1860   4.059   5.121   4.826  3.4297  1.5722 -0.9766
  635TIP3   OH2 1861   3.981   0.458   5.090  0.2596  0.1012  0.3125
  635TIP3    H1 1862   3.919   0.472   5.019  0.2197  0.7313  0.4629
  635TIP3    H2 1863   3.932   0.409   5.156  0.6015 -1.4352 -0.5117
  636TIP3   OH2 1864   0.593   2.481   1.155  0.1090 -0.9253 -0.0335
  636TIP3    H1 1865   0.662   2.543   1.177 -2.1618  1.3729  1.0771
  636TIP3    H2 1866   0.563   2.507   1.068  0.2407 -1.5257 -0.2615
  637TIP3   OH2 1867   4.568   1.996   1.128  0.2907 -0.3693  0.1249
  637TIP3    H1 1868   4.582   1.907   1.162 -3.0645 -1.0437  0.0678
  637TIP3    H2 1869   4.562   1.985   1.033 -2.6373 -0.6331  0.2468
  638TIP3   OH2 1870   5.442   5.695   4.288  0.0208 -0.1052  0.0413
  638TIP3    H1 1871   5.397   5.713   4.205  0.7106  0.0430 -0.3117
  638TIP3    H2 1872   5.386   5.733   4.355  0.4774  1.6455 -0.5339
  639TIP3   OH2 1873   2.055   1.084   1.944  0.2981  0.0376 -0.6199
  639TIP3    H1 1874   2.128   1.030   1.975  0.3826 -0.1930 -1.2095
  639TIP3    H2 1875   2.037   1.052   1.856  1.4498  2.0992 -1.6643
  640TIP3   OH2 1876   3.318   6.385   6.114 -0.4262 -0.0786  0.3371
  640TIP3    H1 1877   3.339   6.479   6.118  0.0750 -0.0624 -1.7005
  640TIP3    H2 1878   3.223   6.383   6.107 -0.3400  0.4191 -1.5639
  641TIP3   OH2 1879   2.517   5.565   1.675 -0.0605  0.1592 -0.4010
  641TIP3    H1 1880   2.574   5.573   1.599  0.5336  1.0215  0.1197
  641TIP3    H2 1881   2.469   5.483   1.661  1.5931 -0.7973 -0.6448
  642TIP3   OH2 1882   5.308   0.179   1.893  0.3963 -0.4535  0.2357
  642TIP3    H1 1883   5.214   0.171   1.879  0.2623  0.9808  0.1376
  642TIP3    H2 1884   5.320   0.270   1.922  1.7268 -0.6705  0.4244
  643TIP3   OH2 1885   0.567   2.466   2.359  0.7402  0.7540 -0.2463
  643TIP3    H1 1886   0.573   2.561   2.348  0.4714  0.7938 -0.0564
  643TIP3    H2 1887   0.498   2.439   2.298  1.5144  0.5435 -1.0502
  644TIP3   OH2 1888   2.738   2.853   5.901 -0.5254  0.1970  0.4430
  644TIP3    H1 1889   2.736   2.820   5.811 -1.4476  0.0670  0.5015
  644TIP3    H2 1890   2.666   2.809   5.945  0.8991 -0.9895  1.7108
  645TIP3   OH2 1891   2.703   6.221   0.932 -0.1515  0.6782 -0.0838
  645TIP3    H1 1892   2.734   6.242   1.019 -1.0302 -2.4343  1.1287
  645TIP3    H2 1893   2.782   6.200   0.882  0.2312  0.0096  0.7673
  646TIP3   OH2 1894   3.150   2.402   1.129  0.0435  0.4396  0.1039
  646TIP3    H1 1895   3.124   2.435   1.215  0.0807 -1.4608  0.8884
  646TIP3    H2 1896   3.113   2.314   1.124 -0.2562  0.6249 -1.9937
  647TIP3   OH2 1897   4.898   2.156   3.272  0.1139 -0.0508 -0.3329
  647TIP3    H1 1898   4.893   2.062   3.288  0.0985  0.0625  0.3355
  647TIP3    H2 1899   4.812   2.180   3.238 -0.1377 -0.1387  0.2415
  648TIP3   OH2 1900   2.733   5.851   5.348 -0.2239 -0.3524  0.2151
  648TIP3    H1 1901   2.821   5.846   5.386 -0.0703  0.5692  0.0107
  648TIP3    H2 1902   2.721   5.944   5.329 -1.2575 -0.4698  0.2625
  649TIP3   OH2 1903   4.259   2.406   5.757  0.4629 -0.2566 -0.2414
  649TIP3    H1 1904   4.208   2.367   5.687 -2.4229  1.6131  0.6065
  649TIP3    H2 1905   4.292   2.488   5.721  2.4720 -1.1548 -0.5789
  650TIP3   OH2 1906   8.301   3.294   6.220  0.0694 -0.1764 -0.5309
  650TIP3    H1 1907   8.264   3.315   6.134  1.3555  0.4601 -0.9458
  650TIP3    H2 1908   8.310   3.199   6.219 -0.7532 -0.2630 -0.7398
  651TIP3   OH2 1909   3.170   5.037   1.572  0.1895 -0.1927  0.3847
  651TIP3    H1 1910   3.189   4.968   1.635 -0.7679 -0.0441  0.8588
  651TIP3    H2 1911   3.237   5.103   1.587  1.2151 -1.0551 -0.1760
  652TIP3   OH2 1912   8.215   4.417   3.593  0.3332  0.6231  0.4380
  652TIP3    H1 1913   8.265   4.448   3.669  1.1437 -1.0627  0.6224
  652TIP3    H2 1914   8.224   4.322   3.595 -0.4234  0.4815 -1.2492
  653TIP3   OH2 1915   4.936   3.690   4.079 -0.0138  0.3555  0.0888
  653TIP3    H1 1916   4.985   3.628   4.025 -0.0680 -1.7711  2.3080
  653TIP3    H2 1917   4.874   3.731   4.019  3.0256  1.7300 -2.4339
  654TIP3   OH2 1918   0.317   6.320   3.334 -0.0513 -0.2964  0.1304
  654TIP3    H1 1919   0.406   6.312   3.301 -0.7349 -2.1071 -1.4315
  654TIP3    H2 1920   0.282   6.397   3.288  0.3963 -0.1373  0.0467
  655TIP3   OH2 1921   0.790   4.457   1.915  0.1806  0.2032  0.0554
  655TIP3    H1 1922   0.730   4.527   1.943 -0.2489 -0.7206  1.5735
  655TIP3    H2 1923   0.759   4.379   1.962  1.0283 -0.8784 -1.1167
  656TIP3   OH2 1924   5.388   2.225   2.602 -0.1882  0.9012  0.2599
  656TIP3    H1 1925   5.426   2.243   2.516  0.6608  0.8056  0.6103
  656TIP3    H2 1926   5.320   2.292   2.612  0.3126  1.4732 -0.1088
  657TIP3   OH2 1927   3.031   0.632   5.759  0.0927  0.0399 -0.1579
  657TIP3    H1 1928   3.057   0.582   5.837 -0.6929  0.7358  0.5803
  657TIP3    H2 1929   2.941   0.605   5.743 -0.6147  1.7418  0.7229
  658TIP3   OH2 1930   6.966   6.045   0.720  0.4477  0.1839 -0.6384
  658TIP3    H1 1931   7.050   6.032   0.764  0.0916  1.9066  0.7124
  658TIP3    H2 1932   6.974   5.998   0.637  1.2978 -2.9683  1.0651
  659TIP3   OH2 1933   6.262   7.505   5.706 -0.0647  0.4957  0.4684
  659TIP3    H1 1934   6.331   7.441   5.686 -0.6507  0.4328 -1.5915
  659TIP3    H2 1935   6.299   7.589   5.680 -0.3981  0.5944  0.3108
  660TIP3   OH2 1936   4.640   2.471   5.622  0.3679  0.6075  0.3879
  660TIP3    H1 1937   4.606   2.553   5.587  2.6355  1.0222 -1.0180
  660TIP3    H2 1938   4.569   2.409   5.610 -0.1402  1.5369 -1.8911
  661TIP3   OH2 1939   5.316   5.007   1.141 -0.1801  0.3591 -0.3810
  661TIP3    H1 1940   5.331   5.096   1.171  0.0014  0.2585 -0.1668
  661TIP3    H2 1941   5.400   4.978   1.105 -0.1499  0.1658 -0.1591
  662TIP3   OH2 1942   0.051   6.466   1.100 -0.2315 -0.0677  0.2854
  662TIP3    H1 1943   0.062   6.487   1.193 -0.0459 -0.3022  0.3191
  662TIP3    H2 1944  -0.042   6.482   1.082  0.2179  2.4029 -0.1154
  663TIP3   OH2 1945   1.444   1.138   3.294  0.1739 -0.6429 -0.0684
  663TIP3    H1 1946   1.512   1.180   3.240  0.4476 -0.4171  0.4397
  663TIP3    H2 1947   1.489   1.064   3.334 -0.0546 -0.8624 -0.2164
  664TIP3   OH2 1948   5.834   3.483   3.570  0.0787  0.3967 -0.4885
  664TIP3    H1 1949   5.920   3.455   3.540  0.9778  1.0292  1.3789
  664TIP3    H2 1950   5.809   3.553   3.509  0.2064 -0.7187 -1.8877
  665TIP3   OH2 1951   6.030   0.314   5.708  0.2378 -0.1895  0.1769
  665TIP3    H1 1952   6.045   0.332   5.800 -0.8935  2.3198 -0.0576
  665TIP3    H2 1953   6.110   0.345   5.664 -0.0981  0.6036  0.1247
  666TIP3   OH2 1954   6.155   4.943   3.908  0.1922  0.4791  0.2901
  666TIP3    H1 1955   6.067   4.959   3.876 -0.4468 -1.0397  1.1858
  666TIP3    H2 1956   6.212   4.975   3.838 -1.0703  0.5617 -0.7365
  667TIP3   OH2 1957   3.922   1.935   3.703 -0.3697  0.1367  0.5785
  667TIP3    H1 1958   3.909   1.986   3.623 -0.0518 -0.0848  0.3808
  667TIP3    H2 1959   3.921   1.844   3.674  2.5139  0.0771  0.3431
  668TIP3   OH2 1960   7.603   3.793   1.330 -0.2267 -0.3102  0.0288
  668TIP3    H1 1961   7.555   3.762   1.253  3.2540 -3.4205 -1.2192
  668TIP3    H2 1962   7.572   3.739   1.402  0.0071 -0.9513 -0.3443
  669TIP3   OH2 1963   4.500   7.616   1.900 -0.1890 -0.0505  0.1311
  669TIP3    H1 1964   4.588   7.578   1.890  0.2678  0.9489  0.2333
  669TIP3    H2 1965   4.515   7.697   1.948 -1.0764  0.5245 -0.5528
  670TIP3   OH2 1966   4.307   3.437   5.163  0.5766  0.2936 -0.2978
  670TIP3    H1 1967   4.319   3.423   5.257  0.2626  1.2576 -0.1012
  670TIP3    H2 1968   4.344   3.359   5.122  0.1241 -0.4469  0.6526
  671TIP3   OH2 1969   1.666   5.758   6.055 -0.4056  0.1263 -0.7162
  671TIP3    H1 1970   1.650   5.851   6.070 -1.1595 -0.1673  0.4029
  671TIP3    H2 1971   1.725   5.756   5.980 -0.4938  1.4984 -0.8502
  672TIP3   OH2 1972   4.477   7.154   3.436 -0.0398  0.2187 -0.6205
  672TIP3    H1 1973   4.433   7.090   3.380 -0.5319  0.7220 -0.8146
  672TIP3    H2 1974   4.567   7.122   3.442 -0.1174 -0.1403 -1.2486
  673TIP3   OH2 1975   6.250   0.672   4.085 -0.2214 -0.2031  0.1038
  673TIP3    H1 1976   6.300   0.612   4.140 -0.1579 -1.6576 -1.4518
  673TIP3    H2 1977   6.250   0.630   3.999 -2.5837  0.6508 -0.3689
  674TIP3   OH2 1978   5.111   5.533   4.615 -0.1325 -0.3517 -0.0174
  674TIP3    H1 1979   5.019   5.552   4.601  0.2556  0.2001 -2.1048
  674TIP3    H2 1980   5.112   5.448   4.659 -1.6502  0.5519  1.9153
  675TIP3   OH2 1981   5.209   6.145   4.565 -0.4519  0.0952  0.2451
  675TIP3    H1 1982   5.211   6.185   4.652  0.1172 -0.8718  0.6854
  675TIP3    H2 1983   5.150   6.070   4.575  0.3707 -0.5829  0.0544
  676TIP3   OH2 1984   2.849   6.262   6.484  0.1210  0.4020  0.2146
  676TIP3    H1 1985   2.838   6.357   6.488 -0.0583  0.3803  0.2549
  676TIP3    H2 1986   2.840   6.232   6.574 -2.9395  0.0294 -0.1038
  677TIP3   OH2 1987   7.957   4.370   4.744 -0.3399  0.3786 -0.4979
  677TIP3    H1 1988   8.006   4.444   4.781  0.2091 -0.1187 -0.2054
  677TIP3    H2 1989   7.915   4.405   4.666  0.9374  0.6976 -1.0721
  678TIP3   OH2 1990   4.749   1.423   2.223  0.3389  0.3290  0.0229
  678TIP3    H1 1991   4.743   1.357   2.154  0.7740 -0.7242  0.9690
  678TIP3    H2 1992   4.840   1.453   2.220  0.2981  0.4525 -0.0037
  679TIP3   OH2 1993   1.044   0.851   4.472 -0.0927 -0.1412  0.0145
  679TIP3    H1 1994   1.037   0.902   4.392 -2.4903 -0.5793 -0.1314
  679TIP3    H2 1995   1.101   0.778   4.449 -1.4861 -0.7843 -1.6381
  680TIP3   OH2 1996   1.345   0.028   5.696 -0.1198 -0.3165 -0.3124
  680TIP3    H1 1997   1.294  -0.030   5.640  0.2190  1.0300 -2.1013
  680TIP3    H2 1998   1.436   0.006   5.677  0.0460  1.5209 -1.9130
  681TIP3   OH2 1999   3.502   5.370   2.883  0.0076 -0.7015 -0.1421
  681TIP3    H1 2000   3.567   5.382   2.814  1.3869 -1.8883  0.8894
  681TIP3    H2 2001   3.448   5.297   2.854 -0.7011  0.0864 -0.8582
  682TIP3   OH2 2002   0.374   1.023   6.054 -0.2510  0.0188  0.1198
  682TIP3    H1 2003   0.413   1.059   6.134  0.1707 -1.3505  0.5479
  682TIP3    H2 2004   0.387   1.092   5.989  0.9864  0.4508  0.7835
  683TIP3   OH2 2005   0.786   1.534   0.955  0.4039  0.3802  0.7075
  683TIP3    H1 2006   0.840   1.457   0.975  1.9148  1.7662  2.3708
  683TIP3    H2 2007   0.812   1.559   0.866  1.9377  0.5157  1.1625
  684TIP3   OH2 2008   7.918   2.446   5.959  0.1672 -0.1010 -0.4964
  684TIP3    H1 2009   7.938   2.436   6.052  0.8786 -1.8416 -0.8088
  684TIP3    H2 2010   7.823   2.443   5.954  0.0383  1.5467  0.3073
  685TIP3   OH2 2011   7.118   7.479   2.172  0.3737 -0.1086  0.0079
  685TIP3    H1 2012   7.159   7.557   2.209 -0.1956  0.2158 -0.0368
  685TIP3    H2 2013   7.043   7.513   2.122 -1.0875 -0.8283  1.6420
  686TIP3   OH2 2014   3.918   7.758   3.119 -0.1365  0.1879 -0.6857
  686TIP3    H1 2015   3.899   7.730   3.030 -1.5899  2.3441 -1.1364
  686TIP3    H2 2016   3.993   7.704   3.146 -0.8410 -1.8220 -2.4877
  687TIP3   OH2 2017   1.930   2.373   4.532 -0.3408  0.4347  0.5903
  687TIP3    H1 2018   1.957   2.290   4.492 -0.4984  0.5676  0.1938
  687TIP3    H2 2019   1.987   2.438   4.490  1.2944  0.3045  2.4676
  688TIP3   OH2 2020   7.989   6.485   3.404 -0.0648 -0.2210 -0.1608
  688TIP3    H1 2021   8.015   6.490   3.496  1.3030 -0.4761 -0.5179
  688TIP3    H2 2022   8.043   6.416   3.367 -1.6016 -1.1035 -0.8547
  689TIP3   OH2 2023   6.654   2.412   1.108 -0.0900 -0.5132 -0.0760
  689TIP3    H1 2024   6.682   2.492   1.064  0.5186 -0.1839  0.8827
  689TIP3    H2 2025   6.569   2.392   1.069  0.4118 -0.2169 -1.3589
  690TIP3   OH2 2026   8.028   4.213   1.353 -0.2913  0.0508 -0.2585
  690TIP3    H1 2027   7.986   4.141   1.306 -0.4880 -0.3243  0.4778
  690TIP3    H2 2028   8.118   4.184   1.368 -0.1430  0.2966 -0.6640
  691TIP3   OH2 2029   1.181   4.619   4.878  0.1392 -0.6498  0.2391
  691TIP3    H1 2030   1.135   4.615   4.794  0.4477  0.8720 -0.0442
  691TIP3    H2 2031   1.243   4.547   4.876  0.9914  0.0702 -1.3924
  692TIP3   OH2 2032   8.239   1.395   5.709  0.3777 -0.1351  0.1040
  692TIP3    H1 2033   8.181   1.463   5.743  1.4110  1.4663 -1.1597
  692TIP3    H2 2034   8.224   1.320   5.766 -0.7263  1.1792  1.6469
  693TIP3   OH2 2035   3.980   7.252   0.419  0.3060 -0.0222  0.2574
  693TIP3    H1 2036   4.073   7.269   0.404  0.7123 -0.2689  2.2072
  693TIP3    H2 2037   3.978   7.170   0.468 -1.0538 -0.7114 -0.8530
  694TIP3   OH2 2038   7.566   0.588   5.483 -0.0035 -0.6181  0.8290
  694TIP3    H1 2039   7.589   0.649   5.413  0.5157 -1.8889 -0.1377
  694TIP3    H2 2040   7.488   0.627   5.523  0.0118  0.4093 -0.0922
  695TIP3   OH2 2041   0.693   3.925   6.201  0.1024  0.4888  0.1432
  695TIP3    H1 2042   0.644   3.953   6.278 -1.3835  0.9870 -0.9418
  695TIP3    H2 2043   0.693   3.829   6.205  0.6876  0.5222  1.1374
  696TIP3   OH2 2044   6.103   6.111   2.552 -0.4290  0.0984  0.2049
  696TIP3    H1 2045   6.063   6.158   2.479  0.7647 -1.4778 -1.5309
  696TIP3    H2 2046   6.077   6.020   2.541 -0.5160 -0.1376  1.9750
  697TIP3   OH2 2047   6.796   0.169   6.239 -0.1849 -0.3514 -0.2618
  697TIP3    H1 2048   6.727   0.178   6.173 -0.0708 -0.7764 -0.4423
  697TIP3    H2 2049   6.865   0.227   6.209 -0.8540  0.8489  0.4493
  698TIP3   OH2 2050   1.177   4.162   0.183  0.7962  0.3644 -0.4411
  698TIP3    H1 2051   1.270   4.138   0.189  0.7279  0.1741 -0.1045
  698TIP3    H2 2052   1.142   4.142   0.270  0.5667  0.9710 -0.3930
  699TIP3   OH2 2053   6.342   3.542   3.607 -0.0143  0.6397 -0.0480
  699TIP3    H1 2054   6.316   3.567   3.696  3.6543  3.0947  0.5356
  699TIP3    H2 2055   6.292   3.601   3.551 -1.0872  0.2297  0.4309
  700TIP3   OH2 2056   2.181   7.129   2.223 -0.1273 -0.9781 -0.2405
  700TIP3    H1 2057   2.248   7.060   2.220 -1.3527 -2.3161  0.9714
  700TIP3    H2 2058   2.230   7.210   2.236  1.3370 -1.6858 -1.0988
  701TIP3   OH2 2059   4.303   0.977   0.919 -0.0786 -0.6613  0.0915
  701TIP3    H1 2060   4.362   1.033   0.969  0.0404  0.2482 -1.0273
  701TIP3    H2 2061   4.360   0.909   0.882  0.4839  0.7133 -1.7090
  702TIP3   OH2 2062   2.406   6.449   2.564  0.1919 -0.0627 -0.4323
  702TIP3    H1 2063   2.405   6.523   2.503 -0.9537  0.5568  0.3032
  702TIP3    H2 2064   2.474   6.470   2.627  0.1570  0.1616 -0.4689
  703TIP3   OH2 2065   3.299   3.009   1.296  0.1904  0.1122  0.3630
  703TIP3    H1 2066   3.243   3.087   1.292  1.0715  0.7447  0.0775
  703TIP3    H2 2067   3.280   2.962   1.214  1.9788  1.6820 -1.0138
  704TIP3   OH2 2068   1.471   5.502   0.618 -0.0656 -0.0091 -0.4959
  704TIP3    H1 2069   1.396   5.507   0.559 -0.9991 -0.7040  0.5816
  704TIP3    H2 2070   1.525   5.432   0.582 -0.3547 -0.0656 -0.8283
  705TIP3   OH2 2071   0.500   7.144   4.570 -0.4661  0.0389  0.1654
  705TIP3    H1 2072   0.445   7.218   4.597 -0.8092 -0.1798  0.0854
  705TIP3    H2 2073   0.441   7.089   4.518 -0.0418  0.0265 -0.3046
  706TIP3   OH2 2074   7.229   4.263   1.801  0.1148  0.0074  0.0234
  706TIP3    H1 2075   7.305   4.299   1.847 -0.8591  1.7959  0.3151
  706TIP3    H2 2076   7.237   4.297   1.712 -0.7521  0.9496  0.2737
  707TIP3   OH2 2077   2.864   4.860   2.936 -0.0082  0.7065 -0.5494
  707TIP3    H1 2078   2.813   4.930   2.895 -4.6807 -0.6293  2.1118
  707TIP3    H2 2079   2.933   4.905   2.984 -0.3713  3.0545 -2.0634
  708TIP3   OH2 2080   6.059   7.007   3.087  0.3665  0.0085 -0.2610
  708TIP3    H1 2081   5.976   6.978   3.126  0.3415 -1.5630 -1.3973
  708TIP3    H2 2082   6.041   7.096   3.057 -0.2435  0.4879  1.3738
  709TIP3   OH2 2083   5.041   3.683   1.532 -0.4029 -0.4146  0.7309
  709TIP3    H1 2084   4.979   3.750   1.504 -0.3958 -0.8565 -0.3751
  709TIP3    H2 2085   5.125   3.711   1.496 -0.5350 -1.3905 -0.3921
  710TIP3   OH2 2086   0.528   1.131   5.352  0.5851  0.5285  0.0348
  710TIP3    H1 2087   0.434   1.135   5.333  0.6776  1.7230 -0.2682
  710TIP3    H2 2088   0.570   1.164   5.273  1.3657 -1.4469 -0.4349
  711TIP3   OH2 2089   2.346   2.247   6.609  0.0800  0.6231  0.0626
  711TIP3    H1 2090   2.375   2.297   6.685 -0.2196 -0.0661  0.6479
  711TIP3    H2 2091   2.254   2.271   6.597 -1.0150 -1.9351  2.2236
  712TIP3   OH2 2092   4.115   5.920   0.950 -0.1639 -0.4228 -0.0595
  712TIP3    H1 2093   4.078   5.916   1.038  1.6579 -3.9791  0.7362
  712TIP3    H2 2094   4.210   5.926   0.965  0.2565 -2.1966 -1.6951
  713TIP3   OH2 2095   0.360   6.422   4.627  0.3178  0.4594 -0.1050
  713TIP3    H1 2096   0.430   6.388   4.684 -0.0095 -0.2809 -0.1269
  713TIP3    H2 2097   0.308   6.479   4.684  0.7083  0.6965  0.0141
  714TIP3   OH2 2098   0.344   2.382   2.198 -0.7202 -0.6307 -0.0791
  714TIP3    H1 2099   0.292   2.314   2.242 -0.6843 -0.7090 -0.1590
  714TIP3    H2 2100   0.348   2.354   2.107  1.9979 -2.2159  0.4276
  715TIP3   OH2 2101   6.234   0.886   5.146  0.1385 -0.5739  0.2624
  715TIP3    H1 2102   6.244   0.977   5.173 -0.1999 -0.5051  0.1704
  715TIP3    H2 2103   6.310   0.868   5.090 -0.3006 -0.0379 -0.5293
  716TIP3   OH2 2104   0.371   2.440   3.434 -0.4360  0.3186 -0.2914
  716TIP3    H1 2105   0.312   2.502   3.477  0.6739  1.9891 -1.0757
  716TIP3    H2 2106   0.378   2.367   3.495 -1.8596  0.9035  0.6248
  717TIP3   OH2 2107   4.115   7.619   3.837 -0.3088 -0.0294  0.2546
  717TIP3    H1 2108   4.204   7.628   3.804  0.4157 -0.8404  1.8723
  717TIP3    H2 2109   4.067   7.691   3.796  0.3800 -1.1494 -2.7870
  718TIP3   OH2 2110   0.658   6.967   5.134  0.1178  0.0361 -0.1649
  718TIP3    H1 2111   0.738   6.944   5.182  0.3945 -1.4294 -1.2819
  718TIP3    H2 2112   0.588   6.954   5.198  0.5873 -0.7304  0.2079
  719TIP3   OH2 2113   1.211   6.208   6.606  0.1518 -0.5482  0.3225
  719TIP3    H1 2114   1.300   6.228   6.635  1.7522 -3.3323 -2.0848
  719TIP3    H2 2115   1.192   6.275   6.540  0.4081  0.1422  0.9417
  720TIP3   OH2 2116   3.004   6.536  -0.023  0.8851  0.1100  0.3700
  720TIP3    H1 2117   3.066   6.567   0.042  0.2508 -0.8067  1.4442
  720TIP3    H2 2118   2.934   6.496   0.028 -0.4940  0.9252 -0.8166
  721TIP3   OH2 2119   2.211   0.012   1.953 -0.7259  0.3137  0.1257
  721TIP3    H1 2120   2.148  -0.012   1.885 -0.7676  1.5041 -0.2717
  721TIP3    H2 2121   2.161   0.065   2.015 -0.4796 -0.0477  0.6443
  722TIP3   OH2 2122   6.987   4.020   1.718 -0.2649 -0.1604  0.2854
  722TIP3    H1 2123   6.956   3.931   1.734  0.8876 -0.2710  2.2914
  722TIP3    H2 2124   6.937   4.074   1.778 -0.9743  0.5810 -0.9371
  723TIP3   OH2 2125   0.093   2.826   0.341 -0.5388 -0.0732  1.0196
  723TIP3    H1 2126   0.062   2.916   0.350 -1.6986 -0.3379 -0.0515
  723TIP3    H2 2127   0.061   2.798   0.255 -0.4486 -1.6049  1.4581
  724TIP3   OH2 2128   7.791   6.172   6.460  0.0964 -0.5276 -0.1319
  724TIP3    H1 2129   7.804   6.158   6.553 -2.5576 -0.3888  0.3408
  724TIP3    H2 2130   7.781   6.085   6.423  0.6877 -0.5612 -0.2215
  725TIP3   OH2 2131   6.308   6.752   2.480 -0.2196  0.2013  0.2765
  725TIP3    H1 2132   6.365   6.826   2.497  1.4905 -0.8199 -0.6469
  725TIP3    H2 2133   6.267   6.732   2.564 -0.7282  2.1437  0.5355
  726TIP3   OH2 2134   7.849   6.754   4.948 -0.4653  0.0278  0.1740
  726TIP3    H1 2135   7.863   6.812   5.023 -0.0271  0.8866 -0.5585
  726TIP3    H2 2136   7.838   6.813   4.874 -1.7080 -0.7873 -0.3195
  727TIP3   OH2 2137   4.683   6.944   1.888 -0.5185 -0.5051 -1.0847
  727TIP3    H1 2138   4.742   6.888   1.837  1.8069  0.1638  0.7017
  727TIP3    H2 2139   4.674   7.023   1.835  1.2202 -0.1427 -0.9122
  728TIP3   OH2 2140   4.507   1.183   6.160 -0.8047  0.4718  0.0065
  728TIP3    H1 2141   4.418   1.193   6.126 -0.5346  0.0779 -0.8345
  728TIP3    H2 2142   4.557   1.252   6.116  0.0307 -1.4154 -2.1622
  729TIP3   OH2 2143   6.162   5.609   5.758 -0.1828 -0.4590  0.2932
  729TIP3    H1 2144   6.088   5.606   5.697 -0.6311  0.4431  0.7572
  729TIP3    H2 2145   6.236   5.639   5.705 -0.0329 -1.7831 -0.2670
  730TIP3   OH2 2146   7.360   6.130   1.296 -0.1884 -0.1246  0.2210
  730TIP3    H1 2147   7.269   6.151   1.318 -0.7847  0.5517 -2.4832
  730TIP3    H2 2148   7.407   6.213   1.303 -0.7795  0.5342 -2.5097
  731TIP3   OH2 2149   8.281   6.729   3.105 -0.7016 -0.2098  0.1186
  731TIP3    H1 2150   8.223   6.746   3.180 -0.7439 -0.1602  0.0749
  731TIP3    H2 2151   8.230   6.757   3.029 -0.2893  0.6548  0.1472
  732TIP3   OH2 2152   2.751   4.628   3.278  0.7417 -0.1154 -0.1953
  732TIP3    H1 2153   2.793   4.711   3.298  1.7056 -0.2989 -1.3380
  732TIP3    H2 2154   2.678   4.651   3.220  0.6716 -0.0267 -0.0735
  733TIP3   OH2 2155   1.026   3.416   2.885 -0.0591  0.0412 -0.0715
  733TIP3    H1 2156   1.111   3.459   2.896  0.0918 -0.0610 -0.8067
  733TIP3    H2 2157   0.962   3.487   2.894  0.1580  0.3124 -0.6594
  734TIP3   OH2 2158   3.044   3.300   4.734  0.1038  0.0284 -0.6408
  734TIP3    H1 2159   3.008   3.212   4.721 -1.1516  0.6959 -2.0697
  734TIP3    H2 2160   3.117   3.305   4.673  1.3918 -0.6223  0.7863
  735TIP3   OH2 2161   1.550   3.545   2.130  0.1949  0.1666 -0.2911
  735TIP3    H1 2162   1.642   3.518   2.124  0.5660  1.1105  0.8712
  735TIP3    H2 2163   1.503   3.480   2.077  1.6357  0.3085 -1.8097
  736TIP3   OH2 2164   5.624   7.656   1.673  0.1335 -0.3295  0.3533
  736TIP3    H1 2165   5.697   7.632   1.731 -0.2933  0.0296  1.0488
  736TIP3    H2 2166   5.588   7.572   1.644  0.3394 -0.5176  0.6300
  737TIP3   OH2 2167   4.416   3.233   4.687 -0.0120  0.1103 -0.0681
  737TIP3    H1 2168   4.475   3.197   4.620  0.4315 -1.7154  1.1989
  737TIP3    H2 2169   4.347   3.168   4.694 -0.5306  0.7270  0.6149
  738TIP3   OH2 2170   0.271   5.081   1.141  0.0597 -0.5197 -0.2776
  738TIP3    H1 2171   0.285   4.994   1.104 -1.0596 -0.4676 -0.8472
  738TIP3    H2 2172   0.187   5.075   1.187  0.8997 -0.2810  1.3691
  739TIP3   OH2 2173   5.765   4.767   0.234  0.1589  0.4366  0.2951
  739TIP3    H1 2174   5.766   4.856   0.272  0.0255  0.0973  1.1268
  739TIP3    H2 2175   5.686   4.727   0.271 -1.3760  0.8795 -2.2763
  740TIP3   OH2 2176   1.424   4.913   4.075  0.4664  0.5758  0.0270
  740TIP3    H1 2177   1.330   4.898   4.084  0.0111  2.6405 -0.6715
  740TIP3    H2 2178   1.456   4.837   4.027 -0.4697 -1.0549  1.8384
  741TIP3   OH2 2179   3.591   3.860   4.857 -0.0299 -0.5512  0.1135
  741TIP3    H1 2180   3.497   3.849   4.838  0.0688  0.2157 -0.9088
  741TIP3    H2 2181   3.615   3.940   4.811  0.8152  0.0871  1.5851
  742TIP3   OH2 2182   7.323   0.675   5.610 -0.0394  0.0587 -0.5658
  742TIP3    H1 2183   7.273   0.717   5.680  1.0106  1.1618 -0.4447
  742TIP3    H2 2184   7.290   0.585   5.607  0.7430 -0.4040  2.1977
  743TIP3   OH2 2185   5.548   0.212   6.718  0.1997 -0.7512  0.3011
  743TIP3    H1 2186   5.630   0.232   6.673  0.1445 -0.5985  0.2682
  743TIP3    H2 2187   5.572   0.143   6.781  0.4538 -0.3773  0.6176
  744TIP3   OH2 2188   6.535   4.829   4.156 -0.1981  0.1204 -0.3737
  744TIP3    H1 2189   6.454   4.864   4.117 -0.0045  0.4470 -0.4831
  744TIP3    H2 2190   6.594   4.818   4.082 -0.4988 -1.1226 -0.4435
  745TIP3   OH2 2191   5.973   6.293   2.414 -0.6622 -0.3935  0.1553
  745TIP3    H1 2192   5.892   6.286   2.464 -1.0894  0.9771 -0.2769
  745TIP3    H2 2193   5.964   6.377   2.368  1.2467  0.0720  0.5569
  746TIP3   OH2 2194   2.446   3.501   4.253  0.4039  0.5544  0.7792
  746TIP3    H1 2195   2.406   3.506   4.341 -0.7802  1.4866  0.2193
  746TIP3    H2 2196   2.390   3.556   4.199  1.0539 -0.1185 -0.6061
  747TIP3   OH2 2197   4.387   3.587   4.772  0.1560  0.0791  0.6249
  747TIP3    H1 2198   4.303   3.631   4.761  0.6867  1.1067  0.5678
  747TIP3    H2 2199   4.443   3.652   4.813  1.1381 -0.3418 -0.0014
  748TIP3   OH2 2200   5.325   0.574   3.999 -0.3831  0.3708 -0.1182
  748TIP3    H1 2201   5.273   0.527   4.063 -0.9892 -0.2276 -1.0230
  748TIP3    H2 2202   5.269   0.645   3.968 -0.0324  0.7637  0.1313
  749TIP3   OH2 2203   3.188   2.597   1.824 -0.4850  0.3631  0.1774
  749TIP3    H1 2204   3.185   2.501   1.825 -1.6729  0.3846  1.3052
  749TIP3    H2 2205   3.237   2.618   1.744  0.6700 -1.1832  0.4288
  750TIP3   OH2 2206   5.654   3.905   4.393 -0.1628 -0.5828  0.5364
  750TIP3    H1 2207   5.561   3.899   4.415 -0.3906  0.4156 -0.0926
  750TIP3    H2 2208   5.686   3.979   4.443  0.3393 -0.9979  0.8476
  751TIP3   OH2 2209   0.279   3.885   0.325 -0.4657  0.3698 -0.1615
  751TIP3    H1 2210   0.276   3.796   0.289  0.0317  0.4383 -0.3904
  751TIP3    H2 2211   0.373   3.904   0.334 -0.5203  1.3857 -1.4251
  752TIP3   OH2 2212   3.120   3.589   4.825 -0.4380 -0.2194  0.0614
  752TIP3    H1 2213   3.063   3.586   4.902  0.3950  0.9051  0.7539
  752TIP3    H2 2214   3.140   3.497   4.806 -1.2760 -0.5453  0.7214
  753TIP3   OH2 2215   7.246   2.926   5.170 -0.1808  0.1895 -0.4869
  753TIP3    H1 2216   7.210   2.853   5.121 -0.7451  0.4716 -0.4900
  753TIP3    H2 2217   7.300   2.973   5.107  0.6908 -0.5657 -0.3349
  754TIP3   OH2 2218   7.076   2.775   4.486  0.6400 -0.1470 -0.5415
  754TIP3    H1 2219   6.999   2.734   4.526  1.7114 -0.7664  0.9655
  754TIP3    H2 2220   7.148   2.751   4.544  1.7433  1.6636 -1.1138
  755TIP3   OH2 2221   6.516   4.190   5.777  0.1545  0.2499 -0.5794
  755TIP3    H1 2222   6.452   4.261   5.777  0.2907  0.3730 -0.5700
  755TIP3    H2 2223   6.599   4.233   5.796  0.2262  0.0772 -0.5043
  756TIP3   OH2 2224   3.372   3.341   5.212 -0.1609 -0.0698  0.0174
  756TIP3    H1 2225   3.311   3.357   5.139 -1.9287 -0.7517  1.2820
  756TIP3    H2 2226   3.368   3.247   5.227  0.6468 -0.0214  0.6306
  757TIP3   OH2 2227   4.051   5.372   2.812 -0.1314 -0.3231 -0.1120
  757TIP3    H1 2228   4.018   5.303   2.755 -0.7904  0.0436 -0.1884
  757TIP3    H2 2229   4.135   5.397   2.775 -0.3343 -0.4200 -0.6430
  758TIP3   OH2 2230   1.024   2.476   4.019 -0.7197 -0.3598 -0.2695
  758TIP3    H1 2231   1.080   2.548   4.047 -0.6974 -0.3968 -0.2180
  758TIP3    H2 2232   1.033   2.474   3.924  0.1117 -0.9662 -0.1898
  759TIP3   OH2 2233   4.164   4.920   1.923  0.5489  0.1176 -0.3909
  759TIP3    H1 2234   4.133   4.962   1.843 -0.6149 -0.5020 -0.2780
  759TIP3    H2 2235   4.163   4.826   1.904 -0.3782 -0.0817  0.5525
  760TIP3   OH2 2236   0.251   5.321   0.078  0.2567 -0.0865 -0.0241
  760TIP3    H1 2237   0.283   5.304  -0.011  0.9218 -0.0904  0.2112
  760TIP3    H2 2238   0.316   5.381   0.115  0.0067 -0.1275  0.4787
  761TIP3   OH2 2239   3.900   5.733   1.352 -0.1166 -0.0757 -0.0290
  761TIP3    H1 2240   3.927   5.739   1.443 -0.0405  0.4290 -0.0843
  761TIP3    H2 2241   3.944   5.806   1.308  1.5987 -1.5513 -0.9086
  762TIP3   OH2 2242   4.598   1.987   2.998 -0.0552  0.4831 -0.2398
  762TIP3    H1 2243   4.672   2.047   2.991  1.0013 -0.8101 -0.8164
  762TIP3    H2 2244   4.570   1.994   3.089 -0.5954  2.5184 -0.5315
  763TIP3   OH2 2245   4.668   4.624   1.603  0.0257  0.2358  0.1187
  763TIP3    H1 2246   4.587   4.632   1.654  0.4857 -0.1421  0.9311
  763TIP3    H2 2247   4.639   4.597   1.516 -0.5875 -2.5220  1.0767
  764TIP3   OH2 2248   2.591   1.799   5.607 -0.0064 -0.4041  0.4276
  764TIP3    H1 2249   2.666   1.837   5.560  0.4160 -1.1331  0.4961
  764TIP3    H2 2250   2.555   1.872   5.657 -1.2944  0.7381 -2.0337
  765TIP3   OH2 2251   3.874   0.266   2.595  0.5853  0.3536 -0.2481
  765TIP3    H1 2252   3.909   0.180   2.618  1.6344  0.8613  0.1265
  765TIP3    H2 2253   3.831   0.253   2.510 -1.9502 -1.1928  1.1608
  766TIP3   OH2 2254   8.295   0.252   2.301  0.1945  0.4770  0.7523
  766TIP3    H1 2255   8.282   0.323   2.238 -0.2822 -0.0154  0.2842
  766TIP3    H2 2256   8.298   0.295   2.386 -1.7118  0.9319  0.6396
  767TIP3   OH2 2257   4.234   4.926   4.052  0.2164 -0.1085  0.1811
  767TIP3    H1 2258   4.229   4.914   4.147  1.5410 -2.8508 -0.0229
  767TIP3    H2 2259   4.316   4.972   4.038 -0.6247  1.5415  0.3871
  768TIP3   OH2 2260   7.437   6.647   1.203  0.4236 -0.0014 -0.4161
  768TIP3    H1 2261   7.452   6.686   1.117  0.2885  1.7795  0.3130
  768TIP3    H2 2262   7.517   6.668   1.252 -0.9727  2.4180  1.0179
  769TIP3   OH2 2263   0.010   7.103   4.853 -0.1806 -0.1679  0.0780
  769TIP3    H1 2264  -0.041   7.030   4.889  0.7044 -0.2062  1.3196
  769TIP3    H2 2265   0.064   7.132   4.926  0.7030  0.6482 -0.8766
  770TIP3   OH2 2266   7.820   6.296   0.928  0.2109 -1.0381 -0.2437
  770TIP3    H1 2267   7.775   6.234   0.986 -0.4157 -2.3807 -2.0530
  770TIP3    H2 2268   7.906   6.257   0.914  0.7562 -0.1709  0.5921
  771TIP3   OH2 2269   2.269   7.420   0.419  0.1094  0.1695 -0.1484
  771TIP3    H1 2270   2.192   7.367   0.401 -0.1902  0.8244 -0.8196
  771TIP3    H2 2271   2.306   7.440   0.333  3.1720 -3.1773  0.1711
  772TIP3   OH2 2272   2.756   6.966   1.945 -0.0193 -0.3949 -0.0165
  772TIP3    H1 2273   2.822   6.915   1.898 -0.2177 -1.8045  1.1713
  772TIP3    H2 2274   2.684   6.905   1.960  0.0005 -0.0085  2.0143
  773TIP3   OH2 2275   2.715   2.777   1.497 -0.0039 -0.1883 -0.1487
  773TIP3    H1 2276   2.759   2.700   1.531 -1.2818 -1.5493 -1.3934
  773TIP3    H2 2277   2.780   2.821   1.442  0.5355 -0.7361  0.0508
  774TIP3   OH2 2278   1.840   6.585   2.861  0.1488  0.2185 -0.3744
  774TIP3    H1 2279   1.907   6.546   2.916 -0.1888  0.6652  0.3746
  774TIP3    H2 2280   1.881   6.664   2.826  0.1551  0.2708 -0.2502
  775TIP3   OH2 2281   5.620   1.689   5.969 -0.2652  0.2996  0.3221
  775TIP3    H1 2282   5.663   1.608   5.997  0.6013  0.7149  0.2186
  775TIP3    H2 2283   5.538   1.660   5.930  0.3803 -0.6076 -0.4296
  776TIP3   OH2 2284   5.070   4.375   2.970 -1.0437  0.1291  0.6492
  776TIP3    H1 2285   5.041   4.433   3.040 -1.2751  1.3971 -0.4676
  776TIP3    H2 2286   5.067   4.429   2.891  0.3148 -0.9317 -0.1651
  777TIP3   OH2 2287   6.344   4.689   3.014  0.0314 -0.3375  0.2041
  777TIP3    H1 2288   6.349   4.756   3.082  1.1691  0.9159 -1.0613
  777TIP3    H2 2289   6.251   4.675   3.000 -0.2825  2.0257 -0.4793
  778TIP3   OH2 2290   6.146   1.177   1.304  0.0405  0.1378 -0.6852
  778TIP3    H1 2291   6.229   1.131   1.293  0.0377 -0.1670  0.5022
  778TIP3    H2 2292   6.169   1.259   1.347 -0.1958  0.3963 -1.0364
  779TIP3   OH2 2293   6.649   6.092   1.495 -0.4975 -0.1455  0.1495
  779TIP3    H1 2294   6.654   6.070   1.588  1.6529 -0.9140 -0.0944
  779TIP3    H2 2295   6.738   6.078   1.462 -0.9946  0.9956 -1.8396
  780TIP3   OH2 2296   6.478   6.439   0.621 -0.8968  0.0896  0.0932
  780TIP3    H1 2297   6.544   6.442   0.690 -1.2221 -0.4642  0.4390
  780TIP3    H2 2298   6.429   6.358   0.638 -0.2501 -0.6587 -1.4529
  781TIP3   OH2 2299   6.484   2.291   6.216 -0.4443  0.5302  0.6936
  781TIP3    H1 2300   6.417   2.315   6.152  2.1708 -1.6582 -3.2826
  781TIP3    H2 2301   6.451   2.210   6.257 -1.3669  0.9721  0.8418
  782TIP3   OH2 2302   7.022   5.700   6.719 -0.0075  0.3838  0.5635
  782TIP3    H1 2303   6.951   5.653   6.675  1.9025 -0.8028 -1.4109
  782TIP3    H2 2304   6.986   5.788   6.734 -1.9322 -0.2121 -0.2629
  783TIP3   OH2 2305   3.692   0.085   4.200  0.2454 -0.2708  0.0756
  783TIP3    H1 2306   3.785   0.106   4.212  0.0172  0.8095  0.0267
  783TIP3    H2 2307   3.689  -0.010   4.205  1.5891 -0.4473 -1.5560
  784TIP3   OH2 2308   8.284   2.914   5.521  0.2866 -0.0521 -0.4884
  784TIP3    H1 2309   8.268   2.911   5.616  1.1655  1.7955 -0.2404
  784TIP3    H2 2310   8.357   2.854   5.507  0.1556 -0.3332  0.0038
  785TIP3   OH2 2311   5.008   3.354   6.515 -0.2092  0.6724  0.0818
  785TIP3    H1 2312   5.017   3.273   6.465  0.5496  0.7073  0.1591
  785TIP3    H2 2313   4.930   3.340   6.568  0.2079 -0.2215  0.4876
  786TIP3   OH2 2314   6.856   3.568   5.693  0.4584 -0.2122 -0.5598
  786TIP3    H1 2315   6.898   3.533   5.614  1.3298  0.0591 -0.2278
  786TIP3    H2 2316   6.768   3.530   5.692  0.4451 -0.1919 -1.6786
  787TIP3   OH2 2317   3.653   3.422   6.250 -0.2678 -0.2259  0.5647
  787TIP3    H1 2318   3.721   3.401   6.315  0.4036  0.9559  0.2771
  787TIP3    H2 2319   3.605   3.495   6.289 -0.5473 -0.2131  0.1966
  788TIP3   OH2 2320   6.019   5.755   0.736  0.2230  0.3112 -0.2388
  788TIP3    H1 2321   5.948   5.804   0.693  2.0366  2.0017 -1.5017
  788TIP3    H2 2322   6.002   5.664   0.714 -0.8065  0.8133 -1.7056
  789TIP3   OH2 2323   2.543   3.585   0.356 -0.3542  0.4668  0.0966
  789TIP3    H1 2324   2.450   3.562   0.360 -0.4751  0.9910  0.3687
  789TIP3    H2 2325   2.571   3.555   0.269 -0.7669  0.2678  0.0300
  790TIP3   OH2 2326   1.748   0.289   1.661  0.3223  0.5496  0.4063
  790TIP3    H1 2327   1.791   0.330   1.736  1.8692  0.6017 -0.4755
  790TIP3    H2 2328   1.717   0.205   1.695 -0.1428  1.1160  1.4260
  791TIP3   OH2 2329   5.948   2.755   0.281 -0.3952 -0.3232 -0.3100
  791TIP3    H1 2330   5.953   2.753   0.185  3.0715  0.7668 -0.3089
  791TIP3    H2 2331   5.991   2.675   0.309  2.0454  1.0810  0.2210
  792TIP3   OH2 2332   0.290   4.263   0.747  0.2595  0.2696 -0.2904
  792TIP3    H1 2333   0.278   4.249   0.653  0.4497  0.1952 -0.3034
  792TIP3    H2 2334   0.220   4.213   0.788  0.5909 -0.2580 -0.3624
  793TIP3   OH2 2335   7.699   0.963   1.557  0.1117 -0.2387  0.4480
  793TIP3    H1 2336   7.649   0.891   1.595 -3.2396  0.3801 -2.3173
  793TIP3    H2 2337   7.683   1.037   1.616 -2.2191 -0.1149 -0.2507
  794TIP3   OH2 2338   2.001   0.464   5.024  0.0499 -0.1989  0.1158
  794TIP3    H1 2339   1.922   0.409   5.024  0.4606 -0.8008  0.1199
  794TIP3    H2 2340   1.970   0.550   5.054 -1.2324  0.5169 -2.8748
  795TIP3   OH2 2341   5.695   7.293   4.531 -0.8428 -0.2425 -0.1907
  795TIP3    H1 2342   5.715   7.253   4.447 -0.7627 -1.1167  0.2369
  795TIP3    H2 2343   5.625   7.356   4.512 -0.8400 -0.4460 -0.8974
  796TIP3   OH2 2344   6.015   1.104   0.471  0.1035 -0.1363  0.0358
  796TIP3    H1 2345   5.922   1.085   0.458  0.3973 -1.8714  0.2920
  796TIP3    H2 2346   6.061   1.026   0.441  1.4647  0.5288  0.2951
  797TIP3   OH2 2347   4.398   6.061   5.345 -0.0427 -0.2233  0.0646
  797TIP3    H1 2348   4.405   6.156   5.336 -1.3915 -0.1401 -0.4230
  797TIP3    H2 2349   4.311   6.040   5.310  0.7199 -1.7982 -1.0044
  798TIP3   OH2 2350   5.963   3.140   5.130  0.4400  0.6968  0.4212
  798TIP3    H1 2351   5.898   3.156   5.062  0.3909 -0.1379  0.2645
  798TIP3    H2 2352   6.047   3.136   5.084  0.1737 -2.3522 -0.0142
  799TIP3   OH2 2353   0.868   5.259   3.609 -0.2229 -0.2188 -0.2759
  799TIP3    H1 2354   0.857   5.183   3.666  0.6208 -1.2629 -1.4543
  799TIP3    H2 2355   0.907   5.326   3.666 -0.7077 -0.7366  0.7057
  800TIP3   OH2 2356   1.432   7.009   2.011 -0.1708 -0.3213  0.3956
  800TIP3    H1 2357   1.419   6.980   2.101 -1.9093  1.5798  0.8514
  800TIP3    H2 2358   1.378   6.949   1.959 -1.1016  0.0301  0.9253
  801TIP3   OH2 2359   6.273   5.900   0.694  0.0394 -0.5264  0.8946
  801TIP3    H1 2360   6.314   5.907   0.781  0.6009 -2.4652  0.8372
  801TIP3    H2 2361   6.189   5.858   0.711  0.2499 -1.1235  0.4769
  802TIP3   OH2 2362   4.081   1.512   5.893  0.9108  0.1099 -0.2641
  802TIP3    H1 2363   4.056   1.548   5.978  1.4157  0.8623 -0.4200
  802TIP3    H2 2364   4.149   1.448   5.913  1.0682  0.3249 -0.1026
  803TIP3   OH2 2365   0.835   6.246   0.945  0.2932  0.4111 -0.4616
  803TIP3    H1 2366   0.876   6.196   1.015 -1.8936 -0.8829  0.0008
  803TIP3    H2 2367   0.828   6.184   0.872 -1.2391  0.4091 -0.3396
  804TIP3   OH2 2368   6.001   2.738   1.469  0.6385 -0.4582  0.3848
  804TIP3    H1 2369   5.969   2.786   1.546 -0.5093  0.8827 -0.8720
  804TIP3    H2 2370   6.074   2.791   1.437  0.1533 -0.1947 -0.2980
  805TIP3   OH2 2371   1.967   1.956   5.857  0.6140  0.0542  0.2326
  805TIP3    H1 2372   2.036   1.964   5.923  0.0500 -2.0933  1.1566
  805TIP3    H2 2373   1.970   2.039   5.810  2.0249  1.0838  1.9884
  806TIP3   OH2 2374   1.766   4.698   0.994  0.6234  0.0214  0.0224
  806TIP3    H1 2375   1.715   4.756   1.050  0.2721  0.2996 -0.5657
  806TIP3    H2 2376   1.764   4.613   1.038 -0.8993 -0.1387 -0.2916
  807TIP3   OH2 2377   2.585   0.475   2.390 -0.3738  0.6648 -0.1816
  807TIP3    H1 2378   2.565   0.443   2.478 -0.7547 -0.2282 -0.5759
  807TIP3    H2 2379   2.559   0.567   2.391  3.3358  1.8858  1.8268
  808TIP3   OH2 2380   4.140   2.780   0.528 -0.3615 -0.1356  0.4666
  808TIP3    H1 2381   4.132   2.845   0.458 -2.0826  0.3553  1.0622
  808TIP3    H2 2382   4.233   2.760   0.533 -0.1267  0.2593 -1.5585
  809TIP3   OH2 2383   5.830   1.024   5.184 -0.3690  0.0117 -0.5208
  809TIP3    H1 2384   5.864   0.936   5.168  0.0267 -0.2605  1.5227
  809TIP3    H2 2385   5.863   1.047   5.271 -1.9249  1.4648 -0.2563
  810TIP3   OH2 2386   4.468   1.764   2.950 -0.2155  0.3430 -0.4923
  810TIP3    H1 2387   4.431   1.787   2.865 -1.0935  1.3585  0.1372
  810TIP3    H2 2388   4.527   1.837   2.971  0.3079 -0.0964 -0.4009
  811TIP3   OH2 2389   8.039   0.034   3.878  0.5057 -0.1478  1.0603
  811TIP3    H1 2390   7.989   0.071   3.805  0.5543 -0.3439  0.9276
  811TIP3    H2 2391   8.035   0.102   3.946  1.3357  0.4744  0.5073
  812TIP3   OH2 2392   2.367   1.113   0.351 -0.1643  0.5058  0.1399
  812TIP3    H1 2393   2.362   1.074   0.264 -0.5615  1.1304 -0.1271
  812TIP3    H2 2394   2.277   1.134   0.373 -0.0297  0.6394  0.5722
  813TIP3   OH2 2395   1.165   0.783   1.818  0.8868  0.4858 -0.7406
  813TIP3    H1 2396   1.204   0.869   1.835  0.6275  0.5493 -0.4728
  813TIP3    H2 2397   1.230   0.738   1.764  0.9672  0.8996 -0.9986
  814TIP3   OH2 2398   3.660   3.836   0.722 -0.3911  0.4132  0.4065
  814TIP3    H1 2399   3.737   3.788   0.754  0.1827  1.7242  1.0743
  814TIP3    H2 2400   3.586   3.779   0.742  0.2488 -0.0958  1.4068
  815TIP3   OH2 2401   8.274   4.957   0.855 -0.5692 -0.0462 -0.2628
  815TIP3    H1 2402   8.233   4.883   0.900 -0.4963  0.0061 -0.1096
  815TIP3    H2 2403   8.219   4.971   0.778 -2.6832  1.9451  1.4562
  816TIP3   OH2 2404   1.936   4.844   4.821  0.0799 -0.0097 -0.0131
  816TIP3    H1 2405   1.933   4.935   4.791  1.1477  0.1666  0.3544
  816TIP3    H2 2406   1.844   4.819   4.832 -0.2406  0.8352 -0.6739
  817TIP3   OH2 2407   7.620   4.847   0.858 -1.0443 -0.0509  0.4400
  817TIP3    H1 2408   7.696   4.821   0.805 -0.2824  2.1557  0.3632
  817TIP3    H2 2409   7.613   4.778   0.924  0.3312 -0.8795 -0.2185
  818TIP3   OH2 2410   2.984   0.279   2.552  0.0869 -0.0029 -0.2549
  818TIP3    H1 2411   2.960   0.341   2.621 -1.1191 -0.5538 -0.1463
  818TIP3    H2 2412   2.923   0.299   2.481 -0.1517 -0.8992 -0.3103
  819TIP3   OH2 2413   3.799   7.501   6.031 -0.8814 -0.1025 -0.4516
  819TIP3    H1 2414   3.818   7.416   5.991 -0.4125 -0.5350  0.6271
  819TIP3    H2 2415   3.732   7.539   5.976 -1.4297 -1.3838 -0.7124
  820TIP3   OH2 2416   7.068   2.179   5.194  0.4257 -0.0790  0.0890
  820TIP3    H1 2417   6.975   2.157   5.192  0.3646  0.0318  1.1994
  820TIP3    H2 2418   7.070   2.275   5.197  0.5683 -0.0812  0.0853
  821TIP3   OH2 2419   2.627   1.985   6.160 -0.4834  0.6014  0.0079
  821TIP3    H1 2420   2.640   1.893   6.182 -0.0863  0.3372 -1.2484
  821TIP3    H2 2421   2.624   2.030   6.244  1.0985 -0.3319  0.6062
  822TIP3   OH2 2422   7.985   1.188   5.967 -0.0117 -0.4564  0.4861
  822TIP3    H1 2423   7.997   1.119   6.031 -1.4807 -0.1366  1.1627
  822TIP3    H2 2424   8.066   1.189   5.916 -0.7834 -4.2831 -1.1890
  823TIP3   OH2 2425   1.610   3.535   3.181 -0.6495 -0.0178  0.6549
  823TIP3    H1 2426   1.515   3.526   3.167 -0.7984  0.7654  1.0882
  823TIP3    H2 2427   1.645   3.549   3.093 -0.6678 -2.2930  0.2310
  824TIP3   OH2 2428   3.336   1.715   4.977 -0.4460  0.1488 -0.2858
  824TIP3    H1 2429   3.288   1.724   5.060 -0.8001 -0.8049 -0.3749
  824TIP3    H2 2430   3.427   1.733   5.000 -0.5384 -0.1260  0.3111
  825TIP3   OH2 2431   6.885   2.846   5.154 -1.0494  0.2372  0.3787
  825TIP3    H1 2432   6.951   2.792   5.111 -1.5254 -0.9797  1.1344
  825TIP3    H2 2433   6.829   2.876   5.082  0.9458  2.3027 -0.4550
  826TIP3   OH2 2434   3.198   2.686   0.524  0.6363 -0.0461 -0.0775
  826TIP3    H1 2435   3.139   2.761   0.519  1.4395  0.6545  0.7446
  826TIP3    H2 2436   3.219   2.678   0.617  0.2019 -1.5912 -0.0801
  827TIP3   OH2 2437   6.226   6.287   1.131  0.3068 -0.5200 -0.3521
  827TIP3    H1 2438   6.217   6.378   1.158 -0.4093 -0.4057 -0.9481
  827TIP3    H2 2439   6.306   6.257   1.174 -0.7633 -0.3518  1.8764
  828TIP3   OH2 2440   3.286   0.420   5.723 -0.2870 -0.0528  0.5598
  828TIP3    H1 2441   3.328   0.506   5.720 -1.3295  0.4369 -0.4022
  828TIP3    H2 2442   3.246   0.415   5.810 -0.0791  0.3527  0.6797
  829TIP3   OH2 2443   2.194   5.958   1.698 -0.5343 -0.0945 -0.9357
  829TIP3    H1 2444   2.191   6.029   1.763 -2.9716  0.9639 -2.0688
  829TIP3    H2 2445   2.226   6.001   1.618  1.2497 -1.0990 -0.7939
  830TIP3   OH2 2446   4.859   7.685   0.500  0.1421 -0.4153  0.3229
  830TIP3    H1 2447   4.840   7.748   0.430 -0.7583 -2.0912 -1.0076
  830TIP3    H2 2448   4.774   7.644   0.518  0.5647 -0.7143  1.7215
  831TIP3   OH2 2449   0.336   4.464   0.576 -0.1200  0.4592  0.1355
  831TIP3    H1 2450   0.271   4.412   0.529  1.4223 -1.8292  0.3620
  831TIP3    H2 2451   0.334   4.429   0.665 -0.2224  2.0162  0.7690
  832TIP3   OH2 2452   2.209   2.751   3.987  0.4174 -0.1244  0.0592
  832TIP3    H1 2453   2.267   2.735   4.061  0.7988  1.0300  0.0216
  832TIP3    H2 2454   2.227   2.678   3.927  0.8414 -0.5127  0.6463
  833TIP3   OH2 2455   0.988   2.254   6.507  0.0532 -0.3677 -0.3637
  833TIP3    H1 2456   1.055   2.322   6.508 -0.6407  0.3384  0.1626
  833TIP3    H2 2457   0.927   2.281   6.438  1.2121 -1.9466 -2.0682
  834TIP3   OH2 2458   0.690   6.714   3.248  0.3142  0.1827 -0.2402
  834TIP3    H1 2459   0.598   6.732   3.265  0.0956 -1.1401  0.1170
  834TIP3    H2 2460   0.715   6.776   3.179 -0.6327  1.0399  0.1688
  835TIP3   OH2 2461   3.071   6.732   5.536  0.8301 -0.7201 -0.0291
  835TIP3    H1 2462   3.050   6.777   5.453  0.6252  0.0401  0.4239
  835TIP3    H2 2463   2.992   6.742   5.589  1.5243  0.2146  0.8645
  836TIP3   OH2 2464   3.600   3.376   5.921 -0.2637  0.2984 -0.0013
  836TIP3    H1 2465   3.574   3.284   5.923 -1.1484  0.5413  0.3697
  836TIP3    H2 2466   3.690   3.377   5.953 -0.1965 -0.4538 -0.1648
  837TIP3   OH2 2467   6.759   2.536   2.152 -0.1781 -0.5024  0.4914
  837TIP3    H1 2468   6.854   2.527   2.145 -0.2159 -0.9062  0.4480
  837TIP3    H2 2469   6.728   2.446   2.164 -0.6189 -0.4806 -0.3765
  838TIP3   OH2 2470   0.102   1.378   4.769  0.3802 -0.2413  0.3500
  838TIP3    H1 2471   0.035   1.443   4.747  1.5446  1.3627  1.3336
  838TIP3    H2 2472   0.062   1.323   4.836 -1.2269 -1.6982 -1.6846
  839TIP3   OH2 2473   1.663   0.605   4.630 -0.1665  0.3747  0.0116
  839TIP3    H1 2474   1.743   0.562   4.660 -0.9942  0.1447  2.0637
  839TIP3    H2 2475   1.684   0.636   4.542  2.2440  0.5408  0.5831
  840TIP3   OH2 2476   4.947   3.984   0.558 -0.6107 -0.0420 -0.5648
  840TIP3    H1 2477   4.871   3.978   0.500 -0.0697  2.3635 -1.6453
  840TIP3    H2 2478   5.021   3.962   0.502 -0.3094 -0.1930 -0.1083
  841TIP3   OH2 2479   4.536   4.492   4.841 -0.4944 -0.4016 -0.0720
  841TIP3    H1 2480   4.602   4.461   4.780  1.0691  2.4793 -0.0288
  841TIP3    H2 2481   4.544   4.435   4.917 -0.0960 -1.9005 -1.1974
  842TIP3   OH2 2482   8.162   7.283   5.702 -0.0003 -0.1377  0.1769
  842TIP3    H1 2483   8.213   7.203   5.715  2.1344  1.0464 -0.3361
  842TIP3    H2 2484   8.137   7.281   5.610 -1.4372 -0.9969  0.5639
  843TIP3   OH2 2485   2.224   1.716   4.503 -0.0164  0.4966 -0.0126
  843TIP3    H1 2486   2.184   1.660   4.436  1.0201 -0.8996  0.5046
  843TIP3    H2 2487   2.169   1.704   4.581 -0.8347  1.6167 -0.3796
  844TIP3   OH2 2488   6.262   5.385   0.816 -0.3529 -0.0020  0.3367
  844TIP3    H1 2489   6.340   5.353   0.770 -0.8148 -1.4941  0.5285
  844TIP3    H2 2490   6.276   5.358   0.907 -0.4085  1.0597  0.6648
  845TIP3   OH2 2491   3.028   6.114   5.805 -0.0902 -0.1492 -0.1619
  845TIP3    H1 2492   3.122   6.097   5.798  0.1603  0.6787  0.9516
  845TIP3    H2 2493   3.008   6.172   5.732 -0.2772 -2.2988 -1.9403
  846TIP3   OH2 2494   7.412   5.198   2.654  0.7184  0.0871  0.6932
  846TIP3    H1 2495   7.318   5.213   2.660  0.7223  1.2274 -1.1989
  846TIP3    H2 2496   7.427   5.118   2.706 -1.3433 -0.4028  0.6359
  847TIP3   OH2 2497   4.020   1.557   1.815  0.4619 -0.3025  0.4971
  847TIP3    H1 2498   4.070   1.617   1.870  0.8700  1.1200 -1.3398
  847TIP3    H2 2499   4.039   1.470   1.851  2.4962  0.3834  1.2122
  848TIP3   OH2 2500   3.889   1.036   1.123  0.0996 -0.2414  0.4113
  848TIP3    H1 2501   3.815   0.977   1.140  0.7325 -1.1368  0.1344
  848TIP3    H2 2502   3.859   1.093   1.053 -0.3499 -0.5523  0.3506
  849TIP3   OH2 2503   4.911   2.540   1.141 -0.0415 -0.2325 -0.4523
  849TIP3    H1 2504   4.948   2.610   1.194  0.2506 -0.3893 -0.4466
  849TIP3    H2 2505   4.871   2.586   1.067 -4.3999  0.4155  2.0081
  850TIP3   OH2 2506   2.212   0.688   6.018 -0.0229  0.3164  0.4737
  850TIP3    H1 2507   2.284   0.748   6.000  0.9802 -1.2778 -1.1817
  850TIP3    H2 2508   2.165   0.681   5.935 -4.1295  3.6327  2.1364
  851TIP3   OH2 2509   4.623   5.900   1.727  0.6807 -0.2334 -0.5895
  851TIP3    H1 2510   4.616   5.992   1.750  1.6180  0.1562 -1.7525
  851TIP3    H2 2511   4.536   5.877   1.694 -0.4384 -0.5797  2.2690
  852TIP3   OH2 2512   7.707   5.406   2.774 -0.2575  0.2790  0.1207
  852TIP3    H1 2513   7.759   5.343   2.825 -1.4900 -0.6514  0.2828
  852TIP3    H2 2514   7.729   5.491   2.812  2.0302  0.0842 -0.5905
  853TIP3   OH2 2515   7.609   2.058   6.428  0.0057 -0.4020 -0.8165
  853TIP3    H1 2516   7.680   1.996   6.447  0.5131 -0.0152 -1.3741
  853TIP3    H2 2517   7.529   2.007   6.438  0.4092 -1.1124 -1.1026
  854TIP3   OH2 2518   0.911   0.778   1.645 -0.0037 -0.5430  0.3486
  854TIP3    H1 2519   0.964   0.729   1.708 -1.9019  0.3139  2.8027
  854TIP3    H2 2520   0.955   0.863   1.637  0.6927 -0.9447 -0.1545
  855TIP3   OH2 2521   6.133   5.189   3.359 -0.5085  0.2303 -0.1907
  855TIP3    H1 2522   6.166   5.277   3.378 -0.4321  0.3739 -0.9520
  855TIP3    H2 2523   6.141   5.180   3.264 -0.9573 -0.4234 -0.1774
  856TIP3   OH2 2524   2.915   6.602   5.105 -0.4560 -0.1326  0.1426
  856TIP3    H1 2525   2.935   6.684   5.060 -0.6937  0.2105  0.6507
  856TIP3    H2 2526   2.948   6.534   5.046  0.5162  0.3504  0.1095
  857TIP3   OH2 2527   7.195   1.917   6.702 -0.4346  0.3672  0.4469
  857TIP3    H1 2528   7.250   1.970   6.759 -1.6269 -0.4235  2.4414
  857TIP3    H2 2529   7.108   1.921   6.742 -1.0439 -1.2766 -0.5913
  858TIP3   OH2 2530   1.599   6.877   6.598 -0.8847  0.0160 -0.1983
  858TIP3    H1 2531   1.646   6.960   6.604 -0.0582 -0.4359 -0.3185
  858TIP3    H2 2532   1.622   6.831   6.679  1.7834 -1.6837 -1.7790
  859TIP3   OH2 2533   2.433   7.228   3.615 -0.2710 -0.3949 -0.3221
  859TIP3    H1 2534   2.528   7.234   3.620 -0.3184  0.4144 -0.3560
  859TIP3    H2 2535   2.406   7.216   3.707 -0.2044  0.4571 -0.1861
  860TIP3   OH2 2536   1.377   2.025   1.196  0.3885  0.6353  0.1505
  860TIP3    H1 2537   1.352   2.053   1.108 -0.7346  1.0437  0.5861
  860TIP3    H2 2538   1.461   2.068   1.211  1.1453 -0.3075 -1.1236
  861TIP3   OH2 2539   5.139   3.274   2.475 -0.3240 -0.6608  0.3285
  861TIP3    H1 2540   5.076   3.278   2.404  0.3588 -1.0009 -0.3051
  861TIP3    H2 2541   5.200   3.346   2.457  0.0837 -0.9993  0.3425
  862TIP3   OH2 2542   0.896   0.287   4.149  0.0272 -0.0681 -0.1737
  862TIP3    H1 2543   0.968   0.342   4.120 -1.6342  1.5303 -1.5172
  862TIP3    H2 2544   0.863   0.330   4.228  0.3070 -0.6065  0.2461
  863TIP3   OH2 2545   6.275   4.190   5.297 -0.4635 -0.5125  0.1170
  863TIP3    H1 2546   6.342   4.226   5.239 -0.8460 -0.5775 -0.3795
  863TIP3    H2 2547   6.222   4.265   5.322 -1.0263 -0.6525 -0.6046
  864TIP3   OH2 2548   4.294   3.792   6.617  0.2339 -0.0476  0.1276
  864TIP3    H1 2549   4.314   3.756   6.530  1.4822 -0.6970  0.6574
  864TIP3    H2 2550   4.374   3.838   6.642 -0.3958  0.8071  0.6224
  865TIP3   OH2 2551   4.872   0.666   4.037  0.1619 -1.3646 -0.4200
  865TIP3    H1 2552   4.791   0.718   4.036  1.1258  0.2809 -2.6288
  865TIP3    H2 2553   4.842   0.576   4.024 -1.4008 -1.0208  0.4820
  866TIP3   OH2 2554   0.165   0.531   0.140  0.5541 -0.3733  0.0373
  866TIP3    H1 2555   0.223   0.593   0.184  1.2988 -0.6792 -0.4753
  866TIP3    H2 2556   0.148   0.571   0.054  1.9557 -1.3389 -0.7511
  867TIP3   OH2 2557   6.214   7.097   2.286  0.0105  0.0397  0.4561
  867TIP3    H1 2558   6.193   7.008   2.256 -0.6038  0.3022  0.0982
  867TIP3    H2 2559   6.307   7.093   2.308  0.6768  0.0048 -2.1031
  868TIP3   OH2 2560   8.078   4.107   5.098 -0.1236  0.0789  0.8315
  868TIP3    H1 2561   8.046   4.195   5.119 -0.2934  0.0387  0.7434
  868TIP3    H2 2562   8.033   4.050   5.161  0.0533  0.0639  0.9464
  869TIP3   OH2 2563   1.454   3.269   0.501 -0.3021  0.1352  0.1159
  869TIP3    H1 2564   1.384   3.324   0.536 -0.6865 -1.2928  1.7260
  869TIP3    H2 2565   1.535   3.313   0.526 -0.5846  1.2812 -0.8936
  870TIP3   OH2 2566   1.089   3.920   3.214 -0.1027 -0.0782 -0.1334
  870TIP3    H1 2567   1.124   3.959   3.134 -0.3922  1.5065  0.4914
  870TIP3    H2 2568   0.997   3.947   3.216 -0.1208 -0.1813  0.6997
  871TIP3   OH2 2569   5.621   2.171   0.535 -0.4644  0.0301  0.2430
  871TIP3    H1 2570   5.707   2.171   0.577  0.1668  0.2194 -1.0092
  871TIP3    H2 2571   5.564   2.125   0.597  0.1957  1.1102  1.7340
  872TIP3   OH2 2572   5.817   0.086   5.182 -0.2069 -0.0661  0.5453
  872TIP3    H1 2573   5.765   0.161   5.209 -0.5729  0.0002 -0.3076
  872TIP3    H2 2574   5.757   0.012   5.189 -0.1247 -0.1383  0.4861
  873TIP3   OH2 2575   7.079   4.433   6.765  0.0176 -0.3650  0.0392
  873TIP3    H1 2576   7.159   4.481   6.785 -0.8910  0.6024  1.5297
  873TIP3    H2 2577   7.049   4.470   6.682  0.8175 -0.3737 -0.2645
  874TIP3   OH2 2578   4.215   1.490   6.649 -0.0396 -0.1448 -0.2110
  874TIP3    H1 2579   4.266   1.450   6.720  0.1554  3.3122  1.8522
  874TIP3    H2 2580   4.281   1.526   6.590 -0.1540  0.0361 -0.2290
  875TIP3   OH2 2581   4.279   4.224   4.367  0.2111 -0.0102 -0.1133
  875TIP3    H1 2582   4.316   4.198   4.451 -0.1416  0.5942  0.2327
  875TIP3    H2 2583   4.243   4.311   4.382  1.7504  0.8962 -1.3505
  876TIP3   OH2 2584   7.286   7.182   3.859 -0.3783  0.1358 -0.1291
  876TIP3    H1 2585   7.221   7.248   3.884 -2.2033 -0.8558 -1.9326
  876TIP3    H2 2586   7.291   7.188   3.763  1.8547 -0.1718 -0.0738
  877TIP3   OH2 2587   0.089   6.793   2.657 -0.2589 -0.0307 -0.0906
  877TIP3    H1 2588   0.126   6.878   2.682  0.7951  0.0746 -1.8714
  877TIP3    H2 2589  -0.004   6.810   2.646 -0.0533  0.9029 -0.4493
  878TIP3   OH2 2590   7.477   3.221   3.714 -0.2000  0.1075  0.0680
  878TIP3    H1 2591   7.477   3.282   3.788  1.2682 -0.5713  0.6625
  878TIP3    H2 2592   7.555   3.168   3.727 -0.0310 -0.1715 -1.8688
  879TIP3   OH2 2593   6.541   1.952   5.541 -0.3033 -0.0206 -0.1593
  879TIP3    H1 2594   6.560   2.011   5.613 -1.4860  0.0941  0.0837
  879TIP3    H2 2595   6.623   1.906   5.525  0.1245  0.3489  0.8872
  880TIP3   OH2 2596   1.566   7.014   4.161  0.2334  0.5521 -0.1614
  880TIP3    H1 2597   1.609   7.094   4.132 -0.4478  0.6117 -1.0335
  880TIP3    H2 2598   1.610   6.943   4.114  0.4490  0.4656  0.1689
  881TIP3   OH2 2599   4.538   1.105   0.817  0.6092 -0.6328 -0.0041
  881TIP3    H1 2600   4.588   1.045   0.872 -1.3679 -0.7742  1.8272
  881TIP3    H2 2601   4.538   1.187   0.866  0.5528 -0.1161 -0.8560
  882TIP3   OH2 2602   1.823   3.437   2.138  0.1164 -0.1286  0.4669
  882TIP3    H1 2603   1.845   3.485   2.218 -0.1514  0.5470  0.1459
  882TIP3    H2 2604   1.844   3.346   2.158  1.9535  0.2816  0.6201
  883TIP3   OH2 2605   0.316   2.836   2.926 -0.3435 -0.0967 -0.1155
  883TIP3    H1 2606   0.302   2.808   2.835  0.8969  0.0948 -0.3870
  883TIP3    H2 2607   0.237   2.884   2.949 -1.0392 -0.8846 -0.8067
  884TIP3   OH2 2608   3.035   0.818   1.030 -0.0509 -0.2106  0.4471
  884TIP3    H1 2609   3.088   0.843   1.106  0.0890  1.1270 -0.0566
  884TIP3    H2 2610   3.085   0.747   0.988 -0.0766 -0.8834  1.5126
  885TIP3   OH2 2611   2.894   6.289   2.581 -0.3137 -0.2851  0.1283
  885TIP3    H1 2612   2.964   6.241   2.626  0.7240 -0.0995 -1.2388
  885TIP3    H2 2613   2.814   6.260   2.625  0.7042  1.1214  3.2296
  886TIP3   OH2 2614   0.870   6.647   4.053 -0.0530 -0.3271 -0.5730
  886TIP3    H1 2615   0.955   6.682   4.027  1.1290 -0.4752  2.6625
  886TIP3    H2 2616   0.809   6.721   4.043  0.9170  0.4710 -0.7400
  887TIP3   OH2 2617   6.291   6.210   0.654  0.0100  0.1852  0.2866
  887TIP3    H1 2618   6.243   6.201   0.736  1.6403 -0.2782  1.2267
  887TIP3    H2 2619   6.315   6.120   0.630  0.4913  0.4080 -0.0938
  888TIP3   OH2 2620   1.896   2.445   1.539  0.1809 -0.1468 -0.2122
  888TIP3    H1 2621   1.917   2.513   1.604 -1.0829  0.4838 -0.4344
  888TIP3    H2 2622   1.803   2.428   1.552  0.7295 -2.8660  0.7690
  889TIP3   OH2 2623   0.055   3.836   4.404  0.0530 -0.2743  0.2832
  889TIP3    H1 2624   0.041   3.887   4.484 -0.6099  0.2242 -0.1341
  889TIP3    H2 2625  -0.026   3.848   4.354  0.1469 -1.2238 -0.1099
  890TIP3   OH2 2626   5.852   6.394   2.757 -0.0553  0.9441  0.0834
  890TIP3    H1 2627   5.796   6.372   2.683  0.4257  2.1706 -0.6674
  890TIP3    H2 2628   5.926   6.440   2.719  1.4074 -0.4649  1.0771
  891TIP3   OH2 2629   7.446   5.884   2.278 -0.3313  0.6878  0.0478
  891TIP3    H1 2630   7.452   5.890   2.183  1.2414  2.1334  0.1750
  891TIP3    H2 2631   7.537   5.883   2.308 -0.7305 -2.0926  1.4874
  892TIP3   OH2 2632   7.162   4.814   4.234 -0.2735  0.2052  0.2566
  892TIP3    H1 2633   7.166   4.781   4.324  0.0284  1.6202  0.7925
  892TIP3    H2 2634   7.089   4.876   4.235  0.3983  1.0201 -0.1828
  893TIP3   OH2 2635   0.881   2.867   5.808 -0.2467 -0.0748  0.2360
  893TIP3    H1 2636   0.858   2.917   5.886  0.3294 -0.9325  0.9786
  893TIP3    H2 2637   0.852   2.921   5.735  1.4159  1.9048  0.9510
  894TIP3   OH2 2638   7.333   1.649   0.404  0.0243 -0.1558  0.5911
  894TIP3    H1 2639   7.301   1.590   0.335 -2.1681  0.3037  1.1296
  894TIP3    H2 2640   7.343   1.733   0.361  0.8911 -0.3880  0.3342
  895TIP3   OH2 2641   2.320   1.449   4.568  0.0900  0.5835  0.0836
  895TIP3    H1 2642   2.362   1.363   4.569 -0.5762  0.2500  0.4552
  895TIP3    H2 2643   2.340   1.485   4.481  0.1131 -0.0799 -0.1901
  896TIP3   OH2 2644   2.095   4.590   4.858  0.0647 -0.3297 -0.3919
  896TIP3    H1 2645   2.133   4.505   4.837  1.2619  0.2093 -0.5014
  896TIP3    H2 2646   2.011   4.569   4.899  0.4505 -1.5641 -0.1811
  897TIP3   OH2 2647   6.445   6.322   2.138  0.1470 -0.4889 -1.1432
  897TIP3    H1 2648   6.533   6.304   2.171 -0.4649 -1.1163  0.2026
  897TIP3    H2 2649   6.427   6.248   2.079  0.2291 -0.7792 -0.8116
  898TIP3   OH2 2650   5.096   0.060   3.310 -0.3336 -0.6991  0.6725
  898TIP3    H1 2651   5.040   0.090   3.238 -1.4073  2.0756  2.4882
  898TIP3    H2 2652   5.038   0.057   3.385  1.2821 -0.9529  1.9538
  899TIP3   OH2 2653   4.465   6.494   4.233  0.7154 -0.4153  0.5003
  899TIP3    H1 2654   4.428   6.412   4.202 -0.9587  0.4934  0.0025
  899TIP3    H2 2655   4.475   6.482   4.327  0.4266 -1.1655  0.4376
  900TIP3   OH2 2656   1.442   4.478   4.245 -0.3413  0.0352 -0.2391
  900TIP3    H1 2657   1.484   4.402   4.204 -1.6330 -0.8172 -0.0339
  900TIP3    H2 2658   1.456   4.550   4.184  1.9579 -0.0295  0.1057
  901TIP3   OH2 2659   7.883   0.298   1.806 -0.3747 -0.0170  0.2537
  901TIP3    H1 2660   7.833   0.310   1.887 -0.4903 -1.4178  0.3993
  901TIP3    H2 2661   7.878   0.384   1.763  0.0064  0.8800  1.8916
  902TIP3   OH2 2662   0.658   2.413   3.294  0.0012  0.5442  0.0545
  902TIP3    H1 2663   0.626   2.461   3.218  0.0455 -0.1298 -0.4023
  902TIP3    H2 2664   0.617   2.456   3.369  0.2678  1.4571 -0.3202
  903TIP3   OH2 2665   7.488   5.487   1.175 -0.3921  0.5201  0.3686
  903TIP3    H1 2666   7.572   5.474   1.132 -0.7314 -0.4266 -0.0445
  903TIP3    H2 2667   7.501   5.454   1.264 -0.5715 -0.5142  0.0293
  904TIP3   OH2 2668   3.510   7.594   5.940  0.4602  0.0778 -0.0747
  904TIP3    H1 2669   3.506   7.689   5.939  0.2255  0.0756  0.4566
  904TIP3    H2 2670   3.420   7.566   5.923  0.7327 -0.0651 -1.4124
  905TIP3   OH2 2671   4.330   2.295   1.758  0.0082 -0.0645 -0.2047
  905TIP3    H1 2672   4.420   2.281   1.727  0.7435 -0.6823  2.0350
  905TIP3    H2 2673   4.340   2.349   1.836 -1.6335  0.3564 -0.2646
  906TIP3   OH2 2674   4.932   5.145   5.364 -0.1415 -0.3947 -0.2217
  906TIP3    H1 2675   5.007   5.092   5.391 -0.6428 -1.5391 -1.0227
  906TIP3    H2 2676   4.968   5.206   5.299  0.4469  0.3231  0.7480
  907TIP3   OH2 2677   0.475   3.038   6.446  0.5965 -0.4240 -0.0909
  907TIP3    H1 2678   0.565   3.005   6.438 -0.0002 -2.8175  1.7935
  907TIP3    H2 2679   0.459   3.041   6.541 -1.4043 -0.3726 -0.3808
  908TIP3   OH2 2680   0.538   7.547   4.294 -0.0461 -0.1055  0.5927
  908TIP3    H1 2681   0.560   7.640   4.297  0.8506 -0.2894 -0.0016
  908TIP3    H2 2682   0.601   7.505   4.352  0.1388 -0.4425  0.1551
  909TIP3   OH2 2683   2.706   1.580   0.946 -0.4179  0.2660 -0.0276
  909TIP3    H1 2684   2.713   1.624   0.861  1.7580  1.5048  0.7067
  909TIP3    H2 2685   2.641   1.631   0.994  0.7436  1.6377  0.1601
  910TIP3   OH2 2686   5.603   6.046   5.870 -0.0976  0.4650  0.3552
  910TIP3    H1 2687   5.615   6.131   5.828 -0.5551  1.4033  2.0148
  910TIP3    H2 2688   5.682   6.032   5.921  0.7364 -0.9631 -1.2150
  911TIP3   OH2 2689   0.224   5.428   0.407  0.4430 -0.0835  0.6792
  911TIP3    H1 2690   0.316   5.406   0.392  0.3819  0.4035 -0.5475
  911TIP3    H2 2691   0.178   5.344   0.405  0.6695 -0.2054 -0.3604
  912TIP3   OH2 2692   0.137   3.994   6.270 -0.0567 -0.1809 -0.1420
  912TIP3    H1 2693   0.047   3.963   6.257  0.3994 -1.4914 -0.3983
  912TIP3    H2 2694   0.164   4.023   6.183  0.0237 -0.5462 -0.2430
  913TIP3   OH2 2695   1.854   1.849   2.362  0.0409  0.0665 -0.2652
  913TIP3    H1 2696   1.868   1.910   2.290  2.4593 -0.1824 -0.1089
  913TIP3    H2 2697   1.941   1.840   2.402 -1.0258 -0.5698  2.0595
  914TIP3   OH2 2698   0.324   6.570   6.393 -0.6817  0.3392  0.4683
  914TIP3    H1 2699   0.245   6.517   6.398  0.9055 -2.3475 -0.3796
  914TIP3    H2 2700   0.333   6.592   6.300  0.4677 -1.0088  0.2201
  915TIP3   OH2 2701   3.701   3.479   1.739  0.1601 -0.1742  0.2778
  915TIP3    H1 2702   3.715   3.527   1.657  1.1816 -0.0649  0.5051
  915TIP3    H2 2703   3.725   3.388   1.718 -0.6829 -0.3704  0.1510
  916TIP3   OH2 2704   7.497   7.754   3.275 -0.1759 -0.2690  0.2185
  916TIP3    H1 2705   7.508   7.817   3.345 -0.3856 -0.7290  0.6753
  916TIP3    H2 2706   7.585   7.736   3.244 -0.1898  1.1251 -0.7245
  917TIP3   OH2 2707   2.350   0.380   6.658 -0.4720 -0.5798 -0.0416
  917TIP3    H1 2708   2.370   0.403   6.567  1.7313 -2.1091 -0.0257
  917TIP3    H2 2709   2.364   0.460   6.707  1.4285 -0.4824 -0.6872
  918TIP3   OH2 2710   0.053   3.892   0.105  0.0627 -0.5677 -0.6608
  918TIP3    H1 2711   0.143   3.877   0.077  0.5609  0.8482  0.0911
  918TIP3    H2 2712   0.050   3.862   0.196 -0.3867 -1.1197 -0.8484
  919TIP3   OH2 2713   7.907   3.158   3.303 -0.1314 -0.1493 -0.3197
  919TIP3    H1 2714   7.863   3.084   3.343 -0.4999 -0.7485 -1.7768
  919TIP3    H2 2715   7.947   3.205   3.377 -0.5007 -1.3731  0.6898
  920TIP3   OH2 2716   2.148   6.671   3.815  0.5451  0.2076  0.2508
  920TIP3    H1 2717   2.153   6.633   3.903 -2.2785 -1.0912 -0.0187
  920TIP3    H2 2718   2.125   6.763   3.830  0.1441  0.0114  0.8992
  921TIP3   OH2 2719   2.125   3.946   0.223 -0.3334 -0.1666  0.2846
  921TIP3    H1 2720   2.085   4.010   0.282 -0.1012 -0.8122  1.1517
  921TIP3    H2 2721   2.064   3.939   0.150  0.9103  3.1434 -1.2994
  922TIP3   OH2 2722   3.930   2.518   2.822  0.0584  0.5700  0.4469
  922TIP3    H1 2723   3.876   2.462   2.766  1.9626 -1.8798  0.8691
  922TIP3    H2 2724   3.867   2.564   2.878 -1.6884  0.0723 -1.0220
  923TIP3   OH2 2725   3.397   5.535   3.064  0.5045  0.2817  0.4508
  923TIP3    H1 2726   3.324   5.494   3.112  0.2531 -1.9262 -1.6221
  923TIP3    H2 2727   3.427   5.467   3.004  4.3415  1.1125  1.1777
  924TIP3   OH2 2728   5.995   6.970   0.646  0.1418  0.2001 -0.3019
  924TIP3    H1 2729   6.051   7.011   0.580  2.0804  1.1095  1.7496
  924TIP3    H2 2730   6.007   7.024   0.724 -0.7568 -1.7356  1.2519
  925TIP3   OH2 2731   6.169   2.885   1.291 -0.7271  0.1015 -0.3462
  925TIP3    H1 2732   6.256   2.847   1.281 -0.4758  0.2936  0.9264
  925TIP3    H2 2733   6.178   2.974   1.257 -0.7545 -0.2540 -1.3200
  926TIP3   OH2 2734   4.385   6.664   5.327  0.1533 -0.0127  0.0507
  926TIP3    H1 2735   4.330   6.640   5.253 -0.7243 -1.6531  1.1712
  926TIP3    H2 2736   4.438   6.737   5.295 -0.8101 -0.1037 -1.8914
  927TIP3   OH2 2737   7.723   0.107   4.638 -0.7990  0.2980 -0.3727
  927TIP3    H1 2738   7.698   0.180   4.581 -0.3882  1.3044  0.7019
  927TIP3    H2 2739   7.720   0.143   4.726  1.6659 -0.3257  0.0352
  928TIP3   OH2 2740   2.669   7.053   4.154  0.2909 -0.4031 -0.5264
  928TIP3    H1 2741   2.574   7.057   4.142 -0.1626 -3.9027  0.6291
  928TIP3    H2 2742   2.702   7.025   4.068  0.1945  0.0095 -0.7007
  929TIP3   OH2 2743   2.838   5.219   1.525  0.7431 -0.0090  0.0658
  929TIP3    H1 2744   2.875   5.251   1.443  0.4809  0.8957  0.2916
  929TIP3    H2 2745   2.861   5.285   1.590 -2.2542  1.2831 -0.0133
  930TIP3   OH2 2746   7.709   5.726   1.197  0.0902  0.0066  0.1561
  930TIP3    H1 2747   7.797   5.692   1.182  0.5323  1.6284 -1.2284
  930TIP3    H2 2748   7.720   5.821   1.196 -2.0324  0.3672 -2.9224
  931TIP3   OH2 2749   2.944   2.413   0.354 -0.2108 -0.6582  0.0296
  931TIP3    H1 2750   3.012   2.349   0.377 -0.6807 -1.6974 -1.3540
  931TIP3    H2 2751   2.863   2.374   0.387 -0.6589 -1.3759 -1.8011
  932TIP3   OH2 2752   5.634   6.347   6.484 -0.1093 -0.1549 -0.3977
  932TIP3    H1 2753   5.666   6.374   6.397  1.3070 -0.1400  0.0941
  932TIP3    H2 2754   5.662   6.418   6.542  0.8376 -1.1478  0.3975
  933TIP3   OH2 2755   4.345   4.190   5.791 -0.4264 -0.0340 -0.5420
  933TIP3    H1 2756   4.296   4.113   5.822 -1.2196  0.3884 -0.7214
  933TIP3    H2 2757   4.432   4.156   5.769 -0.3807 -0.6634  0.5116
  934TIP3   OH2 2758   4.688   2.692   5.838  0.0045 -0.4978 -0.1712
  934TIP3    H1 2759   4.632   2.705   5.915 -0.4856  0.6971 -0.6957
  934TIP3    H2 2760   4.670   2.603   5.810  1.1392 -1.4260  1.8219
  935TIP3   OH2 2761   5.011   2.962   3.491  0.2670  0.4671  0.8377
  935TIP3    H1 2762   5.019   2.887   3.432 -0.9918  0.5777  0.4954
  935TIP3    H2 2763   5.018   3.038   3.433 -4.3536  0.6368  0.1107
  936TIP3   OH2 2764   1.742   7.597   3.896  0.2783 -0.4507  0.3330
  936TIP3    H1 2765   1.732   7.525   3.833  0.9905 -1.0344  0.8663
  936TIP3    H2 2766   1.701   7.564   3.976 -0.2589  0.1323  0.3123
  937TIP3   OH2 2767   0.592   4.725   4.654 -0.4737 -0.1396  0.3139
  937TIP3    H1 2768   0.565   4.716   4.563 -0.0571 -1.0109  0.2687
  937TIP3    H2 2769   0.586   4.636   4.690 -1.2698  0.2994  1.3206
  938TIP3   OH2 2770   6.411   7.166   5.183  0.0856  0.0160  0.0103
  938TIP3    H1 2771   6.483   7.229   5.176 -0.3835  0.4298 -1.5205
  938TIP3    H2 2772   6.421   7.110   5.105 -1.1089 -0.0481 -0.1121
  939TIP3   OH2 2773   1.037   5.283   5.191 -0.3861  0.7061 -0.0246
  939TIP3    H1 2774   0.973   5.333   5.139 -3.8032 -1.8930  1.2694
  939TIP3    H2 2775   1.037   5.326   5.277 -1.3887  0.0430  0.3277
  940TIP3   OH2 2776   7.042   2.030   4.321  0.0581 -0.6510  0.3488
  940TIP3    H1 2777   7.019   2.108   4.372 -1.2078  0.1818 -1.4107
  940TIP3    H2 2778   7.001   2.043   4.236  1.4620 -2.3566 -0.6664
  941TIP3   OH2 2779   8.170   4.185   5.854 -0.0082 -0.6492 -0.7646
  941TIP3    H1 2780   8.109   4.255   5.874 -0.0656 -0.7869 -0.4489
  941TIP3    H2 2781   8.185   4.191   5.759  0.2983  0.0374 -0.6753
  942TIP3   OH2 2782   0.800   3.132   2.924 -0.2569  0.6868 -0.1506
  942TIP3    H1 2783   0.715   3.092   2.905  1.2830 -3.2879  0.2658
  942TIP3    H2 2784   0.860   3.091   2.861  2.1233 -0.4982  2.6497
  943TIP3   OH2 2785   3.512   5.777   2.320  0.1596  0.2363  0.0436
  943TIP3    H1 2786   3.444   5.799   2.257 -0.4359 -0.3370  0.4745
  943TIP3    H2 2787   3.540   5.862   2.355  0.1705  0.5242 -0.6475
  944TIP3   OH2 2788   6.445   1.067   3.289 -0.4515  0.2416  0.6644
  944TIP3    H1 2789   6.377   1.033   3.348 -0.6744  0.8293  0.7514
  944TIP3    H2 2790   6.490   0.989   3.258 -0.7993 -0.1219  1.0527
  945TIP3   OH2 2791   0.058   1.405   1.010  0.3263 -0.5567 -0.2328
  945TIP3    H1 2792   0.144   1.363   1.004  1.0453  0.9697 -1.5659
  945TIP3    H2 2793   0.037   1.429   0.920 -1.0622 -0.0569  0.1962
  946TIP3   OH2 2794   2.162   5.003   0.398 -0.2525  0.3581  0.2902
  946TIP3    H1 2795   2.112   5.064   0.452  0.0665  0.6700  0.2418
  946TIP3    H2 2796   2.239   5.054   0.371 -1.3865  0.8902 -2.1323
  947TIP3   OH2 2797   7.304   1.875   0.843 -0.0106 -0.1332  0.1243
  947TIP3    H1 2798   7.292   1.969   0.832 -1.9019 -0.3902 -0.3909
  947TIP3    H2 2799   7.391   1.866   0.883  1.4969  1.6574 -2.4191
  948TIP3   OH2 2800   2.274   1.586   5.039  0.1589 -0.4950  0.1837
  948TIP3    H1 2801   2.193   1.570   4.991 -0.6355 -1.8520  1.8691
  948TIP3    H2 2802   2.268   1.677   5.068 -0.5140 -0.4272 -0.1528
  949TIP3   OH2 2803   5.135   3.178   0.962 -0.6651  0.0993  0.6060
  949TIP3    H1 2804   5.149   3.101   1.017  0.6195  0.2660  0.5501
  949TIP3    H2 2805   5.138   3.144   0.873 -0.7058  0.1236  0.5953
  950TIP3   OH2 2806   1.727   3.193   5.528  0.0945 -0.1427 -0.1647
  950TIP3    H1 2807   1.797   3.206   5.592  0.4907 -0.9243 -0.4220
  950TIP3    H2 2808   1.741   3.103   5.496 -2.0146 -0.9464  1.0073
  951TIP3   OH2 2809   5.705   3.933   4.873  0.6003 -0.5651  0.2696
  951TIP3    H1 2810   5.720   4.010   4.928 -0.5041 -0.7122  0.8049
  951TIP3    H2 2811   5.767   3.942   4.801  2.6251 -0.7455  1.9069
  952TIP3   OH2 2812   1.302   6.008   5.669  0.8711  0.1122  0.5617
  952TIP3    H1 2813   1.323   5.921   5.704 -0.6889 -0.9704 -0.9936
  952TIP3    H2 2814   1.206   6.011   5.668  0.8525  2.4361  1.8602
  953TIP3   OH2 2815   1.550   5.423   5.016  0.2247  0.0914  0.1016
  953TIP3    H1 2816   1.465   5.388   4.990  0.0612 -1.4457  2.4637
  953TIP3    H2 2817   1.562   5.395   5.107  3.1124  0.5621 -0.0286
  954TIP3   OH2 2818   0.042   0.990   2.178  0.2718 -0.1937 -0.1928
  954TIP3    H1 2819  -0.038   1.006   2.129  0.2993 -0.9220 -0.4872
  954TIP3    H2 2820   0.062   1.074   2.221 -0.0141  0.3073 -1.0322
  955TIP3   OH2 2821   1.064   7.816   5.896 -0.5340 -0.0737 -0.0115
  955TIP3    H1 2822   1.159   7.815   5.899 -0.4917  0.6739 -0.7679
  955TIP3    H2 2823   1.037   7.743   5.951  0.5341 -2.0828 -2.0042
  956TIP3   OH2 2824   2.426   2.650   0.053  0.1955  0.3675  0.0824
  956TIP3    H1 2825   2.349   2.632   0.000 -0.4374  1.2828  0.6548
  956TIP3    H2 2826   2.413   2.740   0.085  2.5472  1.4593 -1.6309
  957TIP3   OH2 2827   2.570   5.913   0.193  0.5204 -0.0268 -0.4407
  957TIP3    H1 2828   2.646   5.918   0.251 -0.6997  0.4403  1.2017
  957TIP3    H2 2829   2.593   5.845   0.129  1.9474 -0.5171  0.5358
  958TIP3   OH2 2830   2.832   1.159   5.475 -0.3075  0.0511  0.7090
  958TIP3    H1 2831   2.906   1.164   5.535  1.4103 -1.2863 -1.1448
  958TIP3    H2 2832   2.858   1.094   5.410 -2.9044 -0.0565 -0.3590
  959TIP3   OH2 2833   6.856   5.314   4.774  0.2301 -0.5152 -0.1065
  959TIP3    H1 2834   6.866   5.223   4.747 -0.8489 -0.5103 -0.5447
  959TIP3    H2 2835   6.945   5.349   4.774  0.7496 -1.7673  0.8153
  960TIP3   OH2 2836   7.588   6.288   0.161 -0.0156  0.8727 -0.7462
  960TIP3    H1 2837   7.642   6.212   0.182 -1.6009 -0.4251 -1.1148
  960TIP3    H2 2838   7.648   6.351   0.124  1.1551 -0.7152 -1.6766
  961TIP3   OH2 2839   8.223   5.248   6.208  0.3346  0.3796  0.0456
  961TIP3    H1 2840   8.204   5.174   6.266 -0.6307  1.1831  0.7782
  961TIP3    H2 2841   8.252   5.318   6.266  3.1973  0.0272 -0.7991
  962TIP3   OH2 2842   3.614   2.946   6.363 -0.3617  0.4353  0.4549
  962TIP3    H1 2843   3.558   2.994   6.424 -0.7132  1.0262 -0.3321
  962TIP3    H2 2844   3.556   2.880   6.325  0.1871 -0.8561  1.7532
  963TIP3   OH2 2845   5.084   5.107   3.873  0.0984  0.0118 -0.0833
  963TIP3    H1 2846   5.152   5.126   3.807  0.9143  1.9173  1.2227
  963TIP3    H2 2847   5.097   5.014   3.894  1.1128 -0.1246 -1.1739
  964TIP3   OH2 2848   3.266   5.937   4.295 -0.1520 -0.1784 -0.5358
  964TIP3    H1 2849   3.324   5.973   4.227  0.2999 -0.6718 -0.4198
  964TIP3    H2 2850   3.190   5.905   4.248  0.1366 -0.4736 -0.8122
  965TIP3   OH2 2851   6.607   7.620   3.600 -0.2041 -0.0283  0.5005
  965TIP3    H1 2852   6.611   7.716   3.605  0.3297  0.3417 -3.5278
  965TIP3    H2 2853   6.670   7.597   3.531 -2.5053 -2.9631 -0.8561
  966TIP3   OH2 2854   7.320   0.874   1.318  0.1175 -0.5206  0.1185
  966TIP3    H1 2855   7.384   0.909   1.256  0.3763 -0.6644  0.3029
  966TIP3    H2 2856   7.313   0.941   1.386 -1.0881  0.2082 -0.6799
  967TIP3   OH2 2857   5.956   3.996   5.795 -0.4785  0.0376 -0.3490
  967TIP3    H1 2858   5.939   3.932   5.864 -0.2869  0.1616 -0.1839
  967TIP3    H2 2859   5.874   4.001   5.746 -0.7425  0.2305  0.1048
  968TIP3   OH2 2860   0.512   7.254   1.805 -0.4102  0.2838 -0.1271
  968TIP3    H1 2861   0.599   7.291   1.815  0.2285 -1.1887 -0.0463
  968TIP3    H2 2862   0.459   7.327   1.772  0.6062  1.4632  0.7556
  969TIP3   OH2 2863   6.845   3.009   1.833 -0.1159  0.2605  0.4489
  969TIP3    H1 2864   6.833   3.043   1.922  0.3004  0.6229  0.3692
  969TIP3    H2 2865   6.924   2.955   1.838  1.4467  2.3747 -0.2675
  970TIP3   OH2 2866   5.820   2.144   0.756 -0.2214 -0.5663  0.1944
  970TIP3    H1 2867   5.845   2.057   0.725  2.3696  0.0229  0.3329
  970TIP3    H2 2868   5.840   2.142   0.850  0.4689  0.3221  0.0871
  971TIP3   OH2 2869   1.777   3.646   3.469  0.5339 -0.1371  0.2967
  971TIP3    H1 2870   1.690   3.615   3.447  0.3349 -0.0130  0.8754
  971TIP3    H2 2871   1.811   3.683   3.388  1.0066 -2.3440 -0.5999
  972TIP3   OH2 2872   5.218   1.722   3.993  0.2750 -0.1889  0.6489
  972TIP3    H1 2873   5.304   1.680   3.985  0.0080 -0.6961  0.4535
  972TIP3    H2 2874   5.200   1.757   3.906 -0.3969 -1.4013  0.2926
  973TIP3   OH2 2875   7.828   2.167   2.528  0.7223  0.4432  0.3737
  973TIP3    H1 2876   7.780   2.240   2.568  1.6339  0.4075  1.5675
  973TIP3    H2 2877   7.912   2.165   2.572  0.5561 -1.6395  0.7283
  974TIP3   OH2 2878   5.825   7.148   2.655  0.1030  0.2718  0.4199
  974TIP3    H1 2879   5.913   7.127   2.624  0.4657  0.3632  1.3587
  974TIP3    H2 2880   5.808   7.236   2.622  0.1656  0.0594 -0.1818
  975TIP3   OH2 2881   6.503   4.328   5.154  0.1595 -0.5122  0.0848
  975TIP3    H1 2882   6.507   4.248   5.102  0.1049 -0.9356  0.7138
  975TIP3    H2 2883   6.589   4.369   5.141  0.1023 -0.5479 -0.4244
  976TIP3   OH2 2884   1.471   0.695   4.782 -0.1279 -0.1995 -0.1082
  976TIP3    H1 2885   1.421   0.764   4.739  0.3184 -0.7912 -1.6500
  976TIP3    H2 2886   1.533   0.665   4.716 -0.4889 -2.2577  0.4066
  977TIP3   OH2 2887   6.515   0.144   6.104 -0.1102 -0.3868 -0.5200
  977TIP3    H1 2888   6.562   0.137   6.022 -1.3578 -2.4618 -1.1137
  977TIP3    H2 2889   6.423   0.144   6.079 -0.5048 -0.5908  0.8627
  978TIP3   OH2 2890   5.574   4.201   5.859 -0.4762  0.0366 -0.4670
  978TIP3    H1 2891   5.593   4.111   5.886  3.7699  0.0980 -2.5296
  978TIP3    H2 2892   5.520   4.191   5.780  0.0814 -0.7207 -0.7586
  979TIP3   OH2 2893   0.196   6.535   5.569 -0.0313 -0.9291 -0.4023
  979TIP3    H1 2894   0.210   6.590   5.492  0.8638 -3.0310 -1.8173
  979TIP3    H2 2895   0.223   6.590   5.643  0.3727  0.6724 -1.6750
  980TIP3   OH2 2896   4.886   2.305   1.330 -0.3867  0.7048 -0.0252
  980TIP3    H1 2897   4.896   2.400   1.327 -1.6732  0.8570 -0.4692
  980TIP3    H2 2898   4.834   2.285   1.252  0.2089 -0.4175 -0.1458
  981TIP3   OH2 2899   4.869   4.088   2.280  0.0943  0.4986 -0.6594
  981TIP3    H1 2900   4.915   4.054   2.357  0.3586  0.1513 -0.9667
  981TIP3    H2 2901   4.786   4.039   2.278 -0.0896  0.7949 -0.3694
  982TIP3   OH2 2902   4.198   0.490   3.628 -0.0409 -0.0120  0.0778
  982TIP3    H1 2903   4.146   0.505   3.548 -1.0033 -0.6393  0.5710
  982TIP3    H2 2904   4.145   0.527   3.698  0.2712 -0.4957  0.5731
  983TIP3   OH2 2905   5.614   3.972   5.293  0.2078  0.2911 -0.4289
  983TIP3    H1 2906   5.661   3.915   5.232 -0.9683 -0.2364 -0.8948
  983TIP3    H2 2907   5.577   4.041   5.238  0.0527  0.4371 -0.1463
  984TIP3   OH2 2908   3.738   2.686   3.697  0.0872  0.3166 -0.8023
  984TIP3    H1 2909   3.794   2.709   3.771 -0.4890 -2.0243  0.4762
  984TIP3    H2 2910   3.791   2.707   3.620  2.5836 -1.2754  0.3341
  985TIP3   OH2 2911   2.370   4.972   2.097  0.3354 -0.2365 -0.6684
  985TIP3    H1 2912   2.309   4.928   2.038 -0.0599 -1.8027  0.8411
  985TIP3    H2 2913   2.452   4.924   2.088  0.7341  0.4936 -1.0671
  986TIP3   OH2 2914   4.676   4.003   0.470 -0.7958 -0.3927  0.3171
  986TIP3    H1 2915   4.601   3.972   0.521 -1.4088 -0.1223 -0.4057
  986TIP3    H2 2916   4.677   4.098   0.484 -1.8044 -0.1307 -1.2543
  987TIP3   OH2 2917   0.812   7.181   2.026 -0.1324  0.0310 -0.1740
  987TIP3    H1 2918   0.789   7.233   2.103  1.0391 -0.0702  0.2602
  987TIP3    H2 2919   0.877   7.233   1.980  1.1405 -1.0769  0.3258
  988TIP3   OH2 2920   7.139   7.836   3.686  0.4196 -0.3120 -0.3068
  988TIP3    H1 2921   7.176   7.752   3.659  0.3412 -1.0420  1.6494
  988TIP3    H2 2922   7.204   7.873   3.745 -0.0011  0.5242 -0.3469
  989TIP3   OH2 2923   3.545   0.358   5.005  0.5818 -0.4845  0.3250
  989TIP3    H1 2924   3.532   0.290   5.072 -0.0136 -0.0290  0.6908
  989TIP3    H2 2925   3.627   0.335   4.962  0.2886 -1.5478  0.3105
  990TIP3   OH2 2926   1.108   6.765   5.430 -0.1522 -0.0163 -0.1200
  990TIP3    H1 2927   1.162   6.834   5.392 -0.6929  0.0431 -0.7989
  990TIP3    H2 2928   1.095   6.703   5.359 -0.9405 -0.0560  0.0545
  991TIP3   OH2 2929   0.796   3.017   5.073  0.3615 -0.4742 -0.4523
  991TIP3    H1 2930   0.779   3.111   5.068 -1.3676 -0.8380 -3.2588
  991TIP3    H2 2931   0.777   2.995   5.164  3.2422  2.2142  1.0018
  992TIP3   OH2 2932   3.213   3.082   5.051 -0.5961 -0.0418  0.0896
  992TIP3    H1 2933   3.231   3.054   5.140 -1.1789  0.5668  0.4042
  992TIP3    H2 2934   3.155   3.014   5.015 -1.3865  0.3559  0.5950
  993TIP3   OH2 2935   2.845   6.425   0.392  0.2491  0.5496 -0.1218
  993TIP3    H1 2936   2.843   6.330   0.399 -2.3948  0.4269 -1.2755
  993TIP3    H2 2937   2.798   6.456   0.470  1.2449  0.9379  0.3391
  994TIP3   OH2 2938   5.030   4.458   6.575  0.0597  0.0940 -0.3060
  994TIP3    H1 2939   5.004   4.547   6.552  0.2568  0.0998 -0.5142
  994TIP3    H2 2940   5.101   4.437   6.514 -1.2214 -0.8881 -1.5198
  995TIP3   OH2 2941   8.196   1.530   2.997 -0.4609 -0.2859 -0.3184
  995TIP3    H1 2942   8.265   1.595   3.012 -0.9529  0.2325 -0.2502
  995TIP3    H2 2943   8.229   1.477   2.924  0.3650 -0.5633  0.2482
  996TIP3   OH2 2944   7.532   2.108   3.620 -0.8123 -0.6301 -0.0847
  996TIP3    H1 2945   7.615   2.117   3.666 -1.8711 -0.3188  1.8546
  996TIP3    H2 2946   7.503   2.198   3.603 -0.8405 -0.7332 -0.6169
  997TIP3   OH2 2947   6.399   1.432   1.095 -0.1217 -0.2280 -0.4051
  997TIP3    H1 2948   6.435   1.479   1.170  3.2562 -0.6894 -1.5724
  997TIP3    H2 2949   6.398   1.340   1.124  1.3433 -0.4278 -0.9198
  998TIP3   OH2 2950   2.649   0.361   4.148 -0.4966 -0.3909 -0.2185
  998TIP3    H1 2951   2.570   0.341   4.097 -0.7536 -1.0861  0.4415
  998TIP3    H2 2952   2.622   0.350   4.239  0.4241 -0.8430  0.0067
  999TIP3   OH2 2953   4.914   4.721   4.641  0.5076 -0.3248  0.1159
  999TIP3    H1 2954   4.938   4.737   4.550  1.5717  0.1244  0.4562
  999TIP3    H2 2955   4.971   4.778   4.692 -1.4378  0.9375  1.0057
 1000TIP3   OH2 2956   7.845   7.009   1.159 -0.1265 -0.3926  0.4706
 1000TIP3    H1 2957   7.926   7.025   1.111 -0.3069 -0.6155  0.0859
 1000TIP3    H2 2958   7.776   7.011   1.092 -0.2263 -2.1852  0.4522
 1001TIP3   OH2 2959   0.809   2.673   2.133  0.0561  0.1228  0.0540
 1001TIP3    H1 2960   0.793   2.759   2.171  1.0175  1.3188 -2.0656
 1001TIP3    H2 2961   0.724   2.644   2.101 -0.0520  0.8958 -0.3714
 1002TIP3   OH2 2962   4.356   3.224   1.656  0.2459  0.4304 -0.4624
 1002TIP3    H1 2963   4.333   3.171   1.580 -0.5007  3.2069 -2.3283
 1002TIP3    H2 2964   4.449   3.243   1.645  0.6801 -0.9351  0.5677
 1003TIP3   OH2 2965   3.983   4.947   0.260  0.1441  0.5490 -0.7491
 1003TIP3    H1 2966   3.970   4.891   0.183  0.5089 -0.3806 -0.1432
 1003TIP3    H2 2967   3.916   4.918   0.322  1.9654 -1.0386  0.5720
 1004TIP3   OH2 2968   1.049   6.584   6.238 -0.2666  0.1980  0.6595
 1004TIP3    H1 2969   1.122   6.595   6.177  0.6269  0.2448  1.7006
 1004TIP3    H2 2970   1.044   6.667   6.285 -0.0469 -0.3084  1.5987
 1005TIP3   OH2 2971   2.697   6.292   5.597  0.1588  0.2103 -0.6487
 1005TIP3    H1 2972   2.708   6.216   5.653 -0.0714  1.5915  1.3951
 1005TIP3    H2 2973   2.603   6.307   5.594  0.1789  0.2661 -1.2821
 1006TIP3   OH2 2974   0.716   4.465   2.798 -0.3141  0.8929  0.5171
 1006TIP3    H1 2975   0.745   4.556   2.805  1.5256  0.4677 -0.8068
 1006TIP3    H2 2976   0.791   4.413   2.828 -0.4650 -0.2100 -0.8776
 1007TIP3   OH2 2977   3.539   2.190   5.666  0.3022 -0.0911  0.4932
 1007TIP3    H1 2978   3.597   2.184   5.742  1.1646  2.3338  0.1064
 1007TIP3    H2 2979   3.597   2.185   5.591 -0.4876 -1.8690 -0.0478
 1008TIP3   OH2 2980   5.400   0.656   1.243 -0.3032 -0.1743 -0.3754
 1008TIP3    H1 2981   5.464   0.726   1.233 -0.5794  0.0693 -0.4308
 1008TIP3    H2 2982   5.422   0.616   1.328 -0.0219 -0.1507 -0.4352
 1009TIP3   OH2 2983   0.702   1.492   2.506 -0.2615  0.2557  0.0651
 1009TIP3    H1 2984   0.768   1.494   2.576 -0.1215  0.5559 -0.0785
 1009TIP3    H2 2985   0.728   1.417   2.452  0.1256  0.5444 -0.1528
 1010TIP3   OH2 2986   5.981   3.273   1.829 -0.2650 -0.1804 -0.2871
 1010TIP3    H1 2987   5.989   3.202   1.892 -0.8329  1.3342  1.5603
 1010TIP3    H2 2988   6.004   3.352   1.877  0.3578  0.9366 -2.2781
 1011TIP3   OH2 2989   3.275   2.255   0.455  0.4813  0.0201  0.2525
 1011TIP3    H1 2990   3.263   2.349   0.441  0.6365  0.0834  0.5354
 1011TIP3    H2 2991   3.256   2.242   0.548  1.5808 -0.0417  0.4847
 1012TIP3   OH2 2992   0.773   5.874   5.614 -0.7997 -0.4920 -0.2607
 1012TIP3    H1 2993   0.741   5.896   5.701 -1.3170 -0.3386 -0.4861
 1012TIP3    H2 2994   0.799   5.958   5.576 -0.5449 -0.5621 -0.2442
 1013TIP3   OH2 2995   1.633   7.064   2.593  0.3379 -0.0521  0.0119
 1013TIP3    H1 2996   1.674   6.980   2.572 -2.3682 -1.4932  0.0308
 1013TIP3    H2 2997   1.562   7.042   2.653  0.7059  2.5394  1.5830
 1014TIP3   OH2 2998   2.111   3.917   5.003  0.1076  0.1556  0.0423
 1014TIP3    H1 2999   2.098   3.830   4.964 -1.9706 -0.6479  2.3144
 1014TIP3    H2 3000   2.150   3.900   5.088  1.6294  1.6623 -0.2881
 1015TIP3   OH2 3001   4.273   3.258   1.077  0.1077 -0.0210 -0.2899
 1015TIP3    H1 3002   4.250   3.171   1.042  0.6514  0.1393 -1.0574
 1015TIP3    H2 3003   4.203   3.277   1.139 -0.5163 -0.6117 -0.7916
 1016TIP3   OH2 3004   4.926   5.535   1.696  0.3508  0.1490 -0.1578
 1016TIP3    H1 3005   4.916   5.440   1.689  0.7700  0.0838  0.1049
 1016TIP3    H2 3006   4.971   5.560   1.615  0.3495  0.1101 -0.1707
 1017TIP3   OH2 3007   5.789   4.167   3.084  0.2390  0.2238  0.9001
 1017TIP3    H1 3008   5.778   4.203   2.996 -0.8166 -0.0690  0.8921
 1017TIP3    H2 3009   5.880   4.184   3.106  0.4775  0.4377 -0.1891
 1018TIP3   OH2 3010   5.309   6.049   1.001  0.4461 -0.8046 -0.1175
 1018TIP3    H1 3011   5.225   6.080   1.035  1.4981  1.3761  0.7226
 1018TIP3    H2 3012   5.351   6.008   1.077  0.1837 -1.8581 -0.5270
 1019TIP3   OH2 3013   2.362   0.622   0.399  0.1640  0.4653 -0.0814
 1019TIP3    H1 3014   2.392   0.573   0.323  0.4709  1.2997 -0.5132
 1019TIP3    H2 3015   2.413   0.588   0.472  0.1672 -0.0463 -0.3187
 1020TIP3   OH2 3016   1.720   6.861   2.052 -0.1964  0.0396 -0.8753
 1020TIP3    H1 3017   1.722   6.849   2.147  1.1930 -1.1467 -1.0293
 1020TIP3    H2 3018   1.807   6.894   2.029 -0.4380  0.0966 -1.7649
 1021TIP3   OH2 3019   5.670   4.918   4.288  0.2158 -0.3319  0.2671
 1021TIP3    H1 3020   5.758   4.956   4.283  1.2251 -2.5793 -0.4342
 1021TIP3    H2 3021   5.648   4.896   4.198 -0.5143 -0.9927  0.5930
 1022TIP3   OH2 3022   7.655   3.017   3.396 -0.5815  0.2065  0.3644
 1022TIP3    H1 3023   7.571   2.985   3.428 -0.3506  0.5756  1.3798
 1022TIP3    H2 3024   7.688   2.947   3.339 -0.6187 -0.8655  1.6106
 1023TIP3   OH2 3025   6.587   5.313   2.742  0.3379  0.7125  0.6146
 1023TIP3    H1 3026   6.639   5.258   2.801 -0.1547 -3.4180 -2.3405
 1023TIP3    H2 3027   6.652   5.353   2.684  0.5931  1.5409  1.4622
 1024TIP3   OH2 3028   1.008   0.693   5.694 -0.1724  0.2310 -0.3926
 1024TIP3    H1 3029   1.030   0.775   5.738 -0.9285 -0.1706  0.7803
 1024TIP3    H2 3030   1.085   0.638   5.706  0.0621  0.5152 -0.5724
 1025TIP3   OH2 3031   0.902   5.979   4.611 -0.3374  1.4199 -0.3848
 1025TIP3    H1 3032   0.927   6.029   4.532 -1.2995  1.6599 -0.5448
 1025TIP3    H2 3033   0.810   5.999   4.624 -0.7387 -0.2867 -0.4136
 1026TIP3   OH2 3034   2.888   4.230   5.042 -0.7706  0.2501 -0.7323
 1026TIP3    H1 3035   2.844   4.257   4.962  2.7617  0.0922 -2.9594
 1026TIP3    H2 3036   2.924   4.143   5.022 -2.1849 -1.1414  2.1491
 1027TIP3   OH2 3037   7.178   5.162   1.457  0.4609 -0.5245 -0.5258
 1027TIP3    H1 3038   7.209   5.252   1.470 -1.0935  0.0442 -0.5429
 1027TIP3    H2 3039   7.197   5.143   1.366  2.7513 -1.0424 -0.0162
 1028TIP3   OH2 3040   4.800   1.240   6.343  0.0324 -0.3360 -0.4297
 1028TIP3    H1 3041   4.750   1.297   6.401  2.3630  1.2830  0.1290
 1028TIP3    H2 3042   4.756   1.156   6.348 -1.3742  0.4466  1.6398
 1029TIP3   OH2 3043   3.809   5.713   6.413 -0.0905  0.3290  0.9466
 1029TIP3    H1 3044   3.864   5.751   6.344  0.7407  0.1207  1.4792
 1029TIP3    H2 3045   3.726   5.760   6.406  0.1009  0.5480  0.0288
 1030TIP3   OH2 3046   0.470   7.192   2.815 -0.0883 -0.4277 -0.1545
 1030TIP3    H1 3047   0.542   7.255   2.815 -0.4746  0.0274  0.0660
 1030TIP3    H2 3048   0.394   7.243   2.787 -0.4352 -0.7620  0.1653
 1031TIP3   OH2 3049   3.522   1.297   4.725  0.0093  0.6326 -0.6551
 1031TIP3    H1 3050   3.535   1.386   4.758  0.3853  0.3299  0.0492
 1031TIP3    H2 3051   3.434   1.274   4.754  0.1022  0.5975 -0.3930
 1032TIP3   OH2 3052   8.241   4.345   3.320  0.0624 -0.0660  0.5088
 1032TIP3    H1 3053   8.198   4.404   3.382  1.3437 -0.3217  1.7042
 1032TIP3    H2 3054   8.191   4.264   3.325 -2.5086  1.1775 -2.0910
 1033TIP3   OH2 3055   2.601   4.421   6.309  0.1801  0.2163 -0.2401
 1033TIP3    H1 3056   2.655   4.500   6.320 -0.4362  0.5165  0.7871
 1033TIP3    H2 3057   2.512   4.451   6.323 -0.0821 -0.6290 -0.0496
 1034TIP3   OH2 3058   6.866   1.580   2.070 -0.1732 -0.3393 -0.1521
 1034TIP3    H1 3059   6.857   1.631   2.151  3.9176  2.1247 -0.9694
 1034TIP3    H2 3060   6.908   1.498   2.098 -1.6400 -0.8923  0.5183
 1035TIP3   OH2 3061   6.839   4.530   4.123  0.9477  0.1732 -0.0940
 1035TIP3    H1 3062   6.903   4.473   4.165  2.2510  0.4347 -1.6243
 1035TIP3    H2 3063   6.891   4.600   4.085 -0.0442 -0.3022 -2.5332
 1036TIP3   OH2 3064   2.783   0.611   0.398  0.0635  0.3497 -0.8348
 1036TIP3    H1 3065   2.781   0.524   0.357 -0.7852  0.7395 -1.6729
 1036TIP3    H2 3066   2.875   0.635   0.400  0.4746 -1.1746  0.7612
 1037TIP3   OH2 3067   4.820   4.866   3.952 -0.0925 -0.3679  0.5049
 1037TIP3    H1 3068   4.726   4.867   3.971  0.0581 -0.3432  1.2776
 1037TIP3    H2 3069   4.855   4.941   4.001  0.2956 -0.2099  0.0006
 1038TIP3   OH2 3070   1.845   2.583   0.215  0.3361 -0.2015 -0.8246
 1038TIP3    H1 3071   1.767   2.638   0.202  0.5435 -0.0787 -1.6042
 1038TIP3    H2 3072   1.811   2.504   0.257 -0.0287  0.3332 -0.0733
 1039TIP3   OH2 3073   2.098   7.267   4.209 -0.2805 -0.2494  0.4447
 1039TIP3    H1 3074   2.090   7.358   4.236  1.0959 -0.0260  0.1731
 1039TIP3    H2 3075   2.012   7.244   4.175 -0.6377  0.9486  0.5081
 1040TIP3   OH2 3076   7.107   0.672   6.165  0.0180  0.1137 -0.0580
 1040TIP3    H1 3077   7.092   0.756   6.208  0.1858 -0.2270  0.6831
 1040TIP3    H2 3078   7.025   0.655   6.117 -0.2892  0.3587  0.3723
 1041TIP3   OH2 3079   5.704   0.274   5.486 -0.6643 -0.1078  0.5842
 1041TIP3    H1 3080   5.631   0.282   5.424 -1.0736  1.4509  1.2361
 1041TIP3    H2 3081   5.681   0.332   5.558  1.2365  0.4547  0.7966
 1042TIP3   OH2 3082   6.840   6.131   3.745  0.0230  0.0024 -0.2708
 1042TIP3    H1 3083   6.895   6.070   3.795  0.3618  0.8618  0.4340
 1042TIP3    H2 3084   6.752   6.116   3.777 -0.2498 -1.6059 -1.6255
 1043TIP3   OH2 3085   7.520   4.683   6.025  1.1429  0.3296 -0.4724
 1043TIP3    H1 3086   7.530   4.590   6.004  3.7298  0.2907  0.5265
 1043TIP3    H2 3087   7.567   4.693   6.108 -0.1226  2.3296  0.0585
 1044TIP3   OH2 3088   1.464   5.821   5.767  0.3721 -0.3184  0.0880
 1044TIP3    H1 3089   1.448   5.734   5.731 -2.2810 -0.1521  0.6984
 1044TIP3    H2 3090   1.508   5.805   5.851  0.0914 -1.0562  0.0987
 1045TIP3   OH2 3091   0.416   4.769   0.100  0.5045 -0.4094 -0.2717
 1045TIP3    H1 3092   0.414   4.736   0.189  0.2567  0.2553 -0.0252
 1045TIP3    H2 3093   0.456   4.699   0.049 -0.4857 -1.2945  0.1435
 1046TIP3   OH2 3094   6.784   1.060   3.116 -0.0095  0.0212 -0.0669
 1046TIP3    H1 3095   6.767   0.993   3.182  0.0497 -0.4467 -0.5212
 1046TIP3    H2 3096   6.777   1.143   3.163  0.1512 -0.3134  0.5500
 1047TIP3   OH2 3097   0.116   3.605   0.556 -0.3961 -0.5386 -0.1284
 1047TIP3    H1 3098   0.132   3.510   0.553 -1.1841 -0.7071 -4.2127
 1047TIP3    H2 3099   0.181   3.642   0.497  0.9363  1.8140  2.5771
 1048TIP3   OH2 3100   7.952   6.058   0.899 -0.5206  0.5033 -0.3529
 1048TIP3    H1 3101   8.044   6.083   0.899 -0.4310  0.1712 -0.1173
 1048TIP3    H2 3102   7.946   5.988   0.833 -0.5246  0.2251 -0.0568
 1049TIP3   OH2 3103   2.197   6.881   1.355 -0.0975  0.1824 -0.2061
 1049TIP3    H1 3104   2.173   6.917   1.270 -1.8006  0.2864  0.2766
 1049TIP3    H2 3105   2.184   6.952   1.417  0.6040 -0.0486  0.2232
 1050TIP3   OH2 3106   6.079   4.737   4.728  0.2084  0.1470 -0.1358
 1050TIP3    H1 3107   6.091   4.642   4.734 -1.3068  0.0070  1.5174
 1050TIP3    H2 3108   6.006   4.748   4.666  1.5700  0.3834 -1.7691
 1051TIP3   OH2 3109   1.290   5.212   5.104 -0.4180  0.4358  0.1415
 1051TIP3    H1 3110   1.199   5.233   5.123 -1.0239 -1.4338 -0.5267
 1051TIP3    H2 3111   1.334   5.217   5.189 -0.8637  2.3968  0.3196
 1052TIP3   OH2 3112   6.078   4.167   5.008  0.0978  0.2568 -0.0911
 1052TIP3    H1 3113   6.116   4.146   4.923  1.5639  0.0633  0.5835
 1052TIP3    H2 3114   6.109   4.256   5.027 -1.2749  0.8116 -0.3041
 1053TIP3   OH2 3115   3.547   6.357   4.796 -1.1691 -0.5008  0.8069
 1053TIP3    H1 3116   3.602   6.279   4.782 -2.0623 -1.1581  0.8405
 1053TIP3    H2 3117   3.487   6.357   4.722  0.9165  2.0915 -1.0664
 1054TIP3   OH2 3118   6.127   3.130   5.536  0.2841  0.1316  0.0990
 1054TIP3    H1 3119   6.098   3.071   5.467 -0.9410 -0.1600  0.8465
 1054TIP3    H2 3120   6.060   3.123   5.604  2.1179 -0.6408  1.9368
 1055TIP3   OH2 3121   3.352   4.685   2.181  0.8738 -0.7186  0.1191
 1055TIP3    H1 3122   3.392   4.613   2.132  2.7154  0.4045 -0.1305
 1055TIP3    H2 3123   3.312   4.642   2.257  0.0644 -2.2159 -1.0886
 1056TIP3   OH2 3124   0.390   0.852   0.678 -0.3861 -0.1293 -0.1234
 1056TIP3    H1 3125   0.439   0.874   0.757 -0.0015 -1.6738  0.0981
 1056TIP3    H2 3126   0.456   0.852   0.608 -0.6520  0.8148 -0.3987
 1057TIP3   OH2 3127   3.605   0.965   0.303  0.1487  0.0165 -0.4088
 1057TIP3    H1 3128   3.582   1.032   0.238  0.2888 -0.0447 -0.5225
 1057TIP3    H2 3129   3.659   1.010   0.367 -0.8689  0.3362  0.2522
 1058TIP3   OH2 3130   8.183   3.613   1.816 -0.3969 -0.6263 -0.0314
 1058TIP3    H1 3131   8.102   3.642   1.859  0.3594 -2.4748  3.0191
 1058TIP3    H2 3132   8.166   3.523   1.791  0.8259 -1.2234  1.1521
 1059TIP3   OH2 3133   1.769   1.626   4.944 -0.2633 -0.7199  0.0749
 1059TIP3    H1 3134   1.830   1.679   4.995  1.4096 -1.3425 -1.1775
 1059TIP3    H2 3135   1.694   1.612   5.002  0.3139  0.9681  1.2801
 1060TIP3   OH2 3136   2.313   4.339   0.754 -0.2625 -0.7023  0.4418
 1060TIP3    H1 3137   2.263   4.421   0.752  2.3799  1.0322 -1.4249
 1060TIP3    H2 3138   2.290   4.294   0.673  0.5517 -0.2689 -0.0456
 1061TIP3   OH2 3139   4.950   1.987   5.838 -0.5798 -0.7042 -0.0073
 1061TIP3    H1 3140   4.982   2.022   5.754  0.1210  0.4812  0.7297
 1061TIP3    H2 3141   4.857   2.011   5.840 -0.2568  0.5867  0.1972
 1062TIP3   OH2 3142   6.178   7.181   1.938  0.0437  0.0908 -0.1596
 1062TIP3    H1 3143   6.157   7.223   2.022  0.6460 -1.1540  0.6485
 1062TIP3    H2 3144   6.122   7.225   1.875 -0.7885  0.7318  0.9816
 1063TIP3   OH2 3145   5.241   1.085   3.990  0.1004 -0.1473 -0.5250
 1063TIP3    H1 3146   5.262   1.176   3.971 -0.8040 -0.3336 -2.7417
 1063TIP3    H2 3147   5.306   1.058   4.054  0.1323  2.1545  0.5263
 1064TIP3   OH2 3148   3.045   1.722   5.947  0.2387 -0.3410 -0.1516
 1064TIP3    H1 3149   2.963   1.729   5.898 -0.5263  1.4814  1.2576
 1064TIP3    H2 3150   3.038   1.640   5.995 -2.0807  1.0107  2.0565
 1065TIP3   OH2 3151   2.032   0.077   2.536 -0.0330  0.0872 -0.0781
 1065TIP3    H1 3152   2.057  -0.001   2.486 -0.1956 -0.6293  0.9387
 1065TIP3    H2 3153   1.938   0.088   2.518 -0.2715 -0.6399  0.6876
 1066TIP3   OH2 3154   1.503   2.624   0.785 -0.2286  0.4889 -0.1253
 1066TIP3    H1 3155   1.575   2.584   0.737 -0.5061  0.0299 -0.1625
 1066TIP3    H2 3156   1.426   2.610   0.730 -0.8338 -1.3547  1.0889
 1067TIP3   OH2 3157   0.098   6.085   2.262 -0.8256  0.1625  0.2720
 1067TIP3    H1 3158   0.098   6.177   2.235  0.7705  0.4146  1.0079
 1067TIP3    H2 3159   0.054   6.084   2.347 -2.6293 -0.0872 -0.6265
 1068TIP3   OH2 3160   5.129   0.406   5.165  0.5840 -0.1305 -0.2094
 1068TIP3    H1 3161   5.097   0.456   5.240  1.7376  1.0823 -0.4889
 1068TIP3    H2 3162   5.148   0.319   5.200 -1.9586 -0.6074  0.1728
 1069TIP3   OH2 3163   7.237   7.728   3.269  0.3336  0.1364 -0.0189
 1069TIP3    H1 3164   7.197   7.689   3.346 -1.5475  0.8593 -0.5829
 1069TIP3    H2 3165   7.330   7.736   3.292 -0.0312 -0.4444  1.8196
 1070TIP3   OH2 3166   6.897   0.605   5.120  0.0232  0.2991  0.3762
 1070TIP3    H1 3167   6.978   0.647   5.093  0.6635 -0.8506  0.4471
 1070TIP3    H2 3168   6.835   0.677   5.131  0.2345  1.0206 -2.3748
 1071TIP3   OH2 3169   7.306   5.618   0.710 -0.4769 -0.3445 -0.0499
 1071TIP3    H1 3170   7.327   5.621   0.617 -0.1726 -1.6835 -0.0422
 1071TIP3    H2 3171   7.369   5.557   0.748 -0.5343  0.2475  1.0613
 1072TIP3   OH2 3172   2.864   3.312   0.934  0.3011  0.0028  0.1150
 1072TIP3    H1 3173   2.840   3.223   0.960  3.1085 -0.5759  1.1173
 1072TIP3    H2 3174   2.910   3.301   0.851  0.1047  0.6062 -0.0746
 1073TIP3   OH2 3175   7.566   2.364   3.460 -0.4753  0.0835  0.7429
 1073TIP3    H1 3176   7.509   2.375   3.536  0.9654 -0.5089  1.9703
 1073TIP3    H2 3177   7.655   2.373   3.496  0.2423 -0.4628 -0.8286
 1074TIP3   OH2 3178   5.965   3.308   4.143 -0.5865 -0.1357 -0.3963
 1074TIP3    H1 3179   5.917   3.381   4.103 -1.1561 -0.8663 -1.0757
 1074TIP3    H2 3180   6.053   3.315   4.108 -0.9611 -0.4954 -1.4475
 1075TIP3   OH2 3181   0.766   6.929   6.516 -0.1423 -0.5220 -0.3935
 1075TIP3    H1 3182   0.696   6.993   6.513  0.4300  0.0814 -1.6923
 1075TIP3    H2 3183   0.832   6.967   6.574 -0.0792 -0.2074 -0.6658
 1076TIP3   OH2 3184   6.399   1.983   2.857 -0.2254 -0.4667  0.4104
 1076TIP3    H1 3185   6.368   2.011   2.771 -0.0366 -1.5221 -0.0105
 1076TIP3    H2 3186   6.434   1.896   2.843 -0.7822 -0.9211  1.6822
 1077TIP3   OH2 3187   2.315   1.232   1.545  0.4793  0.2270  0.5904
 1077TIP3    H1 3188   2.352   1.319   1.560  1.5095 -0.1648  0.3728
 1077TIP3    H2 3189   2.378   1.172   1.584 -0.3226 -0.4220  0.9212
 1078TIP3   OH2 3190   1.435   1.496   3.101  0.7237  0.3694 -0.5097
 1078TIP3    H1 3191   1.404   1.543   3.179  0.2386 -1.5504  0.5106
 1078TIP3    H2 3192   1.361   1.498   3.040  0.5547  0.5483 -0.2974
 1079TIP3   OH2 3193   7.196   5.952   4.784 -0.7775  0.0942  0.1870
 1079TIP3    H1 3194   7.271   5.902   4.816 -0.4604 -0.0932 -0.8116
 1079TIP3    H2 3195   7.230   6.001   4.709 -1.1164  1.7251  1.0478
 1080TIP3   OH2 3196   5.041   5.023   5.682 -0.2112 -0.2670  0.2245
 1080TIP3    H1 3197   5.099   5.062   5.748 -1.0382 -1.9163  2.0171
 1080TIP3    H2 3198   4.953   5.029   5.720 -0.6217 -1.8838 -0.3947
 1081TIP3   OH2 3199   7.227   0.967   2.703 -0.2081  0.3818  0.0113
 1081TIP3    H1 3200   7.275   1.047   2.680 -1.0648  0.8388 -0.2476
 1081TIP3    H2 3201   7.182   0.990   2.785  0.8407 -0.3981  0.8276
 1082TIP3   OH2 3202   2.101   2.539   4.400 -0.3766  0.0943 -0.2819
 1082TIP3    H1 3203   2.170   2.483   4.366 -0.3777  0.8279 -1.5647
 1082TIP3    H2 3204   2.067   2.584   4.323 -1.1309  1.0130  0.5628
 1083TIP3   OH2 3205   4.779   0.725   5.168  0.1071  0.4507 -0.0056
 1083TIP3    H1 3206   4.858   0.756   5.123  0.5908 -0.0102  0.5050
 1083TIP3    H2 3207   4.707   0.766   5.121  0.6729  1.3317 -0.1394
 1084TIP3   OH2 3208   1.116   0.888   4.747 -0.3798  0.5957 -0.6840
 1084TIP3    H1 3209   1.065   0.828   4.802  1.4776  0.4365  1.0114
 1084TIP3    H2 3210   1.096   0.862   4.658 -1.3882 -1.0597 -0.0276
 1085TIP3   OH2 3211   2.317   5.212   0.607  0.3008 -0.3689  0.1446
 1085TIP3    H1 3212   2.411   5.196   0.600  0.4043 -0.0503  0.7106
 1085TIP3    H2 3213   2.291   5.169   0.688  0.2543  0.8154  0.7817
 1086TIP3   OH2 3214   7.113   5.876   2.083  0.1785  0.0746  0.1466
 1086TIP3    H1 3215   7.160   5.807   2.036  0.0038 -0.5426  0.8590
 1086TIP3    H2 3216   7.061   5.829   2.148 -0.8707  0.8020 -0.1503
 1087TIP3   OH2 3217   5.905   3.971   4.306 -0.1584 -0.3653 -0.1838
 1087TIP3    H1 3218   5.948   3.923   4.377 -0.3563  1.0217  0.9172
 1087TIP3    H2 3219   5.852   3.905   4.261 -1.5268 -0.9441  2.1208
 1088TIP3   OH2 3220   4.714   1.987   0.636 -0.4422  0.2202  1.0490
 1088TIP3    H1 3221   4.810   1.996   0.639 -0.0046 -2.7075 -0.3917
 1088TIP3    H2 3222   4.687   1.993   0.728  1.1202  0.9448  1.5054
 1089TIP3   OH2 3223   8.251   7.274   0.099 -0.0716 -0.3909 -0.2342
 1089TIP3    H1 3224   8.173   7.244   0.146 -1.4488  1.9331 -0.8868
 1089TIP3    H2 3225   8.321   7.217   0.132 -2.1494 -3.2969 -0.4049
 1090TIP3   OH2 3226   4.610   1.749   4.407 -0.2817  0.4806 -0.5121
 1090TIP3    H1 3227   4.643   1.839   4.408  0.2036  0.3363 -1.7222
 1090TIP3    H2 3228   4.519   1.756   4.379  0.3176  0.4593 -2.5673
 1091TIP3   OH2 3229   3.155   2.242   3.864 -0.7093  0.1537  0.4002
 1091TIP3    H1 3230   3.243   2.208   3.849 -1.0155 -0.9332  0.9701
 1091TIP3    H2 3231   3.106   2.168   3.900 -2.3206  0.2363 -1.4563
 1092TIP3   OH2 3232   3.295   3.917   4.473 -0.3745 -0.0277 -0.3187
 1092TIP3    H1 3233   3.339   3.953   4.396 -0.8292 -0.8917 -1.0004
 1092TIP3    H2 3234   3.202   3.916   4.450 -0.4400 -0.9844 -0.0548
 1093TIP3   OH2 3235   1.122   6.361   6.378 -0.6154  0.0137  0.0344
 1093TIP3    H1 3236   1.115   6.450   6.346  2.1996  0.6945  0.9801
 1093TIP3    H2 3237   1.121   6.306   6.299  4.0572  1.4709 -1.3639
 1094TIP3   OH2 3238   8.180   5.940   6.385 -0.1725  0.1155  0.2016
 1094TIP3    H1 3239   8.263   5.959   6.428 -1.2842  0.5875  2.2689
 1094TIP3    H2 3240   8.136   6.025   6.376 -0.4446 -0.1189 -0.8908
 1095TIP3   OH2 3241   5.364   0.680   5.498 -0.1778  0.0726  0.0564
 1095TIP3    H1 3242   5.327   0.667   5.585  0.6591 -1.0705  0.2547
 1095TIP3    H2 3243   5.385   0.592   5.467  0.7119  0.5620 -0.7809
 1096TIP3   OH2 3244   4.250   6.491   3.608 -0.1875 -0.1894  0.5667
 1096TIP3    H1 3245   4.304   6.422   3.569 -0.1157 -0.1456  0.5902
 1096TIP3    H2 3246   4.308   6.567   3.614 -0.5707  0.1916 -0.4302
 1097TIP3   OH2 3247   3.080   2.372   1.596 -0.3585 -0.0349 -0.5243
 1097TIP3    H1 3248   3.037   2.307   1.651 -0.2542  1.6499  1.6944
 1097TIP3    H2 3249   3.172   2.369   1.622 -0.4007  1.1527 -0.1824
 1098TIP3   OH2 3250   0.440   5.005   5.842 -0.5570 -0.0155  0.1037
 1098TIP3    H1 3251   0.500   4.938   5.809 -2.2453 -1.4239 -0.2762
 1098TIP3    H2 3252   0.482   5.038   5.921  0.6641 -1.0523 -0.0844
 1099TIP3   OH2 3253   8.228   5.597   1.238  0.4996 -0.2683  0.2066
 1099TIP3    H1 3254   8.297   5.657   1.268 -0.5066  1.7162 -1.1906
 1099TIP3    H2 3255   8.267   5.551   1.165  0.7324 -0.0251  0.1742
 1100TIP3   OH2 3256   7.153   6.979   3.085 -0.0367  0.1079  0.3514
 1100TIP3    H1 3257   7.129   7.045   3.020  0.5984 -0.6300 -0.6536
 1100TIP3    H2 3258   7.195   6.910   3.035 -0.0777 -0.7633  1.4772
 1101TIP3   OH2 3259   6.953   1.344   2.145  0.3856  0.3849 -0.1316
 1101TIP3    H1 3260   6.873   1.310   2.185  0.4563  0.5066  0.1128
 1101TIP3    H2 3261   7.023   1.313   2.201  0.4250  1.2185  0.2934
 1102TIP3   OH2 3262   3.148   5.140   6.096 -0.4082  0.2860 -0.0897
 1102TIP3    H1 3263   3.084   5.069   6.087 -1.2396  0.9745  0.1880
 1102TIP3    H2 3264   3.233   5.097   6.091 -0.8611 -0.4923 -2.0055
 1103TIP3   OH2 3265   6.678   2.490   6.596  0.3347 -0.3209  0.1101
 1103TIP3    H1 3266   6.642   2.561   6.544  0.6952  0.5979  1.0803
 1103TIP3    H2 3267   6.705   2.424   6.532 -0.0837  0.3674 -0.7955
 1104TIP3   OH2 3268   8.025   4.522   0.771  0.4131 -0.4654 -0.3112
 1104TIP3    H1 3269   8.109   4.564   0.787  1.1967 -2.8852  2.6445
 1104TIP3    H2 3270   7.973   4.541   0.849 -0.4697 -1.9991 -0.4915
 1105TIP3   OH2 3271   4.801   2.181   5.360 -0.3505 -0.3328  0.0054
 1105TIP3    H1 3272   4.770   2.126   5.288  0.0638 -0.2607 -0.2308
 1105TIP3    H2 3273   4.821   2.266   5.319  0.2914 -0.4200  0.1233
 1106TIP3   OH2 3274   8.121   0.959   2.540 -1.0388  0.3015  0.3953
 1106TIP3    H1 3275   8.096   0.944   2.631 -2.1605  1.4562  0.3028
 1106TIP3    H2 3276   8.180   1.034   2.542 -1.6917  0.8336  0.1075
 1107TIP3   OH2 3277   1.884   2.595   2.945 -0.3107  0.2713 -0.1559
 1107TIP3    H1 3278   1.961   2.610   2.999  0.9150 -0.6586 -1.5626
 1107TIP3    H2 3279   1.904   2.515   2.897 -1.0769  1.3440 -2.3883
 1108TIP3   OH2 3280   7.545   5.933   2.037 -0.0012 -0.3675 -0.2459
 1108TIP3    H1 3281   7.581   5.989   1.968  1.8691 -2.4775 -1.0850
 1108TIP3    H2 3282   7.578   5.846   2.017 -0.6915 -1.3375  2.4701
 1109TIP3   OH2 3283   7.406   7.068   4.087 -0.5024  0.3576 -0.6435
 1109TIP3    H1 3284   7.350   7.112   4.024 -1.0325 -0.2106 -0.5822
 1109TIP3    H2 3285   7.346   7.024   4.147 -0.0428 -1.5239 -1.4551
 1110TIP3   OH2 3286   2.259   2.304   4.401  0.5638 -0.3292 -0.9627
 1110TIP3    H1 3287   2.321   2.232   4.414  0.2161 -0.2979  1.3846
 1110TIP3    H2 3288   2.178   2.263   4.371  1.0891 -0.5976 -2.0536
 1111TIP3   OH2 3289   4.815   6.028   2.582  0.4358 -0.1867  0.6598
 1111TIP3    H1 3290   4.725   6.014   2.552  0.3656  0.0307  0.7641
 1111TIP3    H2 3291   4.809   6.103   2.641  0.9062  0.7807 -0.4622
 1112TIP3   OH2 3292   0.016   6.564   4.820 -0.0403  0.3946 -0.2950
 1112TIP3    H1 3293   0.060   6.555   4.735  0.7762 -0.5441  0.1993
 1112TIP3    H2 3294  -0.043   6.488   4.823  0.9176 -0.3481  0.5156
 1113TIP3   OH2 3295   6.283   4.134   3.044 -0.0575  0.2024 -0.5056
 1113TIP3    H1 3296   6.190   4.133   3.068 -0.2711  0.4739 -1.2654
 1113TIP3    H2 3297   6.315   4.218   3.078  0.0042 -0.0572  0.0829
 1114TIP3   OH2 3298   6.502   7.013   4.645  0.0950 -0.8157 -0.2437
 1114TIP3    H1 3299   6.523   6.923   4.669  0.3956 -1.1756 -1.7103
 1114TIP3    H2 3300   6.411   7.025   4.672  0.6256 -0.8909  1.7229
 1115TIP3   OH2 3301   5.562   2.632   5.541 -0.2730  0.0453 -0.1146
 1115TIP3    H1 3302   5.593   2.674   5.622  1.1967 -1.6192  0.2398
 1115TIP3    H2 3303   5.470   2.612   5.559 -1.1287  3.1827 -0.3813
 1116TIP3   OH2 3304   4.083   0.316   4.769  0.3430  0.2320 -0.7231
 1116TIP3    H1 3305   4.054   0.407   4.776 -0.6407 -0.0473 -1.0804
 1116TIP3    H2 3306   4.155   0.310   4.832  0.6531  1.3387 -0.9379
 1117TIP3   OH2 3307   2.770   5.837   0.370  0.5477  0.4768 -0.0246
 1117TIP3    H1 3308   2.858   5.804   0.351  0.6694  0.1135  1.1067
 1117TIP3    H2 3309   2.741   5.787   0.446 -1.1507 -0.2976 -1.1149
 1118TIP3   OH2 3310   6.656   3.579   4.480 -0.3403 -0.1067  0.0262
 1118TIP3    H1 3311   6.639   3.648   4.416 -0.5507  1.5560  1.7639
 1118TIP3    H2 3312   6.738   3.606   4.522 -0.6861 -0.6420  1.0762
 1119TIP3   OH2 3313   5.334   7.374   5.786  0.0155  0.1172 -0.0661
 1119TIP3    H1 3314   5.327   7.320   5.707  2.0387 -1.2660  0.5973
 1119TIP3    H2 3315   5.352   7.462   5.753  0.6390 -0.3918 -1.1625
 1120TIP3   OH2 3316   3.548   7.228   5.999  0.1961 -0.3184  0.2194
 1120TIP3    H1 3317   3.610   7.208   5.930  0.4743 -0.0969  0.4048
 1120TIP3    H2 3318   3.470   7.260   5.953  0.4100 -0.0953  0.0117
 1121TIP3   OH2 3319   3.788   5.552   0.778  0.3274  0.7686  0.0396
 1121TIP3    H1 3320   3.704   5.595   0.764 -0.3316 -0.5531 -0.2305
 1121TIP3    H2 3321   3.797   5.491   0.705 -0.3923 -1.9864  2.0854
 1122TIP3   OH2 3322   4.376   1.426   1.292  0.2736  0.3137 -0.0464
 1122TIP3    H1 3323   4.309   1.359   1.275  0.7726 -0.1208 -0.3097
 1122TIP3    H2 3324   4.346   1.469   1.372 -0.0613 -0.2145  0.1194
 1123TIP3   OH2 3325   7.111   2.301   6.175  0.0604 -0.0573 -0.3923
 1123TIP3    H1 3326   7.082   2.221   6.131  1.3769 -1.0910  0.5355
 1123TIP3    H2 3327   7.088   2.288   6.267 -1.2886  1.4180 -0.4728
 1124TIP3   OH2 3328   6.418   7.270   2.885  0.6095  0.0959  0.1276
 1124TIP3    H1 3329   6.360   7.281   2.960  0.5318 -0.5542  0.1665
 1124TIP3    H2 3330   6.361   7.240   2.815  0.6155  1.0588 -0.3057
 1125TIP3   OH2 3331   8.268   0.130   4.741  0.0079  0.4055  0.1734
 1125TIP3    H1 3332   8.260   0.091   4.828  0.9503 -0.4361 -0.1062
 1125TIP3    H2 3333   8.358   0.161   4.736  0.4819 -1.0365 -1.0823
 1126TIP3   OH2 3334   7.373   5.083   5.867 -0.2122  0.2633 -0.4766
 1126TIP3    H1 3335   7.430   5.078   5.944 -0.2639  0.2495 -0.4394
 1126TIP3    H2 3336   7.288   5.110   5.902  0.1147  1.6457 -0.6931
 1127TIP3   OH2 3337   1.501   1.420   2.452 -0.1787  0.2714 -0.3094
 1127TIP3    H1 3338   1.470   1.508   2.432 -1.4570 -0.6047 -2.4784
 1127TIP3    H2 3339   1.426   1.376   2.492  0.0028 -0.2554 -0.5420
 1128TIP3   OH2 3340   7.581   6.770   4.662 -0.7999  0.2490  0.5026
 1128TIP3    H1 3341   7.629   6.850   4.681  0.5640 -0.5946  0.6956
 1128TIP3    H2 3342   7.521   6.795   4.591  2.6872  0.4391 -2.6420
 1129TIP3   OH2 3343   5.483   3.842   1.779 -0.2563  0.3671 -0.2754
 1129TIP3    H1 3344   5.469   3.824   1.872  1.3329  0.4088 -0.0011
 1129TIP3    H2 3345   5.403   3.811   1.736 -0.6037 -0.5561  0.9882
 1130TIP3   OH2 3346   0.827   4.783   0.043  0.1144  0.0971  0.0532
 1130TIP3    H1 3347   0.817   4.808   0.135  0.5365 -0.5692  0.2916
 1130TIP3    H2 3348   0.802   4.861  -0.006 -2.7690 -0.3560  0.6488
 1131TIP3   OH2 3349   7.703   4.223   1.408  0.6077  0.1499  0.0495
 1131TIP3    H1 3350   7.758   4.159   1.363  0.8994  0.1963  0.3412
 1131TIP3    H2 3351   7.713   4.203   1.501 -1.0959 -0.8535  0.0560
 1132TIP3   OH2 3352   2.903   1.586   4.040 -0.3893  0.2721  0.0715
 1132TIP3    H1 3353   2.877   1.631   4.120 -0.5647  0.7401 -0.2446
 1132TIP3    H2 3354   2.831   1.602   3.979 -0.4826 -0.4849 -0.0289
 1133TIP3   OH2 3355   4.732   2.639   2.401  0.0007 -0.0863  0.6194
 1133TIP3    H1 3356   4.636   2.650   2.399 -0.1198 -1.0556 -1.6233
 1133TIP3    H2 3357   4.747   2.570   2.465 -1.1940 -2.5011 -1.5280
 1134TIP3   OH2 3358   6.421   7.003   4.110 -0.4116 -0.2481 -0.0931
 1134TIP3    H1 3359   6.379   6.928   4.066  1.4178 -1.3821  0.0043
 1134TIP3    H2 3360   6.439   7.065   4.040 -0.6981 -0.4903 -0.3847
 1135TIP3   OH2 3361   7.927   5.920   5.416  0.0462  0.2195 -0.4613
 1135TIP3    H1 3362   8.004   5.977   5.426 -0.6841  1.2116 -0.3924
 1135TIP3    H2 3363   7.900   5.901   5.505  1.8095 -2.4182 -0.3744
 1136TIP3   OH2 3364   4.949   7.411   2.573  0.3225 -0.0135 -0.0753
 1136TIP3    H1 3365   4.927   7.480   2.510  1.1476 -0.1860 -0.5834
 1136TIP3    H2 3366   5.035   7.437   2.606 -0.0480 -0.0032  0.8867
 1137TIP3   OH2 3367   2.483   4.650   5.026  0.5974 -0.3732 -0.2444
 1137TIP3    H1 3368   2.422   4.719   5.051  0.9331 -0.6725  1.5242
 1137TIP3    H2 3369   2.460   4.576   5.082  0.5995 -1.5434 -1.7240
 1138TIP3   OH2 3370   4.490   3.701   5.674  0.0322  0.3753  0.1018
 1138TIP3    H1 3371   4.455   3.710   5.585  2.3622 -1.4071 -1.1137
 1138TIP3    H2 3372   4.538   3.783   5.689  0.1655  0.4288 -0.5599
 1139TIP3   OH2 3373   6.046   5.466   2.857  0.3761 -0.2072  0.4874
 1139TIP3    H1 3374   6.081   5.553   2.877 -1.0348  0.9356 -1.5797
 1139TIP3    H2 3375   6.022   5.430   2.942  4.0739 -0.0877  1.7768
 1140TIP3   OH2 3376   0.351   1.774   0.058 -0.4528  0.0866 -0.5035
 1140TIP3    H1 3377   0.396   1.750  -0.023  0.7171  0.9426 -0.1199
 1140TIP3    H2 3378   0.415   1.757   0.127 -1.2876 -0.2233  0.2127
 1141TIP3   OH2 3379   4.502   0.543   1.781  0.3484 -0.2336  0.2379
 1141TIP3    H1 3380   4.409   0.561   1.795  0.3043  0.0948 -0.3996
 1141TIP3    H2 3381   4.548   0.612   1.830  0.2630 -0.4916  0.6841
 1142TIP3   OH2 3382   3.170   4.184   2.100  0.2797  0.1320 -0.3011
 1142TIP3    H1 3383   3.085   4.146   2.077  0.1505 -0.6577  1.3128
 1142TIP3    H2 3384   3.233   4.136   2.048 -0.1823  0.0843 -0.8259
 1143TIP3   OH2 3385   7.007   2.827   0.743 -0.0547  0.6641  0.3142
 1143TIP3    H1 3386   6.950   2.869   0.807  0.7275  1.7090  0.3453
 1143TIP3    H2 3387   7.095   2.833   0.781  0.1858 -0.2707 -0.0645
 1144TIP3   OH2 3388   2.874   5.495   0.553 -0.3671  0.2013 -0.2047
 1144TIP3    H1 3389   2.894   5.518   0.643 -0.6584  0.0753 -0.1067
 1144TIP3    H2 3390   2.955   5.514   0.505 -1.0158  2.7551 -0.3869
 1145TIP3   OH2 3391   6.236   1.662   6.571 -0.0148  0.4534 -0.0873
 1145TIP3    H1 3392   6.172   1.637   6.637  0.0448  1.0009  0.1774
 1145TIP3    H2 3393   6.256   1.580   6.525  0.8281 -0.1721  1.3364
 1146TIP3   OH2 3394   7.121   3.487   4.528  0.1991 -0.2250 -0.1516
 1146TIP3    H1 3395   7.044   3.481   4.584  0.3742  0.4407  0.1667
 1146TIP3    H2 3396   7.192   3.449   4.579  0.3985  0.5553  0.1564
 1147TIP3   OH2 3397   1.476   2.126   0.588  0.0841  0.0274 -0.3048
 1147TIP3    H1 3398   1.556   2.125   0.640  0.5495 -0.3561 -0.9989
 1147TIP3    H2 3399   1.467   2.036   0.557 -0.1990  0.2358 -0.8497
 1148TIP3   OH2 3400   4.186   0.270   3.271  0.6001 -0.2579 -0.4965
 1148TIP3    H1 3401   4.215   0.224   3.351  0.5910  0.5420 -0.0233
 1148TIP3    H2 3402   4.255   0.252   3.207  1.2424  0.1127  0.0735
 1149TIP3   OH2 3403   1.860   6.019   0.034  0.9187  0.7248 -0.4262
 1149TIP3    H1 3404   1.784   6.052   0.081  0.2276  0.8295 -1.5672
 1149TIP3    H2 3405   1.934   6.036   0.092  0.0489  0.3797  0.8100
 1150TIP3   OH2 3406   7.404   2.499   1.827 -0.8305 -0.4659 -0.3138
 1150TIP3    H1 3407   7.439   2.467   1.744 -0.0688 -2.1809  0.6064
 1150TIP3    H2 3408   7.329   2.442   1.845 -1.3870  0.3151 -0.1332
 1151TIP3   OH2 3409   8.154   6.840   4.050  0.0341 -0.3903 -0.2605
 1151TIP3    H1 3410   8.111   6.890   3.981  0.4261  1.7439  0.9450
 1151TIP3    H2 3411   8.247   6.853   4.034  0.1342  1.0506  1.2235
 1152TIP3   OH2 3412   0.395   5.671   4.793 -0.0579  0.0243 -0.0292
 1152TIP3    H1 3413   0.455   5.642   4.724 -0.0404  0.6889 -0.2945
 1152TIP3    H2 3414   0.309   5.672   4.752  0.1106  1.5647 -0.4023
 1153TIP3   OH2 3415   0.915   0.029   4.068 -0.2847  0.2204 -0.4037
 1153TIP3    H1 3416   0.916   0.119   4.100  5.3448  0.2194  0.5176
 1153TIP3    H2 3417   0.876  -0.022   4.138 -1.5491  1.6632 -0.0068
 1154TIP3   OH2 3418   5.777   0.437   5.999 -0.5919 -0.2295 -0.1927
 1154TIP3    H1 3419   5.688   0.437   5.964 -1.6867 -0.4581  2.3368
 1154TIP3    H2 3420   5.791   0.527   6.029 -0.3072 -0.3860  0.1539
 1155TIP3   OH2 3421   0.550   6.350   4.841  0.3838 -0.0428 -0.0603
 1155TIP3    H1 3422   0.519   6.414   4.905  0.0608  0.2836 -0.5354
 1155TIP3    H2 3423   0.622   6.394   4.796  0.8281 -0.3931  0.2951
 1156TIP3   OH2 3424   2.846   3.795   2.128  0.3546  0.1692 -0.0894
 1156TIP3    H1 3425   2.892   3.714   2.108 -1.1605 -0.4573 -1.2263
 1156TIP3    H2 3426   2.829   3.791   2.222  0.0362 -1.0032 -0.1845
 1157TIP3   OH2 3427   6.692   1.139   1.401 -0.3709 -0.0165 -0.0048
 1157TIP3    H1 3428   6.598   1.158   1.408 -0.4443 -0.0150 -0.9702
 1157TIP3    H2 3429   6.734   1.225   1.400 -0.4492  0.0136 -0.8132
 1158TIP3   OH2 3430   3.310   4.898   6.098  0.0579  0.0281 -0.2367
 1158TIP3    H1 3431   3.326   4.854   6.182  4.1676  1.4776  0.0064
 1158TIP3    H2 3432   3.274   4.831   6.041  1.2421 -2.2302  1.5278
 1159TIP3   OH2 3433   7.144   4.812   2.485  0.8132  0.3346  0.2696
 1159TIP3    H1 3434   7.119   4.727   2.521 -1.2795  0.4112 -0.9045
 1159TIP3    H2 3435   7.099   4.875   2.540 -0.4545  0.5334 -0.9643
 1160TIP3   OH2 3436   0.956   1.472   1.784  0.9192 -1.0834 -0.1996
 1160TIP3    H1 3437   0.894   1.442   1.718 -0.2460  2.2518 -0.7781
 1160TIP3    H2 3438   0.968   1.565   1.766  2.4137 -0.5617  2.8577
 1161TIP3   OH2 3439   0.789   6.697   0.029  0.2480  0.2283 -0.4879
 1161TIP3    H1 3440   0.721   6.630   0.021  0.0018  0.5258 -0.9574
 1161TIP3    H2 3441   0.837   6.673   0.108 -2.3806  1.7798  1.7898
 1162TIP3   OH2 3442   7.461   6.898   0.042 -0.1663  0.0984 -0.2211
 1162TIP3    H1 3443   7.409   6.874   0.119 -0.2252  0.7949 -0.0394
 1162TIP3    H2 3444   7.552   6.886   0.070 -0.2088 -0.9455 -0.4813
 1163TIP3   OH2 3445   0.675   3.659   6.139 -0.1625  0.0634 -0.4458
 1163TIP3    H1 3446   0.635   3.603   6.206  0.6397 -1.0234 -0.8342
 1163TIP3    H2 3447   0.733   3.600   6.090  1.3020  1.3990 -0.4036
 1164TIP3   OH2 3448   1.310   2.833   1.729  0.0491 -0.0208 -0.0554
 1164TIP3    H1 3449   1.341   2.818   1.819 -0.0566 -0.1438 -0.0374
 1164TIP3    H2 3450   1.267   2.751   1.706 -0.5245  0.2506  0.0323
 1165TIP3   OH2 3451   4.468   0.919   5.177  0.2043  0.0773 -0.0746
 1165TIP3    H1 3452   4.414   0.854   5.222 -0.8561  1.1859  0.3033
 1165TIP3    H2 3453   4.498   0.978   5.246 -1.2135  1.6312 -0.7165
 1166TIP3   OH2 3454   1.029   3.660   0.535  0.2103 -0.3083 -0.1080
 1166TIP3    H1 3455   1.086   3.703   0.599 -1.8526  1.1288  0.9056
 1166TIP3    H2 3456   1.031   3.568   0.559 -1.2594  0.2926  2.8405
 1167TIP3   OH2 3457   1.411   5.767   1.681  0.6781  0.3415 -0.2391
 1167TIP3    H1 3458   1.329   5.816   1.676  0.2503 -0.3201  0.1257
 1167TIP3    H2 3459   1.469   5.812   1.620 -0.0499  0.6430 -0.7292
 1168TIP3   OH2 3460   6.390   6.090   2.590 -0.1543 -0.8090  0.6034
 1168TIP3    H1 3461   6.298   6.112   2.602 -0.4976 -1.9636  0.1767
 1168TIP3    H2 3462   6.389   6.002   2.552  1.1026 -0.5837  0.0027
 1169TIP3   OH2 3463   4.491   1.322   0.989  0.2174  0.0925 -0.1642
 1169TIP3    H1 3464   4.525   1.412   0.992  1.8814 -0.5171  0.9950
 1169TIP3    H2 3465   4.396   1.332   0.979  0.4945  1.9347 -1.4039
 1170TIP3   OH2 3466   3.600   6.798   6.157  0.5426  0.1622  0.0310
 1170TIP3    H1 3467   3.617   6.847   6.238  0.5153  0.7190 -0.2943
 1170TIP3    H2 3468   3.684   6.798   6.111  0.5734 -0.2083  0.0877
 1171TIP3   OH2 3469   8.296   7.760   2.754  0.1733  0.2869  0.2864
 1171TIP3    H1 3470   8.341   7.791   2.833  0.3921 -1.1900  0.7602
 1171TIP3    H2 3471   8.220   7.818   2.746  0.2497  0.5751  1.4619
 1172TIP3   OH2 3472   0.729   7.395   1.730  0.0375 -0.3216 -0.5921
 1172TIP3    H1 3473   0.763   7.482   1.709 -0.1177 -0.3473 -0.9592
 1172TIP3    H2 3474   0.805   7.348   1.765 -0.3500  0.6277  1.7145
 1173TIP3   OH2 3475   7.140   1.128   5.605  0.1249 -0.5823  0.3047
 1173TIP3    H1 3476   7.191   1.172   5.673  1.2211 -2.4600  0.7534
 1173TIP3    H2 3477   7.194   1.133   5.527 -0.9296  1.1548 -0.3654
 1174TIP3   OH2 3478   6.898   4.531   0.202 -0.3078 -0.4542 -0.5677
 1174TIP3    H1 3479   6.900   4.514   0.297 -0.3106  0.1758 -0.4547
 1174TIP3    H2 3480   6.823   4.479   0.171  1.4059 -3.0215 -0.7089
 1175TIP3   OH2 3481   0.446   6.026   3.173  0.0571 -0.5133  0.2605
 1175TIP3    H1 3482   0.520   5.966   3.162  0.2289 -0.2227 -0.1400
 1175TIP3    H2 3483   0.475   6.088   3.240  0.0277 -0.6289  0.3829
 1176TIP3   OH2 3484   1.216   0.616   1.226 -0.3152 -0.2617  0.1996
 1176TIP3    H1 3485   1.129   0.607   1.265  0.5031  0.7477  2.4322
 1176TIP3    H2 3486   1.260   0.682   1.280  1.2113  0.6798 -2.0231
 1177TIP3   OH2 3487   5.287   1.651   0.374  0.3274  0.2474  0.2477
 1177TIP3    H1 3488   5.284   1.566   0.330  1.4935 -0.3649  1.3038
 1177TIP3    H2 3489   5.200   1.660   0.414  0.4265 -0.7809  0.7242
 1178TIP3   OH2 3490   1.542   5.994   2.746 -0.3687 -0.6767  0.3998
 1178TIP3    H1 3491   1.594   5.951   2.678 -0.2379 -0.3019  0.2601
 1178TIP3    H2 3492   1.577   6.083   2.751 -0.5996 -0.6009  0.7240
 1179TIP3   OH2 3493   7.487   2.457   1.064  0.0295  0.3241 -0.5356
 1179TIP3    H1 3494   7.466   2.551   1.060  1.3038  0.6023 -1.5763
 1179TIP3    H2 3495   7.580   2.453   1.041 -0.2740 -1.2913 -1.6289
 1180TIP3   OH2 3496   7.890   1.969   0.778  0.2485  0.5312 -0.1232
 1180TIP3    H1 3497   7.903   1.952   0.871  0.1257 -0.4300 -0.2715
 1180TIP3    H2 3498   7.979   1.970   0.742  0.2334 -0.8566 -0.2705
 1181TIP3   OH2 3499   1.013   3.969   3.860  0.5676  0.4688 -0.0183
 1181TIP3    H1 3500   0.947   3.983   3.792  0.7927  1.3949 -0.0581
 1181TIP3    H2 3501   1.028   4.056   3.896  0.9721  0.0925  0.7358
 1182TIP3   OH2 3502   1.906   6.364   6.763  0.0704 -0.4382 -0.0907
 1182TIP3    H1 3503   1.868   6.386   6.848  0.8906  0.3974  0.0664
 1182TIP3    H2 3504   1.852   6.412   6.699  0.5515  0.3551  0.0939
 1183TIP3   OH2 3505   6.361   0.513   3.378  0.1814 -0.0082 -0.5295
 1183TIP3    H1 3506   6.422   0.517   3.305 -0.1644  1.4393 -0.7683
 1183TIP3    H2 3507   6.321   0.600   3.381 -0.1335 -0.1741  1.1023
 1184TIP3   OH2 3508   2.626   6.975   1.701 -1.1972  0.3110 -0.5464
 1184TIP3    H1 3509   2.685   7.004   1.772 -0.5242  0.7758 -1.2799
 1184TIP3    H2 3510   2.616   6.881   1.716  0.0939  0.1360 -0.6538
 1185TIP3   OH2 3511   7.479   6.623   4.888  0.2549 -0.0020  0.1108
 1185TIP3    H1 3512   7.498   6.683   4.815  0.6793 -0.0264  0.2006
 1185TIP3    H2 3513   7.414   6.563   4.852 -2.1125  2.0018  0.7592
 1186TIP3   OH2 3514   1.029   2.091   6.720 -0.3959 -0.0367  0.1217
 1186TIP3    H1 3515   1.010   2.122   6.632 -2.2465 -0.0098  0.4857
 1186TIP3    H2 3516   1.027   2.169   6.775 -0.1353 -0.1613  0.3098
 1187TIP3   OH2 3517   2.394   2.639   3.075 -0.6626  0.0969 -0.0376
 1187TIP3    H1 3518   2.406   2.689   3.156 -0.4646 -0.2078  0.1236
 1187TIP3    H2 3519   2.394   2.548   3.103  3.2811 -0.3008 -0.7466
 1188TIP3   OH2 3520   3.789   4.945   1.934  0.0424 -0.2420 -0.3505
 1188TIP3    H1 3521   3.869   4.898   1.959  0.8229  0.7313 -0.9108
 1188TIP3    H2 3522   3.733   4.878   1.895  0.2084 -1.1148  0.8562
 1189TIP3   OH2 3523   2.890   0.372   5.144 -0.2273  0.4240  0.2074
 1189TIP3    H1 3524   2.955   0.379   5.074 -0.7682 -0.0025 -0.3423
 1189TIP3    H2 3525   2.912   0.444   5.204 -0.2227  1.2698 -0.7840
 1190TIP3   OH2 3526   1.907   3.030   0.738 -0.2174  0.5592  0.0844
 1190TIP3    H1 3527   1.896   2.940   0.709 -0.7305  0.7777 -0.4153
 1190TIP3    H2 3528   1.911   3.082   0.658  0.9270  0.8957  0.3425
 1191TIP3   OH2 3529   7.324   3.341   5.825 -0.2705 -0.5912 -0.2640
 1191TIP3    H1 3530   7.304   3.304   5.739  0.2384 -0.3207 -0.5021
 1191TIP3    H2 3531   7.301   3.272   5.887 -0.3285 -0.9108 -0.6387
 1192TIP3   OH2 3532   7.313   7.332   0.337 -0.1449  0.5926 -0.2352
 1192TIP3    H1 3533   7.349   7.330   0.426 -0.6973 -0.8854 -0.0305
 1192TIP3    H2 3534   7.371   7.275   0.286 -0.4334  0.6196 -0.5964
 1193TIP3   OH2 3535   7.127   5.885   6.140 -0.5217  0.0220  0.2120
 1193TIP3    H1 3536   7.150   5.798   6.107  1.5155  0.3794  0.5989
 1193TIP3    H2 3537   7.207   5.917   6.181 -1.1793  2.1769 -0.0955
 1194TIP3   OH2 3538   1.283   7.653   4.581  0.7548  0.7341 -0.0166
 1194TIP3    H1 3539   1.366   7.666   4.536 -0.7695  2.9385 -2.4615
 1194TIP3    H2 3540   1.235   7.735   4.567 -2.8875 -1.3621 -1.1058
 1195TIP3   OH2 3541   6.795   5.269   5.870  0.2143 -0.7817 -0.0099
 1195TIP3    H1 3542   6.754   5.187   5.899  0.2932 -0.6579  0.4564
 1195TIP3    H2 3543   6.722   5.329   5.858  0.2237 -0.6759  0.4496
 1196TIP3   OH2 3544   0.286   2.179   4.921 -0.0597  0.3446  0.0192
 1196TIP3    H1 3545   0.245   2.125   4.989 -0.0164 -0.6579 -0.7237
 1196TIP3    H2 3546   0.366   2.212   4.963 -0.1841 -0.0075  0.5537
 1197TIP3   OH2 3547   1.341   2.319   3.738  0.0821 -0.5731 -0.1849
 1197TIP3    H1 3548   1.273   2.355   3.681  0.0837 -1.6351 -0.8918
 1197TIP3    H2 3549   1.372   2.394   3.788 -0.1678  0.3304 -1.3237
 1198TIP3   OH2 3550   5.907   3.005   4.545 -0.3286  0.2671  0.1563
 1198TIP3    H1 3551   5.902   2.911   4.559  2.7626  0.3010  2.6537
 1198TIP3    H2 3552   5.948   3.015   4.459 -0.9360 -0.6297 -0.2432
 1199TIP3   OH2 3553   5.160   3.780   1.832 -0.2846  0.1285 -0.0593
 1199TIP3    H1 3554   5.077   3.814   1.866 -0.7582 -0.2739 -0.8135
 1199TIP3    H2 3555   5.154   3.791   1.738  1.7545  2.9098 -0.0005
 1200TIP3   OH2 3556   7.652   1.826   4.415  0.0018  0.5913  0.2377
 1200TIP3    H1 3557   7.624   1.910   4.450 -1.7247  0.2622 -0.2593
 1200TIP3    H2 3558   7.588   1.763   4.448  0.5150 -0.3183 -0.4337
 1201TIP3   OH2 3559   7.095   5.906   1.469  0.0245 -0.1530  0.2960
 1201TIP3    H1 3560   7.125   5.917   1.379 -0.6542 -1.3820 -0.1091
 1201TIP3    H2 3561   7.144   5.831   1.502 -0.2028 -0.1157  0.7288
 1202TIP3   OH2 3562   7.160   1.793   4.346 -0.0527 -0.1684 -0.7203
 1202TIP3    H1 3563   7.120   1.879   4.333 -0.0321  0.1219  0.8882
 1202TIP3    H2 3564   7.089   1.731   4.335 -1.5471  0.4153  3.6930
 1203TIP3   OH2 3565   0.873   4.577   4.040  0.0636 -0.2638 -0.3342
 1203TIP3    H1 3566   0.955   4.616   4.072  1.2202 -0.2891 -3.0136
 1203TIP3    H2 3567   0.891   4.484   4.036 -1.1245 -0.6479  1.6544
 1204TIP3   OH2 3568   8.059   1.106   6.796 -0.4910 -0.4814 -0.2687
 1204TIP3    H1 3569   8.067   1.176   6.731  1.0569  0.0674  0.4547
 1204TIP3    H2 3570   8.147   1.070   6.803 -0.5148 -0.2827  1.7641
 1205TIP3   OH2 3571   4.139   6.508   2.835  0.4465  0.4761  0.2585
 1205TIP3    H1 3572   4.226   6.535   2.804  1.5443 -1.5633  1.2939
 1205TIP3    H2 3573   4.116   6.433   2.781 -2.4223  3.0410 -2.4202
 1206TIP3   OH2 3574   5.499   1.169   1.860 -0.0847  0.1719 -0.6694
 1206TIP3    H1 3575   5.443   1.219   1.919  0.1538  0.0589 -0.3471
 1206TIP3    H2 3576   5.469   1.194   1.772 -1.0622 -0.3568 -0.5027
 1207TIP3   OH2 3577   0.076   4.438   2.117 -0.0475  0.4668 -0.4308
 1207TIP3    H1 3578   0.129   4.358   2.118 -0.9236 -0.1193 -0.2810
 1207TIP3    H2 3579   0.100   4.482   2.199  1.9197  1.3810 -1.4216
 1208TIP3   OH2 3580   1.919   6.285   6.445  0.3321 -0.1741  0.6064
 1208TIP3    H1 3581   1.989   6.301   6.382  0.6835 -0.1250  1.0056
 1208TIP3    H2 3582   1.917   6.364   6.499 -1.8094  0.9966 -1.0419
 1209TIP3   OH2 3583   2.617   5.139   4.206  0.1242 -0.3021  0.6536
 1209TIP3    H1 3584   2.563   5.182   4.140  1.1711  2.6837  1.5595
 1209TIP3    H2 3585   2.683   5.090   4.157  0.9461  1.9242 -0.6004
 1210TIP3   OH2 3586   4.968   7.250   2.227 -0.3244  0.4260  0.7042
 1210TIP3    H1 3587   4.996   7.231   2.317  0.0594  0.7135  0.6486
 1210TIP3    H2 3588   4.915   7.174   2.202 -1.4902  0.9029  1.6132
 1211TIP3   OH2 3589   0.294   0.803   5.534 -0.5466 -0.3238 -1.0730
 1211TIP3    H1 3590   0.302   0.897   5.548  1.0837 -0.6279  0.4422
 1211TIP3    H2 3591   0.310   0.765   5.621 -2.5954 -1.9725 -1.3279
 1212TIP3   OH2 3592   7.637   0.895   4.604  0.2475  0.2541  0.1915
 1212TIP3    H1 3593   7.569   0.893   4.538 -0.3998 -1.7456  0.8263
 1212TIP3    H2 3594   7.710   0.846   4.565 -0.4679 -1.7311  1.2100
 1213TIP3   OH2 3595   7.044   0.253   5.816 -0.9540  0.7029 -0.3374
 1213TIP3    H1 3596   6.998   0.170   5.826 -0.4368  0.2057 -1.8261
 1213TIP3    H2 3597   6.975   0.318   5.804 -1.3167  0.3224 -0.3050
 1214TIP3   OH2 3598   5.255   6.153   4.293  0.4991 -0.3055  0.0202
 1214TIP3    H1 3599   5.306   6.233   4.279  1.8777 -1.0990  0.3184
 1214TIP3    H2 3600   5.243   6.149   4.388  1.1903 -0.8857  0.0904
 1215TIP3   OH2 3601   4.018   7.186   1.185 -0.7399 -0.2268  0.7705
 1215TIP3    H1 3602   4.060   7.148   1.107 -0.6680  2.9153 -0.8772
 1215TIP3    H2 3603   4.019   7.115   1.249  0.4462 -2.5586 -1.6177
 1216TIP3   OH2 3604   8.270   1.785   5.052  0.0156  0.4131 -0.1417
 1216TIP3    H1 3605   8.304   1.777   5.141 -0.7777  2.3679  0.3828
 1216TIP3    H2 3606   8.288   1.700   5.012  3.6427  0.6020  0.7271
 1217TIP3   OH2 3607   7.606   3.958   3.053 -0.1965 -0.3547  0.0995
 1217TIP3    H1 3608   7.576   4.002   2.974  1.4774 -0.7655 -0.8171
 1217TIP3    H2 3609   7.636   3.872   3.023 -1.3861 -1.3139  1.5088
 1218TIP3   OH2 3610   2.978   7.622   3.883  0.0938 -0.6449  0.1443
 1218TIP3    H1 3611   2.939   7.573   3.810 -0.3205 -0.6306  0.3566
 1218TIP3    H2 3612   3.040   7.561   3.923  0.6678 -0.5038 -0.5000
 1219TIP3   OH2 3613   5.793   3.259   4.398  0.4304 -0.0032 -0.0107
 1219TIP3    H1 3614   5.818   3.167   4.390  0.8741  0.2169 -1.4341
 1219TIP3    H2 3615   5.762   3.283   4.311 -0.1459  1.0709  0.4720
 1220TIP3   OH2 3616   1.121   2.844   3.706 -0.4943  0.2948 -0.6712
 1220TIP3    H1 3617   1.090   2.934   3.719  1.0355  0.7240  0.3608
 1220TIP3    H2 3618   1.124   2.807   3.794  1.2768  0.0969 -0.7830
 1221TIP3   OH2 3619   2.838   3.509   4.669 -0.2064 -0.8943  0.5369
 1221TIP3    H1 3620   2.885   3.463   4.738 -0.3791 -1.5218  0.2417
 1221TIP3    H2 3621   2.823   3.442   4.602  0.0769 -0.2670 -0.1634
 1222TIP3   OH2 3622   7.494   4.322   4.469 -0.2648  0.0278 -0.6819
 1222TIP3    H1 3623   7.583   4.343   4.497 -0.7847  1.6176 -0.0717
 1222TIP3    H2 3624   7.489   4.226   4.472  1.0669 -0.0357  0.4175
 1223TIP3   OH2 3625   1.382   1.725   5.913 -0.5469 -0.2324 -0.1873
 1223TIP3    H1 3626   1.426   1.716   5.997 -1.1224 -3.5654 -0.0928
 1223TIP3    H2 3627   1.452   1.745   5.851  0.4217 -0.9756  0.6307
 1224TIP3   OH2 3628   1.836   4.184   5.442  0.0939  0.3921  0.6584
 1224TIP3    H1 3629   1.849   4.156   5.532  3.1476 -1.6818 -0.2386
 1224TIP3    H2 3630   1.790   4.111   5.400  1.1414  0.0894 -0.0088
 1225TIP3   OH2 3631   8.211   7.073   3.319  0.2661  0.5151 -0.2359
 1225TIP3    H1 3632   8.137   7.026   3.359  0.9508  0.1162  0.5951
 1225TIP3    H2 3633   8.197   7.063   3.225  0.2815 -1.2296 -0.0869
 1226TIP3   OH2 3634   5.907   0.110   5.589 -0.0714 -0.6381  0.0817
 1226TIP3    H1 3635   5.943   0.192   5.621  0.8038 -0.7026 -0.7030
 1226TIP3    H2 3636   5.821   0.134   5.554 -0.1249 -0.1935  0.5004
 1227TIP3   OH2 3637   0.259   7.283   5.961  0.5000  0.2003  0.6556
 1227TIP3    H1 3638   0.307   7.325   5.889  1.6095 -0.9244  0.6940
 1227TIP3    H2 3639   0.227   7.355   6.014 -0.1433  1.0538 -0.8337
 1228TIP3   OH2 3640   4.047   4.625   3.701  0.1478 -0.2886 -0.0711
 1228TIP3    H1 3641   3.982   4.568   3.661 -0.4839  1.9304 -2.5449
 1228TIP3    H2 3642   4.126   4.571   3.706 -0.9516 -1.9933 -0.2715
 1229TIP3   OH2 3643   5.383   5.359   3.993 -0.1775 -0.3896  0.2115
 1229TIP3    H1 3644   5.429   5.442   4.002 -0.1262 -0.5764  1.9523
 1229TIP3    H2 3645   5.398   5.333   3.902  0.7037  0.9682 -0.0561
 1230TIP3   OH2 3646   2.560   1.828   1.342  0.0234 -0.0333 -0.2448
 1230TIP3    H1 3647   2.513   1.910   1.359  2.5150  1.8986 -1.7793
 1230TIP3    H2 3648   2.589   1.798   1.428 -1.3270  0.4387  0.3909
 1231TIP3   OH2 3649   2.419   6.964   6.332  0.2355  0.5249 -0.1490
 1231TIP3    H1 3650   2.403   6.964   6.426 -0.7334  1.5044 -0.2937
 1231TIP3    H2 3651   2.387   6.879   6.302  3.3530 -1.1244  0.7959
 1232TIP3   OH2 3652   2.517   3.730   1.242  0.0660  0.4668  0.7518
 1232TIP3    H1 3653   2.534   3.668   1.171 -0.0528 -0.2666  1.3508
 1232TIP3    H2 3654   2.427   3.711   1.269  0.6170 -0.3464  2.1230
 1233TIP3   OH2 3655   1.769   1.279   6.616 -0.3572 -0.3686  0.0958
 1233TIP3    H1 3656   1.771   1.295   6.711 -0.7576 -0.0561  0.0526
 1233TIP3    H2 3657   1.676   1.284   6.593 -0.5234 -2.6676  0.0640
 1234TIP3   OH2 3658   3.208   2.264   5.230  0.1109  0.3148 -0.0442
 1234TIP3    H1 3659   3.229   2.307   5.314 -0.2967 -2.2753  1.4795
 1234TIP3    H2 3660   3.164   2.333   5.179  0.4607  2.0168  1.8094
 1235TIP3   OH2 3661   1.155   3.397   4.441 -0.1958  0.2213 -0.6486
 1235TIP3    H1 3662   1.078   3.392   4.384  0.1650 -2.5230 -1.0325
 1235TIP3    H2 3663   1.228   3.416   4.382  0.0919 -2.0550 -1.1027
 1236TIP3   OH2 3664   4.442   6.940   5.644 -0.8244  0.0430 -0.6650
 1236TIP3    H1 3665   4.496   6.979   5.575 -1.4910  2.0110 -0.1535
 1236TIP3    H2 3666   4.357   6.983   5.634 -1.0217  0.1574  1.1652
 1237TIP3   OH2 3667   6.647   1.194   5.830  0.3325 -0.2510 -0.0363
 1237TIP3    H1 3668   6.685   1.120   5.877  1.3355 -0.2934 -0.8898
 1237TIP3    H2 3669   6.650   1.168   5.738 -0.7423  0.2171 -0.2201
 1238TIP3   OH2 3670   7.874   7.723   1.314  0.7041 -0.4357  0.0956
 1238TIP3    H1 3671   7.862   7.652   1.251  2.9527  0.3768 -1.3883
 1238TIP3    H2 3672   7.969   7.740   1.314  0.3888  1.8009  1.2431
 1239TIP3   OH2 3673   5.625   5.318   6.413 -0.0166  0.1737 -0.4422
 1239TIP3    H1 3674   5.592   5.408   6.418  2.5596  1.1836 -0.3011
 1239TIP3    H2 3675   5.671   5.314   6.329  1.7645 -0.2761  0.5011
 1240TIP3   OH2 3676   6.559   5.056   3.580 -0.6533 -0.6680  0.2745
 1240TIP3    H1 3677   6.585   5.091   3.665  0.1097 -1.3368  0.3235
 1240TIP3    H2 3678   6.581   5.125   3.518  0.0375 -0.7084  0.4692
 1241TIP3   OH2 3679   1.033   3.432   6.383  0.5407  0.5041  0.3579
 1241TIP3    H1 3680   1.009   3.344   6.411 -0.0608  1.1036  1.7879
 1241TIP3    H2 3681   0.965   3.489   6.418  0.9767  1.5688 -0.4518
 1242TIP3   OH2 3682   5.085   3.957   3.690 -0.3129 -0.1253 -0.4491
 1242TIP3    H1 3683   5.069   3.925   3.779 -1.3108  1.2844 -0.0928
 1242TIP3    H2 3684   5.013   3.920   3.638  0.3835 -1.1173 -0.7436
 1243TIP3   OH2 3685   3.627   3.454   0.696  0.0184  0.3615  0.0657
 1243TIP3    H1 3686   3.691   3.524   0.709  0.4130  0.1737 -0.8106
 1243TIP3    H2 3687   3.572   3.457   0.775 -0.1784  1.8718 -0.0981
 1244TIP3   OH2 3688   4.458   7.439   0.281  0.0587 -0.0926  0.5723
 1244TIP3    H1 3689   4.393   7.400   0.223  0.6368 -0.7916  0.3915
 1244TIP3    H2 3690   4.418   7.436   0.368 -0.7345  0.7919  0.2624
 1245TIP3   OH2 3691   7.946   5.410   0.267  0.3692  0.2248  0.0611
 1245TIP3    H1 3692   7.908   5.429   0.352  0.0842  0.2685 -0.0737
 1245TIP3    H2 3693   8.021   5.354   0.286 -1.9524 -3.2092  0.1385
 1246TIP3   OH2 3694   7.836   1.856   0.483 -0.4079 -0.0607  0.2641
 1246TIP3    H1 3695   7.770   1.873   0.415 -0.6392 -0.6724  0.3265
 1246TIP3    H2 3696   7.831   1.932   0.541 -0.5479  0.2394 -0.1390
 1247TIP3   OH2 3697   5.006   6.680   2.100  0.0110 -0.4398  0.0108
 1247TIP3    H1 3698   4.976   6.598   2.060  0.7538 -0.9711  0.4994
 1247TIP3    H2 3699   5.002   6.744   2.029 -2.0800 -0.5098  0.0122
 1248TIP3   OH2 3700   4.821   4.483   5.558  0.5919 -0.1730  0.2891
 1248TIP3    H1 3701   4.902   4.434   5.574 -0.5180 -2.2207  0.0785
 1248TIP3    H2 3702   4.835   4.567   5.601  3.0604 -0.1900 -0.3059
 1249TIP3   OH2 3703   2.342   5.494   5.359  0.1316  0.7676 -0.5981
 1249TIP3    H1 3704   2.415   5.455   5.311  0.8464  0.5590  0.6101
 1249TIP3    H2 3705   2.377   5.509   5.447 -1.0548  1.3856 -0.2139
 1250TIP3   OH2 3706   7.736   2.419   0.938  0.2587 -0.0208 -0.3138
 1250TIP3    H1 3707   7.751   2.497   0.885 -2.7490  0.7698 -0.2002
 1250TIP3    H2 3708   7.790   2.432   1.016  0.4758  1.5406 -0.6908
 1251TIP3   OH2 3709   1.989   2.242   5.323 -0.2595  0.4950 -0.1177
 1251TIP3    H1 3710   2.008   2.149   5.331  1.2789  0.8980  1.7523
 1251TIP3    H2 3711   1.914   2.257   5.380  0.5627  0.6535  0.9511
 1252TIP3   OH2 3712   3.539   2.355   4.279  0.3486  0.1862 -0.4684
 1252TIP3    H1 3713   3.535   2.408   4.359 -2.0957 -0.0634 -0.3697
 1252TIP3    H2 3714   3.577   2.414   4.214  2.1695  0.4643  0.7699
 1253TIP3   OH2 3715   4.812   2.122   2.820 -0.0343 -0.4299  0.0104
 1253TIP3    H1 3716   4.760   2.202   2.829  1.0881  0.8642 -3.4017
 1253TIP3    H2 3717   4.902   2.150   2.837  0.4823 -0.6900 -2.0661
 1254TIP3   OH2 3718   2.509   5.708   4.863 -0.5831  0.0314  0.2564
 1254TIP3    H1 3719   2.575   5.750   4.807 -0.6998 -2.4685 -1.9640
 1254TIP3    H2 3720   2.427   5.753   4.842 -0.4498 -0.2396 -0.8936
 1255TIP3   OH2 3721   2.471   2.919   0.881  0.1237  0.4938 -0.6053
 1255TIP3    H1 3722   2.422   2.853   0.832  0.2260 -0.8965  1.0622
 1255TIP3    H2 3723   2.420   2.999   0.871 -0.9769 -0.2568 -1.2069
 1256TIP3   OH2 3724   2.808   5.232   2.838 -0.2285  0.3121  0.1038
 1256TIP3    H1 3725   2.803   5.327   2.833  3.1335  0.5905 -4.0372
 1256TIP3    H2 3726   2.739   5.201   2.779  0.5924  0.3699 -0.8982
 1257TIP3   OH2 3727   6.280   7.757   1.727 -0.2066  0.7891 -0.7382
 1257TIP3    H1 3728   6.253   7.735   1.638 -1.8249  0.3396 -0.1737
 1257TIP3    H2 3729   6.199   7.782   1.771  0.6921  1.8487  0.3842
 1258TIP3   OH2 3730   0.330   6.910   4.729  0.4856  0.2876 -0.3824
 1258TIP3    H1 3731   0.268   6.876   4.794  1.1622  0.4161  0.3511
 1258TIP3    H2 3732   0.275   6.945   4.659 -0.3775  2.2839  1.1731
 1259TIP3   OH2 3733   3.390   7.770   6.269 -0.2628 -0.1334 -0.3181
 1259TIP3    H1 3734   3.430   7.684   6.256 -0.4308 -0.3131  0.3029
 1259TIP3    H2 3735   3.359   7.796   6.183  0.3954 -0.3894 -0.6406
 1260TIP3   OH2 3736   5.808   2.970   0.726  0.7763 -0.7618  0.0375
 1260TIP3    H1 3737   5.752   2.978   0.648  2.0509  1.1398 -0.7524
 1260TIP3    H2 3738   5.748   2.976   0.800 -0.3190 -1.3347 -0.7770
 1261TIP3   OH2 3739   4.070   0.272   0.067 -0.2366  0.0129  0.7114
 1261TIP3    H1 3740   4.089   0.302  -0.022  0.5078 -1.8580  0.1943
 1261TIP3    H2 3741   4.057   0.353   0.117 -0.2125  1.1143 -0.9822
 1262TIP3   OH2 3742   2.593   0.122   6.312 -0.4254 -0.1305 -0.1413
 1262TIP3    H1 3743   2.549   0.079   6.239 -0.0083  0.6810 -0.9001
 1262TIP3    H2 3744   2.687   0.112   6.292 -0.2785 -0.6749  0.7538
 1263TIP3   OH2 3745   2.830   1.996   3.556  0.2567  0.1158 -0.3772
 1263TIP3    H1 3746   2.847   1.954   3.472 -0.8961 -0.9038 -0.1294
 1263TIP3    H2 3747   2.839   1.926   3.620 -0.0314  0.6199  0.2303
 1264TIP3   OH2 3748   5.382   3.931   4.622  0.6956  0.4173 -0.5151
 1264TIP3    H1 3749   5.433   3.850   4.619  0.5344  0.2926 -0.0703
 1264TIP3    H2 3750   5.292   3.904   4.603  0.7910  0.6411 -1.3290
 1265TIP3   OH2 3751   8.074   0.085   1.865  0.4272 -0.1528  0.1803
 1265TIP3    H1 3752   8.043   0.019   1.928 -1.5521  0.3309 -0.2171
 1265TIP3    H2 3753   8.003   0.148   1.860  2.0081  1.6865  0.0324
 1266TIP3   OH2 3754   0.978   0.569   4.344  0.2144  0.4674 -0.4645
 1266TIP3    H1 3755   0.915   0.615   4.400 -0.7243 -1.8213  0.4717
 1266TIP3    H2 3756   0.976   0.617   4.261 -0.4853  2.2404  0.5330
 1267TIP3   OH2 3757   5.778   7.368   6.584 -0.6833 -0.0664  0.4744
 1267TIP3    H1 3758   5.835   7.315   6.527  0.1555 -1.3908  2.4160
 1267TIP3    H2 3759   5.740   7.433   6.526  0.4951 -1.0267 -1.4958
 1268TIP3   OH2 3760   6.629   6.900   4.244  0.1718  1.0766 -0.3364
 1268TIP3    H1 3761   6.583   6.818   4.261  0.2589  0.7535 -1.5808
 1268TIP3    H2 3762   6.584   6.938   4.169  0.5112  1.8733 -0.1432
 1269TIP3   OH2 3763   3.576   7.649   3.626  0.9340  0.1467 -0.0943
 1269TIP3    H1 3764   3.521   7.726   3.617  0.7125  0.0861  0.6333
 1269TIP3    H2 3765   3.637   7.671   3.697 -0.3195 -0.9939  1.4131
 1270TIP3   OH2 3766   0.841   2.212   5.428  0.2833  0.2016 -0.1002
 1270TIP3    H1 3767   0.915   2.153   5.431 -0.7644 -1.1849 -0.5751
 1270TIP3    H2 3768   0.852   2.268   5.506  0.4096 -1.7502  1.3582
 1271TIP3   OH2 3769   1.967   0.017   3.537  0.2698  0.2178 -0.2603
 1271TIP3    H1 3770   1.918  -0.062   3.561 -1.3135  1.3582  0.3966
 1271TIP3    H2 3771   1.916   0.089   3.574  3.1933  1.4341  1.7206
 1272TIP3   OH2 3772   5.201   2.560   5.293  0.2618  0.3239  0.4414
 1272TIP3    H1 3773   5.271   2.498   5.272 -0.3134 -0.1082 -0.2158
 1272TIP3    H2 3774   5.186   2.608   5.211  0.3454  0.9881  0.8032
 1273TIP3   OH2 3775   5.466   1.158   6.130 -0.6640  0.1016  0.2352
 1273TIP3    H1 3776   5.532   1.115   6.075 -1.5165  0.0462 -0.7633
 1273TIP3    H2 3777   5.517   1.214   6.189  0.2851 -0.0961 -0.3771
 1274TIP3   OH2 3778   0.715   1.719   2.116  0.3425 -0.2348  0.3034
 1274TIP3    H1 3779   0.633   1.683   2.082  0.4677 -0.2536  0.0208
 1274TIP3    H2 3780   0.688   1.776   2.188 -0.0033  0.5082 -0.4016
 1275TIP3   OH2 3781   4.907   7.697   5.180  0.1496  0.0043 -0.2773
 1275TIP3    H1 3782   4.960   7.736   5.249 -0.2470 -2.3119  1.4896
 1275TIP3    H2 3783   4.961   7.626   5.145 -0.2071  0.2574 -1.3810
 1276TIP3   OH2 3784   7.783   3.473   1.684 -0.1224  0.3682  0.3784
 1276TIP3    H1 3785   7.701   3.455   1.730  0.5286  1.3028  2.0275
 1276TIP3    H2 3786   7.851   3.448   1.747  0.8305  1.0532 -0.3502
 1277TIP3   OH2 3787   1.094   2.162   5.635  0.5663  0.1151 -0.1742
 1277TIP3    H1 3788   1.040   2.240   5.621 -0.8822 -1.0220 -1.3284
 1277TIP3    H2 3789   1.032   2.097   5.669  1.8764 -0.3702  1.4189
 1278TIP3   OH2 3790   2.520   7.765   2.962  0.0530  0.3193  0.6396
 1278TIP3    H1 3791   2.456   7.703   2.997 -0.9031  1.4410  0.9304
 1278TIP3    H2 3792   2.502   7.847   3.007  0.9223  0.9678 -0.1448
 1279TIP3   OH2 3793   3.871   0.730   3.492  0.4364 -0.0175 -0.3438
 1279TIP3    H1 3794   3.799   0.781   3.453  0.9912  0.5027 -0.7027
 1279TIP3    H2 3795   3.947   0.752   3.438  0.9045 -0.4162  0.1548
 1280TIP3   OH2 3796   0.782   1.764   1.560 -0.5453  0.0656 -0.4618
 1280TIP3    H1 3797   0.853   1.751   1.623 -0.0770 -0.7370 -1.1333
 1280TIP3    H2 3798   0.758   1.856   1.570 -0.2084  0.0553  0.5987
 1281TIP3   OH2 3799   3.260   2.809   1.494 -0.3440  0.5322 -0.3041
 1281TIP3    H1 3800   3.168   2.789   1.514 -0.8035  0.3659 -2.3440
 1281TIP3    H2 3801   3.256   2.891   1.445  0.5102  0.1307 -1.0623
 1282TIP3   OH2 3802   1.046   1.720   5.067 -0.0441  0.4321  0.4279
 1282TIP3    H1 3803   1.108   1.790   5.049 -0.0194  1.2482  3.1726
 1282TIP3    H2 3804   1.081   1.677   5.146 -1.2793 -1.1901  0.1495
 1283TIP3   OH2 3805   3.266   6.960   5.532 -0.0608 -0.1966  0.4561
 1283TIP3    H1 3806   3.184   6.912   5.515 -0.9214  1.4913 -0.3678
 1283TIP3    H2 3807   3.257   6.990   5.622 -0.0566 -0.5516  0.5773
 1284TIP3   OH2 3808   6.131   4.201   1.671 -0.2811 -0.1404  0.2654
 1284TIP3    H1 3809   6.050   4.181   1.623 -0.9700  1.6229  0.6102
 1284TIP3    H2 3810   6.101   4.242   1.752  0.8810 -2.6228  2.0571
 1285TIP3   OH2 3811   7.359   6.454   0.210 -0.2231 -0.3229  0.3131
 1285TIP3    H1 3812   7.269   6.483   0.223 -0.2020  0.3443 -0.8886
 1285TIP3    H2 3813   7.413   6.526   0.242 -0.1357 -0.3390  0.2053
 1286TIP3   OH2 3814   7.991   1.404   3.982 -0.2280  0.2058  0.6139
 1286TIP3    H1 3815   7.983   1.311   3.961  2.0510 -0.0628  0.6566
 1286TIP3    H2 3816   7.902   1.431   4.003 -1.0515 -1.8179  0.0489
 1287TIP3   OH2 3817   0.676   1.732   5.128  0.3583 -0.4449 -0.4774
 1287TIP3    H1 3818   0.737   1.679   5.077  1.6755  1.6087 -1.1543
 1287TIP3    H2 3819   0.590   1.710   5.091  0.8819 -1.7970 -0.9700
 1288TIP3   OH2 3820   2.604   7.596   1.567 -0.4432 -0.3426  0.4463
 1288TIP3    H1 3821   2.582   7.683   1.602 -0.9389 -0.8572  1.4729
 1288TIP3    H2 3822   2.527   7.543   1.586 -0.0489 -1.0649  0.0491
 1289TIP3   OH2 3823   5.237   4.191   3.251  0.7521 -0.1398  0.0724
 1289TIP3    H1 3824   5.324   4.167   3.221 -0.1275 -2.3167 -0.9019
 1289TIP3    H2 3825   5.188   4.109   3.252 -0.9115  0.7816  1.9926
 1290TIP3   OH2 3826   5.442   5.624   1.190  0.1711  0.2489  0.1827
 1290TIP3    H1 3827   5.375   5.631   1.122 -0.1045 -2.1653  0.1392
 1290TIP3    H2 3828   5.525   5.636   1.143 -0.0478 -0.7888 -0.4950
 1291TIP3   OH2 3829   6.140   0.863   0.028  0.0352  0.0387 -0.5366
 1291TIP3    H1 3830   6.166   0.773   0.046 -1.2630 -0.4210 -0.8198
 1291TIP3    H2 3831   6.200   0.893  -0.040 -0.3358 -1.0569 -1.3639
 1292TIP3   OH2 3832   6.364   3.901   1.726 -0.2779  0.0671  0.3097
 1292TIP3    H1 3833   6.344   3.860   1.811  1.2558 -2.3564 -0.3737
 1292TIP3    H2 3834   6.460   3.903   1.723 -0.2426 -1.3244 -1.9307
 1293TIP3   OH2 3835   7.494   0.605   4.237  0.7182 -0.6053 -0.1871
 1293TIP3    H1 3836   7.411   0.585   4.280  0.3521  0.7642 -0.1969
 1293TIP3    H2 3837   7.560   0.596   4.306  0.5939 -1.8660 -0.2224
 1294TIP3   OH2 3838   6.428   1.788   3.582 -0.0174  0.0645  0.2748
 1294TIP3    H1 3839   6.514   1.746   3.578  0.4053  0.9985 -1.7289
 1294TIP3    H2 3840   6.447   1.882   3.581 -1.0550  0.2795 -0.5318
 1295TIP3   OH2 3841   5.769   4.764   5.339  0.1368 -0.3189 -0.0285
 1295TIP3    H1 3842   5.836   4.830   5.355 -0.5602  0.2893  0.4865
 1295TIP3    H2 3843   5.782   4.738   5.248  2.1329 -1.4498  0.5315
 1296TIP3   OH2 3844   1.781   5.772   5.808  0.1473  0.2065  0.5470
 1296TIP3    H1 3845   1.742   5.709   5.748  1.6797 -0.7417  0.4788
 1296TIP3    H2 3846   1.872   5.744   5.816  0.7622  2.1363  0.9062
 1297TIP3   OH2 3847   7.933   4.293   5.654 -0.4934  0.2140  0.5297
 1297TIP3    H1 3848   7.986   4.370   5.632 -0.0878  0.2080  1.4244
 1297TIP3    H2 3849   7.896   4.313   5.740  0.4050 -0.9729  1.2314
 1298TIP3   OH2 3850   5.910   4.990   0.001 -0.5952  0.2298  0.6869
 1298TIP3    H1 3851   5.859   5.005   0.080  0.5810  1.2174  1.2760
 1298TIP3    H2 3852   5.912   4.894  -0.008 -1.7798  0.1425  1.1344
 1299TIP3   OH2 3853   1.611   6.602   5.773 -0.0291  0.1753  0.3246
 1299TIP3    H1 3854   1.649   6.586   5.686 -0.3829  0.0407  0.1934
 1299TIP3    H2 3855   1.632   6.693   5.792  1.3028 -0.1771  0.7242
 1300TIP3   OH2 3856   6.619   6.853   1.787  0.1336 -0.1271 -0.0492
 1300TIP3    H1 3857   6.635   6.782   1.850 -1.2053 -0.6874 -0.3095
 1300TIP3    H2 3858   6.573   6.920   1.838 -1.7925 -0.9681 -0.5720
 1301TIP3   OH2 3859   6.186   1.191   6.194 -0.2322  0.2087 -0.3292
 1301TIP3    H1 3860   6.173   1.241   6.113 -1.0904 -0.3355 -0.5406
 1301TIP3    H2 3861   6.175   1.100   6.167 -2.6738  0.0998  0.7587
 1302TIP3   OH2 3862   7.226   4.354   0.295 -0.1111 -0.0368  0.1859
 1302TIP3    H1 3863   7.291   4.402   0.243  0.1236 -0.7524 -0.1970
 1302TIP3    H2 3864   7.211   4.409   0.371  1.2736 -0.0335  0.4911
 1303TIP3   OH2 3865   1.742   7.393   4.843 -0.0273  0.2674 -0.4076
 1303TIP3    H1 3866   1.685   7.469   4.842 -0.1870  0.1834 -2.1835
 1303TIP3    H2 3867   1.796   7.404   4.921 -1.5435  1.0348  0.5712
 1304TIP3   OH2 3868   1.535   3.514   1.095 -0.6859  0.2436 -0.3490
 1304TIP3    H1 3869   1.454   3.557   1.123 -0.7261 -0.2332  0.2864
 1304TIP3    H2 3870   1.517   3.421   1.105 -0.1632  0.1229 -0.5150
 1305TIP3   OH2 3871   2.544   0.807   5.779 -0.0075 -0.1080  0.6331
 1305TIP3    H1 3872   2.606   0.792   5.708  0.3485 -0.0489  0.9264
 1305TIP3    H2 3873   2.598   0.839   5.851 -0.5236  0.9963  0.5440
 1306TIP3   OH2 3874   7.586   0.578   1.144  0.4057 -0.2203 -0.3145
 1306TIP3    H1 3875   7.610   0.562   1.236  1.8886 -1.4350 -0.8706
 1306TIP3    H2 3876   7.497   0.613   1.148  0.0757 -1.1464  1.5294
 1307TIP3   OH2 3877   5.679   0.722   3.579  0.7814  0.0353  0.2379
 1307TIP3    H1 3878   5.699   0.668   3.655 -2.6263  1.8508  2.7333
 1307TIP3    H2 3879   5.749   0.787   3.575  0.9475 -0.0017  2.0000
 1308TIP3   OH2 3880   0.896   5.423   6.620  0.3062 -0.0986  0.2199
 1308TIP3    H1 3881   0.966   5.461   6.672  1.0230 -0.3208 -0.5578
 1308TIP3    H2 3882   0.837   5.496   6.602  0.3813  0.1084  0.7980
 1309TIP3   OH2 3883   5.775   7.367   3.998 -0.0677 -0.4512  0.6106
 1309TIP3    H1 3884   5.767   7.445   4.053  0.1745  1.2664 -1.6346
 1309TIP3    H2 3885   5.688   7.357   3.959  0.6949  0.6989 -1.5491
 1310TIP3   OH2 3886   7.318   4.009   3.798 -0.4958  0.1935  0.1504
 1310TIP3    H1 3887   7.361   3.978   3.718  0.1454  0.4501  0.3821
 1310TIP3    H2 3888   7.350   3.950   3.867  0.1114  0.8536  0.4559
 1311TIP3   OH2 3889   4.274   3.411   2.048 -0.0069 -0.0889 -0.4899
 1311TIP3    H1 3890   4.225   3.355   2.108 -0.3128  1.1551  0.4603
 1311TIP3    H2 3891   4.365   3.380   2.056 -0.1009 -0.1779  0.3542
 1312TIP3   OH2 3892   6.162   7.000   6.741  0.4073  0.2830  0.1785
 1312TIP3    H1 3893   6.125   7.033   6.823  0.4805 -1.8354  1.1202
 1312TIP3    H2 3894   6.192   7.078   6.695 -2.2207  1.8071  0.8522
 1313TIP3   OH2 3895   4.601   6.575   1.505  0.0933 -0.1532 -0.3965
 1313TIP3    H1 3896   4.613   6.483   1.482  2.4623  0.3382 -1.4113
 1313TIP3    H2 3897   4.531   6.606   1.447  0.2593 -0.9813 -1.0510
 1314TIP3   OH2 3898   8.294   5.092   5.432  0.1118  0.1265  0.6494
 1314TIP3    H1 3899   8.334   5.139   5.505  0.7142 -2.0917  1.8554
 1314TIP3    H2 3900   8.248   5.159   5.382  2.4468  2.2480  1.1697
 1315TIP3   OH2 3901   4.513   6.542   3.820 -0.0611 -0.5405  0.0189
 1315TIP3    H1 3902   4.439   6.587   3.860  1.6076  1.9365  0.5511
 1315TIP3    H2 3903   4.506   6.562   3.727  0.5851  0.8181  0.2330
 1316TIP3   OH2 3904   2.168   4.879   4.970 -0.3340 -1.0030  0.2190
 1316TIP3    H1 3905   2.200   4.844   5.053  0.5358  1.5520  1.0788
 1316TIP3    H2 3906   2.109   4.950   4.996 -0.3369 -0.4003 -1.3416
 1317TIP3   OH2 3907   6.847   4.612   5.748  0.5568  0.5391 -0.0548
 1317TIP3    H1 3908   6.941   4.621   5.759  0.8048 -0.4724 -1.1400
 1317TIP3    H2 3909   6.836   4.536   5.690 -0.8912  0.9403 -0.3655
 1318TIP3   OH2 3910   0.123   0.198   0.136  0.0624 -0.2938  0.7851
 1318TIP3    H1 3911   0.174   0.249   0.074 -0.9001 -0.4623 -0.1648
 1318TIP3    H2 3912   0.162   0.218   0.221  0.2782  1.3383  0.3423
 1319TIP3   OH2 3913   6.135   2.991   0.335 -0.4116 -0.3013 -0.0868
 1319TIP3    H1 3914   6.224   2.956   0.335 -0.4089 -0.3604  1.0919
 1319TIP3    H2 3915   6.090   2.944   0.265  0.8815  0.8630 -1.7801
 1320TIP3   OH2 3916   3.714   0.796   1.856 -0.1563  0.1305  0.0654
 1320TIP3    H1 3917   3.673   0.872   1.897  1.6711  0.5576  1.2432
 1320TIP3    H2 3918   3.666   0.721   1.891 -0.4603  0.6397  0.7739
 1321TIP3   OH2 3919   0.776   6.855   1.360  0.0585 -0.4384 -0.1217
 1321TIP3    H1 3920   0.839   6.913   1.403 -0.1055 -0.9542  0.8428
 1321TIP3    H2 3921   0.819   6.829   1.278  1.1199 -0.8018  0.5291
 1322TIP3   OH2 3922   0.253   3.737   5.539  0.1505  0.0894  0.7775
 1322TIP3    H1 3923   0.263   3.757   5.446  1.9932  0.3388  0.9732
 1322TIP3    H2 3924   0.343   3.740   5.573 -0.2226 -1.9472  2.1669
 1323TIP3   OH2 3925   5.497   7.201   3.597  0.1325  0.2780 -0.9183
 1323TIP3    H1 3926   5.509   7.126   3.656  0.7120  0.3117 -0.9828
 1323TIP3    H2 3927   5.585   7.218   3.563 -0.2470  0.0602 -2.0472
 1324TIP3   OH2 3928   7.815   3.343   5.662  0.2771  0.1324 -0.4378
 1324TIP3    H1 3929   7.803   3.323   5.754 -0.6744  1.7339 -0.1815
 1324TIP3    H2 3930   7.795   3.261   5.617  1.5567 -0.9076  0.7881
 1325TIP3   OH2 3931   4.000   5.033   3.044  0.3545  0.1932  0.7137
 1325TIP3    H1 3932   3.914   4.992   3.030  0.8506 -0.3415 -1.0162
 1325TIP3    H2 3933   3.986   5.092   3.117 -0.8417 -1.7583  2.1781
 1326TIP3   OH2 3934   6.798   0.426   3.361 -0.3022 -0.0481 -0.5182
 1326TIP3    H1 3935   6.868   0.422   3.427  0.8362  1.4166 -1.5802
 1326TIP3    H2 3936   6.751   0.343   3.372  0.6796 -0.4382  1.2129
 1327TIP3   OH2 3937   4.700   0.904   5.534  0.1327  0.1675  0.1124
 1327TIP3    H1 3938   4.637   0.918   5.463 -2.4990  0.3544  2.3500
 1327TIP3    H2 3939   4.724   0.992   5.563  1.6775  0.1051 -0.8454
 1328TIP3   OH2 3940   7.053   3.383   0.448 -0.5193  0.0001 -0.5792
 1328TIP3    H1 3941   7.147   3.369   0.436 -0.4272  0.3489 -0.2904
 1328TIP3    H2 3942   7.023   3.305   0.494 -0.6545 -0.7956 -1.9595
 1329TIP3   OH2 3943   0.373   0.933   1.220  0.5420  0.2543 -0.1657
 1329TIP3    H1 3944   0.386   0.909   1.312  0.7575  0.3683 -0.1665
 1329TIP3    H2 3945   0.460   0.957   1.189  0.3227  1.0483 -0.1653
 1330TIP3   OH2 3946   8.083   2.859   5.070 -0.5418  0.2964  0.3504
 1330TIP3    H1 3947   8.139   2.935   5.051  0.4056 -0.5099 -0.1452
 1330TIP3    H2 3948   8.015   2.862   5.003  1.3896 -1.1393 -1.8453
 1331TIP3   OH2 3949   4.485   0.300   1.675  0.6040 -0.4046  0.3151
 1331TIP3    H1 3950   4.473   0.338   1.589  0.8388 -2.0234 -0.4771
 1331TIP3    H2 3951   4.507   0.374   1.732 -0.1415  0.7657 -0.8755
 1332TIP3   OH2 3952   7.262   5.124   6.222  0.4837 -0.4512 -0.6415
 1332TIP3    H1 3953   7.192   5.160   6.167 -0.0576  0.2030  0.4358
 1332TIP3    H2 3954   7.281   5.039   6.183  1.5664  0.7826 -3.0622
 1333TIP3   OH2 3955   6.827   4.813   4.800  0.6450  0.1556 -0.6172
 1333TIP3    H1 3956   6.825   4.739   4.861  1.1607  0.1704 -0.5697
 1333TIP3    H2 3957   6.795   4.778   4.717 -0.4930  0.2489 -0.2260
 1334TIP3   OH2 3958   7.774   3.481   4.710  0.5651 -0.0513 -0.0038
 1334TIP3    H1 3959   7.857   3.510   4.747  0.3007  1.2325 -0.3802
 1334TIP3    H2 3960   7.738   3.558   4.666 -0.2378 -0.9092 -0.9270
 1335TIP3   OH2 3961   4.813   0.511   3.305  0.1555  0.3577 -0.1590
 1335TIP3    H1 3962   4.840   0.446   3.370  0.1408  0.6925  0.1853
 1335TIP3    H2 3963   4.769   0.579   3.356  2.2124  1.8021 -0.1927
 1336TIP3   OH2 3964   0.456   5.754   3.838  0.1148 -0.0691  0.6010
 1336TIP3    H1 3965   0.460   5.833   3.784 -2.0105 -0.1008  0.2928
 1336TIP3    H2 3966   0.517   5.771   3.910  1.2563  0.9560 -0.5562
 1337TIP3   OH2 3967   6.212   6.155   5.446 -0.6825  0.0143  0.4556
 1337TIP3    H1 3968   6.259   6.084   5.490 -2.2440 -0.8623  0.7790
 1337TIP3    H2 3969   6.121   6.125   5.441 -1.7661  2.6204  2.0464
 1338TIP3   OH2 3970   3.006   6.138   3.881 -0.0199 -0.4304 -0.1722
 1338TIP3    H1 3971   2.914   6.126   3.905  0.0469  0.3729  0.5157
 1338TIP3    H2 3972   3.004   6.156   3.787 -0.4965 -1.1750 -0.3138
 1339TIP3   OH2 3973   2.701   1.587  -0.007  0.1727 -0.0854  0.4380
 1339TIP3    H1 3974   2.789   1.554   0.013  0.6291  1.4031  1.0781
 1339TIP3    H2 3975   2.690   1.661   0.053 -1.2588  0.1642 -0.1043
 1340TIP3   OH2 3976   6.582   6.352   6.213  0.3157 -0.5459 -0.5998
 1340TIP3    H1 3977   6.664   6.314   6.182  1.6475  0.0528  1.9460
 1340TIP3    H2 3978   6.605   6.397   6.293 -2.3586  0.4918 -0.3113
 1341TIP3   OH2 3979   0.162   5.923   1.984  0.1800  0.1071 -0.5820
 1341TIP3    H1 3980   0.124   6.008   1.959  1.0612  0.8703  0.5731
 1341TIP3    H2 3981   0.136   5.864   1.913 -2.3051  0.8143 -0.3687
 1342TIP3   OH2 3982   1.040   7.537   1.077  0.3883 -0.7235 -0.3023
 1342TIP3    H1 3983   1.031   7.443   1.090  0.8498 -0.5264  1.8442
 1342TIP3    H2 3984   0.975   7.576   1.136 -0.0663  0.3102 -1.4451
 1343TIP3   OH2 3985   4.690   7.809   4.143  0.3181  0.3891  0.0094
 1343TIP3    H1 3986   4.615   7.831   4.087 -0.7895  1.1255  1.6720
 1343TIP3    H2 3987   4.670   7.722   4.176  0.9152 -0.0004 -0.6497
 1344TIP3   OH2 3988   2.232   2.714   1.260  0.2695  0.0833  0.3535
 1344TIP3    H1 3989   2.313   2.750   1.224  1.5965 -2.0200  1.1177
 1344TIP3    H2 3990   2.205   2.779   1.325  1.4895  0.6741  0.3100
 1345TIP3   OH2 3991   5.228   6.232   4.834 -0.1863 -0.1461 -0.3412
 1345TIP3    H1 3992   5.318   6.258   4.856 -0.4381 -0.3434  1.0065
 1345TIP3    H2 3993   5.173   6.291   4.884 -0.7785 -1.4165  0.5471
 1346TIP3   OH2 3994   2.440   0.794   1.916 -0.3146 -0.9229  0.1059
 1346TIP3    H1 3995   2.390   0.858   1.967 -0.9353 -1.5770  0.3540
 1346TIP3    H2 3996   2.509   0.764   1.975  1.1685  0.8583 -0.6380
 1347TIP3   OH2 3997   4.147   0.974   5.108 -0.0271 -0.5506 -0.4948
 1347TIP3    H1 3998   4.181   0.886   5.127 -0.0122 -0.1162  1.7953
 1347TIP3    H2 3999   4.183   1.029   5.177 -1.8179  0.7981 -0.5640
 1348TIP3   OH2 4000   6.398   5.736   4.061 -0.3950 -0.0629 -0.3582
 1348TIP3    H1 4001   6.345   5.791   4.003 -2.2072 -0.9318  0.3958
 1348TIP3    H2 4002   6.482   5.728   4.016 -0.6369  1.9430 -1.2662
 1349TIP3   OH2 4003   2.370   6.447   6.146 -0.7976 -0.2206  0.1366
 1349TIP3    H1 4004   2.353   6.358   6.116 -0.7108 -0.2490  0.1727
 1349TIP3    H2 4005   2.460   6.465   6.117 -0.5214 -0.4393  0.8537
 1350TIP3   OH2 4006   7.329   0.231   4.820 -0.2210 -0.1727  0.5211
 1350TIP3    H1 4007   7.374   0.193   4.895 -0.7676 -0.8482  0.5157
 1350TIP3    H2 4008   7.359   0.178   4.746 -2.0248 -1.5157  0.6975
 1351TIP3   OH2 4009   3.911   4.104   6.559 -0.0924  0.6567 -0.1556
 1351TIP3    H1 4010   3.890   4.108   6.466 -0.9124  0.6603  0.0217
 1351TIP3    H2 4011   4.004   4.080   6.562 -0.5362 -1.3765 -0.9527
 1352TIP3   OH2 4012   0.118   2.576   5.226 -0.3249 -0.2053  0.0208
 1352TIP3    H1 4013   0.028   2.572   5.193  0.2761  0.3179 -1.8061
 1352TIP3    H2 4014   0.167   2.617   5.155  1.3752 -0.5366  0.9668
 1353TIP3   OH2 4015   4.220   0.615   4.515  0.4312 -0.0595 -0.3536
 1353TIP3    H1 4016   4.299   0.583   4.559  0.7956 -0.3918 -1.2347
 1353TIP3    H2 4017   4.187   0.540   4.466 -0.3058  0.1439 -0.1869
 1354TIP3   OH2 4018   0.882   4.522   3.170  0.0612 -0.1838  1.2423
 1354TIP3    H1 4019   0.828   4.598   3.148 -0.5499 -1.2091 -1.2011
 1354TIP3    H2 4020   0.900   4.531   3.263 -1.3623  2.0657  1.3749
 1355TIP3   OH2 4021   1.788   2.016   6.048 -0.6626  0.2006 -0.4742
 1355TIP3    H1 4022   1.861   1.979   5.999 -0.0041  0.2762  0.4293
 1355TIP3    H2 4023   1.772   1.953   6.119 -1.1822  0.4058 -0.4013
 1356TIP3   OH2 4024   6.135   0.764   1.478 -0.1680 -0.0220 -0.1474
 1356TIP3    H1 4025   6.208   0.780   1.418  0.9028  1.0437  1.3805
 1356TIP3    H2 4026   6.070   0.719   1.424  1.0599  0.1871 -1.8991
 1357TIP3   OH2 4027   7.499   6.109   0.715  0.0732  0.0022  0.2188
 1357TIP3    H1 4028   7.587   6.085   0.687  0.3309 -0.3970  1.3490
 1357TIP3    H2 4029   7.494   6.083   0.807 -1.3483 -0.3230  0.0765
 1358TIP3   OH2 4030   5.717   1.788   4.671 -0.0464  0.2770 -0.3683
 1358TIP3    H1 4031   5.810   1.812   4.666  0.3683 -0.9940  0.5909
 1358TIP3    H2 4032   5.680   1.817   4.587  1.7465 -1.3573 -1.8125
 1359TIP3   OH2 4033   5.429   2.804   4.049  0.0152 -0.4725 -0.0894
 1359TIP3    H1 4034   5.488   2.732   4.070  0.6824 -0.2609 -1.2058
 1359TIP3    H2 4035   5.486   2.880   4.038 -0.5707 -0.0266 -0.0861
 1360TIP3   OH2 4036   7.276   6.379   1.551  0.0302 -0.5419  0.1703
 1360TIP3    H1 4037   7.348   6.401   1.492 -0.3112  0.0965 -0.0254
 1360TIP3    H2 4038   7.307   6.304   1.602  2.0331  1.5287  2.2347
 1361TIP3   OH2 4039   2.584   3.666   2.209  0.5400  0.5088 -0.3776
 1361TIP3    H1 4040   2.644   3.717   2.263  2.0115 -0.9233 -0.5792
 1361TIP3    H2 4041   2.637   3.638   2.134 -1.0117  1.1013 -1.7736
 1362TIP3   OH2 4042   3.213   5.979   2.613  0.4906  0.2371  0.2171
 1362TIP3    H1 4043   3.257   5.905   2.654 -0.9322 -0.2290  0.9331
 1362TIP3    H2 4044   3.166   5.941   2.539 -2.6390 -0.1833  2.2453
 1363TIP3   OH2 4045   5.655   7.018   1.215 -0.5273 -0.4516  0.6755
 1363TIP3    H1 4046   5.640   6.946   1.277 -1.2669 -2.1308 -1.3086
 1363TIP3    H2 4047   5.741   7.052   1.237 -1.3820  0.0845  3.5718
 1364TIP3   OH2 4048   3.668   3.253   0.298  0.3878  0.2938 -0.5509
 1364TIP3    H1 4049   3.635   3.206   0.375  1.2948 -1.2875 -1.0936
 1364TIP3    H2 4050   3.664   3.346   0.323 -1.9185  0.0107  0.3698
 1365TIP3   OH2 4051   2.168   2.604   5.285 -0.3643 -0.0166  0.1387
 1365TIP3    H1 4052   2.218   2.678   5.317 -1.5925  0.0778  1.9557
 1365TIP3    H2 4053   2.137   2.631   5.198 -0.6915  1.5435  0.7236
 1366TIP3   OH2 4054   0.444   0.547   3.816  0.2351 -0.1049 -0.5969
 1366TIP3    H1 4055   0.528   0.549   3.863  0.0073  0.7231 -0.2183
 1366TIP3    H2 4056   0.378   0.563   3.884 -0.2225 -0.5435 -0.9286
 1367TIP3   OH2 4057   6.192   6.644   3.575 -0.4674  0.5801  0.3752
 1367TIP3    H1 4058   6.157   6.678   3.492 -1.5014  0.6419  0.8081
 1367TIP3    H2 4059   6.276   6.689   3.586  0.3231 -0.4233 -1.2661
 1368TIP3   OH2 4060   2.099   4.102   2.356  0.3330 -0.2281 -0.0051
 1368TIP3    H1 4061   2.109   4.141   2.270  0.8837  2.0833  1.0256
 1368TIP3    H2 4062   2.004   4.099   2.371  0.2598  2.2903  0.4745
 1369TIP3   OH2 4063   0.615   6.533   3.468 -0.0199  0.0821  0.7649
 1369TIP3    H1 4064   0.535   6.583   3.453  0.1150 -0.3262 -1.5739
 1369TIP3    H2 4065   0.664   6.539   3.387  2.5037  0.5405  2.2134
 1370TIP3   OH2 4066   6.477   5.027   1.754  0.2036  0.1479 -0.1486
 1370TIP3    H1 4067   6.477   5.082   1.831 -0.2178 -2.4347  1.8335
 1370TIP3    H2 4068   6.384   5.012   1.735  0.2070 -2.0801  1.1617
 1371TIP3   OH2 4069   6.859   2.974   4.614 -0.2177 -0.3720 -0.1132
 1371TIP3    H1 4070   6.875   3.029   4.538  0.0805  1.5970  1.3042
 1371TIP3    H2 4071   6.815   2.897   4.579  1.2339 -0.2276 -2.4527
 1372TIP3   OH2 4072   0.312   4.854   0.973  0.2461  0.0062 -0.4222
 1372TIP3    H1 4073   0.385   4.793   0.971  1.0844  0.8860  1.2442
 1372TIP3    H2 4074   0.237   4.802   1.002 -0.0959 -1.1149 -2.9986
 1373TIP3   OH2 4075   1.931   2.338   2.876  0.8904  0.1599 -0.0711
 1373TIP3    H1 4076   2.015   2.321   2.833  1.2010 -1.4262  1.0980
 1373TIP3    H2 4077   1.869   2.282   2.831  0.6810  0.4688 -0.1713
 1374TIP3   OH2 4078   5.545   7.551   6.249  0.3042 -0.6359 -0.4751
 1374TIP3    H1 4079   5.493   7.525   6.325 -0.7758 -1.3288 -1.4027
 1374TIP3    H2 4080   5.544   7.647   6.251 -0.2531 -0.6426  0.0287
 1375TIP3   OH2 4081   0.655   7.842   3.632  0.3293 -0.3619 -0.4462
 1375TIP3    H1 4082   0.746   7.817   3.613 -0.3161 -2.5057 -1.0193
 1375TIP3    H2 4083   0.611   7.758   3.650 -0.9818  0.7919  2.4183
 1376TIP3   OH2 4084   0.390   3.378   2.764  0.6897  0.1026  0.2018
 1376TIP3    H1 4085   0.357   3.325   2.838 -2.4967  0.5332 -0.7520
 1376TIP3    H2 4086   0.383   3.319   2.689  1.8059  0.3832 -0.1378
 1377TIP3   OH2 4087   4.710   3.691   6.651 -0.8301  0.5430 -0.0523
 1377TIP3    H1 4088   4.679   3.636   6.579 -0.7831  0.0506  0.2919
 1377TIP3    H2 4089   4.631   3.713   6.700 -1.0940  2.3426 -1.2263
 1378TIP3   OH2 4090   0.803   2.810   4.899 -0.3810 -0.4973 -0.3648
 1378TIP3    H1 4091   0.739   2.839   4.834 -0.6158 -1.7745 -0.7257
 1378TIP3    H2 4092   0.795   2.873   4.971 -1.3389 -0.0699 -0.8364
 1379TIP3   OH2 4093   7.825   2.031   4.239  0.5065  0.0251  0.7340
 1379TIP3    H1 4094   7.887   2.041   4.311  0.2513  1.5576  0.7751
 1379TIP3    H2 4095   7.792   2.120   4.223  1.6586  0.0563 -2.2554
 1380TIP3   OH2 4096   3.222   4.256   4.586 -0.0770 -0.3484 -0.3973
 1380TIP3    H1 4097   3.207   4.241   4.680 -0.0714 -1.1236 -0.5109
 1380TIP3    H2 4098   3.271   4.338   4.583  1.7893 -1.3710  0.4310
 1381TIP3   OH2 4099   2.425   1.395   0.713 -0.0202  0.4379  0.0275
 1381TIP3    H1 4100   2.378   1.312   0.712  0.8358 -0.1369  2.0240
 1381TIP3    H2 4101   2.359   1.461   0.691 -0.9560 -0.6411 -0.4993
 1382TIP3   OH2 4102   6.838   3.962   3.472 -0.7819  0.2054  0.3436
 1382TIP3    H1 4103   6.899   3.915   3.530  1.6891  1.9841 -0.6566
 1382TIP3    H2 4104   6.780   3.893   3.439  1.7840 -1.9994  0.0058
 1383TIP3   OH2 4105   2.357   6.348   5.819 -0.5193 -0.2175 -0.7861
 1383TIP3    H1 4106   2.281   6.404   5.809  0.1293  1.0163  0.8755
 1383TIP3    H2 4107   2.432   6.408   5.813  0.2434 -1.0970 -0.2729
 1384TIP3   OH2 4108   4.988   5.069   6.670  0.1281 -0.0066 -0.0718
 1384TIP3    H1 4109   4.963   5.112   6.588 -1.1675  0.3672  0.4950
 1384TIP3    H2 4110   4.911   5.078   6.727  1.1123  0.0473  1.3141
 1385TIP3   OH2 4111   7.770   3.369   0.046 -0.2025 -1.0766  0.1597
 1385TIP3    H1 4112   7.775   3.309  -0.028 -0.0600 -2.0169  0.9199
 1385TIP3    H2 4113   7.742   3.315   0.120  0.6886 -0.3861  1.0387
 1386TIP3   OH2 4114   3.569   3.335   2.195  0.1033 -0.1411 -0.1564
 1386TIP3    H1 4115   3.637   3.397   2.168 -0.1742 -0.1631 -0.9113
 1386TIP3    H2 4116   3.569   3.340   2.291 -0.8262  2.0006 -0.2221
 1387TIP3   OH2 4117   4.995   3.018   3.793 -0.2138  0.1625 -0.0396
 1387TIP3    H1 4118   4.962   2.940   3.838 -2.3513  1.5634  1.0177
 1387TIP3    H2 4119   4.953   3.016   3.707  0.5538 -0.3675 -0.4078
 1388TIP3   OH2 4120   6.512   1.776   3.181  0.4914 -0.4542  0.3380
 1388TIP3    H1 4121   6.525   1.684   3.203  1.5672 -0.2241  0.7223
 1388TIP3    H2 4122   6.433   1.801   3.229 -0.2342 -1.3513 -0.3528
 1389TIP3   OH2 4123   1.075   2.116   1.206  0.0459  0.1591  0.1165
 1389TIP3    H1 4124   1.155   2.068   1.224  0.1342 -0.6270 -2.0794
 1389TIP3    H2 4125   1.005   2.057   1.232  0.1671 -0.2797 -0.5520
 1390TIP3   OH2 4126   6.770   5.731   2.497  0.2827  0.2372 -0.8136
 1390TIP3    H1 4127   6.810   5.645   2.513  0.0298  0.3772  0.7820
 1390TIP3    H2 4128   6.707   5.715   2.427 -0.0931 -0.9902 -0.2286
 1391TIP3   OH2 4129   2.184   2.404   5.486 -0.3011 -0.8547  0.1463
 1391TIP3    H1 4130   2.199   2.476   5.424 -2.8128  0.3298  0.7506
 1391TIP3    H2 4131   2.145   2.334   5.433 -0.3795 -0.6967 -0.0071
 1392TIP3   OH2 4132   4.663   7.650   0.193 -0.6640 -0.1642 -0.6659
 1392TIP3    H1 4133   4.613   7.604   0.260 -0.6424 -2.8516 -2.3323
 1392TIP3    H2 4134   4.596   7.698   0.143 -0.8923  0.4488  0.2196
 1393TIP3   OH2 4135   5.182   6.182   5.324 -0.4865  0.0858  0.0313
 1393TIP3    H1 4136   5.252   6.118   5.337  0.4303  0.8848 -0.8489
 1393TIP3    H2 4137   5.159   6.210   5.413 -1.5813 -2.1267  0.5119
 1394TIP3   OH2 4138   2.951   3.877   5.929 -0.5100 -0.4552 -0.0902
 1394TIP3    H1 4139   2.896   3.889   6.006  1.4013  0.2800  1.2284
 1394TIP3    H2 4140   2.982   3.965   5.907  1.0255 -0.9566 -0.0758
 1395TIP3   OH2 4141   2.416   6.699   2.443  0.1941 -0.2253  0.4565
 1395TIP3    H1 4142   2.367   6.780   2.453  0.7413  0.1313  0.2790
 1395TIP3    H2 4143   2.418   6.682   2.349  0.3729 -0.2557  0.4636
 1396TIP3   OH2 4144   3.623   2.706   1.292 -0.3790 -0.4468 -0.0969
 1396TIP3    H1 4145   3.625   2.793   1.332 -0.6466  0.3262 -1.6779
 1396TIP3    H2 4146   3.535   2.673   1.310 -0.4047 -0.2365  0.1740
 1397TIP3   OH2 4147   0.170   1.170   5.623  0.6792 -0.3610  0.2047
 1397TIP3    H1 4148   0.174   1.255   5.580  1.1563 -0.6667 -0.3582
 1397TIP3    H2 4149   0.136   1.110   5.556 -0.6873 -0.4178  0.9130
 1398TIP3   OH2 4150   5.867   2.375   2.608 -0.3023  0.1827 -0.5633
 1398TIP3    H1 4151   5.827   2.298   2.566 -0.1071 -0.4668  0.4222
 1398TIP3    H2 4152   5.801   2.404   2.671  0.8466 -1.1118  1.3417
 1399TIP3   OH2 4153   6.924   7.488   2.391 -0.1032 -0.4487  0.1085
 1399TIP3    H1 4154   7.004   7.449   2.358  0.1510  0.3653 -0.2524
 1399TIP3    H2 4155   6.953   7.558   2.449 -0.5410  0.1269 -0.3541
 1400TIP3   OH2 4156   7.430   4.603   4.462 -0.1222  0.1813  0.0566
 1400TIP3    H1 4157   7.448   4.509   4.469  0.2688 -0.0261 -2.5703
 1400TIP3    H2 4158   7.445   4.623   4.370 -1.5857  2.5639  0.2602
 1401TIP3   OH2 4159   1.375   7.591   2.761  0.3137  0.7386  0.0004
 1401TIP3    H1 4160   1.318   7.534   2.709 -1.3705  2.7154 -0.4230
 1401TIP3    H2 4161   1.418   7.532   2.823  2.2050 -1.7224 -3.3279
 1402TIP3   OH2 4162   5.547   2.028   2.222 -0.0302  0.2656 -0.2408
 1402TIP3    H1 4163   5.565   1.974   2.144  0.6414  0.3894 -0.1816
 1402TIP3    H2 4164   5.527   1.964   2.291  0.3452  0.1050 -0.2753
 1403TIP3   OH2 4165   2.001   5.443   6.043  0.1581 -0.6406  0.4745
 1403TIP3    H1 4166   2.032   5.436   5.953  2.8749  0.0426  1.2481
 1403TIP3    H2 4167   1.984   5.537   6.056 -1.2637 -0.8716  0.3921
 1404TIP3   OH2 4168   0.788   5.150   4.706  0.2759 -0.7635  0.3089
 1404TIP3    H1 4169   0.753   5.074   4.753  1.0351 -0.3482  1.5935
 1404TIP3    H2 4170   0.869   5.172   4.752  1.5704 -0.8950 -1.7790
 1405TIP3   OH2 4171   3.473   5.108   0.219 -0.4465 -0.0365 -0.1996
 1405TIP3    H1 4172   3.402   5.049   0.243  0.2770 -0.3538  1.2743
 1405TIP3    H2 4173   3.497   5.151   0.301  1.6563 -0.6113 -0.4448
 1406TIP3   OH2 4174   6.934   5.495   1.439  0.2180 -0.2030  0.1218
 1406TIP3    H1 4175   7.015   5.460   1.401  0.4732  0.0481  0.4203
 1406TIP3    H2 4176   6.940   5.471   1.532 -0.3373 -0.7006  0.0345
 1407TIP3   OH2 4177   7.276   7.551   6.136 -0.0106 -0.2342 -0.3351
 1407TIP3    H1 4178   7.247   7.581   6.222 -1.6755 -1.3774 -0.4448
 1407TIP3    H2 4179   7.364   7.586   6.126 -0.3582  1.1773  1.1952
 1408TIP3   OH2 4180   3.671   6.729   1.572  0.4128 -0.2650  0.4294
 1408TIP3    H1 4181   3.586   6.770   1.586  0.3262 -0.5251  0.6740
 1408TIP3    H2 4182   3.676   6.716   1.477  0.2168 -0.1725  0.4060
 1409TIP3   OH2 4183   6.435   7.579   6.295  0.3465  0.0890 -0.2310
 1409TIP3    H1 4184   6.495   7.535   6.355  0.1880  0.0085 -0.1301
 1409TIP3    H2 4185   6.393   7.507   6.247 -1.6970 -0.0446  1.6071
 1410TIP3   OH2 4186   6.063   5.339   3.942  0.3788 -0.9290 -0.0167
 1410TIP3    H1 4187   6.063   5.408   4.009 -0.1347 -1.8420  0.9748
 1410TIP3    H2 4188   5.991   5.282   3.969  0.6134 -1.6890 -0.9804
 1411TIP3   OH2 4189   3.554   4.694   5.991 -0.2233  1.0116  0.2353
 1411TIP3    H1 4190   3.513   4.767   5.944  0.1215  1.6502  0.9053
 1411TIP3    H2 4191   3.490   4.623   5.985 -1.0542  1.7188  0.5081
 1412TIP3   OH2 4192   6.624   3.429   5.807 -0.1434  0.1703 -0.0736
 1412TIP3    H1 4193   6.578   3.377   5.873 -1.7391  0.9930 -0.4968
 1412TIP3    H2 4194   6.575   3.510   5.800  1.7205  1.3618 -0.1622
 1413TIP3   OH2 4195   2.372   6.053   4.590 -0.4928  0.1180  0.0653
 1413TIP3    H1 4196   2.378   5.975   4.535 -0.1172 -0.2850  0.6750
 1413TIP3    H2 4197   2.462   6.074   4.612 -0.7048 -0.6978  1.8705
 1414TIP3   OH2 4198   4.394   5.943   0.892  0.4379 -0.5939  0.4276
 1414TIP3    H1 4199   4.457   6.006   0.858 -0.6516 -0.1832 -0.9606
 1414TIP3    H2 4200   4.447   5.868   0.919  1.6043  0.2057  0.4033
 1415TIP3   OH2 4201   5.009   2.778   4.542  0.2364  0.0467  0.2887
 1415TIP3    H1 4202   5.055   2.695   4.533  0.0647  0.1424 -2.0258
 1415TIP3    H2 4203   5.079   2.844   4.539  0.1239  0.1382 -2.1554
 1416TIP3   OH2 4204   4.013   3.379   4.854  0.1131 -0.0515 -0.0688
 1416TIP3    H1 4205   4.051   3.370   4.767 -0.3697  2.4421 -0.5998
 1416TIP3    H2 4206   4.041   3.299   4.900 -0.5998 -2.0528 -2.8134
 1417TIP3   OH2 4207   0.577   3.772   2.093 -0.1973  0.1191  0.1128
 1417TIP3    H1 4208   0.622   3.842   2.140 -1.9333  0.9014  0.6853
 1417TIP3    H2 4209   0.556   3.707   2.160  2.0499 -1.3630 -0.5327
 1418TIP3   OH2 4210   2.982   1.249   5.883  0.1652  0.1485  0.4229
 1418TIP3    H1 4211   2.918   1.178   5.895  0.7870 -0.1875  2.0670
 1418TIP3    H2 4212   3.029   1.253   5.967  1.2341  1.4417 -0.2017
 1419TIP3   OH2 4213   2.216   6.428   2.229 -0.1197  0.2479  0.4391
 1419TIP3    H1 4214   2.143   6.489   2.244 -1.6251 -2.0467  3.5299
 1419TIP3    H2 4215   2.174   6.348   2.200  1.2005 -0.9308  1.6500
 1420TIP3   OH2 4216   4.051   3.390   4.412 -0.1839 -0.4252 -0.0440
 1420TIP3    H1 4217   4.044   3.470   4.464  0.8298  0.2223 -0.8688
 1420TIP3    H2 4218   3.961   3.359   4.404 -0.8104  1.4882 -0.9980
 1421TIP3   OH2 4219   3.584   3.883   1.620 -0.4018 -0.0331  0.1019
 1421TIP3    H1 4220   3.622   3.796   1.603  0.9442  0.5790 -0.0860
 1421TIP3    H2 4221   3.516   3.892   1.552 -0.1460 -0.6901 -0.2579
 1422TIP3   OH2 4222   1.829   5.944   3.164  0.1508  0.2789  0.7577
 1422TIP3    H1 4223   1.777   5.864   3.159  0.9226 -0.2497  1.0987
 1422TIP3    H2 4224   1.765   6.012   3.186 -0.8316  0.1199 -1.3778
 1423TIP3   OH2 4225   1.132   5.996   2.119 -0.1394  0.0780  0.2551
 1423TIP3    H1 4226   1.223   6.018   2.100  0.0044  0.7337  1.5658
 1423TIP3    H2 4227   1.104   5.942   2.046  1.6955 -1.2179  0.4574
 1424TIP3   OH2 4228   5.316   1.310   6.484  0.0245 -0.0395  0.1920
 1424TIP3    H1 4229   5.243   1.273   6.435 -0.0220  0.8611 -0.4539
 1424TIP3    H2 4230   5.322   1.256   6.563  1.0771 -2.5306 -1.4539
 1425TIP3   OH2 4231   2.908   4.722   4.013  0.6935 -0.2432  0.2678
 1425TIP3    H1 4232   2.922   4.699   4.105  0.8268  0.1609  0.3486
 1425TIP3    H2 4233   2.935   4.644   3.965  0.2498 -0.6027  0.5885
 1426TIP3   OH2 4234   5.092   4.397   0.806  0.4452  0.3243  0.3048
 1426TIP3    H1 4235   4.999   4.408   0.825 -0.4187 -1.7911 -2.1109
 1426TIP3    H2 4236   5.125   4.487   0.800 -1.6187  1.1562  0.3991
 1427TIP3   OH2 4237   1.103   5.553   0.241 -0.0018 -0.3015  0.1197
 1427TIP3    H1 4238   1.155   5.587   0.314 -1.0430  0.3177  0.5991
 1427TIP3    H2 4239   1.159   5.487   0.201 -0.2069 -2.3111  2.8431
 1428TIP3   OH2 4240   0.781   5.370   3.372  0.7825  0.3997  0.1064
 1428TIP3    H1 4241   0.694   5.331   3.385  0.8310  0.0657 -0.5313
 1428TIP3    H2 4242   0.826   5.358   3.456  0.9410 -1.3196 -0.1949
 1429TIP3   OH2 4243   1.120   4.410   6.206 -0.1460 -0.2023 -0.6858
 1429TIP3    H1 4244   1.148   4.385   6.294 -2.7381 -0.0404  0.2713
 1429TIP3    H2 4245   1.163   4.494   6.190 -0.4729  0.3038  0.9159
 1430TIP3   OH2 4246   5.840   2.531   3.967  0.3743 -0.2588  0.8781
 1430TIP3    H1 4247   5.881   2.469   3.906 -0.2059 -0.6789  0.9025
 1430TIP3    H2 4248   5.909   2.550   4.031  1.9896  2.4567 -1.4505
 1431TIP3   OH2 4249   2.296   4.918   4.110 -0.1643  0.4008 -0.2564
 1431TIP3    H1 4250   2.261   5.002   4.140  0.4501  0.1690  1.1775
 1431TIP3    H2 4251   2.368   4.942   4.051 -0.8867  0.8672 -0.9695
 1432TIP3   OH2 4252   1.635   1.885   0.254 -0.1822  0.5127  0.5313
 1432TIP3    H1 4253   1.659   1.796   0.277  1.2480  1.3143  2.3747
 1432TIP3    H2 4254   1.648   1.889   0.159  0.6479 -0.9812  0.5473
 1433TIP3   OH2 4255   6.696   4.180   1.912 -0.4053 -0.0915 -0.2281
 1433TIP3    H1 4256   6.781   4.220   1.933 -0.9094  0.3705  0.9858
 1433TIP3    H2 4257   6.634   4.253   1.917 -1.3334 -0.9710  1.9225
 1434TIP3   OH2 4258   7.074   2.450   0.715 -0.7054  0.6273  0.6004
 1434TIP3    H1 4259   6.979   2.464   0.719 -1.0810 -1.7431  3.0391
 1434TIP3    H2 4260   7.082   2.356   0.694  1.1195  0.8530  0.1777
 1435TIP3   OH2 4261   2.556   7.263   3.255 -0.2694  0.2096 -0.6156
 1435TIP3    H1 4262   2.466   7.233   3.248 -0.8533  1.5049  0.7258
 1435TIP3    H2 4263   2.605   7.186   3.285 -1.3922  0.0628  0.9944
 1436TIP3   OH2 4264   6.430   0.037   3.104 -0.1642  0.0346  0.6326
 1436TIP3    H1 4265   6.516  -0.005   3.103 -0.5364 -0.7301 -0.1577
 1436TIP3    H2 4266   6.443   0.118   3.054 -0.3974 -1.1378 -1.4326
 1437TIP3   OH2 4267   4.892   1.365   4.129 -0.1487 -0.0247 -0.4433
 1437TIP3    H1 4268   4.844   1.436   4.171  0.6860  0.5769 -0.4731
 1437TIP3    H2 4269   4.974   1.359   4.179  0.2787 -0.1983 -1.1474
 1438TIP3   OH2 4270   4.528   4.250   0.770  0.1336  0.5104 -0.0878
 1438TIP3    H1 4271   4.551   4.296   0.851 -0.2100 -1.1689  1.0274
 1438TIP3    H2 4272   4.611   4.239   0.724  0.3264  1.5320  0.0019
 1439TIP3   OH2 4273   3.563   0.775   6.416 -0.4539  0.2333  0.0528
 1439TIP3    H1 4274   3.596   0.829   6.345 -0.0432 -2.1966 -1.7396
 1439TIP3    H2 4275   3.642   0.740   6.458 -0.7085  0.1781  0.4848
 1440TIP3   OH2 4276   5.947   1.574   1.478 -0.3225  0.6256 -0.0070
 1440TIP3    H1 4277   6.037   1.592   1.505  0.4613  0.0244 -2.0944
 1440TIP3    H2 4278   5.924   1.646   1.420 -0.5024 -0.1615 -0.9410
 1441TIP3   OH2 4279   1.288   5.994   3.718  0.0150 -0.3393 -0.0431
 1441TIP3    H1 4280   1.201   5.994   3.678  1.2471 -0.3187 -2.9931
 1441TIP3    H2 4281   1.314   6.087   3.718  0.1778 -0.3792  0.5453
 1442TIP3   OH2 4282   1.454   7.334   2.127  0.5071  0.0166 -0.7623
 1442TIP3    H1 4283   1.507   7.413   2.122  2.2700 -0.5688  3.5865
 1442TIP3    H2 4284   1.511   7.265   2.094  1.2952 -0.1581  0.8760
 1443TIP3   OH2 4285   0.743   0.454   2.195  0.0249  0.3559  0.1686
 1443TIP3    H1 4286   0.694   0.408   2.126  0.5851  1.6300 -1.1403
 1443TIP3    H2 4287   0.737   0.396   2.271 -2.7495  0.0455 -0.1800
 1444TIP3   OH2 4288   2.158   7.648   2.912  0.3869 -0.8759  0.9703
 1444TIP3    H1 4289   2.233   7.619   2.963  1.8436 -1.2237 -1.2014
 1444TIP3    H2 4290   2.178   7.621   2.822 -1.5536  0.5231  0.0249
 1445TIP3   OH2 4291   5.164   1.702   3.120 -0.5749  0.0201 -0.6765
 1445TIP3    H1 4292   5.148   1.758   3.195  1.5337  0.7566 -0.7148
 1445TIP3    H2 4293   5.151   1.759   3.044 -0.2614 -0.0314 -0.7728
 1446TIP3   OH2 4294   3.684   7.070   0.511 -0.2803 -0.2156 -0.2495
 1446TIP3    H1 4295   3.689   7.123   0.432 -0.4266  1.4960  0.8315
 1446TIP3    H2 4296   3.768   7.025   0.515 -0.6429 -1.1198 -1.8634
 1447TIP3   OH2 4297   1.417   4.367   1.757 -0.9052  0.3827 -0.0939
 1447TIP3    H1 4298   1.485   4.435   1.754 -0.1406 -0.3904 -1.3738
 1447TIP3    H2 4299   1.408   4.339   1.666 -2.3214 -0.1691  0.1898
 1448TIP3   OH2 4300   0.498   0.237   4.569 -0.1748 -0.1145 -0.1556
 1448TIP3    H1 4301   0.457   0.190   4.497 -0.0888  1.2191 -1.1027
 1448TIP3    H2 4302   0.571   0.180   4.596  1.5590  0.5499 -2.9915
 1449TIP3   OH2 4303   2.350   7.346   5.173 -0.0578  0.2895 -0.2572
 1449TIP3    H1 4304   2.431   7.394   5.157  0.6316  0.0254  2.0743
 1449TIP3    H2 4305   2.281   7.404   5.141  0.9682  1.1108 -1.0448
 1450TIP3   OH2 4306   4.888   6.786   5.905 -0.2316 -0.1526  0.1497
 1450TIP3    H1 4307   4.793   6.791   5.898 -0.1241  1.1118 -0.8259
 1450TIP3    H2 4308   4.917   6.762   5.817  0.3857  0.1618  0.2589
 1451TIP3   OH2 4309   1.690   3.207   0.831 -0.5185  0.4881  0.2655
 1451TIP3    H1 4310   1.735   3.151   0.768 -1.4852  0.2896 -0.2570
 1451TIP3    H2 4311   1.631   3.149   0.879 -0.4850  0.8094  0.7104
 1452TIP3   OH2 4312   7.772   4.103   6.526  0.3872  0.9790  0.3439
 1452TIP3    H1 4313   7.757   4.117   6.619 -0.7376  0.6694  0.2340
 1452TIP3    H2 4314   7.806   4.014   6.519  1.4692  1.3661  0.5305
 1453TIP3   OH2 4315   7.616   1.259   1.152 -0.0139  0.5232  0.3482
 1453TIP3    H1 4316   7.675   1.184   1.162 -0.1625  0.0376 -1.9140
 1453TIP3    H2 4317   7.546   1.242   1.215  0.3461 -0.8594  0.4210
 1454TIP3   OH2 4318   3.680   3.277   1.380  0.6679  0.2191  0.1429
 1454TIP3    H1 4319   3.649   3.189   1.399  1.6120 -0.1100  0.2278
 1454TIP3    H2 4320   3.759   3.287   1.434  0.7445  0.9988 -0.0973
 1455TIP3   OH2 4321   7.715   6.400   2.184 -0.0266 -0.3125 -0.3246
 1455TIP3    H1 4322   7.794   6.352   2.210 -1.1253 -2.7910 -1.2244
 1455TIP3    H2 4323   7.663   6.336   2.135 -2.5157  1.2787  0.0324
 1456TIP3   OH2 4324   3.419   1.109   2.976  0.0336  0.1065 -0.5433
 1456TIP3    H1 4325   3.513   1.100   2.959  0.2380 -3.7271  1.6401
 1456TIP3    H2 4326   3.414   1.135   3.068 -1.0934  0.7478 -0.7726
 1457TIP3   OH2 4327   1.062   3.846   4.403  0.2959 -0.2486  0.6300
 1457TIP3    H1 4328   0.973   3.832   4.436  0.0641 -0.7442 -0.1493
 1457TIP3    H2 4329   1.052   3.847   4.307  1.2571 -1.3845  0.4876
 1458TIP3   OH2 4330   7.532   3.087   3.099  0.4149 -0.2564  0.0551
 1458TIP3    H1 4331   7.484   3.006   3.115  0.0948 -0.4441 -1.7104
 1458TIP3    H2 4332   7.544   3.125   3.186 -1.8084 -0.8241  0.6768
 1459TIP3   OH2 4333   5.652   3.538   3.278 -0.0113  0.4853  0.4003
 1459TIP3    H1 4334   5.669   3.453   3.319  0.8003  0.7256  0.5712
 1459TIP3    H2 4335   5.714   3.598   3.319  1.7373  0.4988 -2.0187
 1460TIP3   OH2 4336   7.059   3.366   4.975  0.0600 -0.3587  0.1064
 1460TIP3    H1 4337   7.139   3.417   4.960 -0.6864  1.0873  0.8081
 1460TIP3    H2 4338   7.081   3.278   4.946  1.6926  0.1580 -0.3433
 1461TIP3   OH2 4339   0.836   6.521   3.027 -0.2601  0.6968  0.0724
 1461TIP3    H1 4340   0.909   6.461   3.008 -1.7139 -0.8493 -0.8504
 1461TIP3    H2 4341   0.846   6.541   3.120 -1.1288 -3.0797  1.1207
 1462TIP3   OH2 4342   4.246   2.967   5.789  0.1055  0.3028 -0.4123
 1462TIP3    H1 4343   4.209   3.036   5.844  1.0068 -1.2559  2.3827
 1462TIP3    H2 4344   4.170   2.925   5.749 -0.7842  0.5229  0.9662
 1463TIP3   OH2 4345   4.068   0.878   1.792 -0.2556 -0.4351 -0.2499
 1463TIP3    H1 4346   4.138   0.816   1.812  0.2095  0.2098  0.1893
 1463TIP3    H2 4347   3.994   0.824   1.766  0.5729 -1.1118 -1.2573
 1464TIP3   OH2 4348   6.631   0.387   4.515  0.1066 -0.1711 -0.2182
 1464TIP3    H1 4349   6.656   0.300   4.486 -1.1938 -0.3060 -1.0107
 1464TIP3    H2 4350   6.692   0.446   4.469 -0.4519 -0.5357 -1.4679
 1465TIP3   OH2 4351   5.413   6.716   5.421  0.3829 -0.1689 -0.4214
 1465TIP3    H1 4352   5.425   6.688   5.330  3.4509  0.9329 -0.4480
 1465TIP3    H2 4353   5.465   6.654   5.473 -1.0148 -0.5433  0.6074
 1466TIP3   OH2 4354   5.137   1.524   6.246 -0.1546 -0.0152 -0.1575
 1466TIP3    H1 4355   5.045   1.503   6.229 -0.2774  0.7977 -0.5507
 1466TIP3    H2 4356   5.184   1.480   6.175 -0.3428  0.4234 -0.5628
 1467TIP3   OH2 4357   4.465   1.483   2.224  0.6008  0.6189  0.1662
 1467TIP3    H1 4358   4.486   1.390   2.236  0.8047  0.7219  0.6204
 1467TIP3    H2 4359   4.381   1.483   2.179 -0.6205  0.2134  2.3175
 1468TIP3   OH2 4360   0.078   0.858   5.908  0.3657  0.1591 -0.6490
 1468TIP3    H1 4361   0.171   0.849   5.885  0.2025 -2.6174 -0.5564
 1468TIP3    H2 4362   0.079   0.901   5.993  1.7379 -1.5515  0.2801
 1469TIP3   OH2 4363   3.546   5.681   0.646  0.1598 -0.3326  0.2039
 1469TIP3    H1 4364   3.453   5.668   0.661 -0.1058  1.6370  0.5536
 1469TIP3    H2 4365   3.559   5.661   0.554 -0.4911 -1.1244  0.2745
 1470TIP3   OH2 4366   2.253   1.665   0.324 -0.3766 -0.5028 -0.2166
 1470TIP3    H1 4367   2.258   1.582   0.278  0.0827  0.1336 -1.3671
 1470TIP3    H2 4368   2.253   1.731   0.254  2.3131  0.5970  0.6863
 1471TIP3   OH2 4369   5.756   0.854   6.335 -0.0648 -0.1018 -0.0981
 1471TIP3    H1 4370   5.689   0.918   6.359  0.9914  1.2224 -0.5695
 1471TIP3    H2 4371   5.740   0.780   6.393 -4.0262 -1.3064 -2.3719
 1472TIP3   OH2 4372   2.044   2.643   4.746 -0.6172 -0.2290 -0.4077
 1472TIP3    H1 4373   1.999   2.675   4.667 -1.2562  0.3804  0.1911
 1472TIP3    H2 4374   2.135   2.631   4.718 -0.1773  2.6614 -0.5561
 1473TIP3   OH2 4375   4.857   4.565   3.035 -0.4869  0.1387 -0.4338
 1473TIP3    H1 4376   4.800   4.622   3.087  1.6077  1.7141  0.3041
 1473TIP3    H2 4377   4.847   4.596   2.945  0.4484  1.5907 -0.0721
 1474TIP3   OH2 4378   5.918   5.671   1.152  0.0090 -0.2598 -0.1169
 1474TIP3    H1 4379   5.964   5.587   1.148  0.4002 -0.0071 -1.5722
 1474TIP3    H2 4380   5.956   5.715   1.228  1.1628 -0.6458 -0.4446
 1475TIP3   OH2 4381   6.869   3.168   0.553 -0.4385 -0.1041 -0.0338
 1475TIP3    H1 4382   6.894   3.154   0.645 -2.4803 -0.7577  0.4921
 1475TIP3    H2 4383   6.803   3.238   0.557  0.4123  0.7986 -1.1836
 1476TIP3   OH2 4384   3.180   4.925   2.600 -0.7729  0.8765  0.7716
 1476TIP3    H1 4385   3.136   4.964   2.675 -2.4854 -1.2060  0.9424
 1476TIP3    H2 4386   3.110   4.884   2.550  0.6084  0.3415 -0.8060
 1477TIP3   OH2 4387   0.800   5.893   4.176  0.2929 -0.6088  0.8989
 1477TIP3    H1 4388   0.760   5.954   4.238  1.3703  1.7256 -0.5679
 1477TIP3    H2 4389   0.728   5.868   4.117  0.1198  0.4099  0.6570
 1478TIP3   OH2 4390   4.376   5.260   4.239 -0.4249 -0.0368  0.1408
 1478TIP3    H1 4391   4.409   5.349   4.247 -0.2196  0.0849 -1.7521
 1478TIP3    H2 4392   4.404   5.217   4.320 -1.8492  1.9810  1.8448
 1479TIP3   OH2 4393   2.066   4.758   4.597 -0.0576 -0.3954 -0.1198
 1479TIP3    H1 4394   1.972   4.742   4.593 -0.2955  1.0149 -1.9802
 1479TIP3    H2 4395   2.106   4.674   4.575 -0.8769 -0.9442  0.4330
 1480TIP3   OH2 4396   7.611   5.979   4.682  0.4276  0.0008  0.4182
 1480TIP3    H1 4397   7.592   5.923   4.758  0.5388  0.0232  0.4633
 1480TIP3    H2 4398   7.657   5.921   4.621 -0.7657 -0.3622 -0.1746
 1481TIP3   OH2 4399   1.255   3.587   6.277  0.1398 -0.3592 -0.1835
 1481TIP3    H1 4400   1.189   3.527   6.310 -0.6632  0.3694 -0.4214
 1481TIP3    H2 4401   1.205   3.657   6.234  1.0229  0.5926  0.2753
 1482TIP3   OH2 4402   8.089   5.650   5.108  0.4953 -0.2291 -0.4145
 1482TIP3    H1 4403   8.068   5.556   5.105  0.1130 -0.1231 -1.7320
 1482TIP3    H2 4404   8.181   5.653   5.135  0.9729 -1.0781 -1.8505
 1483TIP3   OH2 4405   7.497   1.980   5.239  0.5226  0.1491 -0.4081
 1483TIP3    H1 4406   7.478   1.887   5.253 -0.6047  0.1604 -1.6499
 1483TIP3    H2 4407   7.474   1.995   5.148  1.0725  1.5690 -0.3266
 1484TIP3   OH2 4408   2.442   0.441   3.165  0.6862  0.0337 -0.3256
 1484TIP3    H1 4409   2.366   0.498   3.176 -0.8931 -2.2018  1.4466
 1484TIP3    H2 4410   2.418   0.383   3.092  0.6355 -0.6602  0.2214
 1485TIP3   OH2 4411   3.826   2.027   1.090  0.0262 -0.4701  0.0434
 1485TIP3    H1 4412   3.901   2.007   1.147  0.8382  1.3963 -0.2713
 1485TIP3    H2 4413   3.860   2.092   1.029 -1.8597  0.4545 -0.0883
 1486TIP3   OH2 4414   0.308   2.085   6.635 -0.4633  0.0645  0.1115
 1486TIP3    H1 4415   0.373   2.019   6.656  0.4560  0.7936 -0.3687
 1486TIP3    H2 4416   0.322   2.154   6.700 -1.0565  0.0325  0.2794
 1487TIP3   OH2 4417   1.200   7.393   4.623 -0.5326 -0.2729 -0.2171
 1487TIP3    H1 4418   1.232   7.483   4.612 -0.5196 -0.3002 -0.4023
 1487TIP3    H2 4419   1.278   7.343   4.647 -0.8095  0.0605  1.5496
 1488TIP3   OH2 4420   4.700   1.628   0.545 -0.0189  0.4329 -0.4085
 1488TIP3    H1 4421   4.751   1.666   0.617 -0.3302 -0.8247  0.5135
 1488TIP3    H2 4422   4.609   1.646   0.569 -0.1637 -0.6837 -0.0486
 1489TIP3   OH2 4423   8.162   0.204   0.955 -0.5299 -0.0465 -0.6924
 1489TIP3    H1 4424   8.103   0.129   0.966 -1.2313  0.7286  1.0595
 1489TIP3    H2 4425   8.128   0.249   0.877 -0.8495 -0.8460 -1.0323
 1490TIP3   OH2 4426   2.495   7.412   2.247  0.6651 -0.1968  0.3160
 1490TIP3    H1 4427   2.502   7.486   2.186  0.4154  0.8378  1.4990
 1490TIP3    H2 4428   2.578   7.412   2.294 -0.2726  0.9670  2.0803
 1491TIP3   OH2 4429   2.707   0.443   6.297 -0.0639  0.0322  0.0412
 1491TIP3    H1 4430   2.633   0.423   6.355 -0.5921  1.4290 -0.1202
 1491TIP3    H2 4431   2.671   0.502   6.231  0.2109 -2.4444 -2.5254
 1492TIP3   OH2 4432   2.571   3.966   1.104 -0.4321  0.1421  0.2148
 1492TIP3    H1 4433   2.597   3.893   1.160  0.1929 -0.5853 -0.9768
 1492TIP3    H2 4434   2.571   3.930   1.016  1.0592  1.8611 -0.5695
 1493TIP3   OH2 4435   6.332   5.771   0.193 -0.0057 -0.0748 -0.1911
 1493TIP3    H1 4436   6.301   5.746   0.280  0.0316 -2.4763 -0.7937
 1493TIP3    H2 4437   6.425   5.748   0.193 -0.1212 -0.5756 -1.0015
 1494TIP3   OH2 4438   7.508   2.375   5.659 -0.2903 -0.2575  0.9592
 1494TIP3    H1 4439   7.468   2.288   5.661  1.0753 -1.1061 -2.4019
 1494TIP3    H2 4440   7.442   2.431   5.617  0.4198 -0.7147 -0.8253
 1495TIP3   OH2 4441   0.720   0.523   3.344  0.0299 -0.3115 -0.1648
 1495TIP3    H1 4442   0.633   0.508   3.308  0.0366  1.8654 -1.2645
 1495TIP3    H2 4443   0.706   0.529   3.438 -1.5147  2.5152 -0.4732
 1496TIP3   OH2 4444   7.122   7.335   3.530  0.3994 -0.3439  0.7053
 1496TIP3    H1 4445   7.044   7.282   3.517  0.8138 -0.9455  0.6707
 1496TIP3    H2 4446   7.193   7.272   3.542  0.8067  0.1937  1.2019
 1497TIP3   OH2 4447   0.659   6.970   1.996 -0.2325  0.4628  0.1310
 1497TIP3    H1 4448   0.702   7.051   2.022  1.4231 -0.5808  0.8056
 1497TIP3    H2 4449   0.642   6.924   2.079 -0.0138 -0.4289 -0.3013
 1498TIP3   OH2 4450   5.502   0.227   2.836 -0.0544 -0.1181  0.2518
 1498TIP3    H1 4451   5.536   0.286   2.769  2.1096 -0.9664  0.5071
 1498TIP3    H2 4452   5.462   0.155   2.786  2.1484 -1.0903 -0.2447
 1499TIP3   OH2 4453   2.752   0.519   6.695  0.2588 -0.2162 -0.0028
 1499TIP3    H1 4454   2.823   0.528   6.758 -0.9911  0.6636  1.3296
 1499TIP3    H2 4455   2.721   0.429   6.705  0.6823 -0.3655 -0.0427
 1500TIP3   OH2 4456   3.650   3.218   4.984 -0.3156  0.1075 -0.1341
 1500TIP3    H1 4457   3.686   3.306   4.979 -0.8952  0.4073  0.6691
 1500TIP3    H2 4458   3.577   3.217   4.923 -0.2057  0.1257 -0.2661
 1501TIP3   OH2 4459   0.068   3.161   5.382  0.1665  0.4792  0.4700
 1501TIP3    H1 4460   0.018   3.081   5.394 -0.5415  0.7200 -0.7039
 1501TIP3    H2 4461   0.082   3.167   5.287  2.1799  0.5708  0.7236
 1502TIP3   OH2 4462   5.975   4.499   5.877  0.2131  0.1266  0.3673
 1502TIP3    H1 4463   5.891   4.534   5.845  0.3776  0.0187 -0.1992
 1502TIP3    H2 4464   6.029   4.577   5.890  0.8595  0.1036 -1.6906
 1503TIP3   OH2 4465   6.924   2.143   1.666  0.3319  0.3233 -0.2906
 1503TIP3    H1 4466   6.985   2.174   1.599  0.2562 -1.0259 -1.0181
 1503TIP3    H2 4467   6.846   2.117   1.618  0.3292 -0.7926  0.2759
 1504TIP3   OH2 4468   6.335   0.345   4.535 -0.5561  0.1595 -0.2551
 1504TIP3    H1 4469   6.284   0.415   4.495  0.2309  0.7045 -0.3195
 1504TIP3    H2 4470   6.423   0.356   4.500 -0.3188 -0.6021  0.0671
 1505TIP3   OH2 4471   7.996   7.345   1.292 -0.3083  0.4404  0.1682
 1505TIP3    H1 4472   7.955   7.398   1.361  1.5698  1.2341  0.7395
 1505TIP3    H2 4473   8.013   7.408   1.221 -0.2870  0.0788 -0.1480
 1506TIP3   OH2 4474   3.984   6.663   5.456 -0.1702 -0.0938 -0.2447
 1506TIP3    H1 4475   3.897   6.684   5.422  0.7277  1.5743 -1.6741
 1506TIP3    H2 4476   4.007   6.581   5.414  0.5597  1.4919 -3.2287
 1507TIP3   OH2 4477   7.652   2.891   6.285  0.0188 -0.1340  0.3783
 1507TIP3    H1 4478   7.620   2.833   6.353 -3.2495 -0.3088 -1.1389
 1507TIP3    H2 4479   7.688   2.833   6.218  0.7028 -0.1214  0.7284
 1508TIP3   OH2 4480   1.898   6.293   1.722  0.7720 -0.3775  0.3214
 1508TIP3    H1 4481   1.928   6.258   1.638  0.4258  0.9693 -0.3894
 1508TIP3    H2 4482   1.963   6.358   1.746  0.2790  0.0456  0.5302
 1509TIP3   OH2 4483   4.813   3.684   4.324 -0.0450 -0.4943  0.7217
 1509TIP3    H1 4484   4.874   3.700   4.252  0.5930  1.5132  1.6138
 1509TIP3    H2 4485   4.744   3.629   4.287  0.5247  0.0659 -1.2624
 1510TIP3   OH2 4486   7.951   0.759   5.909  0.4000  0.0566 -0.0937
 1510TIP3    H1 4487   7.922   0.680   5.954 -0.0635 -0.5780 -1.4573
 1510TIP3    H2 4488   8.043   0.742   5.889  0.2192 -0.2689 -0.6540
 1511TIP3   OH2 4489   7.589   2.859   5.918 -0.7121 -0.6048 -0.3560
 1511TIP3    H1 4490   7.655   2.801   5.957  0.0806  0.7678  0.4272
 1511TIP3    H2 4491   7.632   2.897   5.842 -0.4747  0.4608  0.2811
 1512TIP3   OH2 4492   6.361   1.740   2.623  0.7670  0.7890  0.0957
 1512TIP3    H1 4493   6.323   1.671   2.568 -0.1819  0.8131  0.7024
 1512TIP3    H2 4494   6.285   1.784   2.662  1.4284 -0.3490  2.8289
 1513TIP3   OH2 4495   3.610   4.754   4.814  0.0724  0.0314  0.2752
 1513TIP3    H1 4496   3.598   4.665   4.780 -0.8885  1.2273 -2.8718
 1513TIP3    H2 4497   3.576   4.750   4.903 -0.4034 -2.6142  0.0708
 1514TIP3   OH2 4498   4.410   2.999   2.273 -0.1649  0.4360  0.5984
 1514TIP3    H1 4499   4.498   2.981   2.307 -0.4765 -0.7002  0.8647
 1514TIP3    H2 4500   4.372   2.912   2.260 -0.7273  0.8690 -0.9098
 1515TIP3   OH2 4501   6.008   1.241   5.504  0.7214  0.4574 -0.1653
 1515TIP3    H1 4502   5.973   1.155   5.526 -0.7163  0.2032 -2.9374
 1515TIP3    H2 4503   6.102   1.226   5.494  0.7049 -0.4303  0.8471
 1516TIP3   OH2 4504   1.505   3.624   6.708 -0.1528  0.0917  0.4232
 1516TIP3    H1 4505   1.550   3.556   6.659 -0.4510 -1.6148  2.4031
 1516TIP3    H2 4506   1.574   3.685   6.735  0.1781  0.3574 -0.9518
 1517TIP3   OH2 4507   7.425   0.860   3.040 -0.3179 -0.4619  0.0747
 1517TIP3    H1 4508   7.410   0.946   3.001 -0.4689 -0.7562 -0.5256
 1517TIP3    H2 4509   7.340   0.817   3.039 -0.2369 -0.6362  0.3468
 1518TIP3   OH2 4510   7.343   7.576   1.242 -0.7952  0.7808  0.4656
 1518TIP3    H1 4511   7.394   7.586   1.161 -1.3799 -0.6205 -0.1005
 1518TIP3    H2 4512   7.398   7.524   1.299 -0.9971  0.4876  0.3957
 1519TIP3   OH2 4513   3.188   7.099   3.971 -0.0190  0.5584 -0.3741
 1519TIP3    H1 4514   3.229   7.155   4.037 -0.6098 -2.0254  2.3778
 1519TIP3    H2 4515   3.095   7.104   3.990 -0.0321 -1.9174  0.5393
 1520TIP3   OH2 4516   4.847   4.657   5.961 -0.5247 -0.2719 -0.0062
 1520TIP3    H1 4517   4.809   4.571   5.982  0.7552 -0.7087  0.6880
 1520TIP3    H2 4518   4.863   4.654   5.867  1.1110 -1.5219  0.2625
 1521TIP3   OH2 4519   2.050   5.465   1.671 -0.0168 -0.4066 -0.1779
 1521TIP3    H1 4520   2.069   5.469   1.764  0.0569 -0.4331 -0.1919
 1521TIP3    H2 4521   1.992   5.389   1.661 -0.5051 -0.0544 -0.0712
 1522TIP3   OH2 4522   4.435   1.280   4.178  0.0674 -0.1130  0.0036
 1522TIP3    H1 4523   4.433   1.250   4.269  1.7477  4.3433  1.7940
 1522TIP3    H2 4524   4.384   1.361   4.178  1.0313  0.6126 -2.7547
 1523TIP3   OH2 4525   0.709   5.571   6.469  0.7834 -0.3654 -0.4195
 1523TIP3    H1 4526   0.797   5.602   6.452  0.3700  2.0182  1.2079
 1523TIP3    H2 4527   0.655   5.650   6.468 -1.0989 -1.5669 -0.0358
 1524TIP3   OH2 4528   3.993   6.809   0.038  0.0103  0.6320 -0.1083
 1524TIP3    H1 4529   4.065   6.788  -0.021 -0.1945 -0.6853  0.0814
 1524TIP3    H2 4530   4.035   6.857   0.110  0.3258  1.8581 -1.0628
 1525TIP3   OH2 4531   4.614   3.293   1.704  0.7776  0.9103  0.1131
 1525TIP3    H1 4532   4.642   3.335   1.623 -0.5802  1.0409 -0.3124
 1525TIP3    H2 4533   4.636   3.355   1.773 -2.6418  3.2219 -0.6291
 1526TIP3   OH2 4534   1.269   2.343   0.881  0.7237 -0.4116 -0.2873
 1526TIP3    H1 4535   1.271   2.388   0.797  0.8993 -0.4003 -0.2757
 1526TIP3    H2 4536   1.180   2.357   0.913  1.1850  1.1493  0.3903
 1527TIP3   OH2 4537   1.418   4.124   6.446  0.3789 -0.1217  0.5354
 1527TIP3    H1 4538   1.418   4.030   6.427 -1.0695 -0.0179 -0.0849
 1527TIP3    H2 4539   1.384   4.165   6.366 -0.5191  0.7998  1.3737
 1528TIP3   OH2 4540   6.453  -0.010   3.822  0.2323  0.2405 -0.5100
 1528TIP3    H1 4541   6.507   0.041   3.881 -1.6810  3.7647 -1.5322
 1528TIP3    H2 4542   6.363   0.003   3.853 -0.5160 -0.8140 -2.0661
 1529TIP3   OH2 4543   7.289   5.772   0.204 -0.3420  0.0929 -0.0001
 1529TIP3    H1 4544   7.243   5.790   0.121  1.2317 -0.5762 -1.0730
 1529TIP3    H2 4545   7.373   5.736   0.177 -0.9570 -3.1521  1.8986
 1530TIP3   OH2 4546   4.875   5.162   5.940  0.1338 -0.8441 -0.5113
 1530TIP3    H1 4547   4.916   5.112   6.010 -1.7208 -0.8314  0.6258
 1530TIP3    H2 4548   4.879   5.253   5.970  0.6116 -0.6623 -1.0977
 1531TIP3   OH2 4549   8.222   0.013   0.226  0.4493 -0.4137 -0.0859
 1531TIP3    H1 4550   8.151  -0.010   0.166  0.0559  1.1416 -0.2526
 1531TIP3    H2 4551   8.253   0.098   0.195  2.2581 -0.9599  0.1194
 1532TIP3   OH2 4552   3.570   3.505   3.112  0.3516  0.2356 -0.0349
 1532TIP3    H1 4553   3.609   3.589   3.138  1.4908 -0.1367 -0.4930
 1532TIP3    H2 4554   3.642   3.443   3.115 -0.6197 -0.8855  0.9264
 1533TIP3   OH2 4555   8.023   7.116   6.287  0.0996 -0.1400 -0.1339
 1533TIP3    H1 4556   8.045   7.027   6.260  1.9980  0.4488 -0.6888
 1533TIP3    H2 4557   7.996   7.159   6.206  3.5069  0.9652 -0.8289
 1534TIP3   OH2 4558   3.344   3.995   3.277 -0.1951  0.0302  0.2623
 1534TIP3    H1 4559   3.294   4.075   3.261 -0.8789 -0.1839  1.2808
 1534TIP3    H2 4560   3.427   4.025   3.314 -0.0468  0.3207 -0.3049
 1535TIP3   OH2 4561   0.154   0.837   3.447  0.1230  0.5197 -0.5484
 1535TIP3    H1 4562   0.192   0.806   3.529 -0.1011  1.0812 -0.2252
 1535TIP3    H2 4563   0.223   0.890   3.407  0.4830 -0.3271 -1.0691
 1536TIP3   OH2 4564   1.775   0.941   0.696  0.4708 -0.0482 -0.2102
 1536TIP3    H1 4565   1.808   0.918   0.610  0.5229 -3.2656  0.5495
 1536TIP3    H2 4566   1.779   0.859   0.746 -2.7121  0.8743  1.8467
 1537TIP3   OH2 4567   3.542   4.407   6.696 -0.1254 -0.3100 -0.4659
 1537TIP3    H1 4568   3.622   4.445   6.660 -0.2227  1.6855  1.2330
 1537TIP3    H2 4569   3.542   4.317   6.664  1.6603  0.2452 -2.2740
 1538TIP3   OH2 4570   4.642   7.701   5.239 -0.2811  0.5942  0.3247
 1538TIP3    H1 4571   4.616   7.779   5.190 -1.2357 -0.7310 -1.3419
 1538TIP3    H2 4572   4.718   7.667   5.193  0.1150  0.5195  1.0251
 1539TIP3   OH2 4573   5.919   1.354   0.959 -0.7599  0.2482  0.4224
 1539TIP3    H1 4574   5.977   1.370   0.884 -0.0881 -1.8622  0.4485
 1539TIP3    H2 4575   5.953   1.411   1.028 -0.9589  1.6956 -0.6073
 1540TIP3   OH2 4576   4.152   7.310   5.229 -0.1110  0.0965  0.5062
 1540TIP3    H1 4577   4.187   7.268   5.151  1.3795 -0.2278  1.3165
 1540TIP3    H2 4578   4.191   7.398   5.229  0.0766  0.0172  1.0039
 1541TIP3   OH2 4579   4.838   7.789   2.068  0.0704 -0.2427  0.0511
 1541TIP3    H1 4580   4.870   7.743   1.990 -0.9149  0.5384 -0.8512
 1541TIP3    H2 4581   4.752   7.822   2.042  0.5095  1.6401  0.8467
 1542TIP3   OH2 4582   0.803   5.912   2.767  0.1617 -0.1857  0.2322
 1542TIP3    H1 4583   0.853   5.893   2.687 -0.9171  0.2879 -0.5747
 1542TIP3    H2 4584   0.718   5.942   2.735 -0.6137 -0.8782  1.5767
 1543TIP3   OH2 4585   6.579   7.292   5.002  0.6582 -0.3749 -0.3892
 1543TIP3    H1 4586   6.622   7.376   4.991  0.0564 -0.2085 -1.5996
 1543TIP3    H2 4587   6.511   7.290   4.935  0.8970 -1.9835 -0.6277
 1544TIP3   OH2 4588   6.891   4.917   3.840 -0.2301  0.0039  0.6321
 1544TIP3    H1 4589   6.893   4.852   3.911  1.3043 -1.1603 -0.3961
 1544TIP3    H2 4590   6.832   4.880   3.775 -1.0255  0.6896  0.9583
 1545TIP3   OH2 4591   0.128   1.606   1.468 -0.1420 -0.2448  0.1537
 1545TIP3    H1 4592   0.089   1.651   1.543 -0.8427 -1.2558  0.4219
 1545TIP3    H2 4593   0.192   1.546   1.506  1.3708  1.0591 -0.2560
 1546TIP3   OH2 4594   1.339   3.113   4.751  0.1203 -0.1349 -0.1530
 1546TIP3    H1 4595   1.403   3.079   4.813  0.6505  0.7553 -0.1878
 1546TIP3    H2 4596   1.269   3.048   4.750 -0.1340  0.0713  1.7292
 1547TIP3   OH2 4597   5.359   1.983   2.768 -0.9115  0.1314 -0.0990
 1547TIP3    H1 4598   5.404   1.917   2.714 -0.7731 -1.0206  1.3785
 1547TIP3    H2 4599   5.391   2.067   2.734 -0.4920 -0.5594 -1.5050
 1548TIP3   OH2 4600   1.923   3.613   1.924 -0.6172  0.3045 -0.3268
 1548TIP3    H1 4601   1.899   3.556   1.996 -0.5505 -0.1303 -0.6485
 1548TIP3    H2 4602   1.844   3.618   1.870 -0.5484  0.3308 -0.4252
 1549TIP3   OH2 4603   1.926   4.228   3.470 -0.1807  0.1293 -0.3820
 1549TIP3    H1 4604   1.941   4.205   3.562  0.9028 -0.4023 -0.6744
 1549TIP3    H2 4605   1.831   4.221   3.459 -0.3792  0.7436  0.8296
 1550TIP3   OH2 4606   4.748   3.114   2.141  0.0827 -0.0598 -0.0532
 1550TIP3    H1 4607   4.694   3.081   2.069 -0.6521 -0.1512  0.5407
 1550TIP3    H2 4608   4.740   3.048   2.210 -0.5281  0.8046  0.7303
 1551TIP3   OH2 4609   2.532   4.194   1.963  0.2125 -0.1598  0.3775
 1551TIP3    H1 4610   2.454   4.236   2.000  0.6399  0.9158  0.1120
 1551TIP3    H2 4611   2.589   4.267   1.939  0.0215 -0.7725 -2.2860
 1552TIP3   OH2 4612   5.943   0.774   0.923 -0.1864  0.2002 -0.2756
 1552TIP3    H1 4613   5.927   0.840   0.990  0.8683  0.0506  0.1555
 1552TIP3    H2 4614   5.881   0.794   0.853 -1.1431  0.5081  0.6390
 1553TIP3   OH2 4615   0.272   1.436   5.979 -0.1284  0.3990  0.7278
 1553TIP3    H1 4616   0.349   1.449   5.924 -0.8947  0.8937 -0.2857
 1553TIP3    H2 4617   0.280   1.346   6.011 -0.2956 -0.3962 -1.3022
 1554TIP3   OH2 4618   6.254   0.179   1.922  0.1836  0.4450 -0.2663
 1554TIP3    H1 4619   6.342   0.193   1.955  0.1772  2.2940 -0.9229
 1554TIP3    H2 4620   6.198   0.181   2.000  0.6022  0.3978  0.0353
 1555TIP3   OH2 4621   5.480   4.678   6.482 -0.5228  0.3234 -0.4929
 1555TIP3    H1 4622   5.405   4.722   6.441 -1.6353  0.3347  1.4207
 1555TIP3    H2 4623   5.523   4.747   6.532  0.5676  0.2223 -1.2581
 1556TIP3   OH2 4624   6.402   4.161   4.932  0.0232  0.5553 -0.9306
 1556TIP3    H1 4625   6.328   4.157   4.871 -0.4091 -0.5466 -0.3490
 1556TIP3    H2 4626   6.478   4.143   4.877 -0.1530  1.3578 -1.4696
 1557TIP3   OH2 4627   7.650   0.424   3.410 -0.5245 -0.3699  0.4874
 1557TIP3    H1 4628   7.654   0.357   3.343 -0.1003 -0.7121  0.8437
 1557TIP3    H2 4629   7.633   0.376   3.491 -0.2495 -0.0488  0.7391
 1558TIP3   OH2 4630   3.912   3.872   1.148  0.0060  0.2564  0.0603
 1558TIP3    H1 4631   3.933   3.918   1.067 -2.1215 -1.3921 -1.5773
 1558TIP3    H2 4632   3.942   3.782   1.133 -2.3332 -0.6163  0.0855
 1559TIP3   OH2 4633   4.212   0.352   1.327  0.0065 -0.0017  0.3035
 1559TIP3    H1 4634   4.184   0.336   1.417 -0.2300 -2.6503 -0.1563
 1559TIP3    H2 4635   4.130   0.356   1.277  0.1797  0.3335  0.0435
 1560TIP3   OH2 4636   4.181   3.937   4.466  0.4170 -0.9380  0.4114
 1560TIP3    H1 4637   4.141   3.896   4.389  2.3352 -3.3207  0.5447
 1560TIP3    H2 4638   4.107   3.966   4.519 -1.0530 -2.4540 -0.7033
 1561TIP3   OH2 4639   4.046   0.125   6.359  0.3790  0.4027 -0.3043
 1561TIP3    H1 4640   4.009   0.211   6.338 -0.7743 -0.1513 -0.6151
 1561TIP3    H2 4641   4.106   0.142   6.431  1.6679  1.7777 -1.6410
 1562TIP3   OH2 4642   8.138   2.342   5.339 -0.8348 -0.5968  0.0954
 1562TIP3    H1 4643   8.049   2.325   5.309 -0.7836  1.0834 -1.1582
 1562TIP3    H2 4644   8.157   2.431   5.308 -0.0001  0.5260  3.3565
 1563TIP3   OH2 4645   2.615   5.631   2.151  0.4541 -0.0637  0.3399
 1563TIP3    H1 4646   2.672   5.590   2.216  0.4667 -0.3591  0.1493
 1563TIP3    H2 4647   2.672   5.692   2.105  0.9524 -1.2194 -0.6502
 1564TIP3   OH2 4648   0.254   7.036   5.558  0.4007 -0.8699  0.2471
 1564TIP3    H1 4649   0.321   7.019   5.625 -0.9502  0.0564  1.9270
 1564TIP3    H2 4650   0.236   7.130   5.565 -1.1398 -1.1082 -0.0640
 1565TIP3   OH2 4651   7.998   6.490   2.696  0.1741  0.0509 -0.1719
 1565TIP3    H1 4652   7.988   6.575   2.737  1.7056 -0.0823  0.5711
 1565TIP3    H2 4653   7.916   6.444   2.714 -0.2607  0.9913  0.3051
 1566TIP3   OH2 4654   1.272   1.236   4.863  0.1672  0.4171 -0.0640
 1566TIP3    H1 4655   1.279   1.321   4.906  1.0071  1.4481 -2.0747
 1566TIP3    H2 4656   1.194   1.243   4.809  0.7416  0.2816 -0.9380
 1567TIP3   OH2 4657   0.396   1.676   3.961 -0.6642  0.3542 -0.0342
 1567TIP3    H1 4658   0.306   1.705   3.946 -1.1351 -1.2317 -0.4708
 1567TIP3    H2 4659   0.401   1.661   4.056 -1.3084 -0.8756 -0.1740
 1568TIP3   OH2 4660   4.134   4.587   5.875 -0.0291  0.0345  0.1683
 1568TIP3    H1 4661   4.058   4.575   5.932  1.5010 -1.8572  1.9638
 1568TIP3    H2 4662   4.109   4.544   5.793 -0.5178 -1.5427  1.1119
 1569TIP3   OH2 4663   3.887   0.592   4.291 -0.0828 -0.2183  0.1421
 1569TIP3    H1 4664   3.912   0.678   4.257  1.3975 -1.4357 -2.1135
 1569TIP3    H2 4665   3.792   0.598   4.303  0.0268  1.7986  0.3909
 1570TIP3   OH2 4666   0.577   5.923   5.818 -0.7297  0.0798 -0.6536
 1570TIP3    H1 4667   0.530   5.952   5.896  1.3530  0.1645  0.6351
 1570TIP3    H2 4668   0.534   5.842   5.793 -1.4253  0.0395  0.6022
 1571TIP3   OH2 4669   1.819   7.521   2.255 -0.1325 -0.6871 -0.8536
 1571TIP3    H1 4670   1.816   7.572   2.335 -0.6966  0.0091 -1.3047
 1571TIP3    H2 4671   1.808   7.430   2.284  1.6165 -0.6593  0.0175
 1572TIP3   OH2 4672   4.261   4.402   4.712  0.2572 -0.2578  0.2397
 1572TIP3    H1 4673   4.262   4.402   4.808 -1.6353 -0.9659  0.2987
 1572TIP3    H2 4674   4.315   4.327   4.688  3.6134  1.8636  0.5821
 1573TIP3   OH2 4675   7.110   1.038   6.517 -0.1348 -0.4110  0.8917
 1573TIP3    H1 4676   7.192   1.086   6.499 -0.3499  0.0103  1.0200
 1573TIP3    H2 4677   7.113   1.021   6.611 -1.2037  1.5523  1.3459
 1574TIP3   OH2 4678   1.171   6.069   4.121 -0.2497 -0.8795  0.3225
 1574TIP3    H1 4679   1.157   6.006   4.192 -0.5693 -2.8203 -1.3444
 1574TIP3    H2 4680   1.116   6.144   4.144 -1.1389 -1.8716  1.6239
 1575TIP3   OH2 4681   2.969   7.284   0.294 -0.1350  0.2796  0.1986
 1575TIP3    H1 4682   2.990   7.373   0.266  1.2269 -0.2664 -0.6161
 1575TIP3    H2 4683   2.905   7.296   0.364 -2.2628  1.7562 -1.8720
 1576TIP3   OH2 4684   1.104   3.344   6.807 -0.3173  0.3925 -0.0111
 1576TIP3    H1 4685   1.192   3.357   6.772  0.2503 -1.0399  0.7938
 1576TIP3    H2 4686   1.047   3.395   6.749  0.9828  1.0014 -0.7972
 1577TIP3   OH2 4687   1.063   1.333   2.455 -0.1360  0.3795 -0.0398
 1577TIP3    H1 4688   0.985   1.297   2.413 -0.5286 -0.1101  1.0834
 1577TIP3    H2 4689   1.059   1.427   2.437  0.8695 -0.0147 -2.9551
 1578TIP3   OH2 4690   0.917   7.240   6.371 -0.3348  0.0183 -0.7341
 1578TIP3    H1 4691   0.947   7.323   6.410  0.5104 -1.4138  1.9187
 1578TIP3    H2 4692   0.821   7.246   6.374 -0.3794 -0.2006  2.3517
 1579TIP3   OH2 4693   2.361   0.745   1.571 -0.0122  0.3716 -0.0329
 1579TIP3    H1 4694   2.372   0.833   1.609  0.6668  0.0034  0.6534
 1579TIP3    H2 4695   2.266   0.734   1.564 -0.1056  1.3700 -0.6527
 1580TIP3   OH2 4696   3.239   6.498   5.569  0.6584  0.3742 -0.5318
 1580TIP3    H1 4697   3.177   6.557   5.526 -1.8460 -2.4634 -1.1680
 1580TIP3    H2 4698   3.225   6.513   5.663 -1.8025 -0.8432 -0.6314
 1581TIP3   OH2 4699   4.145   4.462   0.635 -0.2904  0.1126 -0.0350
 1581TIP3    H1 4700   4.133   4.538   0.578 -2.5711 -0.0874  0.0762
 1581TIP3    H2 4701   4.120   4.493   0.722  1.9197  0.0588  0.6930
 1582TIP3   OH2 4702   7.418   1.991   1.167  0.3305 -0.1211 -0.0282
 1582TIP3    H1 4703   7.507   2.010   1.199 -0.2332 -1.3075  2.5529
 1582TIP3    H2 4704   7.407   1.897   1.183 -1.0054 -0.2412 -1.4407
 1583TIP3   OH2 4705   0.159   5.943   6.444 -0.2089 -0.0634 -0.3971
 1583TIP3    H1 4706   0.215   6.021   6.442  3.7543 -2.6300 -0.8165
 1583TIP3    H2 4707   0.157   5.917   6.536  0.5901 -0.7804 -0.5705
 1584TIP3   OH2 4708   7.521   7.114   2.226  0.4501  0.1065  0.4538
 1584TIP3    H1 4709   7.578   7.118   2.150 -0.9916 -1.6464 -0.8049
 1584TIP3    H2 4710   7.433   7.103   2.190 -0.6353  1.8658  2.3410
 1585TIP3   OH2 4711   1.649   2.165   2.453 -0.3493  0.0453  0.4229
 1585TIP3    H1 4712   1.600   2.196   2.376 -2.3074 -1.5581  0.9353
 1585TIP3    H2 4713   1.741   2.181   2.431 -0.9912  1.9208 -1.1852
 1586TIP3   OH2 4714   7.281   0.110   5.173  0.0309  0.6969 -0.0574
 1586TIP3    H1 4715   7.185   0.106   5.166  0.0637  1.3355 -1.3492
 1586TIP3    H2 4716   7.297   0.186   5.230 -0.2462  1.7420 -1.3100
 1587TIP3   OH2 4717   5.302   1.059   0.382  0.2870 -0.1642  0.3120
 1587TIP3    H1 4718   5.297   1.104   0.298 -1.8964  0.8717  0.9280
 1587TIP3    H2 4719   5.276   0.969   0.363  1.0280 -0.2604 -0.2971
 1588TIP3   OH2 4720   4.904   3.059   2.547  0.2719  0.2628  0.1594
 1588TIP3    H1 4721   4.895   3.023   2.459 -0.6804  0.3044  0.2235
 1588TIP3    H2 4722   4.981   3.115   2.543  0.9869 -0.7194 -0.3046
 1589TIP3   OH2 4723   1.233   0.264   2.441 -0.1344  0.1225  0.0372
 1589TIP3    H1 4724   1.219   0.271   2.535 -0.2511  2.5896 -0.0958
 1589TIP3    H2 4725   1.154   0.301   2.401  0.5707  0.6275 -0.9648
 1590TIP3   OH2 4726   7.613   2.516   6.708 -0.4499 -0.1082 -0.0340
 1590TIP3    H1 4727   7.589   2.445   6.648 -2.2040  0.5955 -0.2164
 1590TIP3    H2 4728   7.563   2.497   6.788 -0.6475  0.7257  0.0415
 1591TIP3   OH2 4729   2.342   2.716   0.741  0.2202  0.0338  0.1345
 1591TIP3    H1 4730   2.349   2.719   0.646  1.6766  0.2577  0.2273
 1591TIP3    H2 4731   2.248   2.706   0.758  0.0626 -1.4025 -1.3411
 1592TIP3   OH2 4732   7.757   2.362   1.453  0.2616 -0.5207  0.1291
 1592TIP3    H1 4733   7.808   2.391   1.377 -1.0087 -0.1798 -0.6186
 1592TIP3    H2 4734   7.797   2.407   1.527  1.7763 -1.1644 -0.2494
 1593TIP3   OH2 4735   6.514   4.414   2.833 -0.5810  0.1669  0.1014
 1593TIP3    H1 4736   6.504   4.426   2.927  0.9513 -1.2808  0.5065
 1593TIP3    H2 4737   6.592   4.466   2.811 -0.6552  0.1185 -0.2818
 1594TIP3   OH2 4738   3.797   5.959   5.735  0.0088  0.1493 -0.4848
 1594TIP3    H1 4739   3.823   5.923   5.650 -0.3509  0.7548 -0.8626
 1594TIP3    H2 4740   3.879   5.969   5.783  0.2667  0.2168 -0.9315
 1595TIP3   OH2 4741   5.756   1.500   6.583 -0.2895  0.3468 -0.6870
 1595TIP3    H1 4742   5.733   1.411   6.558  0.4181  0.0030 -0.1496
 1595TIP3    H2 4743   5.742   1.552   6.504 -2.7210  0.1498 -0.4563
 1596TIP3   OH2 4744   8.033   7.373   6.411 -0.0555 -0.1913 -0.3086
 1596TIP3    H1 4745   8.039   7.279   6.427 -0.9065 -0.0467  0.9501
 1596TIP3    H2 4746   7.950   7.384   6.364 -0.4064  0.0259  0.3570
 1597TIP3   OH2 4747   1.701   1.164   1.326 -0.2873  0.2927  0.2978
 1597TIP3    H1 4748   1.619   1.212   1.338  0.3978  1.5915 -0.1012
 1597TIP3    H2 4749   1.756   1.191   1.399  0.1572  0.2144 -0.0078
 1598TIP3   OH2 4750   7.149   1.147   4.408  0.2452 -0.3759  0.2261
 1598TIP3    H1 4751   7.074   1.197   4.440  0.1087  0.0873 -0.7758
 1598TIP3    H2 4752   7.135   1.059   4.443 -1.2776 -0.5373 -0.6855
 1599TIP3   OH2 4753   7.997   5.438   5.855 -0.0013 -0.6302 -0.8041
 1599TIP3    H1 4754   7.977   5.467   5.766 -2.6221 -0.9611 -0.4067
 1599TIP3    H2 4755   7.956   5.505   5.911  2.4843  0.1364  0.2205
 1600TIP3   OH2 4756   8.251   7.805   2.145  0.3716 -0.5255 -0.1905
 1600TIP3    H1 4757   8.185   7.779   2.080 -0.4285 -1.0580  0.8137
 1600TIP3    H2 4758   8.302   7.874   2.101 -1.0515  0.1326 -0.8839
 1601TIP3   OH2 4759   6.113   1.842   6.384 -0.2865 -0.7703 -0.0306
 1601TIP3    H1 4760   6.163   1.794   6.450  0.6514 -2.3702 -1.8051
 1601TIP3    H2 4761   6.033   1.869   6.429  0.7890 -0.7968  2.0404
 1602TIP3   OH2 4762   6.421   4.913   5.532 -0.1960  0.0856  0.0403
 1602TIP3    H1 4763   6.510   4.886   5.555 -0.5801 -1.0260  0.2705
 1602TIP3    H2 4764   6.424   4.923   5.437  0.0222 -0.5954 -0.0348
 1603TIP3   OH2 4765   4.571   5.412   2.601 -0.3760  0.5992 -0.4733
 1603TIP3    H1 4766   4.559   5.331   2.552  0.4734 -0.0069  0.2772
 1603TIP3    H2 4767   4.653   5.398   2.650 -1.6790  0.7438  1.9227
 1604TIP3   OH2 4768   5.804   0.250   6.221 -0.0077 -0.2986  0.5829
 1604TIP3    H1 4769   5.788   0.300   6.141 -1.4940 -0.9725  0.4259
 1604TIP3    H2 4770   5.754   0.297   6.289 -1.0785 -1.2958  0.5143
 1605TIP3   OH2 4771   2.699   5.734   0.626  0.1561 -0.6965 -0.0370
 1605TIP3    H1 4772   2.696   5.638   0.621  4.3976 -1.0729  0.3210
 1605TIP3    H2 4773   2.770   5.752   0.687 -0.9158  2.7598  0.3998
 1606TIP3   OH2 4774   2.648   4.455   1.957  0.0317  0.6558 -0.2283
 1606TIP3    H1 4775   2.642   4.495   2.043 -0.2926 -1.9897  1.0937
 1606TIP3    H2 4776   2.563   4.471   1.917 -1.2976 -1.2739  1.5724
 1607TIP3   OH2 4777   0.873   5.617   2.051 -0.4231 -0.5972  0.0774
 1607TIP3    H1 4778   0.862   5.698   2.002 -1.5136 -1.9942 -2.1832
 1607TIP3    H2 4779   0.967   5.601   2.051 -0.1005  1.0337  1.3075
 1608TIP3   OH2 4780   5.320   7.667   5.991 -0.4044 -0.3203 -0.3440
 1608TIP3    H1 4781   5.326   7.572   5.998  1.1071 -0.1522  1.1562
 1608TIP3    H2 4782   5.282   7.695   6.074  0.1069  0.4520 -0.3577
 1609TIP3   OH2 4783   1.639   5.704   1.489  0.4242 -0.0589 -0.1718
 1609TIP3    H1 4784   1.590   5.636   1.536  2.4380 -1.2313  0.3111
 1609TIP3    H2 4785   1.575   5.740   1.427 -0.7232 -2.3262 -0.4068
 1610TIP3   OH2 4786   1.772   3.195   4.134  0.0243 -0.6497  0.4722
 1610TIP3    H1 4787   1.860   3.182   4.169  0.2396 -1.4224 -0.3341
 1610TIP3    H2 4788   1.784   3.201   4.039 -0.8295 -1.1400  0.3183
 1611TIP3   OH2 4789   3.867   0.846   0.774  0.3166 -0.1175 -0.5719
 1611TIP3    H1 4790   3.947   0.898   0.776 -0.1062  0.5255  0.4139
 1611TIP3    H2 4791   3.801   0.904   0.737  0.0181 -0.2090 -0.1919
 1612TIP3   OH2 4792   0.628   5.620   3.339  0.3479  0.5387 -0.2812
 1612TIP3    H1 4793   0.659   5.623   3.430  0.1555  2.3341 -0.2313
 1612TIP3    H2 4794   0.683   5.554   3.297 -0.4370 -1.2993  1.4225
 1613TIP3   OH2 4795   2.826   0.570   3.501 -0.3042  0.1920 -0.0867
 1613TIP3    H1 4796   2.854   0.622   3.426 -0.0490  0.6770  0.3350
 1613TIP3    H2 4797   2.731   0.569   3.496 -0.2621 -0.7209 -1.0372
 1614TIP3   OH2 4798   6.406   5.795   2.495  0.4347  0.2789 -0.4221
 1614TIP3    H1 4799   6.488   5.825   2.455  1.8776 -0.6908  1.6135
 1614TIP3    H2 4800   6.414   5.700   2.496 -1.0604  0.1307 -0.7948
 1615TIP3   OH2 4801   6.925   5.984   2.744 -0.2742  0.4741  0.6706
 1615TIP3    H1 4802   6.855   5.928   2.711  0.1748  0.0081  0.4801
 1615TIP3    H2 4803   6.940   5.954   2.833  0.2179  0.0203  0.4478
 1616TIP3   OH2 4804   0.992   7.582   2.832  0.3266 -0.4985  0.7981
 1616TIP3    H1 4805   1.013   7.672   2.859 -2.2636  0.2143  0.7556
 1616TIP3    H2 4806   1.021   7.577   2.741 -2.7811  1.7051 -0.5144
 1617TIP3   OH2 4807   6.257   5.411   1.395 -0.1109 -0.2916  1.3791
 1617TIP3    H1 4808   6.177   5.373   1.360  1.1091 -1.4135 -0.3613
 1617TIP3    H2 4809   6.232   5.448   1.480 -2.7245  0.5612  0.3074
 1618TIP3   OH2 4810   8.042   1.979   5.785 -0.4425 -0.4460  0.1458
 1618TIP3    H1 4811   8.110   2.026   5.737  1.0861 -2.9532 -0.3393
 1618TIP3    H2 4812   8.069   1.986   5.877 -0.7009  0.3069  0.1697
 1619TIP3   OH2 4813   7.215   1.397   5.826 -0.0619 -0.5407  0.0500
 1619TIP3    H1 4814   7.284   1.348   5.870  1.0544  0.2244 -0.7946
 1619TIP3    H2 4815   7.225   1.487   5.858 -1.8967 -0.7243  1.3555
 1620TIP3   OH2 4816   3.655   6.908   4.034 -0.3328  0.4472 -0.2682
 1620TIP3    H1 4817   3.576   6.927   3.983 -0.8357  1.0103  0.6940
 1620TIP3    H2 4818   3.710   6.986   4.023  1.1497 -0.8175 -2.7776
 1621TIP3   OH2 4819   5.941   7.170   4.183  0.0930  0.5965  0.3764
 1621TIP3    H1 4820   5.853   7.162   4.220 -0.0878 -2.5044 -0.4003
 1621TIP3    H2 4821   5.993   7.107   4.234  0.8777 -0.5035 -1.6623
 1622TIP3   OH2 4822   5.260   0.664   2.189  0.4465  0.4080 -0.0315
 1622TIP3    H1 4823   5.175   0.636   2.157  0.5310  0.2773 -0.1393
 1622TIP3    H2 4824   5.322   0.638   2.121  0.7386 -0.6573  0.6175
 1623TIP3   OH2 4825   0.572   4.986   2.579 -0.3202  0.0785  0.2989
 1623TIP3    H1 4826   0.665   4.968   2.569  0.1972  1.5365  1.9940
 1623TIP3    H2 4827   0.550   5.041   2.504 -0.2903 -1.6802 -1.0732
 1624TIP3   OH2 4828   7.519   6.264   6.205  0.2378  0.0730  0.2348
 1624TIP3    H1 4829   7.518   6.346   6.256 -1.4431 -1.4626  2.8980
 1624TIP3    H2 4830   7.436   6.265   6.156  2.0156  1.7314 -3.1137
 1625TIP3   OH2 4831   2.141   3.205   1.504  0.4541 -0.5007  0.0523
 1625TIP3    H1 4832   2.048   3.222   1.518  0.2463 -1.6352  0.1776
 1625TIP3    H2 4833   2.156   3.222   1.411 -0.2911 -1.9953 -0.3727
 1626TIP3   OH2 4834   4.966   3.617   0.842 -0.2034 -0.1388 -0.2283
 1626TIP3    H1 4835   4.939   3.540   0.892  0.7097 -1.2932 -1.4724
 1626TIP3    H2 4836   4.939   3.599   0.752 -0.4102  1.2232 -0.4735
 1627TIP3   OH2 4837   2.743   6.606   6.568 -0.5776 -0.5539  0.0531
 1627TIP3    H1 4838   2.828   6.607   6.523 -0.8596 -3.6560 -0.7926
 1627TIP3    H2 4839   2.680   6.587   6.499 -1.2700 -3.4906  1.3586
 1628TIP3   OH2 4840   5.982   1.281   6.705  0.2479  0.7688  0.2371
 1628TIP3    H1 4841   5.985   1.283   6.610  0.7678  1.0183  0.2552
 1628TIP3    H2 4842   6.051   1.341   6.733 -0.3564  1.2358  0.7711
 1629TIP3   OH2 4843   7.772   4.726   6.525  0.3019  0.0991  0.7278
 1629TIP3    H1 4844   7.791   4.820   6.525 -0.4408  0.2521  1.5459
 1629TIP3    H2 4845   7.796   4.696   6.613 -1.6033 -0.0256  1.2349
 1630TIP3   OH2 4846   2.914   0.101   6.664 -0.9317  0.0633  0.0856
 1630TIP3    H1 4847   2.825   0.072   6.642 -0.5469  0.5641 -2.4673
 1630TIP3    H2 4848   2.965   0.021   6.668 -1.4673 -0.2436  1.7241
 1631TIP3   OH2 4849   0.639   7.121   3.754  0.1139  0.3123 -0.5061
 1631TIP3    H1 4850   0.584   7.055   3.711 -0.6120 -0.7815  1.9285
 1631TIP3    H2 4851   0.596   7.204   3.732 -0.5116 -0.2350 -1.4530
 1632TIP3   OH2 4852   6.295   0.938   0.980  0.1333 -0.0308 -0.5438
 1632TIP3    H1 4853   6.277   0.849   1.011 -0.1568  0.4005  0.5735
 1632TIP3    H2 4854   6.376   0.930   0.928  1.2152 -0.6228  1.1637
 1633TIP3   OH2 4855   1.279   1.097   1.236 -0.7538 -0.1331  0.1664
 1633TIP3    H1 4856   1.345   1.049   1.286  0.6641  1.3509 -0.2003
 1633TIP3    H2 4857   1.321   1.114   1.152 -1.3279  1.4442  0.1710
 1634TIP3   OH2 4858   7.069   5.532   1.011 -0.2720  0.0073 -0.1131
 1634TIP3    H1 4859   7.044   5.508   0.922 -0.7888 -1.3117  0.3633
 1634TIP3    H2 4860   7.128   5.606   1.001 -1.9874  1.2580 -1.4502
 1635TIP3   OH2 4861   6.908   4.856   1.299 -0.1906  0.0729  0.6694
 1635TIP3    H1 4862   6.961   4.851   1.219  1.0967 -1.3360  1.5590
 1635TIP3    H2 4863   6.859   4.938   1.290 -0.6690 -0.4076 -1.8917
 1636TIP3   OH2 4864   3.145   6.058   1.847  0.2689  0.8232 -0.1141
 1636TIP3    H1 4865   3.075   6.111   1.810 -1.3299  0.1965  1.8211
 1636TIP3    H2 4866   3.149   6.083   1.939  0.0592 -1.7062  0.6722
 1637TIP3   OH2 4867   0.877   6.608   2.677  0.4143 -0.2826  0.1537
 1637TIP3    H1 4868   0.918   6.609   2.590 -0.9568 -1.6542 -0.5651
 1637TIP3    H2 4869   0.886   6.517   2.707 -1.6269 -0.5278  0.1535
 1638TIP3   OH2 4870   4.804   1.471   2.494 -0.1131  0.3764  0.1734
 1638TIP3    H1 4871   4.867   1.467   2.422  1.2358 -0.6697  1.3576
 1638TIP3    H2 4872   4.767   1.383   2.498  1.0469 -0.0929  1.7568
 1639TIP3   OH2 4873   0.764   4.932   5.638  0.1000  0.4567  0.2814
 1639TIP3    H1 4874   0.756   5.023   5.609  2.0268  0.0968 -1.6419
 1639TIP3    H2 4875   0.816   4.938   5.718 -0.2776  1.0734  0.4898
 1640TIP3   OH2 4876   0.849   3.363   1.696 -0.2938  0.5404 -0.0310
 1640TIP3    H1 4877   0.850   3.443   1.749  1.3485  0.0697  0.6872
 1640TIP3    H2 4878   0.818   3.295   1.755  1.1937  0.0864  0.2719
 1641TIP3   OH2 4879   7.610   0.640   4.003  0.0477 -0.1548 -0.1195
 1641TIP3    H1 4880   7.635   0.549   3.985  0.8338  0.0410 -0.0575
 1641TIP3    H2 4881   7.555   0.635   4.081 -0.4815 -0.6481 -0.5231
 1642TIP3   OH2 4882   2.340   5.035   2.790  0.4940  0.2259  0.1241
 1642TIP3    H1 4883   2.427   5.036   2.828  0.6248 -2.3642  0.1008
 1642TIP3    H2 4884   2.303   5.121   2.810  2.3373  0.6852  1.8022
 1643TIP3   OH2 4885   0.969   5.916   2.974  0.5233 -0.1184 -0.4133
 1643TIP3    H1 4886   0.911   5.912   2.897 -1.0119 -0.9084  0.7361
 1643TIP3    H2 4887   1.021   5.836   2.969  0.0484 -0.4317 -0.3429
 1644TIP3   OH2 4888   3.098   0.157   4.013 -0.6937 -0.4645  0.2878
 1644TIP3    H1 4889   3.144   0.170   4.095  1.2818  0.2937 -0.8788
 1644TIP3    H2 4890   3.005   0.164   4.036 -0.1654  0.3621  2.3279
 1645TIP3   OH2 4891   0.971   6.038   0.770 -0.1353  0.6554 -0.2922
 1645TIP3    H1 4892   0.883   6.004   0.749  0.3895 -0.2898 -1.0790
 1645TIP3    H2 4893   0.998   6.084   0.690  1.2076 -1.5149 -1.1741
 1646TIP3   OH2 4894   2.132   4.434   3.522 -0.2257  0.0559  0.4620
 1646TIP3    H1 4895   2.215   4.419   3.475 -0.5608  0.3617 -0.2453
 1646TIP3    H2 4896   2.080   4.356   3.504 -0.5710  0.4193 -0.1653
 1647TIP3   OH2 4897   6.025   7.527   4.377 -0.1733  0.7015  0.0610
 1647TIP3    H1 4898   6.041   7.433   4.368 -2.8459  0.2730 -1.0384
 1647TIP3    H2 4899   6.107   7.568   4.348  0.2096 -1.2491 -1.8596
 1648TIP3   OH2 4900   1.653   5.706   3.161 -0.1996  0.4090  0.0255
 1648TIP3    H1 4901   1.603   5.690   3.081 -0.1834  0.4208  0.0130
 1648TIP3    H2 4902   1.600   5.768   3.211 -0.9602 -0.7483  0.7143
 1649TIP3   OH2 4903   1.514   2.495   2.904 -0.0775 -0.8306  0.1603
 1649TIP3    H1 4904   1.434   2.485   2.853  1.3377 -1.6600 -2.0846
 1649TIP3    H2 4905   1.511   2.424   2.968 -1.5186 -0.3033  0.6935
 1650TIP3   OH2 4906   3.052   6.602   0.735  0.5141  0.0904 -0.4340
 1650TIP3    H1 4907   3.028   6.612   0.643  2.2683  0.8642 -0.8487
 1650TIP3    H2 4908   3.076   6.510   0.743  1.8510  0.3393 -1.1802
 1651TIP3   OH2 4909   5.285   7.717   0.478  0.3362  0.1215  0.5777
 1651TIP3    H1 4910   5.227   7.695   0.405  0.3746 -2.0355  1.1213
 1651TIP3    H2 4911   5.296   7.812   0.472 -2.1306  0.4258 -0.3522
 1652TIP3   OH2 4912   4.151   3.589   4.996 -0.5990 -0.1089 -0.5667
 1652TIP3    H1 4913   4.197   3.516   5.037 -0.8629 -1.0594 -1.9159
 1652TIP3    H2 4914   4.090   3.548   4.935 -0.8049  1.2388 -1.3038
 1653TIP3   OH2 4915   0.396   3.299   6.349 -0.0956  0.1073 -0.4769
 1653TIP3    H1 4916   0.393   3.286   6.254  4.5349 -0.4610 -0.7761
 1653TIP3    H2 4917   0.399   3.211   6.386 -0.0193  0.3145  0.0289
 1654TIP3   OH2 4918   3.977   4.085   2.939  0.2765  0.1667 -0.4296
 1654TIP3    H1 4919   4.053   4.096   2.996 -1.6320  1.1659  2.0907
 1654TIP3    H2 4920   4.006   4.120   2.855  2.8420 -0.2656  0.1761
 1655TIP3   OH2 4921   1.787   4.624   1.329  0.1168  0.0363 -0.5143
 1655TIP3    H1 4922   1.695   4.652   1.322  0.5516  1.9137  0.5143
 1655TIP3    H2 4923   1.795   4.552   1.267 -2.2376 -0.6792 -0.0639
 1656TIP3   OH2 4924   7.083   3.318   5.298 -0.2747  0.5413  0.5540
 1656TIP3    H1 4925   7.063   3.225   5.309  1.1897  0.1768  0.2755
 1656TIP3    H2 4926   7.029   3.345   5.223  1.6660 -0.9082 -1.4886
 1657TIP3   OH2 4927   6.194   7.395   4.103  0.5223  0.3870 -0.2025
 1657TIP3    H1 4928   6.228   7.483   4.120 -4.0636  2.3259  0.4526
 1657TIP3    H2 4929   6.184   7.356   4.190 -1.3030  0.9443 -0.1367
 1658TIP3   OH2 4930   0.855   0.672   4.080  0.7607  0.6274 -0.0426
 1658TIP3    H1 4931   0.762   0.682   4.104  1.0177 -1.5407  2.2595
 1658TIP3    H2 4932   0.855   0.600   4.017  0.9006  0.2913  0.3367
 1659TIP3   OH2 4933   6.806   0.413   5.431 -0.4852 -0.3846 -0.7471
 1659TIP3    H1 4934   6.810   0.486   5.370  1.4043  0.9646  0.8437
 1659TIP3    H2 4935   6.738   0.438   5.494 -1.5796 -1.2145 -1.5485
 1660TIP3   OH2 4936   5.457   1.897   0.954 -0.1466 -0.2876  0.5186
 1660TIP3    H1 4937   5.521   1.835   0.919 -0.5088 -0.0836 -0.5481
 1660TIP3    H2 4938   5.507   1.976   0.973 -0.0344 -0.1789 -0.1742
 1661TIP3   OH2 4939   7.730   2.435   3.884 -0.2945  0.1566  0.0465
 1661TIP3    H1 4940   7.670   2.494   3.928 -0.0934 -1.1569  2.2214
 1661TIP3    H2 4941   7.813   2.482   3.881 -0.2138  0.1440  1.4589
 1662TIP3   OH2 4942   1.906   0.912   0.459 -0.4169 -0.0168 -0.6046
 1662TIP3    H1 4943   1.954   0.992   0.436 -0.3593  0.0025 -0.4214
 1662TIP3    H2 4944   1.974   0.845   0.467 -0.4846 -0.1208 -0.9255
 1663TIP3   OH2 4945   0.190   5.582   4.429 -0.2326 -0.0211  0.5178
 1663TIP3    H1 4946   0.213   5.663   4.475  1.5006 -0.5711  0.7044
 1663TIP3    H2 4947   0.176   5.609   4.339  1.7331  0.3447  0.2645
 1664TIP3   OH2 4948   2.280   7.647   1.366  0.1659 -0.2240 -0.8350
 1664TIP3    H1 4949   2.188   7.623   1.348 -1.0396  1.5604  2.1531
 1664TIP3    H2 4950   2.282   7.742   1.359  1.2712 -0.0696  0.9718
 1665TIP3   OH2 4951   5.156   2.217   4.669 -0.4146  0.5123  0.1489
 1665TIP3    H1 4952   5.182   2.137   4.715 -0.5190  0.0880 -0.5199
 1665TIP3    H2 4953   5.073   2.242   4.710  0.1157  0.8641  1.0551
 1666TIP3   OH2 4954   5.298   2.414   1.348 -0.1061 -0.0556 -0.3992
 1666TIP3    H1 4955   5.223   2.373   1.390  0.0155  1.4926  1.4786
 1666TIP3    H2 4956   5.357   2.341   1.330 -1.2495 -1.0795 -0.1614
 1667TIP3   OH2 4957   3.810   5.375   5.505 -0.1883  0.1456  0.0658
 1667TIP3    H1 4958   3.824   5.293   5.457  2.2754  0.4113  0.1818
 1667TIP3    H2 4959   3.898   5.404   5.529 -1.1333  1.6923  1.9761
 1668TIP3   OH2 4960   3.555   5.327   3.686  0.2683 -0.2391 -0.1685
 1668TIP3    H1 4961   3.486   5.345   3.622 -1.5689  0.5817  1.9266
 1668TIP3    H2 4962   3.617   5.399   3.675  0.0376 -0.1695 -1.0851
 1669TIP3   OH2 4963   2.492   5.807   1.909  0.1094 -0.6322  0.0239
 1669TIP3    H1 4964   2.528   5.879   1.859 -1.2414 -0.4879 -0.8008
 1669TIP3    H2 4965   2.506   5.831   2.001 -0.4695  0.7602 -0.2365
 1670TIP3   OH2 4966   7.718   2.692   6.095 -0.5765 -0.1179 -0.3029
 1670TIP3    H1 4967   7.627   2.668   6.116 -0.9532 -0.6380 -2.3714
 1670TIP3    H2 4968   7.758   2.610   6.066  0.2756  0.3115 -0.3461
 1671TIP3   OH2 4969   4.114   5.187   6.129  0.1721 -0.1998 -0.2116
 1671TIP3    H1 4970   4.188   5.128   6.119 -1.6161 -2.3397 -1.9579
 1671TIP3    H2 4971   4.067   5.155   6.206  0.0862  0.0136 -0.1729
 1672TIP3   OH2 4972   3.666   5.321   5.736  0.0681  0.5471 -0.1025
 1672TIP3    H1 4973   3.572   5.313   5.716 -0.6726  1.1170  2.6872
 1672TIP3    H2 4974   3.707   5.336   5.651 -2.2163 -0.8153 -1.5675
 1673TIP3   OH2 4975   0.356   3.991   1.260 -0.1698  0.2903 -0.1939
 1673TIP3    H1 4976   0.313   3.910   1.231  0.9296 -1.0989  1.8248
 1673TIP3    H2 4977   0.432   3.999   1.203 -0.1665 -0.2320 -0.2724
 1674TIP3   OH2 4978   6.288   1.204   4.863  0.6219 -0.1760  0.1816
 1674TIP3    H1 4979   6.303   1.276   4.924 -3.6225  0.1632  1.0982
 1674TIP3    H2 4980   6.256   1.246   4.783  0.0203 -0.9292  0.0145
 1675TIP3   OH2 4981   5.210   5.527   3.341  0.1749 -0.7347 -0.2886
 1675TIP3    H1 4982   5.251   5.564   3.419  0.2036 -1.0842 -0.1371
 1675TIP3    H2 4983   5.202   5.601   3.281  1.5515 -0.7781 -0.5445
 1676TIP3   OH2 4984   5.303   5.183   3.703  0.1079  0.0883 -0.2593
 1676TIP3    H1 4985   5.276   5.274   3.714 -0.2127 -0.1491  1.2164
 1676TIP3    H2 4986   5.376   5.186   3.642 -0.4146  1.2451 -0.8472
 1677TIP3   OH2 4987   5.707   5.272   4.788 -0.2894  0.0205 -0.2363
 1677TIP3    H1 4988   5.726   5.211   4.717  1.7766  1.6248 -1.1835
 1677TIP3    H2 4989   5.662   5.345   4.744  0.9497  0.9958  0.0562
 1678TIP3   OH2 4990   5.432   0.419   5.420 -0.0143 -0.3265 -0.2428
 1678TIP3    H1 4991   5.489   0.413   5.344 -1.3375  1.3075 -1.4430
 1678TIP3    H2 4992   5.354   0.369   5.395 -2.0348  3.1245 -1.6263
 1679TIP3   OH2 4993   6.027   1.418   4.156 -0.3843 -0.0973 -0.0445
 1679TIP3    H1 4994   6.103   1.385   4.108 -0.3219  0.1037 -0.0857
 1679TIP3    H2 4995   5.991   1.486   4.099 -0.0108  0.4938  0.4135
 1680TIP3   OH2 4996   3.591   0.241   1.666  0.2291  0.8569 -0.1826
 1680TIP3    H1 4997   3.520   0.214   1.607 -0.4958  1.5784  0.3492
 1680TIP3    H2 4998   3.670   0.205   1.625 -0.5421 -1.0356 -0.1536
 1681TIP3   OH2 4999   0.984   2.743   1.753  0.1202 -0.4907  0.0120
 1681TIP3    H1 5000   0.909   2.703   1.709  0.5716  0.6494 -1.8987
 1681TIP3    H2 5001   0.983   2.834   1.723  0.5734  0.3220  2.2758
 1682TIP3   OH2 5002   4.113   2.356   2.456  0.4035 -0.1674  0.1291
 1682TIP3    H1 5003   4.091   2.349   2.549 -0.1285 -0.9948 -0.0445
 1682TIP3    H2 5004   4.031   2.335   2.411  0.1300  2.1365 -0.5347
 1683TIP3   OH2 5005   2.330   5.759   0.062 -0.0432  0.0126 -0.1456
 1683TIP3    H1 5006   2.287   5.811  -0.006  0.6116 -0.8923 -1.2995
 1683TIP3    H2 5007   2.282   5.779   0.142 -2.0435 -0.2640 -1.2059
 1684TIP3   OH2 5008   5.229   4.642   0.775  0.5361  0.5316 -0.1963
 1684TIP3    H1 5009   5.256   4.730   0.748  2.1037 -0.0358 -0.5587
 1684TIP3    H2 5010   5.306   4.587   0.758 -0.2830 -0.8371  0.4042
 1685TIP3   OH2 5011   4.612   4.409   2.975 -0.1108 -0.0583 -0.6096
 1685TIP3    H1 5012   4.639   4.492   2.937 -0.0799  0.3020  0.1678
 1685TIP3    H2 5013   4.692   4.359   2.986  0.1768  0.6507  0.8517
 1686TIP3   OH2 5014   6.240   6.909   3.382  0.2856  0.9467 -0.6318
 1686TIP3    H1 5015   6.237   6.834   3.323  0.5260  1.2585 -1.0547
 1686TIP3    H2 5016   6.332   6.934   3.383  0.3848  0.5898  0.3467
 1687TIP3   OH2 5017   4.993   1.445   3.662  0.1141 -0.1971 -0.1251
 1687TIP3    H1 5018   5.027   1.425   3.749  1.0307 -0.7445 -0.5872
 1687TIP3    H2 5019   4.988   1.360   3.618 -1.6184 -0.0954 -0.1829
 1688TIP3   OH2 5020   4.596   4.403   2.217  0.4022  0.1076 -0.1197
 1688TIP3    H1 5021   4.690   4.386   2.210  0.2550 -0.0652 -2.0829
 1688TIP3    H2 5022   4.586   4.495   2.195 -0.0489 -0.3422 -2.0212
 1689TIP3   OH2 5023   4.730   6.238   2.775 -0.4502 -0.5861 -0.1224
 1689TIP3    H1 5024   4.773   6.250   2.859 -3.0109 -1.7825  1.5034
 1689TIP3    H2 5025   4.642   6.208   2.798 -1.5189 -0.1800 -3.2313
 1690TIP3   OH2 5026   2.819   1.804   1.178  0.1058 -0.0316  0.5137
 1690TIP3    H1 5027   2.751   1.824   1.242 -0.1857  1.5520 -0.2377
 1690TIP3    H2 5028   2.777   1.819   1.093  0.6584 -1.4994 -0.0444
 1691TIP3   OH2 5029   4.132   4.173   6.136 -0.2774  0.5661 -0.0063
 1691TIP3    H1 5030   4.127   4.087   6.093 -0.3577  0.4952  0.1456
 1691TIP3    H2 5031   4.156   4.233   6.065 -0.9167  0.5296 -0.2640
 1692TIP3   OH2 5032   0.689   5.316   6.328 -0.2790  0.1167  0.3164
 1692TIP3    H1 5033   0.685   5.398   6.376 -0.4233  0.5535 -0.4230
 1692TIP3    H2 5034   0.726   5.253   6.390  1.3530  1.1117  0.3981
 1693TIP3   OH2 5035   2.072   3.947   6.450 -0.0576  0.0046 -0.1948
 1693TIP3    H1 5036   2.130   3.914   6.382  0.8677 -1.7991  1.3522
 1693TIP3    H2 5037   2.077   4.042   6.443  0.3967 -0.1329 -2.2772
 1694TIP3   OH2 5038   2.727   0.774   5.278 -0.4314 -0.2240 -0.1699
 1694TIP3    H1 5039   2.750   0.863   5.252 -0.4763 -0.0987  0.2010
 1694TIP3    H2 5040   2.641   0.783   5.319 -1.0791 -0.6562 -1.3821
 1695TIP3   OH2 5041   7.785   3.561   3.600 -0.1888 -0.1001 -0.5392
 1695TIP3    H1 5042   7.872   3.547   3.639 -0.7081  1.1432  1.1708
 1695TIP3    H2 5043   7.750   3.473   3.588  1.2850 -0.6255 -1.2410
 1696TIP3   OH2 5044   5.265   1.408   5.985  0.0047 -0.5101  0.5499
 1696TIP3    H1 5045   5.247   1.317   6.009 -2.8226 -0.0262  0.6957
 1696TIP3    H2 5046   5.255   1.410   5.890  0.0583 -0.3572  0.5473
 1697TIP3   OH2 5047   3.784   4.007   6.298  0.1905 -0.3003 -0.4383
 1697TIP3    H1 5048   3.811   4.060   6.223  1.1243 -0.4289 -0.2081
 1697TIP3    H2 5049   3.842   3.931   6.295 -0.1323 -0.5728  0.1033
 1698TIP3   OH2 5050   2.411   2.376   0.244  0.0939 -0.1687  0.3335
 1698TIP3    H1 5051   2.361   2.458   0.244 -0.9876 -0.7658 -1.6095
 1698TIP3    H2 5052   2.450   2.372   0.157  0.5646 -1.4725  0.5846
 1699TIP3   OH2 5053   0.549   4.016   2.888  0.5819  0.0550  0.2802
 1699TIP3    H1 5054   0.489   3.941   2.892  1.7525 -1.0079 -1.0370
 1699TIP3    H2 5055   0.500   4.083   2.840 -0.5028  0.1896  1.5149
 1700TIP3   OH2 5056   4.315   4.357   2.339  0.2301 -0.3758  0.3415
 1700TIP3    H1 5057   4.250   4.299   2.300 -0.5357 -1.2154  2.6768
 1700TIP3    H2 5058   4.396   4.336   2.292 -0.6042 -1.2941 -0.7692
 1701TIP3   OH2 5059   2.738   4.695   5.014  0.2935 -0.2925  0.0668
 1701TIP3    H1 5060   2.725   4.736   5.099 -0.2606 -0.6662  0.1716
 1701TIP3    H2 5061   2.650   4.692   4.975  0.4275 -0.7667 -0.2164
 1702TIP3   OH2 5062   4.670   4.086   4.353  0.2241 -0.5354  0.0698
 1702TIP3    H1 5063   4.587   4.041   4.369  0.7784 -1.4097  0.5952
 1702TIP3    H2 5064   4.730   4.051   4.419  0.9381  0.2925 -0.1135
 1703TIP3   OH2 5065   4.181   5.235   4.458 -0.4812 -0.4011 -0.7190
 1703TIP3    H1 5066   4.201   5.329   4.450 -1.5039 -0.2045 -1.2322
 1703TIP3    H2 5067   4.221   5.195   4.381  1.5272 -0.7069  0.4122
 1704TIP3   OH2 5068   7.439   0.866   3.862  0.0653  0.0228 -1.4257
 1704TIP3    H1 5069   7.466   0.789   3.912 -0.0672  0.5828 -0.4684
 1704TIP3    H2 5070   7.344   0.856   3.853 -0.1143  0.5758 -0.3801
 1705TIP3   OH2 5071   2.188   1.704   1.259 -0.0624  0.6894 -0.2999
 1705TIP3    H1 5072   2.228   1.742   1.181  0.1223  0.3989 -0.3478
 1705TIP3    H2 5073   2.110   1.757   1.274  0.7853  1.8114  0.2894
 1706TIP3   OH2 5074   3.014   7.309   1.100  0.1818  0.3953 -0.2952
 1706TIP3    H1 5075   3.098   7.353   1.088 -0.3052  1.0197 -1.6716
 1706TIP3    H2 5076   2.951   7.381   1.113 -0.2838 -0.0083 -0.2844
 1707TIP3   OH2 5077   1.115   0.833   1.428  0.4936 -0.3220 -0.6059
 1707TIP3    H1 5078   1.204   0.820   1.396  0.2063 -2.2334 -0.7009
 1707TIP3    H2 5079   1.121   0.910   1.485  2.9182 -2.1892  1.9279
 1708TIP3   OH2 5080   0.501   6.425   6.519  0.1679  0.4176  0.7032
 1708TIP3    H1 5081   0.436   6.488   6.488 -1.0365 -0.7784  0.7265
 1708TIP3    H2 5082   0.536   6.465   6.599 -1.0805  0.7578  1.1056
 1709TIP3   OH2 5083   3.894   7.556   3.530  0.3045  0.4329  0.5955
 1709TIP3    H1 5084   3.973   7.609   3.537  0.4851  0.1967  0.3895
 1709TIP3    H2 5085   3.839   7.602   3.467  0.7726 -0.0006 -0.1443
 1710TIP3   OH2 5086   7.719   1.515   6.480  0.5429  0.1721  0.5287
 1710TIP3    H1 5087   7.722   1.422   6.458  2.2068  0.1971  0.5455
 1710TIP3    H2 5088   7.739   1.518   6.574 -0.9980  0.4713  0.8885
 1711TIP3   OH2 5089   4.812   4.186   0.701 -0.3635 -0.3314 -0.1158
 1711TIP3    H1 5090   4.812   4.256   0.636  0.7489  0.1593  0.3815
 1711TIP3    H2 5091   4.890   4.134   0.680 -1.1707 -1.4325 -0.4769
 1712TIP3   OH2 5092   4.586   7.183   0.811 -0.4183 -0.4963  0.6663
 1712TIP3    H1 5093   4.627   7.255   0.765  0.9562 -2.0447 -0.6502
 1712TIP3    H2 5094   4.651   7.156   0.876 -0.9265 -0.5703  1.1568
 1713TIP3   OH2 5095   1.057   3.803   3.505 -0.1311  0.2918 -0.1346
 1713TIP3    H1 5096   1.062   3.715   3.469  0.0802  1.3319 -2.8594
 1713TIP3    H2 5097   0.971   3.835   3.478  0.0431  1.1540  0.2841
 1714TIP3   OH2 5098   6.019   4.662   2.280  0.0575 -0.0682  0.3204
 1714TIP3    H1 5099   6.059   4.583   2.315  0.6076  0.7058  1.4971
 1714TIP3    H2 5100   6.092   4.711   2.241 -0.5974 -1.1292 -2.4529
 1715TIP3   OH2 5101   2.254   2.246   2.004 -0.1228 -0.2699  0.0008
 1715TIP3    H1 5102   2.202   2.170   1.975  0.5311 -0.4100 -0.8344
 1715TIP3    H2 5103   2.328   2.208   2.050  0.7430 -0.2011 -1.2887
 1716TIP3   OH2 5104   8.158   4.298   3.943  0.2693 -0.2908 -0.3439
 1716TIP3    H1 5105   8.239   4.323   3.986  1.7705 -0.9246 -2.6279
 1716TIP3    H2 5106   8.116   4.237   4.003  0.7168  1.1283  1.5042
 1717TIP3   OH2 5107   3.102   6.664   3.110 -0.3310  0.2148 -0.5495
 1717TIP3    H1 5108   3.121   6.733   3.047 -0.8972  1.0387  0.1692
 1717TIP3    H2 5109   3.015   6.633   3.087 -0.1364 -0.1678 -0.7812
 1718TIP3   OH2 5110   0.743   4.406   1.609 -0.8232 -0.3830  0.1841
 1718TIP3    H1 5111   0.823   4.404   1.556 -1.3566 -0.9576 -0.6187
 1718TIP3    H2 5112   0.774   4.413   1.700  0.2652 -3.2287  0.1342
 1719TIP3   OH2 5113   4.761   1.000   0.607  0.4839 -0.2511 -0.1632
 1719TIP3    H1 5114   4.697   0.933   0.631  0.7841  0.0086  1.5152
 1719TIP3    H2 5115   4.764   1.058   0.683  2.9772 -0.4622 -0.0463
 1720TIP3   OH2 5116   4.336   0.934   4.602  0.2511  0.4382  0.1694
 1720TIP3    H1 5117   4.319   0.894   4.517  0.4144 -4.2960  2.0668
 1720TIP3    H2 5118   4.250   0.936   4.645  0.7400 -1.2777  1.3278
 1721TIP3   OH2 5119   6.563   6.085   4.392 -0.3287  0.4119  0.0243
 1721TIP3    H1 5120   6.496   6.072   4.325 -0.4056  0.2416  0.1353
 1721TIP3    H2 5121   6.612   6.003   4.394  0.3491  0.7892 -0.5717
 1722TIP3   OH2 5122   7.285   2.128   3.962  0.2095 -0.0880 -0.5457
 1722TIP3    H1 5123   7.371   2.146   4.001 -0.5080  0.1374  1.0388
 1722TIP3    H2 5124   7.226   2.124   4.037 -1.1353 -0.4632 -1.5883
 1723TIP3   OH2 5125   2.177   3.487   3.661 -0.0083 -0.3525  0.0323
 1723TIP3    H1 5126   2.099   3.469   3.609 -0.2171 -0.6305  0.4387
 1723TIP3    H2 5127   2.233   3.539   3.603 -0.2998 -0.5323 -0.4157
 1724TIP3   OH2 5128   3.909   5.633   5.275  0.1254 -0.0777 -0.3253
 1724TIP3    H1 5129   3.916   5.542   5.248 -0.1969 -0.3252  0.4038
 1724TIP3    H2 5130   3.824   5.661   5.242 -0.2914 -0.3956  0.4646
 1725TIP3   OH2 5131   1.789   1.744   4.525 -0.5341  0.2803  0.0908
 1725TIP3    H1 5132   1.840   1.663   4.527  0.8446  0.9741 -2.4921
 1725TIP3    H2 5133   1.709   1.719   4.478  0.0198  0.4442 -0.9667
 1726TIP3   OH2 5134   4.912   1.994   4.208  0.3776  0.1258  0.0425
 1726TIP3    H1 5135   4.902   1.909   4.251  0.6642  1.0869  2.1636
 1726TIP3    H2 5136   4.852   1.991   4.134  0.6616 -2.0456 -0.1814
 1727TIP3   OH2 5137   1.433   0.648   2.842  0.3257 -0.3890 -0.2147
 1727TIP3    H1 5138   1.343   0.669   2.815  0.1263 -2.2253 -1.1732
 1727TIP3    H2 5139   1.468   0.730   2.875 -0.4228  1.3410 -3.3370
 1728TIP3   OH2 5140   7.158   0.149   2.538  0.5090  0.5576  0.1233
 1728TIP3    H1 5141   7.094   0.221   2.538 -0.0532  0.1381 -1.8190
 1728TIP3    H2 5142   7.149   0.108   2.624 -0.4119  1.7430  0.6152
 1729TIP3   OH2 5143   7.546   6.563   1.531  0.5925 -0.0559  0.2153
 1729TIP3    H1 5144   7.609   6.630   1.501  0.3367 -0.1570 -0.5590
 1729TIP3    H2 5145   7.591   6.520   1.604  0.3391  1.6788  1.4634
 1730TIP3   OH2 5146   2.023   1.941   5.385  0.4563 -0.1902 -0.0595
 1730TIP3    H1 5147   1.994   1.852   5.405  0.3025 -0.4766 -1.4754
 1730TIP3    H2 5148   2.118   1.934   5.381  0.4177 -0.3900 -0.6288
 1731TIP3   OH2 5149   5.131   4.569   0.507 -0.3223 -0.6281 -0.5987
 1731TIP3    H1 5150   5.167   4.551   0.593  0.1573 -1.2293 -0.9195
 1731TIP3    H2 5151   5.183   4.516   0.447  0.1067  0.6270 -1.3966
 1732TIP3   OH2 5152   6.788   5.904   5.482  0.4391 -0.3314  0.1523
 1732TIP3    H1 5153   6.848   5.833   5.459  0.2196 -0.0710 -1.2994
 1732TIP3    H2 5154   6.702   5.874   5.452  0.4091  0.6992 -0.8585
 1733TIP3   OH2 5155   6.735   2.654   5.578 -0.6930  0.0327 -0.7649
 1733TIP3    H1 5156   6.703   2.743   5.563  0.3157  0.5388 -0.0634
 1733TIP3    H2 5157   6.709   2.635   5.668  1.7297  0.8455  0.1917
 1734TIP3   OH2 5158   4.029   1.861   5.862  0.3784  0.1027 -0.0727
 1734TIP3    H1 5159   3.968   1.789   5.880  0.6124 -0.1507 -0.2806
 1734TIP3    H2 5160   4.032   1.866   5.766  3.1334 -2.0294 -0.2249
 1735TIP3   OH2 5161   3.613   3.316   1.120  0.3553 -0.4586  0.4263
 1735TIP3    H1 5162   3.590   3.229   1.088  0.9934 -0.4844  0.0211
 1735TIP3    H2 5163   3.646   3.302   1.209  1.3121 -0.7539  0.0380
 1736TIP3   OH2 5164   4.540   1.878   2.518  0.0022  0.4652  0.1272
 1736TIP3    H1 5165   4.592   1.804   2.485 -0.4636  0.1419  0.0924
 1736TIP3    H2 5166   4.474   1.893   2.449 -1.4939 -0.7405  1.2221
 1737TIP3   OH2 5167   0.338   6.544   5.845  0.0701  0.0872  0.5064
 1737TIP3    H1 5168   0.404   6.612   5.835 -1.9366  1.8839 -1.7071
 1737TIP3    H2 5169   0.365   6.476   5.783 -0.4569  1.1488 -0.9520
 1738TIP3   OH2 5170   5.940   6.893   3.401  0.0076  0.2091  0.2978
 1738TIP3    H1 5171   5.899   6.923   3.320 -0.2341 -1.7060 -0.3256
 1738TIP3    H2 5172   6.034   6.905   3.386 -0.0471  0.0205 -0.1943
 1739TIP3   OH2 5173   4.193   5.118   0.323  0.4023  0.0401  0.0421
 1739TIP3    H1 5174   4.110   5.073   0.309  0.4939  0.2123 -1.1477
 1739TIP3    H2 5175   4.251   5.051   0.359  0.8690 -1.1920 -2.7030
 1740TIP3   OH2 5176   5.230   5.068   5.980 -0.2950 -0.7110  0.3834
 1740TIP3    H1 5177   5.312   5.099   6.018 -0.6253  1.7325 -0.7422
 1740TIP3    H2 5178   5.162   5.103   6.037 -0.6213 -1.4148  0.4363
 1741TIP3   OH2 5179   4.640   6.885   0.032  0.0081 -0.3264 -0.3446
 1741TIP3    H1 5180   4.599   6.968   0.008 -1.0140 -0.2653  1.4952
 1741TIP3    H2 5181   4.688   6.903   0.112 -1.7414 -1.8703  1.1416
 1742TIP3   OH2 5182   1.301   1.706   0.166  0.6761  0.1976 -0.1077
 1742TIP3    H1 5183   1.346   1.698   0.082  0.1862 -2.3979 -0.2183
 1742TIP3    H2 5184   1.312   1.797   0.191  1.5811  0.8380 -2.5667
 1743TIP3   OH2 5185   3.840   4.860   3.882 -0.1372  0.0593  0.7242
 1743TIP3    H1 5186   3.875   4.790   3.936  0.9649  0.8916  1.1450
 1743TIP3    H2 5187   3.910   4.880   3.819  0.1723  1.6933  1.5147
 1744TIP3   OH2 5188   2.913   3.529   6.212 -0.0005  0.5011  0.4139
 1744TIP3    H1 5189   2.833   3.532   6.264 -0.9169 -1.8141 -0.7581
 1744TIP3    H2 5190   2.947   3.440   6.223  1.4374  0.8854 -0.5522
 1745TIP3   OH2 5191   0.028   1.743   5.369 -0.0092 -0.0367 -0.1053
 1745TIP3    H1 5192   0.019   1.751   5.464  1.7449  0.0077  0.0875
 1745TIP3    H2 5193   0.122   1.753   5.353 -0.3099  0.2260 -1.8790
 1746TIP3   OH2 5194   3.687   1.628   2.646 -0.0372  0.1710 -0.4444
 1746TIP3    H1 5195   3.761   1.628   2.707 -1.1395 -0.2230  0.9607
 1746TIP3    H2 5196   3.611   1.644   2.702 -1.1506 -0.6628 -1.6775
 1747TIP3   OH2 5197   5.596   2.314   4.558 -0.7989  0.4986 -0.6180
 1747TIP3    H1 5198   5.525   2.280   4.504 -1.1006 -0.8968  0.6073
 1747TIP3    H2 5199   5.578   2.281   4.646  2.0681 -1.0709 -0.4871
 1748TIP3   OH2 5200   7.163   0.203   1.028 -0.3620 -0.1518 -0.6815
 1748TIP3    H1 5201   7.180   0.152   0.948  0.1365 -0.6110 -0.2954
 1748TIP3    H2 5202   7.225   0.276   1.023  1.1904 -1.3369  0.2880
 1749TIP3   OH2 5203   3.937   3.974   5.958  0.6314 -0.3085 -0.5929
 1749TIP3    H1 5204   3.869   3.912   5.933  0.5528 -0.4207 -0.1027
 1749TIP3    H2 5205   3.900   4.023   6.031  1.7620 -1.6825  1.0041
 1750TIP3   OH2 5206   1.350   2.196   5.993  0.3010 -0.1300 -0.0260
 1750TIP3    H1 5207   1.260   2.171   6.013  0.2551 -1.0581 -1.2480
 1750TIP3    H2 5208   1.398   2.114   5.992  0.9609  0.2537 -0.3347
 1751TIP3   OH2 5209   6.379   1.969   1.533 -0.6988 -0.2195  0.1259
 1751TIP3    H1 5210   6.453   1.921   1.496  0.0524  1.8618 -1.2842
 1751TIP3    H2 5211   6.306   1.952   1.473 -0.1648  1.0984 -0.9614
 1752TIP3   OH2 5212   2.870   2.575   1.995 -0.3180 -0.2819  0.5456
 1752TIP3    H1 5213   2.824   2.611   2.071 -0.0974 -0.2019  0.6429
 1752TIP3    H2 5214   2.962   2.592   2.013 -0.4143  3.6410 -1.6506
 1753TIP3   OH2 5215   4.175   5.319   4.937  0.1799 -0.7692 -0.3840
 1753TIP3    H1 5216   4.203   5.245   4.991 -1.4716 -0.4852  0.9459
 1753TIP3    H2 5217   4.239   5.388   4.955  0.6494 -1.2541 -0.1644
 1754TIP3   OH2 5218   3.781   7.066   2.621 -0.4612  0.8332 -0.4922
 1754TIP3    H1 5219   3.777   7.143   2.678  0.3646 -0.4635  1.4310
 1754TIP3    H2 5220   3.721   7.003   2.662  1.9939 -1.0283  0.4922
 1755TIP3   OH2 5221   6.660   5.191   3.857 -0.1496  0.3933  0.1733
 1755TIP3    H1 5222   6.680   5.133   3.931  2.4648  1.8295  0.7280
 1755TIP3    H2 5223   6.597   5.254   3.893 -0.3102 -0.0133  0.6199
 1756TIP3   OH2 5224   5.728   1.102   0.139 -0.2641  0.1343  0.9537
 1756TIP3    H1 5225   5.737   1.118   0.045 -1.0306  1.1027  1.0308
 1756TIP3    H2 5226   5.818   1.093   0.170  0.0196  0.3353  0.2149
 1757TIP3   OH2 5227   3.175   4.334   4.248  0.0511 -0.1660 -0.2978
 1757TIP3    H1 5228   3.253   4.317   4.302 -0.3872 -1.8275 -0.1396
 1757TIP3    H2 5229   3.101   4.321   4.307 -0.3844  1.5823 -0.4031
 1758TIP3   OH2 5230   3.308   0.879   2.378 -0.2468 -0.1396  0.3388
 1758TIP3    H1 5231   3.310   0.926   2.461  1.4046  0.8788 -0.2442
 1758TIP3    H2 5232   3.234   0.916   2.331  1.0835  2.0494 -0.1578
 1759TIP3   OH2 5233   5.432   0.017   1.348  0.0872  0.2763  0.6187
 1759TIP3    H1 5234   5.521   0.048   1.332 -0.7183  2.0595 -0.7674
 1759TIP3    H2 5235   5.426   0.012   1.443  1.0868  2.0655  0.8316
 1760TIP3   OH2 5236   7.422   7.400   0.575  0.7800  0.1460 -0.0667
 1760TIP3    H1 5237   7.435   7.495   0.574  2.4371 -0.0064  1.2801
 1760TIP3    H2 5238   7.377   7.383   0.658  0.5921 -0.2577 -0.2500
 1761TIP3   OH2 5239   2.596   2.365   1.268 -0.2132 -0.3043  0.5338
 1761TIP3    H1 5240   2.686   2.370   1.236 -0.2144 -0.1776  0.5516
 1761TIP3    H2 5241   2.542   2.362   1.189 -0.2163  0.0074  0.5234
 1762TIP3   OH2 5242   1.887   3.266   6.539 -0.3423  0.1226  0.0429
 1762TIP3    H1 5243   1.951   3.296   6.603 -0.8401  0.1639  0.5391
 1762TIP3    H2 5244   1.921   3.295   6.455  0.9605 -1.0178  0.1422
 1763TIP3   OH2 5245   6.929   2.981   1.464  0.1195 -0.0022 -0.2690
 1763TIP3    H1 5246   6.984   3.025   1.529 -0.0357 -0.6491  0.3081
 1763TIP3    H2 5247   6.977   2.901   1.443  0.3002  0.3292 -1.1637
 1764TIP3   OH2 5248   2.589   6.868   2.641 -0.2971  0.3959 -0.2207
 1764TIP3    H1 5249   2.555   6.784   2.609 -0.1341  0.1515  0.2349
 1764TIP3    H2 5250   2.657   6.844   2.704 -0.7880  0.8597  0.4990
 1765TIP3   OH2 5251   1.889   2.441   1.110 -0.3500  0.0921 -0.1122
 1765TIP3    H1 5252   1.932   2.394   1.182 -0.6498  0.2812  0.1938
 1765TIP3    H2 5253   1.795   2.424   1.124 -0.4364  0.5025 -0.1995
 1766TIP3   OH2 5254   4.196   5.852   6.601 -0.2059 -0.0430 -0.0043
 1766TIP3    H1 5255   4.166   5.798   6.528 -0.9722 -0.1458  0.3832
 1766TIP3    H2 5256   4.228   5.790   6.666  0.3927  0.0453 -0.2018
 1767TIP3   OH2 5257   0.568   4.033   1.079  0.1465 -0.4196  0.7257
 1767TIP3    H1 5258   0.631   3.961   1.070  1.1552  0.6250 -1.4042
 1767TIP3    H2 5259   0.616   4.110   1.049 -1.7773  0.6417  0.2428
 1768TIP3   OH2 5260   0.912   7.300   5.148 -0.0581  0.2958  0.0232
 1768TIP3    H1 5261   0.913   7.339   5.236  0.1049  2.2686 -0.8043
 1768TIP3    H2 5262   1.003   7.277   5.131  0.0043  0.4648  0.1284
 1769TIP3   OH2 5263   7.198   1.624   1.462 -0.1834 -0.2655 -0.1100
 1769TIP3    H1 5264   7.259   1.691   1.433  0.2307 -1.2593 -1.7256
 1769TIP3    H2 5265   7.252   1.546   1.474 -0.7606 -0.5138  0.9856
 1770TIP3   OH2 5266   3.725   4.974   3.089 -0.1628 -0.5516 -0.0969
 1770TIP3    H1 5267   3.734   5.053   3.143 -1.9295 -1.4515  1.6271
 1770TIP3    H2 5268   3.669   5.001   3.017 -0.1194 -0.0306  0.0563
 1771TIP3   OH2 5269   0.487   6.029   1.884 -0.3578  0.6947 -0.1428
 1771TIP3    H1 5270   0.553   6.018   1.815  0.9105 -0.9811  1.2491
 1771TIP3    H2 5271   0.525   6.095   1.942  0.1175 -0.2749  0.6643
 1772TIP3   OH2 5272   3.292   1.462   2.803  0.5344 -0.2811  0.1280
 1772TIP3    H1 5273   3.373   1.417   2.782  0.3470  0.1845 -1.7452
 1772TIP3    H2 5274   3.318   1.553   2.817  0.0933  0.5515 -3.4626
 1773TIP3   OH2 5275   6.137   1.313   2.473 -0.2755 -0.3753 -0.0096
 1773TIP3    H1 5276   6.122   1.256   2.397  0.5840 -0.4836 -0.1127
 1773TIP3    H2 5277   6.210   1.271   2.519 -0.2547  0.1408  0.4292
 1774TIP3   OH2 5278   5.726   2.910   2.664  0.7390  0.6407 -0.6104
 1774TIP3    H1 5279   5.713   2.958   2.582  2.4306  1.2795 -0.5348
 1774TIP3    H2 5280   5.687   2.967   2.731  3.8479  2.6798 -0.3465
 1775TIP3   OH2 5281   2.483   3.190   2.096 -0.5186  0.2877  0.6306
 1775TIP3    H1 5282   2.483   3.132   2.020  1.0196 -1.8066  2.1224
 1775TIP3    H2 5283   2.458   3.275   2.061 -1.4745 -0.9370 -1.9164
 1776TIP3   OH2 5284   0.443  -0.016   5.032 -0.3168  0.3569  0.3950
 1776TIP3    H1 5285   0.360   0.032   5.030  0.4305  1.6613 -0.3582
 1776TIP3    H2 5286   0.510   0.051   5.034  0.7901 -0.6124 -1.4959
 1777TIP3   OH2 5287   4.913   2.329   0.180  0.1658  0.0320 -0.0168
 1777TIP3    H1 5288   4.833   2.364   0.141  1.2836  0.4614 -2.0506
 1777TIP3    H2 5289   4.965   2.407   0.203  1.0827 -0.2210 -1.1396
 1778TIP3   OH2 5290   5.519   0.098   0.505  0.0423 -0.9459 -0.4212
 1778TIP3    H1 5291   5.529   0.040   0.580 -0.7729  1.2588  1.5343
 1778TIP3    H2 5292   5.591   0.161   0.515 -2.8364  2.3733  1.5708
 1779TIP3   OH2 5293   1.728   5.681   4.242  0.0030  0.5544  0.0727
 1779TIP3    H1 5294   1.811   5.651   4.203  0.0346 -0.1136  0.6338
 1779TIP3    H2 5295   1.733   5.653   4.333 -0.3517  1.5335  0.4070
 1780TIP3   OH2 5296   1.251   6.300   5.733  0.3062 -0.1861  0.2727
 1780TIP3    H1 5297   1.281   6.239   5.666  1.1875 -0.0639  0.5325
 1780TIP3    H2 5298   1.310   6.376   5.724  0.0336  0.0938  0.7698
 1781TIP3   OH2 5299   0.545   5.624   1.502  0.4281 -0.3388 -0.3631
 1781TIP3    H1 5300   0.499   5.540   1.507 -0.1933  0.0516  0.8468
 1781TIP3    H2 5301   0.608   5.622   1.574 -0.1530  0.5323  0.2008
 1782TIP3   OH2 5302   1.813   2.238   0.565 -0.4145  0.0770  0.2988
 1782TIP3    H1 5303   1.871   2.245   0.641  2.9330 -0.6074 -2.0035
 1782TIP3    H2 5304   1.784   2.147   0.566 -0.3602  0.0591  0.6895
 1783TIP3   OH2 5305   1.108   3.150   2.426 -0.0300  0.1590  0.2868
 1783TIP3    H1 5306   1.168   3.106   2.366  2.9704  0.2060  2.9797
 1783TIP3    H2 5307   1.047   3.082   2.453 -0.4385 -0.2482 -1.4930
 1784TIP3   OH2 5308   3.225   2.394   6.646  0.1594  0.2710  0.3436
 1784TIP3    H1 5309   3.247   2.311   6.603  1.3057  0.8654 -0.2768
 1784TIP3    H2 5310   3.258   2.385   6.735  0.6580  0.2055  0.1558
 1785TIP3   OH2 5311   8.176   7.183   1.183  0.1381  0.2655  0.2555
 1785TIP3    H1 5312   8.113   7.238   1.230  0.7313  1.5759 -0.4507
 1785TIP3    H2 5313   8.241   7.160   1.250  0.5580  1.4726  0.2794
 1786TIP3   OH2 5314   3.344   5.313   4.668  0.5621  0.3555 -0.2140
 1786TIP3    H1 5315   3.371   5.405   4.671  0.5026  0.4645 -2.0492
 1786TIP3    H2 5316   3.348   5.290   4.576 -1.4327 -0.9001 -0.0424
 1787TIP3   OH2 5317   0.524   4.954   1.234  0.3429  0.0945 -0.2575
 1787TIP3    H1 5318   0.450   5.009   1.208  0.4875 -0.2322 -1.3954
 1787TIP3    H2 5319   0.535   4.972   1.328  0.8740  2.5763 -0.7277
 1788TIP3   OH2 5320   5.374   2.364   0.807  0.0044 -0.2355  0.0335
 1788TIP3    H1 5321   5.304   2.425   0.781  0.4345 -0.6022 -2.1799
 1788TIP3    H2 5322   5.390   2.384   0.899 -0.2381  2.6495 -0.4596
 1789TIP3   OH2 5323   0.430   4.620   2.252  0.2052 -0.5621  0.2040
 1789TIP3    H1 5324   0.335   4.616   2.266  0.2337 -0.4232  0.4518
 1789TIP3    H2 5325   0.466   4.632   2.340  0.4258 -0.1553  0.0621
 1790TIP3   OH2 5326   2.773   4.679   5.945 -0.0932 -0.0066  0.4452
 1790TIP3    H1 5327   2.799   4.601   5.994  1.3609  0.3677  0.3287
 1790TIP3    H2 5328   2.824   4.675   5.864 -0.5365  0.7015  0.1199
 1791TIP3   OH2 5329   6.135   1.705   3.156 -0.2920 -0.3783  0.0814
 1791TIP3    H1 5330   6.189   1.753   3.220 -1.0520 -0.1530  0.5693
 1791TIP3    H2 5331   6.144   1.756   3.075  1.6830 -1.3512 -0.3841
 1792TIP3   OH2 5332   5.697   3.307   1.694 -0.1791 -0.0141  0.7517
 1792TIP3    H1 5333   5.780   3.268   1.720  0.8781  1.0697 -0.7785
 1792TIP3    H2 5334   5.631   3.242   1.717  1.1147 -1.0321  1.7278
 1793TIP3   OH2 5335   7.009   5.165   0.429  0.1531 -0.2785  0.9575
 1793TIP3    H1 5336   7.016   5.108   0.506 -0.1233 -0.9058  0.5236
 1793TIP3    H2 5337   6.990   5.106   0.357  1.5624  0.1664  0.1858
 1794TIP3   OH2 5338   0.578   3.716   6.467  0.2502  0.0826 -0.2612
 1794TIP3    H1 5339   0.505   3.777   6.466 -0.7854 -0.7665  4.1027
 1794TIP3    H2 5340   0.549   3.642   6.413 -3.2079 -1.1430  2.8949
 1795TIP3   OH2 5341   2.322   3.010   2.281 -0.1765 -0.2035 -0.0383
 1795TIP3    H1 5342   2.385   2.972   2.342 -0.5091 -2.9488 -1.2528
 1795TIP3    H2 5343   2.376   3.048   2.211  0.1576  1.1964  0.9475
 1796TIP3   OH2 5344   2.053   6.442   5.758  0.2584 -0.1428 -0.5022
 1796TIP3    H1 5345   2.042   6.353   5.726  2.7294  0.0809 -2.2467
 1796TIP3    H2 5346   2.059   6.496   5.679 -3.0239  1.9530  0.4732
 1797TIP3   OH2 5347   7.346   0.392   2.755  0.7110  0.6120 -0.0779
 1797TIP3    H1 5348   7.267   0.395   2.808 -0.3358 -0.7350 -1.4609
 1797TIP3    H2 5349   7.326   0.446   2.679  1.4447  0.9505 -0.0375
 1798TIP3   OH2 5350   6.853   6.396   5.830 -0.0232 -0.5117  0.0432
 1798TIP3    H1 5351   6.842   6.465   5.765  0.2430 -0.2252  0.3016
 1798TIP3    H2 5352   6.780   6.336   5.813  0.6729 -1.0383 -1.2583
 1799TIP3   OH2 5353   4.129   5.769   1.725 -0.5423 -0.7055  0.4027
 1799TIP3    H1 5354   4.097   5.845   1.775 -1.1641 -0.7214  0.0414
 1799TIP3    H2 5355   4.186   5.722   1.787  0.4576  0.4540  0.3888
 1800TIP3   OH2 5356   1.086   4.921   4.244  0.1344  0.4632 -0.3501
 1800TIP3    H1 5357   1.088   4.844   4.187  0.9803  0.4129 -0.2559
 1800TIP3    H2 5358   1.105   4.888   4.331 -1.2056  0.5356 -0.0086
 1801TIP3   OH2 5359   3.377   6.801   6.469  0.4163  0.1310 -0.5289
 1801TIP3    H1 5360   3.296   6.834   6.508 -0.4668  0.8453 -2.7801
 1801TIP3    H2 5361   3.367   6.706   6.469  0.9229  0.0140  1.8164
 1802TIP3   OH2 5362   5.168   2.791   5.654 -0.3899 -0.1658 -0.2626
 1802TIP3    H1 5363   5.196   2.707   5.615  1.1987  0.5641 -0.7867
 1802TIP3    H2 5364   5.074   2.794   5.640 -0.1771 -0.9496 -2.0771
 1803TIP3   OH2 5365   5.061   2.161   3.042 -0.1165  0.2020  0.4869
 1803TIP3    H1 5366   5.125   2.232   3.047  0.1703 -0.0296  0.1161
 1803TIP3    H2 5367   5.013   2.167   3.125  0.3815  0.3770  0.7693
 1804TIP3   OH2 5368   2.818   6.388   5.830 -0.5712  0.4926  0.0252
 1804TIP3    H1 5369   2.807   6.294   5.843 -0.7485  0.4874 -0.1642
 1804TIP3    H2 5370   2.790   6.404   5.740  0.5971  0.5452 -0.3443
 1805TIP3   OH2 5371   2.197   1.176   4.787  0.1119  0.0359 -0.1778
 1805TIP3    H1 5372   2.284   1.204   4.759 -0.0085  1.8989  1.1258
 1805TIP3    H2 5373   2.208   1.085   4.812  1.5667  0.0956 -0.5082
 1806TIP3   OH2 5374   0.583   2.105   5.977 -0.6427 -0.1357  0.0896
 1806TIP3    H1 5375   0.505   2.141   6.019 -0.8129 -2.6538  2.1171
 1806TIP3    H2 5376   0.656   2.133   6.032 -0.2429  0.7533 -0.8421
 1807TIP3   OH2 5377   0.263   2.419   5.844  0.3634 -0.2723 -0.0862
 1807TIP3    H1 5378   0.342   2.422   5.790  0.3514 -0.0632 -0.0948
 1807TIP3    H2 5379   0.289   2.373   5.923  0.3270 -0.7663 -0.3563
 1808TIP3   OH2 5380   2.061   7.228   0.618  0.2388 -0.2317  0.5008
 1808TIP3    H1 5381   1.993   7.291   0.641 -0.8424 -0.4217 -1.8345
 1808TIP3    H2 5382   2.117   7.222   0.696 -0.5053  2.4089  1.3327
 1809TIP3   OH2 5383   4.446   7.544   0.829 -0.1136  0.4325  0.7493
 1809TIP3    H1 5384   4.537   7.532   0.858  0.2351  0.6420 -0.2190
 1809TIP3    H2 5385   4.445   7.511   0.740 -1.0012  0.4159  0.7602
 1810TIP3   OH2 5386   1.323   4.726   0.770 -0.4196  0.0188  0.7330
 1810TIP3    H1 5387   1.379   4.771   0.833  0.3150 -0.2854  0.3011
 1810TIP3    H2 5388   1.334   4.633   0.790 -3.4847 -0.0237  2.9863
 1811TIP3   OH2 5389   1.619   4.832   1.201 -0.3119  0.4235  0.8907
 1811TIP3    H1 5390   1.604   4.848   1.294  0.6874 -2.1985  1.5803
 1811TIP3    H2 5391   1.659   4.913   1.169  0.0741  1.0794  2.9311
 1812TIP3   OH2 5392   3.749   7.237   3.669  0.4168  0.2097 -0.3662
 1812TIP3    H1 5393   3.655   7.223   3.664  0.1562  2.0005 -4.3454
 1812TIP3    H2 5394   3.781   7.216   3.581  3.6711  0.2105  0.6849
 1813TIP3   OH2 5395   7.079   4.920   4.734 -0.2007  0.1041 -0.0423
 1813TIP3    H1 5396   7.000   4.867   4.747 -0.4502  0.2686 -0.8461
 1813TIP3    H2 5397   7.120   4.923   4.821 -1.0196 -0.0661  0.3620
 1814TIP3   OH2 5398   7.245   6.150   6.678  0.2081  0.1069 -0.2705
 1814TIP3    H1 5399   7.340   6.142   6.688 -0.0922 -1.6648  1.8141
 1814TIP3    H2 5400   7.218   6.070   6.632 -0.4195 -0.0697  0.3925
 1815TIP3   OH2 5401   3.848   6.438   5.931 -0.3253 -0.7875 -0.2658
 1815TIP3    H1 5402   3.857   6.349   5.898 -0.9446 -1.6606  1.7580
 1815TIP3    H2 5403   3.937   6.464   5.955 -0.0059 -0.4772 -1.7078
 1816TIP3   OH2 5404   3.817   2.099   5.741  0.0967 -0.3894 -0.1397
 1816TIP3    H1 5405   3.811   2.016   5.789  0.6639  0.7441  2.0358
 1816TIP3    H2 5406   3.822   2.166   5.810  0.0188  1.4363 -1.8217
 1817TIP3   OH2 5407   6.461   1.832   6.520 -0.2441  0.1893  0.5416
 1817TIP3    H1 5408   6.529   1.819   6.586  0.7694 -1.6658 -0.7733
 1817TIP3    H2 5409   6.392   1.769   6.543  0.6394 -1.3309 -0.7509
 1818TIP3   OH2 5410   1.926   6.607   1.095 -0.0914  0.3426 -0.2683
 1818TIP3    H1 5411   1.889   6.526   1.059 -0.3308  1.1751 -1.9890
 1818TIP3    H2 5412   2.020   6.600   1.078  0.0442 -0.0201  0.5543
 1819TIP3   OH2 5413   2.854   2.327   3.062  0.5098 -0.1515  0.0547
 1819TIP3    H1 5414   2.912   2.306   3.135  1.4198  1.3348 -0.1867
 1819TIP3    H2 5415   2.847   2.422   3.064 -0.5793 -0.1925 -0.9558
 1820TIP3   OH2 5416   7.328   4.031   3.126 -0.0410  0.2065  0.4280
 1820TIP3    H1 5417   7.265   3.982   3.179  0.8256 -1.8794 -0.3711
 1820TIP3    H2 5418   7.326   3.987   3.040  1.6719  0.7992  0.0479
 1821TIP3   OH2 5419   1.807   4.432   4.712  0.2068 -0.2414 -0.5136
 1821TIP3    H1 5420   1.744   4.504   4.714  0.5278  0.0359 -0.2935
 1821TIP3    H2 5421   1.833   4.426   4.620  1.6084  1.1898 -0.2549
 1822TIP3   OH2 5422   3.145   6.716   1.167 -0.3461  0.1574 -0.1204
 1822TIP3    H1 5423   3.178   6.747   1.082 -0.8682  0.9445 -0.0509
 1822TIP3    H2 5424   3.052   6.736   1.164 -0.4737 -0.3579  0.4116
 1823TIP3   OH2 5425   5.670   1.337   4.346  0.4384 -0.1050  0.3554
 1823TIP3    H1 5426   5.727   1.260   4.345 -0.0378 -0.4584 -0.0188
 1823TIP3    H2 5427   5.698   1.386   4.424 -0.2337 -1.3958  1.4610
 1824TIP3   OH2 5428   7.157   3.394   6.532 -0.3429  0.1778 -0.1564
 1824TIP3    H1 5429   7.135   3.335   6.460 -0.2048 -0.4311  0.2907
 1824TIP3    H2 5430   7.234   3.354   6.573  0.2285  1.0802 -0.3183
 1825TIP3   OH2 5431   7.638   4.983   3.342  0.1129 -0.2472 -0.0190
 1825TIP3    H1 5432   7.628   4.985   3.437 -0.5833 -1.2885 -0.0588
 1825TIP3    H2 5433   7.654   5.074   3.318  2.5867 -0.2593  1.3089
 1826TIP3   OH2 5434   7.455   2.652   2.575  0.2038  0.1533  0.6835
 1826TIP3    H1 5435   7.383   2.661   2.637  0.2650  0.3043  0.7324
 1826TIP3    H2 5436   7.532   2.637   2.629  0.3698  0.9439  0.6846
 1827TIP3   OH2 5437   2.687   3.833   2.868  0.3007 -0.0992  0.2340
 1827TIP3    H1 5438   2.612   3.867   2.819  0.6907 -1.2331 -1.2373
 1827TIP3    H2 5439   2.680   3.873   2.954 -1.2170  0.8861 -0.3094
 1828TIP3   OH2 5440   5.792   4.503   4.792 -0.4548 -0.1747  0.2007
 1828TIP3    H1 5441   5.720   4.476   4.849 -0.0010  1.2042  1.4787
 1828TIP3    H2 5442   5.772   4.593   4.768  0.0791 -0.2821 -0.7067
 1829TIP3   OH2 5443   0.795   4.025   0.102  0.0917 -0.5066 -0.1948
 1829TIP3    H1 5444   0.856   3.963   0.142  0.3337 -1.7293 -2.2871
 1829TIP3    H2 5445   0.850   4.095   0.067  0.4337 -1.8220 -2.4565
 1830TIP3   OH2 5446   2.145   4.998   1.501  0.7419  0.2699  0.0908
 1830TIP3    H1 5447   2.211   5.000   1.433  1.8470  0.8053  1.1387
 1830TIP3    H2 5448   2.112   5.087   1.506 -0.0831  0.0071 -0.4240
 1831TIP3   OH2 5449   5.953   2.877   1.708 -0.4824 -0.2191 -0.0300
 1831TIP3    H1 5450   5.923   2.963   1.678  0.0272 -0.4673 -1.3343
 1831TIP3    H2 5451   5.998   2.894   1.791  1.1067  1.0450 -1.0884
 1832TIP3   OH2 5452   0.590   1.968   1.428  0.3143 -0.0796 -0.5610
 1832TIP3    H1 5453   0.523   1.993   1.490  0.5164  0.7337 -0.6582
 1832TIP3    H2 5454   0.554   1.893   1.382  0.5251 -1.2565  1.1313
 1833TIP3   OH2 5455   4.234   2.542   4.753 -0.4264  0.0264 -0.6029
 1833TIP3    H1 5456   4.235   2.458   4.707 -1.6818 -0.1319 -0.3887
 1833TIP3    H2 5457   4.307   2.591   4.715 -0.6305 -0.5761 -1.8303
 1834TIP3   OH2 5458   8.017   3.568   6.721 -0.0858  0.4876  0.1283
 1834TIP3    H1 5459   8.047   3.478   6.735  0.7465  0.9994  2.0033
 1834TIP3    H2 5460   8.094   3.621   6.740 -0.9161  1.6556  0.3138
 1835TIP3   OH2 5461   0.782   5.949   3.669  0.2580 -0.9239  0.7405
 1835TIP3    H1 5462   0.706   5.996   3.635  0.0209 -1.7600  0.0921
 1835TIP3    H2 5463   0.772   5.953   3.764  0.8340  1.2965  0.7840
 1836TIP3   OH2 5464   7.997   7.795   5.627 -0.3597 -0.0647  0.2847
 1836TIP3    H1 5465   8.018   7.863   5.563 -0.9273  0.4816  0.6649
 1836TIP3    H2 5466   7.957   7.725   5.575 -0.4730  0.2208 -0.0172
 1837TIP3   OH2 5467   6.166   2.109   0.299  0.6306  0.1250  0.2489
 1837TIP3    H1 5468   6.136   2.140   0.384  2.2659  2.2643  0.1345
 1837TIP3    H2 5469   6.258   2.137   0.295  1.2425 -1.8860 -1.3267
 1838TIP3   OH2 5470   0.227   0.556   2.015 -0.1716 -0.2902  0.4936
 1838TIP3    H1 5471   0.146   0.605   2.002  0.1849  0.3462  0.5996
 1838TIP3    H2 5472   0.240   0.556   2.110  1.1638  1.6820  0.3746
 1839TIP3   OH2 5473   4.138   2.307   2.752 -0.5620 -0.8618  0.2267
 1839TIP3    H1 5474   4.171   2.236   2.808  1.5682 -0.5096 -0.4948
 1839TIP3    H2 5475   4.043   2.294   2.751 -0.2604 -3.6842  0.1427
 1840TIP3   OH2 5476   2.342   1.675   1.852  0.3084 -0.1021  0.3071
 1840TIP3    H1 5477   2.248   1.691   1.847  0.4583  0.7127 -0.3147
 1840TIP3    H2 5478   2.360   1.660   1.945 -0.0824  2.2549  0.8249
 1841TIP3   OH2 5479   0.614   1.365   2.151 -0.2703 -0.1064 -0.6193
 1841TIP3    H1 5480   0.682   1.392   2.089  0.1728 -1.0093 -0.5440
 1841TIP3    H2 5481   0.662   1.342   2.231 -0.5267 -1.7928 -0.9053
 1842TIP3   OH2 5482   3.122   5.402   6.200 -0.6117  0.1559  0.5632
 1842TIP3    H1 5483   3.029   5.401   6.178 -0.7211 -0.9910  1.0076
 1842TIP3    H2 5484   3.158   5.325   6.157  0.7185  2.0083 -1.8437
 1843TIP3   OH2 5485   4.436   5.513   6.463 -0.0646 -0.2925 -0.0844
 1843TIP3    H1 5486   4.420   5.543   6.553 -0.7371 -1.2024  0.1113
 1843TIP3    H2 5487   4.364   5.453   6.444  0.2105 -0.3131 -1.1465
 1844TIP3   OH2 5488   2.185   7.489   5.991 -0.1546  0.8412 -0.1798
 1844TIP3    H1 5489   2.196   7.411   5.936  0.0852  1.0444 -0.4223
 1844TIP3    H2 5490   2.210   7.460   6.079 -0.6147  0.4919 -0.1545
 1845TIP3   OH2 5491   0.692   0.532   3.016 -0.4188  0.3792  0.5967
 1845TIP3    H1 5492   0.772   0.584   3.014 -0.0623 -0.1068 -2.3528
 1845TIP3    H2 5493   0.721   0.444   3.039 -0.2905  0.4927  0.8597
 1846TIP3   OH2 5494   5.980   3.834   2.149 -0.2106  0.2926  0.5696
 1846TIP3    H1 5495   6.035   3.804   2.221  0.0663 -0.6394 -0.0176
 1846TIP3    H2 5496   6.039   3.885   2.094 -0.0239 -0.3318  0.1765
 1847TIP3   OH2 5497   1.426   3.897   0.489 -0.3634 -0.0188  0.1719
 1847TIP3    H1 5498   1.421   3.802   0.489 -0.1264 -0.1040 -2.5511
 1847TIP3    H2 5499   1.495   3.918   0.552  0.5940 -1.7320 -0.2607
 1848TIP3   OH2 5500   2.451   3.912   5.597  0.4331  0.1976 -0.4520
 1848TIP3    H1 5501   2.391   3.885   5.527  1.7773  1.7915 -2.3063
 1848TIP3    H2 5502   2.404   3.889   5.678 -1.9254 -0.1723 -1.8170
 1849TIP3   OH2 5503   4.091   0.542   0.141  0.0527 -0.5515  0.2291
 1849TIP3    H1 5504   4.112   0.554   0.234 -0.9154 -1.6822  0.6044
 1849TIP3    H2 5505   4.176   0.532   0.099  0.5625  0.8668  0.8352
 1850TIP3   OH2 5506   6.366   2.310   5.084 -0.3523  0.2968  0.1043
 1850TIP3    H1 5507   6.313   2.283   5.159  0.0376 -0.3823  0.1468
 1850TIP3    H2 5508   6.386   2.228   5.038  0.1042  0.6148 -0.2782
 1851TIP3   OH2 5509   6.605   5.461   5.795 -0.4990 -0.6374 -0.4562
 1851TIP3    H1 5510   6.512   5.439   5.797 -0.7106  0.0689 -1.7853
 1851TIP3    H2 5511   6.617   5.510   5.714  0.4790  1.7075  0.9985
 1852TIP3   OH2 5512   5.691   0.153   3.968  0.2567 -0.1598  0.3992
 1852TIP3    H1 5513   5.693   0.104   3.885 -0.2714  1.8918 -0.8891
 1852TIP3    H2 5514   5.734   0.095   4.031  0.3218 -1.9507 -1.2088
 1853TIP3   OH2 5515   7.429   3.502   3.507  0.5025 -0.5435  0.1644
 1853TIP3    H1 5516   7.440   3.517   3.413  0.7480  0.3991  0.3262
 1853TIP3    H2 5517   7.513   3.465   3.536  0.3195 -1.1211 -0.0338
 1854TIP3   OH2 5518   0.662   7.405   1.047  0.1869 -0.2240  0.5571
 1854TIP3    H1 5519   0.712   7.442   0.975  0.2136 -1.2686  0.0137
 1854TIP3    H2 5520   0.572   7.435   1.032  0.5292  1.2254  1.2461
 1855TIP3   OH2 5521   6.382   1.844   3.870  0.0736  0.0412 -0.0102
 1855TIP3    H1 5522   6.407   1.800   3.789  2.1853 -1.3160  1.2853
 1855TIP3    H2 5523   6.459   1.835   3.926 -0.8345  2.1178  1.6869
 1856TIP3   OH2 5524   1.027   2.416   3.357  0.7981  0.0267 -0.4854
 1856TIP3    H1 5525   1.102   2.407   3.415  0.4918 -1.0214 -0.2244
 1856TIP3    H2 5526   0.974   2.484   3.396  0.9202 -0.2129  0.1089
 1857TIP3   OH2 5527   3.002   6.068   6.388 -0.1392  1.0775 -0.1906
 1857TIP3    H1 5528   2.945   6.136   6.424 -1.3208 -0.1163  0.2938
 1857TIP3    H2 5529   2.952   5.987   6.398  1.5953 -0.0186  0.1449
 1858TIP3   OH2 5530   3.661   7.224   5.032  0.2340  0.0883  0.3414
 1858TIP3    H1 5531   3.670   7.175   4.950 -0.2875 -0.6724  0.7349
 1858TIP3    H2 5532   3.715   7.303   5.018  2.1541 -1.1861  0.1919
 1859TIP3   OH2 5533   0.746   3.551   0.940 -0.6171  0.2738  0.3286
 1859TIP3    H1 5534   0.697   3.633   0.932  1.4329  1.5781  0.4207
 1859TIP3    H2 5535   0.764   3.543   1.034 -0.9035 -0.3705  0.3372
 1860TIP3   OH2 5536   2.597   6.628   0.495  0.4753 -0.2899 -0.1830
 1860TIP3    H1 5537   2.663   6.594   0.555 -0.1528  0.1722  0.7941
 1860TIP3    H2 5538   2.520   6.645   0.550 -0.0978  0.2242 -1.1007
 1861TIP3   OH2 5539   0.577   5.425   0.012  0.0846 -0.1128 -0.1547
 1861TIP3    H1 5540   0.510   5.484   0.044 -0.6766 -1.4075  0.7224
 1861TIP3    H2 5541   0.637   5.414   0.086  0.3123 -0.2937 -0.3637
 1862TIP3   OH2 5542   3.837   5.450   4.253 -0.0731 -0.3578  0.0387
 1862TIP3    H1 5543   3.791   5.534   4.260 -1.5371 -1.1488  0.4991
 1862TIP3    H2 5544   3.880   5.439   4.338  1.7796  0.7842 -0.6885
 1863TIP3   OH2 5545   3.799   3.398   6.464  0.5277 -0.2374  0.4228
 1863TIP3    H1 5546   3.785   3.439   6.550  2.2000 -0.2709  0.7407
 1863TIP3    H2 5547   3.791   3.304   6.481  2.5365 -0.3637  0.9479
 1864TIP3   OH2 5548   3.148   5.506   1.415 -0.0843  0.4436 -0.5581
 1864TIP3    H1 5549   3.128   5.441   1.347 -1.7658  2.6468 -2.3029
 1864TIP3    H2 5550   3.153   5.589   1.368 -1.1964  2.0614  2.0022
 1865TIP3   OH2 5551   1.907   2.706   4.532 -0.1491  0.2461 -0.0612
 1865TIP3    H1 5552   1.823   2.705   4.485 -0.0413 -1.6588 -0.3048
 1865TIP3    H2 5553   1.968   2.662   4.473 -0.2741 -3.3785  2.1678
 1866TIP3   OH2 5554   3.813   4.954   4.746  0.2043 -0.0884 -0.3291
 1866TIP3    H1 5555   3.771   4.964   4.831 -1.9989 -0.3458 -1.3193
 1866TIP3    H2 5556   3.906   4.970   4.763 -0.2258  0.2523  2.0280
 1867TIP3   OH2 5557   1.479   2.757   3.604 -0.3703 -0.1491  0.1201
 1867TIP3    H1 5558   1.518   2.786   3.522  0.0135  0.3746  0.4812
 1867TIP3    H2 5559   1.464   2.837   3.653  0.6027 -0.5311  1.0888
 1868TIP3   OH2 5560   4.456   0.204   3.790 -0.1657  0.4769  0.2946
 1868TIP3    H1 5561   4.526   0.269   3.796 -0.0433  0.4552 -0.7489
 1868TIP3    H2 5562   4.376   0.252   3.814  0.1366  0.6172  1.0312
 1869TIP3   OH2 5563   3.885   7.834   0.102  0.5216 -0.4918 -0.1022
 1869TIP3    H1 5564   3.892   7.788   0.018  1.2840  0.5840 -0.6467
 1869TIP3    H2 5565   3.960   7.803   0.153  0.7778 -0.1989 -0.2986
 1870TIP3   OH2 5566   3.330   1.169   0.808 -0.2360  0.2520 -0.1139
 1870TIP3    H1 5567   3.236   1.185   0.816 -0.4196 -1.5741  2.4311
 1870TIP3    H2 5568   3.369   1.220   0.878  0.7313  1.0786 -1.2153
 1871TIP3   OH2 5569   2.485   1.825   0.362 -0.0435  0.3079  0.3171
 1871TIP3    H1 5570   2.472   1.878   0.441  0.2632 -0.3410  0.8091
 1871TIP3    H2 5571   2.431   1.747   0.376  0.4655 -0.0784  0.1387
 1872TIP3   OH2 5572   0.566   6.335   2.518  0.2778  0.6085  0.0732
 1872TIP3    H1 5573   0.640   6.279   2.496  0.5114  0.1970  1.7469
 1872TIP3    H2 5574   0.501   6.318   2.449  1.0982 -0.2438 -0.5118
 1873TIP3   OH2 5575   2.693   2.979   6.455  0.0136 -0.6733  0.4354
 1873TIP3    H1 5576   2.724   2.892   6.477 -0.4121 -1.0378 -0.3561
 1873TIP3    H2 5577   2.742   3.038   6.512  1.7756 -1.2623 -0.4185
 1874TIP3   OH2 5578   4.376   5.300   1.439  0.7740  0.0257  0.0646
 1874TIP3    H1 5579   4.370   5.206   1.420 -1.2792  0.3060 -0.9188
 1874TIP3    H2 5580   4.469   5.320   1.431  1.2895 -1.9682  0.5524
 1875TIP3   OH2 5581   7.149   2.630   5.433  0.4029 -0.0031 -0.1150
 1875TIP3    H1 5582   7.064   2.585   5.442  0.2320 -0.6509 -3.6171
 1875TIP3    H2 5583   7.129   2.722   5.449 -0.8205 -0.2381 -0.1617
 1876TIP3   OH2 5584   6.422   4.106   0.347 -0.1378 -0.4182  0.1267
 1876TIP3    H1 5585   6.496   4.047   0.357 -0.1402 -0.3499  0.5334
 1876TIP3    H2 5586   6.453   4.191   0.377 -0.5885 -0.5418  0.9781
 1877TIP3   OH2 5587   3.895   2.925   3.810  0.4466  0.2154 -0.1884
 1877TIP3    H1 5588   3.900   2.988   3.883  0.3223  0.6340 -0.5388
 1877TIP3    H2 5589   3.802   2.919   3.790  0.1470 -1.9778  1.4675
 1878TIP3   OH2 5590   6.297   3.633   2.122  0.3094  0.5981  0.0192
 1878TIP3    H1 5591   6.277   3.670   2.208  0.2653  1.6617 -0.4338
 1878TIP3    H2 5592   6.286   3.538   2.134 -0.9725  0.8155  0.8595
 1879TIP3   OH2 5593   3.436   6.086   4.781  0.0657 -0.1651  0.3555
 1879TIP3    H1 5594   3.436   6.129   4.695  2.2813 -0.2080  0.2735
 1879TIP3    H2 5595   3.416   5.995   4.762 -1.9047  0.2570  0.2077
 1880TIP3   OH2 5596   6.126   2.118   3.332 -0.4843 -0.5570 -0.1859
 1880TIP3    H1 5597   6.182   2.119   3.254 -0.8153 -2.1386 -0.4720
 1880TIP3    H2 5598   6.188   2.117   3.405 -0.1712  1.3733 -0.3815
 1881TIP3   OH2 5599   4.092   6.289   1.475  0.2237  0.0727  0.5645
 1881TIP3    H1 5600   4.171   6.250   1.512  0.5578  0.6107  0.4292
 1881TIP3    H2 5601   4.057   6.345   1.544  0.6754  0.8330  0.1901
 1882TIP3   OH2 5602   4.108   2.079   4.315 -0.2638 -1.0197 -0.8483
 1882TIP3    H1 5603   4.140   2.026   4.242  1.6855 -1.5388  0.3342
 1882TIP3    H2 5604   4.143   2.037   4.393  0.9194  1.6821  0.1846
 1883TIP3   OH2 5605   4.608   7.464   1.121 -0.1193 -0.0321  0.7928
 1883TIP3    H1 5606   4.577   7.545   1.161  1.5131 -0.5649  3.3855
 1883TIP3    H2 5607   4.650   7.416   1.193  4.8974 -0.2209 -1.7832
 1884TIP3   OH2 5608   3.487   2.777   0.479 -0.4946 -0.2400 -0.6611
 1884TIP3    H1 5609   3.477   2.778   0.574  0.9862 -0.8065 -0.4619
 1884TIP3    H2 5610   3.403   2.806   0.445 -0.8063  0.7327  0.8386
 1885TIP3   OH2 5611   1.465   3.626   3.458 -0.0959 -0.4219  0.3231
 1885TIP3    H1 5612   1.413   3.547   3.441 -0.6637 -0.3166  1.4740
 1885TIP3    H2 5613   1.412   3.697   3.421 -0.2883 -0.4293  0.5787
 1886TIP3   OH2 5614   7.990   7.717   4.085 -0.6621 -0.8805  0.2876
 1886TIP3    H1 5615   8.041   7.689   4.161 -0.9874 -2.6363 -0.0979
 1886TIP3    H2 5616   8.049   7.707   4.011 -0.3472  0.8274  0.2744
 1887TIP3   OH2 5617   4.277   7.471   4.355 -0.7026 -0.4283 -0.0603
 1887TIP3    H1 5618   4.284   7.404   4.287 -0.4682  0.4808 -0.9726
 1887TIP3    H2 5619   4.231   7.543   4.312 -2.7358 -0.7276  1.4739
 1888TIP3   OH2 5620   1.019   5.785   0.507  0.3169  0.5182  0.9401
 1888TIP3    H1 5621   1.108   5.808   0.479  0.0326 -1.5861 -2.2649
 1888TIP3    H2 5622   1.030   5.713   0.568  0.9483 -1.6244 -1.4908
 1889TIP3   OH2 5623   3.734   7.767   1.958 -0.1529  0.4322 -0.1452
 1889TIP3    H1 5624   3.751   7.764   2.052 -0.6467  1.3499 -0.0091
 1889TIP3    H2 5625   3.804   7.715   1.919  0.9419  1.2862  0.6127
 1890TIP3   OH2 5626   7.478   0.212   4.289  1.2097 -0.3949  0.1651
 1890TIP3    H1 5627   7.474   0.122   4.256  0.5517 -0.8179  1.3368
 1890TIP3    H2 5628   7.411   0.259   4.238  0.0331 -1.0978  1.0121
 1891TIP3   OH2 5629   4.072   3.027   0.381 -1.3269 -0.1454  0.2206
 1891TIP3    H1 5630   4.098   3.082   0.455 -0.0524 -1.6979  0.9954
 1891TIP3    H2 5631   3.980   3.008   0.397 -0.8141 -1.3613  2.0834
 1892TIP3   OH2 5632   2.690   1.892   0.966  0.3706 -0.1118  0.1823
 1892TIP3    H1 5633   2.706   1.926   0.878 -1.3931  2.4611  0.7405
 1892TIP3    H2 5634   2.629   1.954   1.005  0.7122 -1.4339  3.0835
 1893TIP3   OH2 5635   0.603   4.800   6.016  0.2310 -0.4016  0.1631
 1893TIP3    H1 5636   0.553   4.719   6.023 -1.1899  0.2793 -1.4319
 1893TIP3    H2 5637   0.563   4.859   6.081 -0.1698 -0.2791 -0.1954
 1894TIP3   OH2 5638   3.824   2.958   0.753 -0.2997 -0.1199 -0.4907
 1894TIP3    H1 5639   3.819   2.889   0.686  0.7075 -1.1429  0.4559
 1894TIP3    H2 5640   3.758   3.022   0.726 -0.9449 -1.2278 -1.6485
 1895TIP3   OH2 5641   1.272   5.959   6.175 -0.1899  0.2726  0.2931
 1895TIP3    H1 5642   1.312   6.031   6.223  0.1306  1.4490 -1.6001
 1895TIP3    H2 5643   1.255   5.996   6.088 -0.0407 -1.9545 -0.7383
 1896TIP3   OH2 5644   4.522   1.369   3.221  0.2418 -0.2705  0.6471
 1896TIP3    H1 5645   4.444   1.400   3.266  0.5731  0.6621  0.5914
 1896TIP3    H2 5646   4.572   1.448   3.201  0.6381 -0.7572 -0.3658
 1897TIP3   OH2 5647   3.819   3.255   3.588  0.1289  0.2157 -0.4811
 1897TIP3    H1 5648   3.756   3.217   3.649 -0.9812  0.6373 -1.3480
 1897TIP3    H2 5649   3.775   3.330   3.550  0.6136 -0.2964 -2.1424
 1898TIP3   OH2 5650   6.591   5.289   3.146  0.1901 -0.0100 -0.2278
 1898TIP3    H1 5651   6.507   5.305   3.103  0.0256 -0.0011  0.0970
 1898TIP3    H2 5652   6.630   5.217   3.097  0.4320  0.6227 -0.9927
 1899TIP3   OH2 5653   4.021   3.609   1.122 -0.1762 -0.1229 -0.7243
 1899TIP3    H1 5654   3.951   3.547   1.105 -0.3582 -0.1568  0.1196
 1899TIP3    H2 5655   4.091   3.583   1.062  0.0905 -1.7058  0.2340
 1900TIP3   OH2 5656   5.991   4.798   4.357 -0.2117 -0.5109 -0.6854
 1900TIP3    H1 5657   6.087   4.806   4.366 -0.4293  2.7014  0.1831
 1900TIP3    H2 5658   5.964   4.883   4.322 -2.7897 -1.2918 -0.7407
 1901TIP3   OH2 5659   4.733   5.739   5.204 -0.5132  0.0409  0.6044
 1901TIP3    H1 5660   4.824   5.708   5.205 -0.2628  0.5210 -1.3533
 1901TIP3    H2 5661   4.734   5.817   5.259  0.8349  1.2906 -1.0446
 1902TIP3   OH2 5662   5.890   0.991   5.448 -0.1714  0.3016 -0.7679
 1902TIP3    H1 5663   5.959   0.955   5.504 -0.3287 -0.1258 -0.8478
 1902TIP3    H2 5664   5.817   1.008   5.507  0.3051  1.6176 -0.5167
 1903TIP3   OH2 5665   3.150   4.179   6.700  0.1403  0.0833  0.4950
 1903TIP3    H1 5666   3.149   4.275   6.706 -0.9893  0.1361 -0.1175
 1903TIP3    H2 5667   3.228   4.159   6.648  0.3615  0.6730  0.5911
 1904TIP3   OH2 5668   5.477   2.791   2.963 -0.7424 -0.2852  0.4178
 1904TIP3    H1 5669   5.570   2.776   2.980 -0.7200 -0.8556 -0.1875
 1904TIP3    H2 5670   5.447   2.842   3.039  0.4414  1.3822 -0.1636
 1905TIP3   OH2 5671   2.253   6.078   2.128 -0.7263  0.0075  0.1175
 1905TIP3    H1 5672   2.297   5.993   2.135 -0.1191  0.4391  2.7718
 1905TIP3    H2 5673   2.272   6.108   2.040  0.1782 -2.0038 -0.4362
 1906TIP3   OH2 5674   4.085   7.046   5.345 -0.4564  0.2953  0.0581
 1906TIP3    H1 5675   3.997   7.020   5.317 -1.0363  0.4160  1.6752
 1906TIP3    H2 5676   4.105   7.122   5.290 -1.7074  0.7520  0.1919
 1907TIP3   OH2 5677   4.400   6.641   1.316 -0.1061  0.5748 -0.7451
 1907TIP3    H1 5678   4.349   6.573   1.272 -0.2896  1.4917 -2.0254
 1907TIP3    H2 5679   4.461   6.671   1.249  0.7827  0.8530  0.1689
 1908TIP3   OH2 5680   7.872   7.602   3.411  0.3006 -0.0877 -0.0658
 1908TIP3    H1 5681   7.961   7.634   3.397 -0.2847  1.8395  0.3393
 1908TIP3    H2 5682   7.838   7.584   3.323  1.7222 -2.9036 -0.1592
 1909TIP3   OH2 5683   1.194   0.826   5.184  0.1080  0.1529 -0.0955
 1909TIP3    H1 5684   1.213   0.739   5.148 -0.1069  0.3858 -0.7745
 1909TIP3    H2 5685   1.237   0.887   5.124 -0.5616  0.5634 -0.1589
 1910TIP3   OH2 5686   7.867   7.814   6.346  0.3217 -0.5427  0.1447
 1910TIP3    H1 5687   7.783   7.858   6.335  1.3099  1.9912  1.8520
 1910TIP3    H2 5688   7.902   7.806   6.258 -0.6839  0.5448 -0.3762
 1911TIP3   OH2 5689   6.978   4.551   3.043 -0.2277  0.2233  0.1148
 1911TIP3    H1 5690   6.971   4.487   2.972  2.1546 -0.0090 -0.0014
 1911TIP3    H2 5691   6.950   4.503   3.121 -1.7264  0.1145 -0.4632
 1912TIP3   OH2 5692   1.113   3.309   5.184  0.0699 -0.4133  0.2590
 1912TIP3    H1 5693   1.190   3.252   5.193  0.4463 -0.2556 -1.5837
 1912TIP3    H2 5694   1.146   3.396   5.205  0.3969 -0.3577 -0.4529
 1913TIP3   OH2 5695   2.627   5.760   0.944  0.5708  0.1837 -0.2872
 1913TIP3    H1 5696   2.591   5.726   1.026 -0.4295  1.8297  0.0078
 1913TIP3    H2 5697   2.671   5.685   0.904  0.9829 -0.6819  1.6815
 1914TIP3   OH2 5698   7.936   2.186   1.728  0.1663 -0.0808  0.2394
 1914TIP3    H1 5699   8.006   2.154   1.670  2.3795  2.4646  1.3193
 1914TIP3    H2 5700   7.925   2.116   1.792  0.9537 -0.9979 -0.5878
 1915TIP3   OH2 5701   0.654   1.713   3.752  0.5675  0.6577 -0.9678
 1915TIP3    H1 5702   0.702   1.762   3.819  0.8668 -0.3649 -0.4139
 1915TIP3    H2 5703   0.562   1.732   3.769  0.6251  0.1659 -0.0623
 1916TIP3   OH2 5704   3.090   7.218   2.637 -0.4825  0.0228  0.7144
 1916TIP3    H1 5705   3.101   7.225   2.542  0.6606  1.5216  0.9097
 1916TIP3    H2 5706   3.000   7.245   2.653 -0.4163  0.6158  0.1204
 1917TIP3   OH2 5707   3.575   6.568   5.183 -0.3162  0.1693  0.3008
 1917TIP3    H1 5708   3.538   6.614   5.108  0.8824  0.4803 -0.1023
 1917TIP3    H2 5709   3.574   6.475   5.158  0.7134  0.3326 -0.3855
 1918TIP3   OH2 5710   4.612   5.330   1.607 -0.1459  0.1774  0.0792
 1918TIP3    H1 5711   4.699   5.290   1.610  0.5439  1.6520  0.3349
 1918TIP3    H2 5712   4.552   5.259   1.631  0.7908 -1.3307 -1.7563
 1919TIP3   OH2 5713   3.740   2.121   4.125 -0.3365 -0.3727  0.0850
 1919TIP3    H1 5714   3.663   2.174   4.148 -1.1400 -1.0719 -0.9187
 1919TIP3    H2 5715   3.788   2.174   4.062 -0.5896 -0.4008 -0.1320
 1920TIP3   OH2 5716   6.206   5.071   6.626 -0.0254  0.2204  0.1526
 1920TIP3    H1 5717   6.141   5.002   6.627 -1.1183  1.1909  2.4075
 1920TIP3    H2 5718   6.158   5.151   6.648  1.4948  1.4169 -0.6057
 1921TIP3   OH2 5719   2.789   4.749   4.477  0.6730 -0.7157  0.3535
 1921TIP3    H1 5720   2.799   4.739   4.572 -1.6758  0.2514  0.7934
 1921TIP3    H2 5721   2.700   4.717   4.460  1.1083 -0.9909 -1.5683
 1922TIP3   OH2 5722   2.508   5.339   1.493 -0.5040  0.4852 -0.2834
 1922TIP3    H1 5723   2.428   5.382   1.462 -0.8107  0.0221 -0.1519
 1922TIP3    H2 5724   2.573   5.359   1.426 -0.4044  1.8625  0.2043
 1923TIP3   OH2 5725   3.371   2.661   4.512 -0.4247  0.4768  0.1570
 1923TIP3    H1 5726   3.277   2.678   4.502 -0.6120 -0.8720 -0.7805
 1923TIP3    H2 5727   3.375   2.588   4.574 -0.2179 -1.1424 -1.6474
 1924TIP3   OH2 5728   2.860   5.630   5.169  0.0947  0.4886 -0.1383
 1924TIP3    H1 5729   2.773   5.659   5.195  0.1002  1.0975 -0.7686
 1924TIP3    H2 5730   2.861   5.536   5.186 -0.3785  0.6310  0.6953
 1925TIP3   OH2 5731   2.014   7.810   6.558  0.4259 -0.0419  0.1753
 1925TIP3    H1 5732   1.980   7.760   6.483 -1.2186  1.1657  0.0550
 1925TIP3    H2 5733   1.953   7.883   6.567  2.6820  1.9411  0.3930
 1926TIP3   OH2 5734   4.347   7.780   0.497  0.0717 -0.6324 -0.4129
 1926TIP3    H1 5735   4.302   7.707   0.540  0.4622 -0.5488  0.1503
 1926TIP3    H2 5736   4.347   7.850   0.562 -0.1344 -0.1915 -0.8815
 1927TIP3   OH2 5737   6.048   4.782   0.585 -0.8010 -0.5547  0.1628
 1927TIP3    H1 5738   6.013   4.758   0.499  0.0170 -1.3784  0.0514
 1927TIP3    H2 5739   6.143   4.774   0.576 -0.5019  1.9430  0.3787
 1928TIP3   OH2 5740   3.325   2.284   5.798 -0.3337  0.3137  0.9349
 1928TIP3    H1 5741   3.402   2.242   5.759 -1.4285 -2.7103  1.7736
 1928TIP3    H2 5742   3.355   2.312   5.885 -0.0501 -0.5132  1.1143
 1929TIP3   OH2 5743   6.792   4.261   3.934  0.3951 -0.7691 -0.2417
 1929TIP3    H1 5744   6.845   4.340   3.937  0.5172 -0.8156 -0.9388
 1929TIP3    H2 5745   6.799   4.231   3.843  0.1761 -1.4577 -0.0385
 1930TIP3   OH2 5746   2.587   3.866   5.276  0.2513 -0.0753  0.1163
 1930TIP3    H1 5747   2.603   3.774   5.258 -1.0091 -0.6981  1.8722
 1930TIP3    H2 5748   2.561   3.868   5.368 -0.5902  1.9343 -0.1139
 1931TIP3   OH2 5749   5.155   3.154   5.043 -0.3447  0.6372 -0.1249
 1931TIP3    H1 5750   5.243   3.191   5.057  0.2374 -0.8153  0.2200
 1931TIP3    H2 5751   5.095   3.222   5.073  0.5894  2.3705 -1.9589
 1932TIP3   OH2 5752   1.367   6.903   6.405  0.2654  0.3684  0.0633
 1932TIP3    H1 5753   1.404   6.876   6.489 -0.4444  1.9589  0.9350
 1932TIP3    H2 5754   1.275   6.921   6.424  0.0158  0.4474 -1.1351
 1933TIP3   OH2 5755   4.492   1.124   4.836  0.1545  0.5476  0.4007
 1933TIP3    H1 5756   4.529   1.126   4.748 -0.0487  0.1383  0.3029
 1933TIP3    H2 5757   4.399   1.145   4.824 -0.7657 -3.0498  0.0191
 1934TIP3   OH2 5758   6.763   0.896   2.379  0.0547 -0.0180  0.1640
 1934TIP3    H1 5759   6.819   0.819   2.371  0.0079 -0.1581  1.0814
 1934TIP3    H2 5760   6.706   0.877   2.453 -0.1426  0.7856  0.2327
 1935TIP3   OH2 5761   3.244   7.410   3.421 -0.2527 -0.2636  0.0615
 1935TIP3    H1 5762   3.249   7.428   3.515  2.7369 -2.9172  0.5774
 1935TIP3    H2 5763   3.310   7.467   3.382 -1.8867  1.2638 -0.6317
 1936TIP3   OH2 5764   6.828   0.613   0.200  0.2979  0.3701  0.0720
 1936TIP3    H1 5765   6.911   0.646   0.165 -0.4342  0.4424 -1.6926
 1936TIP3    H2 5766   6.792   0.686   0.250  0.0653  1.3090 -1.3981
 1937TIP3   OH2 5767   1.278   1.938   5.474  0.0432  0.3452  0.4880
 1937TIP3    H1 5768   1.291   1.997   5.548  1.0629 -0.3668  0.8956
 1937TIP3    H2 5769   1.265   1.851   5.514 -1.0203  0.2041 -0.1148
 1938TIP3   OH2 5770   5.975   2.445   1.131  1.1529 -0.8595 -0.3237
 1938TIP3    H1 5771   5.991   2.539   1.125  2.3387 -1.0579 -0.5524
 1938TIP3    H2 5772   6.049   2.405   1.085  0.9311 -1.9206  0.1996
 1939TIP3   OH2 5773   5.358   2.177   4.476 -1.0136 -0.0533  0.4268
 1939TIP3    H1 5774   5.284   2.213   4.526 -0.7117  2.0149 -0.4831
 1939TIP3    H2 5775   5.330   2.089   4.451 -1.2789 -1.1253  3.9232
 1940TIP3   OH2 5776   5.757   6.135   3.398  0.6595  0.1040  0.5476
 1940TIP3    H1 5777   5.675   6.122   3.445  0.9613  1.4822  1.5163
 1940TIP3    H2 5778   5.789   6.046   3.380 -1.5443 -0.4924 -0.8287
 1941TIP3   OH2 5779   5.603   2.584   4.088 -0.4939  0.2863 -0.3084
 1941TIP3    H1 5780   5.579   2.502   4.132  2.9864  0.2350  1.8875
 1941TIP3    H2 5781   5.691   2.569   4.055  0.4161  3.1641  0.4666
 1942TIP3   OH2 5782   2.427   5.870   5.502 -0.2387  0.2317 -0.0370
 1942TIP3    H1 5783   2.352   5.820   5.470 -0.2912 -0.2608  0.8213
 1942TIP3    H2 5784   2.477   5.892   5.423 -0.2132 -1.1722 -0.4275
 1943TIP3   OH2 5785   6.543   6.151   0.942  0.7124 -0.1646  0.2338
 1943TIP3    H1 5786   6.635   6.143   0.967  1.3026 -0.5275 -1.8597
 1943TIP3    H2 5787   6.518   6.062   0.918  0.5130  0.3066 -1.3829
 1944TIP3   OH2 5788   5.508   6.251   5.469  0.2318 -0.6764  0.1140
 1944TIP3    H1 5789   5.603   6.263   5.472 -0.0117  1.7951  0.3337
 1944TIP3    H2 5790   5.482   6.238   5.560  0.2888 -0.5446  0.1491
 1945TIP3   OH2 5791   0.237   7.033   2.993  0.0471 -0.0430 -0.6321
 1945TIP3    H1 5792   0.297   7.107   2.995  0.4835 -0.3783  1.4956
 1945TIP3    H2 5793   0.187   7.040   3.075 -1.2749 -1.0029 -1.3145
 1946TIP3   OH2 5794   1.107   7.361   3.773 -0.2382  0.6415 -0.2319
 1946TIP3    H1 5795   1.107   7.353   3.868  1.0050 -0.4817 -0.2857
 1946TIP3    H2 5796   1.017   7.342   3.746 -0.2879 -0.4242  0.6364
 1947TIP3   OH2 5797   6.364   2.594   0.174  0.3312  0.2214  0.0665
 1947TIP3    H1 5798   6.358   2.507   0.134 -0.3294 -0.3937  1.4099
 1947TIP3    H2 5799   6.455   2.620   0.162  0.3830 -0.3855 -0.9059
 1948TIP3   OH2 5800   0.774   0.256   3.312  0.1211 -0.9063 -0.0132
 1948TIP3    H1 5801   0.680   0.240   3.320 -0.0173 -0.1629 -0.0820
 1948TIP3    H2 5802   0.783   0.351   3.323  0.6036 -0.6322 -2.2533
 1949TIP3   OH2 5803   4.111   2.593   6.100  0.0927  0.6871 -0.1069
 1949TIP3    H1 5804   4.171   2.665   6.119 -0.3726  0.9774  0.3060
 1949TIP3    H2 5805   4.024   2.632   6.111 -0.1669  0.0128  0.2882
 1950TIP3   OH2 5806   6.633   0.360   1.744  0.3116  0.4099  0.1173
 1950TIP3    H1 5807   6.683   0.285   1.712 -1.0935 -0.5857  0.1982
 1950TIP3    H2 5808   6.599   0.403   1.666  0.6630  0.6614  0.0977
 1951TIP3   OH2 5809   4.066   1.392   5.434  0.0380  0.3886  0.4456
 1951TIP3    H1 5810   4.019   1.427   5.510 -2.0426 -0.1340 -0.5192
 1951TIP3    H2 5811   4.004   1.331   5.394  1.8065 -0.8181 -0.5907
 1952TIP3   OH2 5812   7.990   0.954   3.466 -0.1093 -0.0198 -0.1753
 1952TIP3    H1 5813   8.054   0.901   3.420  0.4359  0.4260  0.0577
 1952TIP3    H2 5814   7.931   0.986   3.397  1.0439  1.1320 -0.6738
 1953TIP3   OH2 5815   2.210   1.596   2.565 -0.4651 -0.1449  0.1602
 1953TIP3    H1 5816   2.276   1.627   2.504  1.4484 -0.3215  2.0171
 1953TIP3    H2 5817   2.148   1.668   2.573 -0.1786  0.2686 -1.1392
 1954TIP3   OH2 5818   8.121   2.241   6.006 -0.4543  0.4359  0.9351
 1954TIP3    H1 5819   8.066   2.318   6.020 -2.2067 -0.5556 -0.1340
 1954TIP3    H2 5820   8.180   2.267   5.935 -0.5160  1.0517  1.1033
 1955TIP3   OH2 5821   5.398   5.644   3.570  0.3195  0.3769  0.1807
 1955TIP3    H1 5822   5.416   5.690   3.653 -1.3850 -0.9629  1.3742
 1955TIP3    H2 5823   5.476   5.590   3.556  1.3819  1.8915 -0.0632
 1956TIP3   OH2 5824   7.932   2.895   4.844  0.1939 -0.3880  0.4443
 1956TIP3    H1 5825   7.872   2.962   4.812 -1.0841 -0.4887  2.4324
 1956TIP3    H2 5826   7.887   2.812   4.827  0.0803 -0.5076  1.2555
 1957TIP3   OH2 5827   1.994   5.147   0.588  0.1939  0.2380  0.3364
 1957TIP3    H1 5828   2.050   5.179   0.659 -0.8864 -0.2664  1.4521
 1957TIP3    H2 5829   1.947   5.073   0.626 -0.2673 -0.1766 -0.9776
 1958TIP3   OH2 5830   2.020   3.556   1.309 -0.1300 -0.0859 -0.2912
 1958TIP3    H1 5831   1.968   3.573   1.230 -0.0078  3.3312  0.2509
 1958TIP3    H2 5832   1.955   3.540   1.378 -0.3303  0.2109 -0.4128
 1959TIP3   OH2 5833   7.966   5.787   3.592 -0.3403  0.1833 -0.1632
 1959TIP3    H1 5834   7.977   5.699   3.555 -0.7717 -0.0594  0.2803
 1959TIP3    H2 5835   7.904   5.829   3.533 -0.2689  0.1305 -0.2773
 1960TIP3   OH2 5836   6.466   4.037   1.996 -0.0648 -0.3150 -0.7508
 1960TIP3    H1 5837   6.516   4.095   1.940 -0.2729 -0.4738 -1.1055
 1960TIP3    H2 5838   6.490   3.949   1.968 -0.6029 -0.3934 -0.9914
 1961TIP3   OH2 5839   5.282   4.415   6.402  0.3862  0.0590 -0.3393
 1961TIP3    H1 5840   5.292   4.326   6.367  1.4190 -0.2101  0.5714
 1961TIP3    H2 5841   5.316   4.472   6.333  2.8521 -0.4870  0.3232
 1962TIP3   OH2 5842   2.444   6.628   1.558  0.1153  0.4574 -0.1475
 1962TIP3    H1 5843   2.478   6.663   1.641 -2.7282  0.5578  1.0761
 1962TIP3    H2 5844   2.466   6.534   1.561 -2.0010 -0.0577  1.9470
 1963TIP3   OH2 5845   8.273   2.443   4.251  0.8140 -0.3084  0.1573
 1963TIP3    H1 5846   8.366   2.463   4.254  0.8732 -0.5289 -0.1643
 1963TIP3    H2 5847   8.269   2.347   4.245  0.6055 -0.2318 -1.2140
 1964TIP3   OH2 5848   5.749   6.496   3.493  0.9295  0.2385  0.2676
 1964TIP3    H1 5849   5.800   6.415   3.489  0.0313 -0.3177 -0.4480
 1964TIP3    H2 5850   5.659   6.467   3.510  0.4185  0.9817 -0.9728
 1965TIP3   OH2 5851   6.816   7.197   3.181  0.1805  0.0668 -0.3578
 1965TIP3    H1 5852   6.724   7.213   3.162  0.1904 -0.0550 -0.5116
 1965TIP3    H2 5853   6.862   7.220   3.101  0.1071 -1.6175 -0.9255
 1966TIP3   OH2 5854   4.889   4.477   1.638 -0.0169 -0.0385  0.2738
 1966TIP3    H1 5855   4.794   4.481   1.638 -0.1016 -1.3232  0.9824
 1966TIP3    H2 5856   4.917   4.555   1.592 -1.4025  0.6628  0.5818
 1967TIP3   OH2 5857   6.286   3.297   1.939  0.4266 -0.4371  0.3820
 1967TIP3    H1 5858   6.340   3.317   2.016  0.1493 -0.0877  0.4879
 1967TIP3    H2 5859   6.268   3.383   1.901  1.0952 -0.6477 -0.4353
 1968TIP3   OH2 5860   7.663   2.488   5.876 -0.0803  0.0293 -0.3925
 1968TIP3    H1 5861   7.661   2.580   5.850  0.0610  0.0381 -0.3728
 1968TIP3    H2 5862   7.622   2.442   5.803 -2.1155  0.3126  0.4906
 1969TIP3   OH2 5863   3.868   4.901   1.243 -0.2336 -0.4917 -0.1129
 1969TIP3    H1 5864   3.888   4.994   1.246  1.4877 -0.7762 -0.9921
 1969TIP3    H2 5865   3.820   4.889   1.161  0.7794 -0.5383 -0.7280
 1970TIP3   OH2 5866   5.476   1.539   6.403  0.1994  0.5610  0.4054
 1970TIP3    H1 5867   5.411   1.469   6.412 -1.1828  1.6045 -0.8784
 1970TIP3    H2 5868   5.423   1.618   6.390  1.6821  2.0131  2.5733
 1971TIP3   OH2 5869   0.048   2.207  -0.032 -0.0770 -0.0882  0.5082
 1971TIP3    H1 5870   0.119   2.175   0.024 -1.0232 -2.2577  0.5641
 1971TIP3    H2 5871  -0.021   2.233   0.029  0.4302  1.5654  0.4355
 1972TIP3   OH2 5872   6.941   4.441   3.288 -0.4025  0.0691 -0.0376
 1972TIP3    H1 5873   6.926   4.486   3.371  1.8335  0.1072  0.4056
 1972TIP3    H2 5874   6.897   4.356   3.299 -1.0631  0.5054  0.7535
 1973TIP3   OH2 5875   4.376   0.131   5.290  0.5760 -0.7949  0.2851
 1973TIP3    H1 5876   4.298   0.078   5.278 -1.4831  2.0636 -0.0818
 1973TIP3    H2 5877   4.343   0.219   5.311  3.6897  0.5751  0.1316
 1974TIP3   OH2 5878   6.334   4.523   3.332  0.0057 -0.7707 -0.1810
 1974TIP3    H1 5879   6.402   4.513   3.398 -1.2618 -0.4880  1.2289
 1974TIP3    H2 5880   6.297   4.610   3.348 -1.7968 -1.5648  0.2112
 1975TIP3   OH2 5881   3.813   0.521   4.568 -0.0074 -0.2469  0.1273
 1975TIP3    H1 5882   3.767   0.512   4.484  1.1255 -1.8433 -0.3738
 1975TIP3    H2 5883   3.887   0.460   4.561  0.1163 -0.4098  2.2935
 1976TIP3   OH2 5884   2.143   1.741   2.063  0.9391 -0.0682  0.2472
 1976TIP3    H1 5885   2.195   1.727   2.143 -0.0154 -0.3112  0.8378
 1976TIP3    H2 5886   2.077   1.672   2.065 -1.1958  1.8929  1.0089
 1977TIP3   OH2 5887   4.489   5.891   5.102  0.0135 -0.3349  0.0014
 1977TIP3    H1 5888   4.471   5.939   5.183  0.3621  0.6597 -0.4919
 1977TIP3    H2 5889   4.554   5.826   5.127 -0.2178 -0.3345  0.6189
 1978TIP3   OH2 5890   5.929   6.906   2.336 -0.0996  0.0781 -0.5097
 1978TIP3    H1 5891   5.880   6.877   2.413  0.5484 -1.7329 -0.7337
 1978TIP3    H2 5892   5.864   6.948   2.280 -1.0078 -0.5889  0.0321
 1979TIP3   OH2 5893   0.232   6.142   3.004 -0.4624  0.4026 -0.0215
 1979TIP3    H1 5894   0.242   6.113   2.914  0.8307 -1.2156  0.5971
 1979TIP3    H2 5895   0.302   6.098   3.052 -2.3137 -0.4155  2.1376
 1980TIP3   OH2 5896   1.430   3.439   0.187  0.1279 -0.4257  0.7426
 1980TIP3    H1 5897   1.367   3.398   0.246  0.9583 -0.7649  1.4189
 1980TIP3    H2 5898   1.408   3.533   0.191 -0.9914 -0.6516  0.1466
 1981TIP3   OH2 5899   7.275   3.812   2.952  0.1262  0.0849 -0.2503
 1981TIP3    H1 5900   7.321   3.731   2.975 -2.2258 -0.6579  2.4375
 1981TIP3    H2 5901   7.201   3.784   2.898 -0.5561  0.4173  0.4820
 1982TIP3   OH2 5902   3.025   6.868   6.289 -0.5067  0.1071  0.5842
 1982TIP3    H1 5903   3.084   6.855   6.215 -3.2381  1.0943 -1.9045
 1982TIP3    H2 5904   2.952   6.918   6.254 -2.7117 -0.7411  3.5913
 1983TIP3   OH2 5905   0.268   6.674   3.856 -0.0147  0.0235  0.8236
 1983TIP3    H1 5906   0.323   6.752   3.847  1.2620 -0.9995 -0.7448
 1983TIP3    H2 5907   0.323   6.611   3.904 -0.4971 -0.3897  0.8489
 1984TIP3   OH2 5908   4.170   2.679   5.397 -0.1024  0.2544  0.0724
 1984TIP3    H1 5909   4.176   2.584   5.388 -0.5839  0.1743  0.5519
 1984TIP3    H2 5910   4.078   2.699   5.381 -0.1254  0.5659  0.5730
 1985TIP3   OH2 5911   5.998   5.536   3.329  0.1909  0.2006 -0.2680
 1985TIP3    H1 5912   6.087   5.514   3.357  1.1552  2.3563 -1.4570
 1985TIP3    H2 5913   5.960   5.452   3.302  1.5571 -0.8745  0.9749
 1986TIP3   OH2 5914   4.621   2.277   1.191 -0.5667  0.7019 -0.7096
 1986TIP3    H1 5915   4.624   2.184   1.170 -1.7850  0.7132 -1.0204
 1986TIP3    H2 5916   4.542   2.287   1.244 -0.2464  1.5045 -0.3732
 1987TIP3   OH2 5917   2.230   3.411   2.926 -0.1926 -0.5402  0.5958
 1987TIP3    H1 5918   2.137   3.410   2.904 -0.2250 -0.6255  0.7385
 1987TIP3    H2 5919   2.266   3.482   2.873 -0.0030 -1.6522 -0.8412
 1988TIP3   OH2 5920   0.811   1.122   2.103  0.3420 -0.0430  0.4972
 1988TIP3    H1 5921   0.735   1.089   2.054  0.8727 -1.1354  0.3841
 1988TIP3    H2 5922   0.819   1.214   2.075  0.0014 -0.3459 -0.6795
 1989TIP3   OH2 5923   2.850   4.467   0.047  0.3606  0.2106 -0.3234
 1989TIP3    H1 5924   2.817   4.384   0.082 -0.9734  0.4539 -0.9089
 1989TIP3    H2 5925   2.868   4.520   0.124  1.8325 -0.8157  0.0769
 1990TIP3   OH2 5926   5.128   7.530   0.913  0.2504  0.0076 -0.3616
 1990TIP3    H1 5927   5.167   7.617   0.920 -1.8151  0.9011  0.8269
 1990TIP3    H2 5928   5.115   7.518   0.819 -1.2783  1.9060 -0.4630
 1991TIP3   OH2 5929   2.051   3.562   4.999 -0.1112 -0.0979 -0.4109
 1991TIP3    H1 5930   2.109   3.585   5.072 -2.1383  2.5896  0.5254
 1991TIP3    H2 5931   2.101   3.584   4.921  0.4203  1.5275  0.3426
 1992TIP3   OH2 5932   3.558   3.099   1.705 -0.3434 -0.1242  0.4585
 1992TIP3    H1 5933   3.646   3.129   1.686 -0.4738  0.0035  0.0349
 1992TIP3    H2 5934   3.555   3.010   1.670 -0.0140 -0.5802  1.5467
 1993TIP3   OH2 5935   8.107   1.114   4.249 -0.5664  0.8063 -0.0891
 1993TIP3    H1 5936   8.190   1.098   4.203 -0.0776 -0.5113  1.1972
 1993TIP3    H2 5937   8.113   1.061   4.328 -1.6187  2.5710  1.2467
 1994TIP3   OH2 5938   7.489   1.743   2.416  0.1291 -0.0306  0.3404
 1994TIP3    H1 5939   7.567   1.798   2.416  0.2747 -0.2353  0.5040
 1994TIP3    H2 5940   7.480   1.714   2.507  0.1211 -0.3734  0.2318
 1995TIP3   OH2 5941   6.966   2.329   1.122  0.7062 -0.1917 -0.4856
 1995TIP3    H1 5942   7.035   2.267   1.146  0.9606  0.1187 -0.4111
 1995TIP3    H2 5943   6.893   2.274   1.093  1.6739 -0.5077 -2.5032
 1996TIP3   OH2 5944   3.788   0.545   2.328 -0.7526 -0.0519 -0.2228
 1996TIP3    H1 5945   3.875   0.535   2.366 -0.9896 -0.1204  0.3134
 1996TIP3    H2 5946   3.791   0.628   2.281 -0.1512 -0.4451 -0.9049
 1997TIP3   OH2 5947   1.922   6.687   0.790  0.3162 -0.1663  0.9218
 1997TIP3    H1 5948   1.967   6.763   0.752  0.3262  0.1733  1.5874
 1997TIP3    H2 5949   1.859   6.726   0.851  1.3750 -0.7295  2.4075
 1998TIP3   OH2 5950   7.232   6.462   4.882 -0.4926 -0.4639 -0.2200
 1998TIP3    H1 5951   7.253   6.443   4.973  1.5325 -1.5985 -0.8555
 1998TIP3    H2 5952   7.153   6.409   4.865 -1.2518  0.2287  0.9984
 1999TIP3   OH2 5953   8.094   4.767   5.038  0.1898 -0.2037 -0.0096
 1999TIP3    H1 5954   8.127   4.856   5.048  1.7320 -0.3879 -2.6193
 1999TIP3    H2 5955   8.162   4.712   5.077 -0.2080 -0.3097  0.5477
 2000TIP3   OH2 5956   4.940   5.500   5.189 -0.2961  0.1492  0.0352
 2000TIP3    H1 5957   4.939   5.515   5.094  0.5902  3.4403  0.4166
 2000TIP3    H2 5958   5.007   5.433   5.202  0.5229  0.5961 -1.5910
 2001TIP3   OH2 5959   7.253   2.669   5.889 -0.3258 -0.4152 -0.1543
 2001TIP3    H1 5960   7.287   2.594   5.937  0.3554  1.2207  2.0738
 2001TIP3    H2 5961   7.179   2.699   5.941  0.5623  1.5382  0.0837
 2002TIP3   OH2 5962   4.033   1.568   6.368  0.8804  0.5507  0.1330
 2002TIP3    H1 5963   4.038   1.628   6.294 -4.4360  1.1296 -0.1489
 2002TIP3    H2 5964   4.009   1.624   6.442 -0.6529 -0.7628  0.6736
 2003TIP3   OH2 5965   4.955   6.465   4.708  0.5288  0.2037  0.3553
 2003TIP3    H1 5966   4.983   6.495   4.795  1.0708  0.8290 -0.0289
 2003TIP3    H2 5967   4.898   6.535   4.676 -0.1584 -0.3073  0.4535
 2004TIP3   OH2 5968   3.013   2.638   3.847  0.3589 -0.3494  0.6971
 2004TIP3    H1 5969   3.074   2.683   3.789 -0.3688 -0.6548 -0.3458
 2004TIP3    H2 5970   2.927   2.654   3.807  0.1562 -3.6207 -0.4093
 2005TIP3   OH2 5971   0.785   3.872   6.657  0.0907  0.2018  0.5057
 2005TIP3    H1 5972   0.727   3.867   6.582 -0.5321  1.4468  0.8827
 2005TIP3    H2 5973   0.739   3.927   6.720  2.2885  2.5419  0.2250
 2006TIP3   OH2 5974   7.777   1.214   0.532 -0.0815 -0.1972 -0.2610
 2006TIP3    H1 5975   7.854   1.240   0.583 -1.0627  0.4890  0.9190
 2006TIP3    H2 5976   7.741   1.296   0.500 -0.4027 -0.5052 -0.6973
 2007TIP3   OH2 5977   8.044   7.552   1.113 -0.4769 -0.2685  0.3064
 2007TIP3    H1 5978   8.068   7.598   1.033  0.4280  1.8688  1.7025
 2007TIP3    H2 5979   7.949   7.543   1.108 -0.4658  0.1453 -0.8249
 2008TIP3   OH2 5980   3.569   1.856   5.682 -0.4132 -0.1784  0.1453
 2008TIP3    H1 5981   3.597   1.906   5.758  0.6238  0.5102 -0.6550
 2008TIP3    H2 5982   3.620   1.892   5.609 -2.4534  0.2288 -1.1736
 2009TIP3   OH2 5983   4.655   5.680   2.519  0.0678  0.4108 -0.0147
 2009TIP3    H1 5984   4.625   5.592   2.540 -0.3815  0.3516 -0.8635
 2009TIP3    H2 5985   4.740   5.666   2.476  0.9491  0.5275  1.5943
 2010TIP3   OH2 5986   3.720   1.162   2.165 -0.0373  0.3828 -0.1146
 2010TIP3    H1 5987   3.774   1.091   2.130  2.5188  2.6831 -1.1728
 2010TIP3    H2 5988   3.702   1.217   2.089  0.7364  2.4876  1.1632
 2011TIP3   OH2 5989   6.001   3.995   2.638 -0.1964  0.2823 -0.6197
 2011TIP3    H1 5990   5.916   4.039   2.641  0.0482  0.7368 -0.1562
 2011TIP3    H2 5991   6.062   4.063   2.609  0.1763  0.2280  0.0233
 2012TIP3   OH2 5992   1.434   3.009   2.038  0.0750 -0.1957 -0.2299
 2012TIP3    H1 5993   1.477   3.056   1.967 -1.8174  1.1936 -0.5559
 2012TIP3    H2 5994   1.465   2.919   2.030  2.7849  0.6710 -0.4309
 2013TIP3   OH2 5995   3.590   5.574   2.524  0.1229 -0.7309  0.4189
 2013TIP3    H1 5996   3.576   5.650   2.467  0.4467 -0.6568  0.4368
 2013TIP3    H2 5997   3.599   5.612   2.612  1.6068 -0.6661  0.2575
 2014TIP3   OH2 5998   7.304   3.727   0.216 -0.3197  0.5032  0.0672
 2014TIP3    H1 5999   7.372   3.744   0.150 -0.8247  0.1848 -0.5420
 2014TIP3    H2 6000   7.228   3.699   0.166 -1.2463  1.8460  0.6562
 2015TIP3   OH2 6001   2.637   3.305   2.673 -0.0437  0.1622  0.2714
 2015TIP3    H1 6002   2.606   3.241   2.608 -2.1646 -0.3624  1.6778
 2015TIP3    H2 6003   2.711   3.262   2.716 -1.4784 -1.4720  1.2460
 2016TIP3   OH2 6004   8.043   3.667   2.305  0.0698 -0.2488 -1.2543
 2016TIP3    H1 6005   8.053   3.608   2.380 -0.1072  0.7845 -0.3859
 2016TIP3    H2 6006   7.951   3.692   2.306  0.3141  0.6844 -1.0976
 2017TIP3   OH2 6007   7.940   7.147   4.295  0.0550  0.3351 -0.1133
 2017TIP3    H1 6008   8.018   7.201   4.284 -0.4815  0.7812 -2.3403
 2017TIP3    H2 6009   7.971   7.057   4.293  0.6597  0.5199  0.6664
 2018TIP3   OH2 6010   2.093   0.146   2.167 -0.2138  0.2051 -0.0000
 2018TIP3    H1 6011   2.011   0.148   2.216  1.9757  0.6919  4.1070
 2018TIP3    H2 6012   2.117   0.238   2.156  0.0663  0.0574 -0.6696
 2019TIP3   OH2 6013   2.006   2.204   3.763 -0.5905 -0.7186 -0.5341
 2019TIP3    H1 6014   2.048   2.257   3.831  0.2677 -2.4987  0.3911
 2019TIP3    H2 6015   1.977   2.125   3.809 -3.5392 -0.2976 -1.4690
 2020TIP3   OH2 6016   7.660   7.614   6.740 -0.6680  0.2017  0.2098
 2020TIP3    H1 6017   7.665   7.534   6.688 -1.9123 -0.3474  0.8851
 2020TIP3    H2 6018   7.732   7.606   6.803 -2.8117 -2.1868  2.6214
 2021TIP3   OH2 6019   6.815   1.545   5.309  0.1970 -0.4685  0.1109
 2021TIP3    H1 6020   6.811   1.456   5.344 -0.2473 -1.4396 -2.2696
 2021TIP3    H2 6021   6.907   1.558   5.286  0.0277 -0.8046 -0.7535
 2022TIP3   OH2 6022   1.873   4.907   5.951  0.7233 -0.0024  0.3777
 2022TIP3    H1 6023   1.794   4.898   6.004  0.6187  1.7309  0.5587
 2022TIP3    H2 6024   1.890   5.001   5.947  0.6689 -0.0046 -2.7559
 2023TIP3   OH2 6025   4.217   5.861   4.879 -0.2991 -0.7616 -0.6220
 2023TIP3    H1 6026   4.182   5.935   4.930  4.1835  2.7525 -1.9264
 2023TIP3    H2 6027   4.275   5.815   4.940  2.2316  1.2299 -1.3378
 2024TIP3   OH2 6028   2.416   6.454   5.499 -0.3059 -0.9224 -0.2161
 2024TIP3    H1 6029   2.334   6.426   5.540 -0.4597 -0.7359 -0.3926
 2024TIP3    H2 6030   2.432   6.389   5.431  0.1895 -1.4900  0.4364
 2025TIP3   OH2 6031   5.892   0.880   1.740 -0.1489 -0.1306  0.3235
 2025TIP3    H1 6032   5.862   0.936   1.669 -0.9182 -1.3746 -0.3732
 2025TIP3    H2 6033   5.987   0.883   1.734 -0.1992 -0.1130 -0.6926
 2026TIP3   OH2 6034   2.738   7.757   0.990  0.2897 -0.1984 -0.1545
 2026TIP3    H1 6035   2.670   7.690   0.998  0.1142 -0.1740 -1.2783
 2026TIP3    H2 6036   2.694   7.839   1.011 -0.1625 -0.1299 -1.2803
 2027TIP3   OH2 6037   5.292   3.244   6.198 -0.5325  0.1213  0.3296
 2027TIP3    H1 6038   5.214   3.296   6.218 -0.5075  0.2763  0.0355
 2027TIP3    H2 6039   5.288   3.231   6.103  0.3324  0.9915  0.1582
 2028TIP3   OH2 6040   5.020   1.851   2.132  0.4973  0.5808  0.2176
 2028TIP3    H1 6041   5.079   1.804   2.192  0.2720 -0.1878 -0.1397
 2028TIP3    H2 6042   5.024   1.799   2.051 -1.7825 -0.3498  0.6450
 2029TIP3   OH2 6043   2.383   7.475   1.670 -0.0952  0.0534 -0.3974
 2029TIP3    H1 6044   2.297   7.486   1.712  0.0919  0.4912 -0.1112
 2029TIP3    H2 6045   2.399   7.381   1.671 -0.4376 -0.0049 -0.1678
 2030TIP3   OH2 6046   0.722   1.786   5.449 -0.0587  0.2566 -0.1708
 2030TIP3    H1 6047   0.781   1.736   5.505  0.3581  0.2853 -0.5838
 2030TIP3    H2 6048   0.634   1.762   5.480  0.1300 -0.7323 -0.3639
 2031TIP3   OH2 6049   1.872   2.005   3.187  0.0084 -0.0927 -0.3200
 2031TIP3    H1 6050   1.852   1.971   3.274 -0.8703 -0.2836 -0.5874
 2031TIP3    H2 6051   1.795   2.056   3.163  0.6775  0.8290 -0.5595
 2032TIP3   OH2 6052   4.395   2.354   6.611  0.0096  0.0054  0.1235
 2032TIP3    H1 6053   4.317   2.362   6.666 -0.6669  1.6409 -0.9940
 2032TIP3    H2 6054   4.451   2.428   6.637  0.6012 -0.3894  0.0043
 2033TIP3   OH2 6055   5.835   4.207   1.175  0.4304 -0.5647  0.1933
 2033TIP3    H1 6056   5.766   4.264   1.208 -0.2145 -1.8098  1.0815
 2033TIP3    H2 6057   5.910   4.265   1.162 -0.3963  0.5877  0.4055
 2034TIP3   OH2 6058   5.389   0.373   2.069  0.1300 -0.3273 -0.3256
 2034TIP3    H1 6059   5.472   0.392   2.112 -0.1608 -0.0494  0.1215
 2034TIP3    H2 6060   5.368   0.453   2.022 -0.7056  0.2238  0.9216
 2035TIP3   OH2 6061   0.258   2.298   5.501  0.1095  0.1872  0.0886
 2035TIP3    H1 6062   0.290   2.382   5.469 -0.6140  0.4727  0.0972
 2035TIP3    H2 6063   0.194   2.271   5.435 -1.8974  1.0968  1.5628
 2036TIP3   OH2 6064   5.510   0.884   3.749  0.2210  0.0041 -0.0109
 2036TIP3    H1 6065   5.514   0.973   3.784 -0.6268 -0.3356  1.0162
 2036TIP3    H2 6066   5.599   0.865   3.719  0.6086  0.8692  0.5692
 2037TIP3   OH2 6067   0.753   3.647   2.493  0.6692  0.0913 -0.4141
 2037TIP3    H1 6068   0.785   3.689   2.413  0.5303 -0.4377 -0.7523
 2037TIP3    H2 6069   0.658   3.654   2.486  0.3613 -3.6399 -2.4079
 2038TIP3   OH2 6070   7.422   1.225   4.389  0.1711 -0.0153 -0.1168
 2038TIP3    H1 6071   7.327   1.223   4.401  0.1601  0.0817 -0.1866
 2038TIP3    H2 6072   7.435   1.276   4.309  0.2438 -0.6403 -0.5099
 2039TIP3   OH2 6073   6.514   6.847   5.375  0.1773  0.3488  1.2552
 2039TIP3    H1 6074   6.551   6.789   5.442 -0.2019 -0.5070  0.7525
 2039TIP3    H2 6075   6.561   6.823   5.295 -0.1487  0.5747  0.9958
 2040TIP3   OH2 6076   4.022   2.587   4.929 -0.0203  0.5990 -0.3537
 2040TIP3    H1 6077   3.955   2.556   4.868  1.6273  0.2551 -2.0795
 2040TIP3    H2 6078   4.105   2.570   4.885  1.4269 -1.3550  2.7543
 2041TIP3   OH2 6079   6.154   3.014   4.374  0.2009  0.2806 -0.2104
 2041TIP3    H1 6080   6.166   2.949   4.304  2.3961  0.9005 -0.5022
 2041TIP3    H2 6081   6.236   3.010   4.424 -1.1607  0.1512  2.1237
 2042TIP3   OH2 6082   7.026   5.097   0.935 -1.1093  0.0504 -0.2011
 2042TIP3    H1 6083   6.936   5.097   0.903 -0.7471  0.4941 -1.2776
 2042TIP3    H2 6084   7.073   5.154   0.874 -0.0477 -0.3629  0.2010
 2043TIP3   OH2 6085   1.084   6.233   6.122  0.0512  0.0650 -0.1262
 2043TIP3    H1 6086   1.024   6.288   6.071  0.9847  0.9685 -0.2857
 2043TIP3    H2 6087   1.110   6.164   6.061  0.8599  0.9199 -0.7854
 2044TIP3   OH2 6088   0.099   0.441   2.476  0.3246 -0.3088  0.0822
 2044TIP3    H1 6089   0.098   0.533   2.500  2.1503  0.3005 -1.8406
 2044TIP3    H2 6090   0.104   0.394   2.559  1.2563  1.4184  1.0540
 2045TIP3   OH2 6091   6.655   5.627   1.113 -0.1397  0.2110 -0.3197
 2045TIP3    H1 6092   6.662   5.538   1.080  0.8532  0.4492 -0.7974
 2045TIP3    H2 6093   6.602   5.620   1.192 -0.4028 -0.7420 -0.5739
 2046TIP3   OH2 6094   5.061   7.191   5.692 -0.0440 -0.1484 -0.1361
 2046TIP3    H1 6095   5.064   7.283   5.718  4.1352 -0.0436 -0.2180
 2046TIP3    H2 6096   5.057   7.143   5.774 -1.8802  0.0364 -0.0804
 2047TIP3   OH2 6097   6.886   4.826   2.924 -0.1380  0.0125 -0.3781
 2047TIP3    H1 6098   6.976   4.805   2.949 -0.6221 -2.2415 -0.2779
 2047TIP3    H2 6099   6.839   4.832   3.007 -0.6423 -1.9680 -0.4515
 2048TIP3   OH2 6100   7.055   2.925   5.894  0.2966  0.2144  0.6344
 2048TIP3    H1 6101   7.144   2.937   5.927 -0.0800  0.1108  1.7278
 2048TIP3    H2 6102   7.016   3.013   5.898  0.6643  0.4694 -0.8510
 2049TIP3   OH2 6103   4.803   1.698   2.890  0.1161 -0.2640 -0.4460
 2049TIP3    H1 6104   4.831   1.619   2.844 -0.1637 -0.8177  0.3216
 2049TIP3    H2 6105   4.787   1.761   2.820 -0.9473 -1.2932 -1.1654
 2050TIP3   OH2 6106   3.263   3.638   5.394  0.2289 -0.4763  0.3516
 2050TIP3    H1 6107   3.349   3.667   5.424 -0.2166  1.5681 -0.1438
 2050TIP3    H2 6108   3.261   3.663   5.301  0.6307 -4.3384 -0.8476
 2051TIP3   OH2 6109   0.241   3.976   2.040 -0.4162  0.7347  0.2892
 2051TIP3    H1 6110   0.319   3.936   2.000 -0.6973 -0.2709  0.7236
 2051TIP3    H2 6111   0.264   4.068   2.050  1.4047  0.1571  2.0207
 2052TIP3   OH2 6112   2.150   0.745   0.500  0.0066 -0.4659  0.0230
 2052TIP3    H1 6113   2.145   0.703   0.585  0.4832  0.4547  0.5182
 2052TIP3    H2 6114   2.237   0.723   0.466 -0.6156 -1.8376 -0.7898
 2053TIP3   OH2 6115   7.495   4.322   0.608  0.1545 -0.0037 -0.0465
 2053TIP3    H1 6116   7.526   4.338   0.697 -0.1990  1.2208 -0.1264
 2053TIP3    H2 6117   7.539   4.241   0.581  3.2032  1.5492 -0.1257
 2054TIP3   OH2 6118   7.485   3.921   0.580  0.3194  0.0036  0.5032
 2054TIP3    H1 6119   7.572   3.948   0.610  0.2039 -1.0160  1.8904
 2054TIP3    H2 6120   7.500   3.839   0.532  0.1366 -0.2464  0.8596
 2055TIP3   OH2 6121   6.588   0.932   1.973  0.2268 -0.2032 -0.0247
 2055TIP3    H1 6122   6.665   0.980   1.942 -0.4626  1.2380  0.4081
 2055TIP3    H2 6123   6.618   0.841   1.981  1.7535  0.2467 -0.2819
 2056TIP3   OH2 6124   7.325   0.664   0.008 -0.4934 -0.2323 -0.4792
 2056TIP3    H1 6125   7.385   0.739   0.005  0.4583 -0.9981 -2.5849
 2056TIP3    H2 6126   7.381   0.590   0.030 -1.5285 -0.3158  2.1836
 2057TIP3   OH2 6127   1.464   2.883   5.103  0.0855 -0.3281 -0.2935
 2057TIP3    H1 6128   1.458   2.857   5.195  2.1419  0.0018 -0.0229
 2057TIP3    H2 6129   1.553   2.859   5.077  0.4228  1.9268 -1.4589
 2058TIP3   OH2 6130   4.831   6.685   4.018 -0.1859  0.0862 -0.0051
 2058TIP3    H1 6131   4.880   6.613   4.057  0.4273  1.3695  1.7139
 2058TIP3    H2 6132   4.754   6.696   4.074  0.1869  1.3180  0.3036
 2059TIP3   OH2 6133   4.149   6.287   1.789  0.3764  0.2303  0.1228
 2059TIP3    H1 6134   4.214   6.241   1.736 -0.4923 -0.3540 -0.4589
 2059TIP3    H2 6135   4.193   6.368   1.815  1.2990 -0.1080 -0.3369
 2060TIP3   OH2 6136   4.728   5.777   0.015  0.0705 -0.4312 -0.0500
 2060TIP3    H1 6137   4.636   5.802   0.024  0.0759  0.0889 -1.2394
 2060TIP3    H2 6138   4.735   5.695   0.064 -1.3881 -1.2426 -1.1030
 2061TIP3   OH2 6139   6.128   5.355   1.979  0.1259 -0.3254 -0.0938
 2061TIP3    H1 6140   6.176   5.434   1.956  0.3363 -0.4111  0.0430
 2061TIP3    H2 6141   6.073   5.336   1.902 -2.7228  2.0078  1.1622
 2062TIP3   OH2 6142   3.665   5.944   0.658  0.1015 -0.2269  0.0178
 2062TIP3    H1 6143   3.673   5.938   0.563 -2.1370 -0.1413 -0.2220
 2062TIP3    H2 6144   3.624   5.862   0.684  0.5939 -0.2039  0.9057
 2063TIP3   OH2 6145   1.523   1.689   4.383  0.1456  0.0850  0.3742
 2063TIP3    H1 6146   1.503   1.772   4.428  0.6448  0.0652  0.6354
 2063TIP3    H2 6147   1.508   1.709   4.290  2.0572  1.0329  0.2206
 2064TIP3   OH2 6148   7.325   1.365   0.475  0.2362 -0.0835 -0.0307
 2064TIP3    H1 6149   7.243   1.344   0.432  0.0214 -2.1036  1.2376
 2064TIP3    H2 6150   7.320   1.460   0.490 -0.7357  0.2558 -2.1226
 2065TIP3   OH2 6151   0.010   3.102   0.350 -0.6798  0.3156  0.5089
 2065TIP3    H1 6152   0.097   3.143   0.352 -0.1337 -0.7316 -0.7495
 2065TIP3    H2 6153  -0.043   3.160   0.296 -0.8172  1.0130  1.3650
 2066TIP3   OH2 6154   2.916   1.606   0.270 -0.1364  0.4426 -0.2878
 2066TIP3    H1 6155   2.911   1.542   0.341 -1.0100  0.5334 -0.2521
 2066TIP3    H2 6156   2.830   1.649   0.271  0.4459  1.6429 -0.2799
 2067TIP3   OH2 6157   2.045   0.317   3.808  0.2297 -0.0301 -0.1544
 2067TIP3    H1 6158   2.050   0.293   3.716  0.5211  0.6457 -0.3195
 2067TIP3    H2 6159   2.134   0.341   3.832  0.0586  0.3013  0.1656
 2068TIP3   OH2 6160   7.629   1.817   3.368 -0.5010 -0.1308  0.2458
 2068TIP3    H1 6161   7.567   1.755   3.331 -1.3798  1.7275 -1.5987
 2068TIP3    H2 6162   7.606   1.901   3.327  1.6416  1.1018  1.4092
 2069TIP3   OH2 6163   0.386   0.380   1.080 -0.3890  0.4222  0.4882
 2069TIP3    H1 6164   0.316   0.321   1.105 -0.7505  0.9487  0.7174
 2069TIP3    H2 6165   0.355   0.467   1.103  0.8601  0.5623  1.7991
 2070TIP3   OH2 6166   0.150   3.702   1.782 -0.7839  0.3574  0.4000
 2070TIP3    H1 6167   0.060   3.692   1.812 -0.6729  0.8543  0.9094
 2070TIP3    H2 6168   0.185   3.776   1.833 -0.3190  0.6474 -0.3275
 2071TIP3   OH2 6169   0.189   2.766   4.384 -0.1872 -0.4848  0.1557
 2071TIP3    H1 6170   0.154   2.772   4.295 -1.2838  1.5206  0.6616
 2071TIP3    H2 6171   0.217   2.675   4.393  1.0218 -0.4915 -2.6146
 2072TIP3   OH2 6172   1.699   5.988   1.412 -0.8147 -0.1618 -0.3872
 2072TIP3    H1 6173   1.710   6.039   1.332  1.3535  0.2346  0.1089
 2072TIP3    H2 6174   1.653   5.909   1.385 -0.2486  0.0361 -1.9961
 2073TIP3   OH2 6175   6.317   2.566   1.825 -0.5059  0.6691 -0.0871
 2073TIP3    H1 6176   6.304   2.539   1.734  0.1920 -1.6553  0.4380
 2073TIP3    H2 6177   6.400   2.615   1.823  0.2697 -0.6106 -0.5163
 2074TIP3   OH2 6178   0.445   4.466   2.726 -0.2050  0.3686  0.0753
 2074TIP3    H1 6179   0.538   4.472   2.745  0.2206 -2.4706 -0.7106
 2074TIP3    H2 6180   0.402   4.508   2.801  1.6333 -1.2223  2.1640
 2075TIP3   OH2 6181   8.037   2.070   6.588  0.0571  0.5395  0.0949
 2075TIP3    H1 6182   8.043   2.135   6.518  0.0931  1.4104  0.8929
 2075TIP3    H2 6183   8.128   2.048   6.608  0.0340 -0.3096 -0.6601
 2076TIP3   OH2 6184   5.320   5.136   1.442 -0.1423 -0.0782  0.3548
 2076TIP3    H1 6185   5.268   5.203   1.487  0.4074 -0.3688  1.4479
 2076TIP3    H2 6186   5.397   5.183   1.410  0.4850 -0.2422  1.5428
 2077TIP3   OH2 6187   6.710   6.997   5.694  0.4787  0.3775 -0.1023
 2077TIP3    H1 6188   6.747   7.051   5.625  0.3926 -1.4700 -1.6701
 2077TIP3    H2 6189   6.784   6.976   5.751  0.6136  1.6348  0.2133
 2078TIP3   OH2 6190   0.637   0.844   1.763 -0.3160 -0.7288  0.6740
 2078TIP3    H1 6191   0.719   0.829   1.811  0.0702  0.6220  0.4782
 2078TIP3    H2 6192   0.645   0.788   1.686  0.5418 -0.4456  0.5394
 2079TIP3   OH2 6193   1.085   0.237   1.307  0.2866  0.1716  0.0511
 2079TIP3    H1 6194   1.060   0.250   1.216 -1.0474 -1.0917  0.2032
 2079TIP3    H2 6195   1.179   0.258   1.309  0.7487 -1.3903 -1.9862
 2080TIP3   OH2 6196   3.271   0.879   5.249 -0.3767  0.1340 -0.2180
 2080TIP3    H1 6197   3.297   0.842   5.333 -0.2868 -0.5955 -0.5619
 2080TIP3    H2 6198   3.353   0.888   5.200 -0.6000 -0.9089 -0.8057
 2081TIP3   OH2 6199   4.883   7.648   4.686 -0.6097  0.2280  0.1743
 2081TIP3    H1 6200   4.882   7.738   4.653 -0.7164  0.8275  1.7495
 2081TIP3    H2 6201   4.976   7.625   4.686 -0.3271  1.1916  1.8933
 2082TIP3   OH2 6202   2.637   5.754   4.348  0.0828 -0.1004  0.5684
 2082TIP3    H1 6203   2.630   5.686   4.280 -0.8492  0.8725 -0.3525
 2082TIP3    H2 6204   2.656   5.834   4.299  0.1793  0.4867  1.5495
 2083TIP3   OH2 6205   1.806   3.597   1.497  1.3560  0.8250 -0.0090
 2083TIP3    H1 6206   1.737   3.650   1.458  0.4483 -0.4023 -0.1272
 2083TIP3    H2 6207   1.842   3.651   1.567 -0.0267  1.3214  0.3399
 2084TIP3   OH2 6208   7.695   1.263   3.753 -0.3300  0.4388  0.5031
 2084TIP3    H1 6209   7.759   1.230   3.815  0.8710  0.4648 -0.6788
 2084TIP3    H2 6210   7.686   1.356   3.773 -1.1116  0.1530  1.5929
 2085TIP3   OH2 6211   2.077   3.854   3.804 -0.2430  0.0171 -0.0380
 2085TIP3    H1 6212   2.045   3.871   3.893  0.5908  1.3048  0.0498
 2085TIP3    H2 6213   2.016   3.789   3.769 -0.9370 -0.0817  1.2675
 2086TIP3   OH2 6214   2.922   1.672   4.925 -0.5864 -0.3642 -0.4584
 2086TIP3    H1 6215   2.832   1.647   4.902 -0.9796  0.0940  0.4880
 2086TIP3    H2 6216   2.976   1.601   4.892 -1.3646 -0.9459 -0.5137
 2087TIP3   OH2 6217   8.178   2.574   5.129 -0.3902 -0.3849 -0.0261
 2087TIP3    H1 6218   8.136   2.509   5.073 -0.5081  0.0837 -0.4983
 2087TIP3    H2 6219   8.151   2.658   5.092 -1.0742 -0.0481  1.1701
 2088TIP3   OH2 6220   6.671   0.523   2.660 -0.1645 -0.3896  0.0897
 2088TIP3    H1 6221   6.732   0.596   2.666  0.4075 -0.5377 -2.6617
 2088TIP3    H2 6222   6.587   0.564   2.639 -0.4634 -0.3808  1.2216
 2089TIP3   OH2 6223   0.499   7.058   5.686 -0.4125  0.1804 -0.0955
 2089TIP3    H1 6224   0.541   7.097   5.763  0.6887 -2.3606  0.7368
 2089TIP3    H2 6225   0.555   7.082   5.613 -0.7090  1.5007  0.0953
 2090TIP3   OH2 6226   7.803   2.601   4.737  0.5147 -0.1635  0.2578
 2090TIP3    H1 6227   7.842   2.660   4.672  2.3001 -2.7378 -1.2009
 2090TIP3    H2 6228   7.709   2.612   4.727  0.7927  1.1399 -1.2043
 2091TIP3   OH2 6229   4.816   7.043   2.380 -0.1270  0.0674  0.4160
 2091TIP3    H1 6230   4.769   6.961   2.370 -0.4104  0.0903  1.4527
 2091TIP3    H2 6231   4.776   7.102   2.316 -0.5555 -0.3261  0.3191
 2092TIP3   OH2 6232   2.867   2.627   0.604  0.2314  0.1019  0.2413
 2092TIP3    H1 6233   2.796   2.567   0.583  0.3720 -0.1003  0.3426
 2092TIP3    H2 6234   2.912   2.641   0.521  0.1501  0.1315  0.2018
 2093TIP3   OH2 6235   5.683   6.474   2.062 -0.7987  0.3993 -0.0454
 2093TIP3    H1 6236   5.726   6.532   2.125 -0.5025  1.3614 -1.1094
 2093TIP3    H2 6237   5.692   6.387   2.100  1.4587  0.6530  0.1098
 2094TIP3   OH2 6238   0.746   3.179   1.121 -0.4561 -0.2078  0.3530
 2094TIP3    H1 6239   0.707   3.178   1.208  0.7374 -1.0937  0.9085
 2094TIP3    H2 6240   0.834   3.215   1.135 -0.6105  0.6255 -0.6666
 2095TIP3   OH2 6241   8.043   3.190   5.431  0.7721 -0.1884 -0.7854
 2095TIP3    H1 6242   7.955   3.174   5.396 -0.4697  1.7304  1.1275
 2095TIP3    H2 6243   8.084   3.104   5.435 -1.9277 -1.5338  0.4464
 2096TIP3   OH2 6244   2.539   7.109   2.543  0.0526 -0.4464  0.0881
 2096TIP3    H1 6245   2.575   7.104   2.454  0.0002 -0.5674  0.0728
 2096TIP3    H2 6246   2.537   7.018   2.573  0.7945 -0.3356  0.5045
 2097TIP3   OH2 6247   3.089   5.953   4.498 -0.5461  0.0720  0.1415
 2097TIP3    H1 6248   3.161   5.960   4.435 -0.7667 -0.1204 -0.1398
 2097TIP3    H2 6249   3.014   5.993   4.453 -1.2662 -1.9636 -0.6170
 2098TIP3   OH2 6250   0.598   2.740   2.356 -0.2019 -0.1688  0.1370
 2098TIP3    H1 6251   0.667   2.799   2.385  0.2998 -1.2399  1.1862
 2098TIP3    H2 6252   0.517   2.785   2.381  0.0673  1.1767 -1.2586
 2099TIP3   OH2 6253   3.538   0.816   2.906  0.5333  0.0321  0.3289
 2099TIP3    H1 6254   3.473   0.767   2.856  1.7602 -0.2575 -1.0451
 2099TIP3    H2 6255   3.498   0.902   2.919 -1.5790 -1.1558  2.6095
 2100TIP3   OH2 6256   7.148   6.749   5.144  0.3198  0.2745  0.2744
 2100TIP3    H1 6257   7.119   6.662   5.173  0.5080 -1.0517 -3.0038
 2100TIP3    H2 6258   7.224   6.769   5.199 -0.5970 -0.9504  2.0701
 2101TIP3   OH2 6259   6.939   0.671   2.318  0.6598  0.1024  0.0111
 2101TIP3    H1 6260   7.005   0.727   2.275  0.6975 -0.0895 -0.1820
 2101TIP3    H2 6261   6.989   0.622   2.383  0.7004  0.0027 -0.0928
 2102TIP3   OH2 6262   4.175   3.435   3.055 -0.2114 -0.4029 -0.3624
 2102TIP3    H1 6263   4.128   3.516   3.074  0.8421 -0.0917  1.1789
 2102TIP3    H2 6264   4.206   3.445   2.965 -0.5816  0.6609 -0.3804
 2103TIP3   OH2 6265   3.937   3.069   4.023  0.0975 -0.1786  0.4991
 2103TIP3    H1 6266   3.979   3.141   3.976  0.1663 -1.8372 -2.1901
 2103TIP3    H2 6267   4.001   3.043   4.089  0.4362  1.5991  0.9297
 2104TIP3   OH2 6268   1.659   1.564   1.588 -0.2516  0.1501  0.3312
 2104TIP3    H1 6269   1.726   1.515   1.636  1.4437  0.0089 -2.0044
 2104TIP3    H2 6270   1.673   1.655   1.612  0.8954  0.1298 -0.1847
 2105TIP3   OH2 6271   5.703   3.155   5.287 -0.0194 -0.6987  0.3867
 2105TIP3    H1 6272   5.674   3.131   5.375 -1.0067  0.3997  0.3958
 2105TIP3    H2 6273   5.798   3.149   5.290 -0.1098 -2.0028  1.1215
 2106TIP3   OH2 6274   7.068   6.830   6.267 -0.2416  0.3609 -0.3498
 2106TIP3    H1 6275   7.045   6.890   6.338 -0.8441  1.8054 -1.7016
 2106TIP3    H2 6276   7.119   6.883   6.205  2.2958 -1.4532  0.0428
 2107TIP3   OH2 6277   4.241   4.390   4.997  0.8318  0.2045 -0.6014
 2107TIP3    H1 6278   4.261   4.478   5.028  0.9619  0.1383 -0.4949
 2107TIP3    H2 6279   4.313   4.336   5.029 -0.2516 -0.3259  1.0793
 2108TIP3   OH2 6280   1.341   0.020   6.456  0.2599  0.6742  0.0642
 2108TIP3    H1 6281   1.326  -0.074   6.454  0.7582  0.6050 -0.9584
 2108TIP3    H2 6282   1.286   0.055   6.386 -0.8053  1.2899  1.1861
 2109TIP3   OH2 6283   5.247   1.670   4.950 -0.0052 -0.4357 -0.0796
 2109TIP3    H1 6284   5.189   1.596   4.933 -0.0980 -0.0823 -1.3793
 2109TIP3    H2 6285   5.250   1.718   4.868 -2.3467  2.7066  1.4690
 2110TIP3   OH2 6286   2.917   7.488   3.624 -0.3636 -0.0709 -0.6596
 2110TIP3    H1 6287   2.863   7.552   3.578  0.1508 -0.5456 -1.9551
 2110TIP3    H2 6288   2.958   7.437   3.555  0.3535 -0.8767  0.3363
 2111TIP3   OH2 6289   4.652   3.593   3.002  0.4666  0.2532  0.5926
 2111TIP3    H1 6290   4.738   3.566   2.972 -0.3655 -0.4989 -1.3181
 2111TIP3    H2 6291   4.661   3.605   3.096  2.4642 -0.4924  0.5295
 2112TIP3   OH2 6292   4.613   7.066   3.195 -0.5975  0.4791 -0.2441
 2112TIP3    H1 6293   4.546   7.111   3.143 -0.3134  0.0894 -0.9685
 2112TIP3    H2 6294   4.685   7.053   3.134 -0.6761 -0.9604 -0.0683
 2113TIP3   OH2 6295   2.700   3.615   1.425  0.9422  0.1131  0.3873
 2113TIP3    H1 6296   2.642   3.656   1.362  2.2326 -1.0597 -1.7001
 2113TIP3    H2 6297   2.743   3.687   1.470  0.6970  1.0024 -0.7778
 2114TIP3   OH2 6298   1.524   0.885   2.949 -0.2796 -0.5020 -0.0908
 2114TIP3    H1 6299   1.582   0.959   2.938 -2.0314  0.7439 -1.5419
 2114TIP3    H2 6300   1.466   0.910   3.022 -0.0957 -0.9972  0.2348
 2115TIP3   OH2 6301   7.745   6.748   3.407  0.2291  0.6107 -0.5574
 2115TIP3    H1 6302   7.685   6.814   3.440  0.9883  1.6356 -1.1891
 2115TIP3    H2 6303   7.784   6.786   3.329  0.9083 -0.4563 -0.7740
 2116TIP3   OH2 6304   0.696   3.373   6.583 -0.3334 -0.2318  0.2064
 2116TIP3    H1 6305   0.663   3.410   6.501 -0.9533  0.1209  0.6150
 2116TIP3    H2 6306   0.619   3.364   6.639  0.4169  1.8818  1.6795
 2117TIP3   OH2 6307   0.845   6.234   1.662  0.4863  0.1114  0.0191
 2117TIP3    H1 6308   0.755   6.251   1.635  1.1387  1.5112 -1.4354
 2117TIP3    H2 6309   0.882   6.321   1.679  2.0938 -0.2795 -1.2334
 2118TIP3   OH2 6310   5.205   0.124   6.389  0.3661  0.0671  0.2996
 2118TIP3    H1 6311   5.204   0.050   6.327  1.5895 -0.1345  0.4894
 2118TIP3    H2 6312   5.297   0.130   6.417 -0.2224 -0.1741  2.4766
 2119TIP3   OH2 6313   5.217   2.690   3.641 -0.4524  0.0556 -0.1856
 2119TIP3    H1 6314   5.239   2.784   3.641 -0.5458  0.0849 -1.1841
 2119TIP3    H2 6315   5.288   2.650   3.691 -1.4792  0.8711  2.0566
 2120TIP3   OH2 6316   7.153   0.299   1.868 -0.3838 -0.2023 -0.3082
 2120TIP3    H1 6317   7.169   0.252   1.951  2.5989  2.0404  0.5616
 2120TIP3    H2 6318   7.123   0.385   1.895 -0.0963  0.3251 -1.6082
 2121TIP3   OH2 6319   1.864   5.435   4.395  0.3408  0.2415 -0.3282
 2121TIP3    H1 6320   1.783   5.459   4.439 -0.1459 -0.0283 -1.0506
 2121TIP3    H2 6321   1.874   5.341   4.412  0.9406  0.4402  0.4441
 2122TIP3   OH2 6322   5.182   5.133   6.357 -0.0204  0.3154  0.0690
 2122TIP3    H1 6323   5.228   5.158   6.437  1.4342 -1.5869 -0.1135
 2122TIP3    H2 6324   5.239   5.069   6.315 -2.0528 -0.8477 -1.0826
 2123TIP3   OH2 6325   1.056   6.382   3.201  0.0647 -0.0502  0.0210
 2123TIP3    H1 6326   1.017   6.325   3.135  0.6630 -0.4928  0.0426
 2123TIP3    H2 6327   0.983   6.434   3.234 -0.1998  0.3581 -1.1637
 2124TIP3   OH2 6328   3.945   3.724   6.556  0.1470  1.2111  0.4911
 2124TIP3    H1 6329   3.962   3.703   6.648  1.1992 -0.2403 -0.0032
 2124TIP3    H2 6330   3.863   3.772   6.558 -0.6812 -0.1528  2.0503
 2125TIP3   OH2 6331   5.506   3.961   5.988 -0.0264 -0.0683  0.0132
 2125TIP3    H1 6332   5.506   3.894   6.057 -0.9343 -1.5722 -1.3540
 2125TIP3    H2 6333   5.492   3.911   5.908  1.6588  1.5519 -1.3608
 2126TIP3   OH2 6334   0.184   1.141   1.662 -0.1101 -0.2629 -0.0066
 2126TIP3    H1 6335   0.159   1.064   1.713 -1.6385 -0.4463 -0.9729
 2126TIP3    H2 6336   0.272   1.121   1.630 -0.0986 -1.1829  0.5573
 2127TIP3   OH2 6337   7.189   5.526   1.261 -0.2016 -0.4511  0.3005
 2127TIP3    H1 6338   7.278   5.506   1.232 -0.1327  0.6977 -0.3143
 2127TIP3    H2 6339   7.133   5.499   1.188 -0.4564 -1.9454  1.0111
 2128TIP3   OH2 6340   5.646   6.411   0.461  0.6076 -0.0776 -0.1076
 2128TIP3    H1 6341   5.567   6.362   0.484  0.3992 -1.2097 -2.8655
 2128TIP3    H2 6342   5.650   6.481   0.526 -0.9511 -1.7780  1.9408
 2129TIP3   OH2 6343   6.948   3.201   0.802 -0.0576  0.1608 -0.2374
 2129TIP3    H1 6344   7.032   3.192   0.847  1.2286 -1.0312 -2.7001
 2129TIP3    H2 6345   6.918   3.289   0.826  2.1231  0.8194  0.3270
 2130TIP3   OH2 6346   2.619   4.738   4.002  0.4269  0.2194  0.0727
 2130TIP3    H1 6347   2.561   4.718   4.075  0.1536  1.2995  0.1793
 2130TIP3    H2 6348   2.704   4.754   4.043  0.1514  1.3662  0.2449
 2131TIP3   OH2 6349   4.243   7.136   5.571  0.2763  0.3047  0.6986
 2131TIP3    H1 6350   4.297   7.202   5.529 -0.1052  0.5158  0.5446
 2131TIP3    H2 6351   4.160   7.138   5.525  0.8472 -1.5412 -0.5222
 2132TIP3   OH2 6352   3.021   7.794   4.742  0.3347 -0.2963  0.1843
 2132TIP3    H1 6353   2.926   7.801   4.741  0.3602  0.1069  0.2747
 2132TIP3    H2 6354   3.052   7.881   4.717  0.6773 -0.9050 -1.7435
 2133TIP3   OH2 6355   0.809   3.563   1.205 -0.3193  0.0903 -0.1004
 2133TIP3    H1 6356   0.744   3.562   1.275  0.2699 -0.9996  0.4506
 2133TIP3    H2 6357   0.839   3.654   1.201 -1.1646  0.3963  0.2889
 2134TIP3   OH2 6358   3.669   2.186   5.409  0.5552  0.3527 -0.1306
 2134TIP3    H1 6359   3.603   2.247   5.379  1.3750  0.6583 -1.3864
 2134TIP3    H2 6360   3.728   2.175   5.335  3.5121  2.2489  1.7273
 2135TIP3   OH2 6361   0.317   6.599   6.129  1.0526  0.3063 -0.4553
 2135TIP3    H1 6362   0.301   6.559   6.043  1.5852  0.8665 -0.8225
 2135TIP3    H2 6363   0.411   6.617   6.129  1.2023 -0.3722  0.5476
 2136TIP3   OH2 6364   3.339   3.338   6.235  0.2306 -0.0898  0.3985
 2136TIP3    H1 6365   3.357   3.311   6.145 -0.8684  1.7932 -0.4656
 2136TIP3    H2 6366   3.417   3.386   6.262  0.3558 -0.2038  0.2345
 2137TIP3   OH2 6367   3.967   7.535   2.038 -0.3374 -0.2965 -0.8116
 2137TIP3    H1 6368   3.913   7.542   1.960 -0.1864 -2.1305 -1.1289
 2137TIP3    H2 6369   4.048   7.581   2.016 -1.5024  2.0514 -0.5083
 2138TIP3   OH2 6370   4.072   3.631   4.554 -0.3299  0.1948  0.8086
 2138TIP3    H1 6371   3.995   3.664   4.507 -0.6252  0.5038  1.4898
 2138TIP3    H2 6372   4.090   3.698   4.620  0.2035 -0.1303  0.9973
 2139TIP3   OH2 6373   5.176   5.355   1.546 -0.8267  0.4731 -0.4429
 2139TIP3    H1 6374   5.094   5.336   1.592 -0.6586  2.2078  0.6665
 2139TIP3    H2 6375   5.240   5.370   1.616  0.1911  0.1789 -1.2832
 2140TIP3   OH2 6376   1.210   4.147   3.658 -0.3597 -0.2417  0.0617
 2140TIP3    H1 6377   1.202   4.052   3.666 -1.9625 -0.3255 -1.6823
 2140TIP3    H2 6378   1.179   4.165   3.569 -1.4515  2.0418  0.8404
 2141TIP3   OH2 6379   3.336   6.463   1.594 -0.0218 -0.1572  0.4614
 2141TIP3    H1 6380   3.351   6.377   1.553 -0.2594 -0.5046  1.0941
 2141TIP3    H2 6381   3.397   6.465   1.668 -0.1702  0.1277  0.5773
 2142TIP3   OH2 6382   1.051   4.015   4.733  0.1938  0.0240 -0.0001
 2142TIP3    H1 6383   1.120   3.983   4.675 -0.2194 -0.1723 -0.3932
 2142TIP3    H2 6384   1.062   4.110   4.734  2.1900 -0.1326  2.1248
 2143TIP3   OH2 6385   1.074   5.116   2.781 -0.7082  0.0182  0.0305
 2143TIP3    H1 6386   1.117   5.115   2.867 -1.3969 -0.3177  0.3842
 2143TIP3    H2 6387   1.087   5.205   2.748  0.8234 -0.2579 -0.1811
 2144TIP3   OH2 6388   7.884   2.909   4.463 -0.0985 -0.2644  0.2037
 2144TIP3    H1 6389   7.900   3.002   4.479  1.0837 -0.2341 -0.9998
 2144TIP3    H2 6390   7.796   2.907   4.425  0.9198  0.7196 -2.4059
 2145TIP3   OH2 6391   2.264   0.970   2.966 -0.2904 -0.1163 -0.0891
 2145TIP3    H1 6392   2.349   0.930   2.949 -0.1293  0.1054  0.1852
 2145TIP3    H2 6393   2.232   0.996   2.880 -0.8181 -1.6595 -0.4029
 2146TIP3   OH2 6394   1.468   7.704   6.684  0.2286 -0.2348 -0.3530
 2146TIP3    H1 6395   1.519   7.766   6.735  1.5872 -1.7494  0.1975
 2146TIP3    H2 6396   1.471   7.739   6.595  0.9249  0.5123 -0.0496
 2147TIP3   OH2 6397   7.760   2.092   5.261  0.1527  0.0070  0.1785
 2147TIP3    H1 6398   7.755   2.123   5.351 -0.9701 -0.5910  0.3367
 2147TIP3    H2 6399   7.678   2.045   5.247  0.3576  0.0061 -1.1266
 2148TIP3   OH2 6400   1.405   4.967   1.652  0.2676  0.2393 -0.9067
 2148TIP3    H1 6401   1.366   4.892   1.606 -0.7085  0.7537 -0.9346
 2148TIP3    H2 6402   1.330   5.019   1.680  0.9365  2.1184 -2.3922
 2149TIP3   OH2 6403   2.207   0.911   0.219  0.0350  0.5088 -0.2592
 2149TIP3    H1 6404   2.205   0.849   0.146  2.1584  0.4967 -0.3798
 2149TIP3    H2 6405   2.286   0.887   0.268  0.0629  2.1575  0.5597
 2150TIP3   OH2 6406   5.454   5.181   2.337 -0.3228 -0.1386  0.4428
 2150TIP3    H1 6407   5.540   5.193   2.376 -0.8978  0.7610  1.4844
 2150TIP3    H2 6408   5.411   5.115   2.392  0.0294 -1.3280 -0.6591
 2151TIP3   OH2 6409   4.125   4.433   4.481 -0.1435  0.2354  0.0790
 2151TIP3    H1 6410   4.034   4.408   4.496 -0.2266  0.3926 -0.1614
 2151TIP3    H2 6411   4.168   4.416   4.565 -0.2024 -0.6707 -0.0670
 2152TIP3   OH2 6412   3.938   2.975   6.141 -0.2314 -0.4827  0.0604
 2152TIP3    H1 6413   4.009   2.993   6.203  0.4264 -0.0055 -0.7992
 2152TIP3    H2 6414   3.887   3.055   6.139 -1.9256 -1.4248  2.0461
 2153TIP3   OH2 6415   2.717   4.160   6.281 -0.4544 -0.2380  0.2222
 2153TIP3    H1 6416   2.805   4.167   6.319 -0.1337  1.2156 -0.7085
 2153TIP3    H2 6417   2.673   4.240   6.308 -1.4453 -0.8730  0.5269
 2154TIP3   OH2 6418   1.904   2.091   4.001 -0.6416  0.5974 -0.1463
 2154TIP3    H1 6419   1.917   1.998   3.982  0.1001  0.5883  0.3738
 2154TIP3    H2 6420   1.809   2.101   4.008 -0.7958  0.1149 -1.3559
 2155TIP3   OH2 6421   6.188   2.447   4.025  0.2353 -0.0382 -0.0542
 2155TIP3    H1 6422   6.269   2.397   4.018 -0.8426 -1.8422 -0.3916
 2155TIP3    H2 6423   6.189   2.506   3.949  0.3150 -1.5133 -1.2492
 2156TIP3   OH2 6424   0.836   2.164   0.549  0.1385 -0.2300 -0.0766
 2156TIP3    H1 6425   0.788   2.241   0.520 -1.1380 -1.1703 -0.5194
 2156TIP3    H2 6426   0.904   2.152   0.483  1.2436  1.2763  0.7053
 2157TIP3   OH2 6427   7.240   6.656   1.532 -0.1809  0.3192  0.1522
 2157TIP3    H1 6428   7.319   6.681   1.580 -0.1624  1.1147 -0.2845
 2157TIP3    H2 6429   7.248   6.561   1.522 -0.5241  0.0143  2.2952
 2158TIP3   OH2 6430   7.049   4.567   6.507  0.0759 -0.2858  0.5838
 2158TIP3    H1 6431   7.084   4.655   6.494  0.2908 -0.5332 -0.6684
 2158TIP3    H2 6432   7.002   4.548   6.425  0.0674 -1.3419  0.8244
 2159TIP3   OH2 6433   3.123   5.705   2.581  0.0191 -0.3139 -0.1212
 2159TIP3    H1 6434   3.206   5.708   2.628  0.0067 -0.8284 -0.0631
 2159TIP3    H2 6435   3.133   5.631   2.521 -0.4554 -0.4713 -0.0051
 2160TIP3   OH2 6436   6.262   2.410   0.561 -0.0720  0.8386 -0.2287
 2160TIP3    H1 6437   6.205   2.414   0.638 -0.4930 -1.5023 -0.3604
 2160TIP3    H2 6438   6.202   2.413   0.487  0.1397  0.4319 -0.4163
 2161TIP3   OH2 6439   7.961   5.582   5.601  0.3727 -0.7901 -0.1450
 2161TIP3    H1 6440   8.003   5.664   5.629  0.0167  0.4027 -2.8393
 2161TIP3    H2 6441   7.939   5.596   5.509  1.4836 -4.4382 -1.1217
 2162TIP3   OH2 6442   7.516   4.526   1.707 -0.0762 -0.9074 -0.3712
 2162TIP3    H1 6443   7.505   4.619   1.723  0.9928 -0.8234 -0.0174
 2162TIP3    H2 6444   7.462   4.508   1.630  0.6863  0.2719 -1.2089
 2163TIP3   OH2 6445   4.889   3.147   0.562  0.5310 -0.9495  0.5879
 2163TIP3    H1 6446   4.803   3.164   0.601 -0.7478  0.2675 -2.4293
 2163TIP3    H2 6447   4.870   3.097   0.483  2.6779 -1.2287  0.1919
 2164TIP3   OH2 6448   1.411   1.407   1.038 -0.2489  0.4264 -0.4896
 2164TIP3    H1 6449   1.323   1.407   1.076 -0.7273  1.3032 -1.5606
 2164TIP3    H2 6450   1.427   1.315   1.015 -0.3527  0.0487  0.8563
 2165TIP3   OH2 6451   0.985   2.317   0.760 -0.2656 -0.0265  0.3305
 2165TIP3    H1 6452   0.961   2.265   0.683  0.5287  2.0253 -1.4048
 2165TIP3    H2 6453   0.949   2.268   0.834 -3.2749 -0.8721 -1.4910
 2166TIP3   OH2 6454   6.113   4.494   2.888 -0.7239  0.0524 -0.5950
 2166TIP3    H1 6455   6.028   4.529   2.860  0.3281  1.4735 -2.2416
 2166TIP3    H2 6456   6.146   4.449   2.810 -0.6590 -1.9782  0.5523
 2167TIP3   OH2 6457   5.861   7.178   4.915  0.3153  0.3394  0.1379
 2167TIP3    H1 6458   5.861   7.116   4.988  0.5603  0.5272  0.3040
 2167TIP3    H2 6459   5.891   7.260   4.955  0.3262  0.4745 -0.1486
 2168TIP3   OH2 6460   8.155   1.309   6.642  0.5839 -0.2808 -0.0632
 2168TIP3    H1 6461   8.209   1.324   6.720  2.5804  0.5821 -1.5379
 2168TIP3    H2 6462   8.137   1.396   6.608  0.9572 -0.6798 -1.3377
 2169TIP3   OH2 6463   3.089   4.836   6.748 -0.3902  0.2173  0.0206
 2169TIP3    H1 6464   3.163   4.775   6.740 -0.8216 -0.3163 -0.0012
 2169TIP3    H2 6465   3.079   4.848   6.843 -0.9080 -0.5093  0.0645
 2170TIP3   OH2 6466   2.493   7.328   2.931 -0.3813  0.2461 -0.4825
 2170TIP3    H1 6467   2.561   7.299   2.869  1.9473  0.5932  1.7122
 2170TIP3    H2 6468   2.413   7.287   2.900  0.8583 -0.3763 -3.1225
 2171TIP3   OH2 6469   6.509   1.572   1.330  0.5210  0.3131  0.2184
 2171TIP3    H1 6470   6.518   1.618   1.414 -0.0705  0.9251 -0.0452
 2171TIP3    H2 6471   6.586   1.598   1.280  0.4598  0.5900  0.2689
 2172TIP3   OH2 6472   1.770   5.357   5.697  0.0064 -0.5114  0.5323
 2172TIP3    H1 6473   1.762   5.385   5.606  0.5933 -0.5795  0.4506
 2172TIP3    H2 6474   1.681   5.361   5.732  0.1517  2.4023  0.8163
 2173TIP3   OH2 6475   5.195   4.008   2.690  0.1247  0.6895 -0.3452
 2173TIP3    H1 6476   5.178   4.103   2.688  0.7973  0.8349  0.2708
 2173TIP3    H2 6477   5.207   3.989   2.783  1.2602  0.2272 -0.5792
 2174TIP3   OH2 6478   7.203   3.111   4.831 -0.4686 -0.0413 -0.0909
 2174TIP3    H1 6479   7.187   3.096   4.738  0.2077  0.5080 -0.2989
 2174TIP3    H2 6480   7.287   3.156   4.835 -0.8673  0.6707  0.7358
 2175TIP3   OH2 6481   5.423   7.710   0.874  0.1641 -0.0407 -0.2176
 2175TIP3    H1 6482   5.340   7.757   0.886  1.3511  2.4840 -1.0514
 2175TIP3    H2 6483   5.467   7.719   0.958 -0.5357 -1.7844  0.3755
 2176TIP3   OH2 6484   6.199   6.533   1.520 -0.6293  0.5227 -0.3365
 2176TIP3    H1 6485   6.268   6.469   1.539 -2.4276 -1.2527  0.6031
 2176TIP3    H2 6486   6.188   6.528   1.425  0.7629  1.1451 -0.5650
 2177TIP3   OH2 6487   5.175   1.877   6.217  0.4683 -0.0685  0.0095
 2177TIP3    H1 6488   5.214   1.792   6.199 -0.6879 -0.3520 -1.3017
 2177TIP3    H2 6489   5.086   1.871   6.182 -0.9714  0.4132  3.1629
 2178TIP3   OH2 6490   7.907   4.104   4.831  0.1591 -0.0590 -0.1159
 2178TIP3    H1 6491   7.910   4.194   4.800  2.9573  0.0386  0.2150
 2178TIP3    H2 6492   7.964   4.055   4.772 -0.7689 -1.5200  0.1212
 2179TIP3   OH2 6493   2.553   1.529   3.551  0.2575 -0.8320  0.0231
 2179TIP3    H1 6494   2.521   1.469   3.484  0.8615 -1.5658  0.3812
 2179TIP3    H2 6495   2.636   1.562   3.516 -0.0473 -0.2302 -0.1508
 2180TIP3   OH2 6496   1.144   0.945   6.302  0.3971 -0.5250  0.5624
 2180TIP3    H1 6497   1.052   0.942   6.329 -0.0467  0.5546 -0.7140
 2180TIP3    H2 6498   1.181   1.019   6.352  0.4228 -0.5777  0.6221
 2181TIP3   OH2 6499   3.620   6.161   3.207 -0.1832 -0.2194 -0.2209
 2181TIP3    H1 6500   3.650   6.249   3.229  0.9409 -0.4023 -0.9244
 2181TIP3    H2 6501   3.645   6.149   3.115  0.9557 -1.7596  0.2315
 2182TIP3   OH2 6502   5.496   3.078   0.264 -0.1746 -0.4746 -0.4649
 2182TIP3    H1 6503   5.511   2.984   0.260 -1.7226 -0.7575 -0.3548
 2182TIP3    H2 6504   5.564   3.116   0.208  0.8051 -1.6053 -0.0669
 2183TIP3   OH2 6505   2.039   5.860   1.432  0.4680  0.5086 -0.4068
 2183TIP3    H1 6506   1.985   5.910   1.493  0.2040 -0.2203 -0.0257
 2183TIP3    H2 6507   2.129   5.875   1.461  0.2927 -0.8274  0.9859
 2184TIP3   OH2 6508   1.773   0.727   2.992 -0.1728  0.0588  0.0358
 2184TIP3    H1 6509   1.816   0.666   2.933  0.3374 -0.9635  1.4094
 2184TIP3    H2 6510   1.680   0.722   2.970 -0.0340 -0.5970 -0.4125
 2185TIP3   OH2 6511   3.500   3.260   4.755 -0.6585  0.0423  0.1821
 2185TIP3    H1 6512   3.526   3.325   4.690  1.3666 -0.4464  0.4457
 2185TIP3    H2 6513   3.473   3.184   4.703 -0.8074  0.2877 -0.1023
 2186TIP3   OH2 6514   1.286   6.511   3.321  0.9498 -0.0544 -0.1697
 2186TIP3    H1 6515   1.225   6.456   3.272 -0.2838  0.1416  1.0649
 2186TIP3    H2 6516   1.282   6.478   3.411  1.9472  0.5805  0.1264
 2187TIP3   OH2 6517   3.848   6.570   4.936 -0.5465  0.4126  0.1850
 2187TIP3    H1 6518   3.760   6.605   4.927 -0.0931  1.7496  0.6836
 2187TIP3    H2 6519   3.836   6.475   4.939 -2.1009  0.6146  1.7622
 2188TIP3   OH2 6520   3.801   1.708   5.842 -0.0449  0.2131 -0.0692
 2188TIP3    H1 6521   3.791   1.613   5.844 -0.0387  0.2171  0.2580
 2188TIP3    H2 6522   3.745   1.736   5.770 -1.1689  0.0891  0.7300
 2189TIP3   OH2 6523   7.984   5.936   4.355 -0.1354  0.2491  0.4477
 2189TIP3    H1 6524   7.975   5.906   4.445 -0.0096  0.2458  0.4595
 2189TIP3    H2 6525   7.896   5.928   4.318 -0.2544  0.5551  0.6612
 2190TIP3   OH2 6526   6.241   6.910   4.724  0.1157 -0.1282 -0.4156
 2190TIP3    H1 6527   6.178   6.965   4.771 -0.6746  0.1157 -1.7318
 2190TIP3    H2 6528   6.247   6.831   4.778  0.7165  0.8979  1.1134
 2191TIP3   OH2 6529   5.914   7.302   2.069  0.1844  0.0912 -0.1402
 2191TIP3    H1 6530   5.907   7.248   1.990  0.3785 -2.3366  1.4148
 2191TIP3    H2 6531   5.824   7.331   2.086  0.0464  0.1298 -0.8821
 2192TIP3   OH2 6532   3.627   1.800   0.588 -0.0244 -0.3283 -0.0113
 2192TIP3    H1 6533   3.679   1.754   0.522  0.0877 -0.1475 -0.0508
 2192TIP3    H2 6534   3.611   1.735   0.656 -1.4922 -0.9717 -0.9485
 2193TIP3   OH2 6535   0.834   5.594   6.086 -0.0901 -0.3889  0.1353
 2193TIP3    H1 6536   0.904   5.532   6.105 -0.8457 -1.2421  0.1874
 2193TIP3    H2 6537   0.786   5.555   6.013  1.1743  1.5590 -1.8322
 2194TIP3   OH2 6538   8.154   4.792   6.549 -0.3106 -0.2218 -0.3422
 2194TIP3    H1 6539   8.114   4.717   6.505  0.9069 -1.1304  0.0500
 2194TIP3    H2 6540   8.091   4.817   6.617 -0.5247 -1.1830 -0.1761
 2195TIP3   OH2 6541   5.649   2.151   6.381  0.6834  0.3715 -0.1370
 2195TIP3    H1 6542   5.631   2.093   6.307  0.6812  1.3495 -0.9218
 2195TIP3    H2 6543   5.668   2.092   6.454  0.8003 -0.6091 -0.9442
 2196TIP3   OH2 6544   4.430   0.703   6.415 -0.5107  0.2921 -0.3570
 2196TIP3    H1 6545   4.358   0.704   6.479 -0.0061  0.4187  0.2145
 2196TIP3    H2 6546   4.506   0.676   6.466  0.3970  2.6128 -0.3657
 2197TIP3   OH2 6547   3.348   0.110   3.336 -0.0256  0.5018  0.2259
 2197TIP3    H1 6548   3.427   0.164   3.328 -0.4689  1.1599  0.2613
 2197TIP3    H2 6549   3.353   0.075   3.425  0.2256  0.5481  0.2322
 2198TIP3   OH2 6550   0.975   2.494   1.940 -0.5580  0.0932  0.3655
 2198TIP3    H1 6551   0.985   2.570   1.883  0.4895 -0.7611 -0.6309
 2198TIP3    H2 6552   1.063   2.477   1.973 -0.6803 -0.9831  0.1789
 2199TIP3   OH2 6553   7.139   2.420   3.915 -0.3945 -0.2508  0.3583
 2199TIP3    H1 6554   7.086   2.460   3.984  0.3727  1.3521  0.0701
 2199TIP3    H2 6555   7.215   2.384   3.960  0.2468  1.0456  0.3547
 2200TIP3   OH2 6556   3.805   6.601   0.127  0.5771 -0.7372 -0.5061
 2200TIP3    H1 6557   3.823   6.598   0.221  1.9857  0.8296 -0.6790
 2200TIP3    H2 6558   3.866   6.667   0.093  1.0927 -2.2364 -2.7469
 2201TIP3   OH2 6559   1.633   1.870   0.871  0.0122  0.3821 -0.1781
 2201TIP3    H1 6560   1.574   1.797   0.886  0.8964 -0.5262 -0.9869
 2201TIP3    H2 6561   1.650   1.905   0.959 -1.8936  0.8491  0.0565
 2202TIP3   OH2 6562   5.504   1.773   2.358  0.4895 -0.0172 -0.5551
 2202TIP3    H1 6563   5.492   1.700   2.297 -2.3620  1.7309 -2.3444
 2202TIP3    H2 6564   5.449   1.751   2.433 -1.2796  0.6784 -1.5819
 2203TIP3   OH2 6565   0.387   7.753   1.825  0.0042  0.2693 -0.3617
 2203TIP3    H1 6566   0.365   7.831   1.774 -0.4478  1.1876  1.1536
 2203TIP3    H2 6567   0.460   7.780   1.881  1.4518 -1.1433 -1.4911
 2204TIP3   OH2 6568   1.629   7.151   1.058 -0.1958  0.3888  0.2098
 2204TIP3    H1 6569   1.578   7.133   1.137  1.6150  0.6171  1.4744
 2204TIP3    H2 6570   1.712   7.106   1.072  0.6521  1.5226 -0.9874
 2205TIP3   OH2 6571   4.348   7.166   6.086  0.5406  0.5591  0.2125
 2205TIP3    H1 6572   4.379   7.113   6.013 -1.1250  0.4181 -0.4318
 2205TIP3    H2 6573   4.267   7.123   6.114  0.2366  1.6079  1.0001
 2206TIP3   OH2 6574   4.226   1.499   2.061  0.3744  0.1372 -0.1377
 2206TIP3    H1 6575   4.163   1.428   2.053  0.6281 -0.2608  1.1168
 2206TIP3    H2 6576   4.182   1.565   2.116  1.1467 -0.3053  1.0605
 2207TIP3   OH2 6577   1.914   5.310   1.076  0.4594  0.0527 -0.3789
 2207TIP3    H1 6578   1.979   5.242   1.091  0.7577  0.5315  0.6113
 2207TIP3    H2 6579   1.881   5.294   0.987  0.6387 -1.2678 -0.2244
 2208TIP3   OH2 6580   3.446   3.423   0.888 -0.1658  0.2878  0.0235
 2208TIP3    H1 6581   3.445   3.497   0.949 -0.8149 -0.1182  0.5063
 2208TIP3    H2 6582   3.411   3.350   0.938  1.8247 -0.7400  0.0123
 2209TIP3   OH2 6583   7.095   3.907   4.720  0.0264 -0.1162  0.0341
 2209TIP3    H1 6584   7.092   3.821   4.762 -0.3402 -0.0407  0.1604
 2209TIP3    H2 6585   7.088   3.888   4.627 -1.4838 -0.1402  0.1337
 2210TIP3   OH2 6586   0.211   4.575   1.272  0.1601 -0.3788 -0.2525
 2210TIP3    H1 6587   0.183   4.502   1.327 -0.9261 -0.4039 -0.8071
 2210TIP3    H2 6588   0.252   4.636   1.333 -1.0741 -0.3786  0.6279
 2211TIP3   OH2 6589   3.220   5.955   3.631  0.6453  0.9071  0.1357
 2211TIP3    H1 6590   3.148   6.018   3.623  1.5593  1.7349 -3.3650
 2211TIP3    H2 6591   3.178   5.869   3.628 -0.2837  1.3818 -1.1840
 2212TIP3   OH2 6592   1.414   2.250   6.344  0.0742 -0.6267  0.2602
 2212TIP3    H1 6593   1.330   2.240   6.300  0.1265  0.6547 -0.1701
 2212TIP3    H2 6594   1.392   2.259   6.437 -0.1321 -1.9163  0.3545
 2213TIP3   OH2 6595   2.971   4.776   6.305 -0.0668  0.7056 -0.0070
 2213TIP3    H1 6596   2.959   4.835   6.230 -0.7641 -1.7639 -2.0028
 2213TIP3    H2 6597   3.060   4.741   6.294  0.4294  1.5019  1.2835
 2214TIP3   OH2 6598   4.002   1.965   1.473  0.3915  0.7332  0.1758
 2214TIP3    H1 6599   3.931   2.027   1.491 -0.8258 -0.1741 -1.2516
 2214TIP3    H2 6600   3.981   1.888   1.526 -0.7654 -0.2328 -1.5672
 2215TIP3   OH2 6601   8.154   3.212   2.260 -0.0535  0.0947 -0.5040
 2215TIP3    H1 6602   8.208   3.247   2.331 -1.2570  0.1076  0.4306
 2215TIP3    H2 6603   8.218   3.181   2.196  1.0982  2.9237 -0.8955
 2216TIP3   OH2 6604   7.210   7.606   3.524  0.7549 -0.2369 -0.1461
 2216TIP3    H1 6605   7.301   7.578   3.529  0.5162 -1.0790 -0.2252
 2216TIP3    H2 6606   7.160   7.524   3.531  0.0558 -0.0427 -2.1771
 2217TIP3   OH2 6607   3.375   4.887   1.079 -0.1850  0.4902  0.0042
 2217TIP3    H1 6608   3.362   4.934   0.996 -0.7009  0.2157 -0.0744
 2217TIP3    H2 6609   3.379   4.795   1.053  0.7668  0.4804  0.1624
 2218TIP3   OH2 6610   6.312   3.351   4.716 -0.1321  0.1774 -0.2941
 2218TIP3    H1 6611   6.391   3.297   4.714  0.0387  0.2868  1.4619
 2218TIP3    H2 6612   6.291   3.368   4.624  0.9850 -1.1544 -0.8205
 2219TIP3   OH2 6613   2.831   7.202   4.567 -0.1980  0.0183 -0.5234
 2219TIP3    H1 6614   2.822   7.230   4.658  0.0014  1.0082 -0.7964
 2219TIP3    H2 6615   2.843   7.283   4.518  0.9223 -0.5872 -1.2955
 2220TIP3   OH2 6616   6.518   0.955   3.750 -0.2594 -0.3135  0.3622
 2220TIP3    H1 6617   6.505   0.997   3.835 -0.5056 -0.2596  0.2994
 2220TIP3    H2 6618   6.477   1.015   3.687 -1.2094 -0.9709  0.3360
 2221TIP3   OH2 6619   3.319   5.508   5.237 -0.5010 -0.8440  0.2509
 2221TIP3    H1 6620   3.351   5.492   5.326 -1.9130 -1.1049  0.7313
 2221TIP3    H2 6621   3.243   5.565   5.248  0.0317  0.1415 -0.9019
 2222TIP3   OH2 6622   7.485   5.638   3.275  0.3166 -0.0540 -0.8926
 2222TIP3    H1 6623   7.525   5.696   3.340  3.0195 -2.8796  0.2660
 2222TIP3    H2 6624   7.493   5.684   3.192  0.7929  1.8714  0.1696
 2223TIP3   OH2 6625   1.619   6.614   5.450 -0.1024  0.6511  0.3462
 2223TIP3    H1 6626   1.587   6.704   5.436 -1.5661 -0.1883 -2.5271
 2223TIP3    H2 6627   1.700   6.609   5.399 -0.3461  0.1782  0.0005
 2224TIP3   OH2 6628   5.608   3.015   0.939 -0.0628 -0.2421 -0.2897
 2224TIP3    H1 6629   5.671   2.976   0.999 -1.4703 -1.4056  0.5196
 2224TIP3    H2 6630   5.550   3.067   0.995 -0.4397 -0.0372 -0.8590
 2225TIP3   OH2 6631   7.776   7.096   0.901  0.2794 -0.8526 -0.4050
 2225TIP3    H1 6632   7.693   7.133   0.872 -0.5518 -0.9796  1.6855
 2225TIP3    H2 6633   7.793   7.024   0.841 -1.2027 -0.9200 -0.7767
 2226TIP3   OH2 6634   7.584   7.691   2.864 -0.5376  0.3403  0.5859
 2226TIP3    H1 6635   7.631   7.607   2.863 -1.8174 -0.4952  2.6314
 2226TIP3    H2 6636   7.652   7.757   2.859  0.5816 -0.8073 -0.0004
 2227TIP3   OH2 6637   4.261   2.036   2.436 -0.1632  0.0179  0.2389
 2227TIP3    H1 6638   4.311   2.070   2.510 -0.2942 -0.8439  0.7322
 2227TIP3    H2 6639   4.319   2.046   2.360  0.3136  0.0797  0.6099
 2228TIP3   OH2 6640   2.559   3.610   0.751 -0.0633 -0.0868 -0.2439
 2228TIP3    H1 6641   2.593   3.528   0.787 -1.2100 -0.7195 -0.5353
 2228TIP3    H2 6642   2.519   3.584   0.668  0.0627  0.8680 -0.6090
 2229TIP3   OH2 6643   6.211   6.573   5.907  0.1479 -0.2401 -0.2089
 2229TIP3    H1 6644   6.227   6.559   6.000 -2.1742 -1.4651  0.0924
 2229TIP3    H2 6645   6.160   6.653   5.903 -0.2455 -0.4938 -0.3484
 2230TIP3   OH2 6646   2.363   1.339   4.297  0.2651  0.1753 -0.0857
 2230TIP3    H1 6647   2.374   1.245   4.312 -0.8581 -0.3541 -2.1732
 2230TIP3    H2 6648   2.445   1.366   4.256  0.3875 -0.0114  0.0314
 2231TIP3   OH2 6649   6.420   7.371   5.540  0.2913  0.2447 -0.6193
 2231TIP3    H1 6650   6.390   7.287   5.507 -0.3413  0.2100  0.0148
 2231TIP3    H2 6651   6.501   7.388   5.493  0.0892 -0.4110 -1.2214
 2232TIP3   OH2 6652   2.412   1.967   1.939  0.3935  0.6208 -0.2229
 2232TIP3    H1 6653   2.464   1.904   1.888 -0.7998 -3.2527  2.8670
 2232TIP3    H2 6654   2.322   1.951   1.912  0.1475  2.0700 -0.3343
 2233TIP3   OH2 6655   5.700   2.426   6.427  0.1702 -0.7808  0.2168
 2233TIP3    H1 6656   5.703   2.335   6.399 -0.7963 -0.6848 -0.2315
 2233TIP3    H2 6657   5.775   2.467   6.384 -0.1761 -1.0710 -0.6876
 2234TIP3   OH2 6658   6.954   7.473   3.246  0.1366 -0.2644 -0.5369
 2234TIP3    H1 6659   7.044   7.461   3.275 -0.7032 -1.2511  1.9618
 2234TIP3    H2 6660   6.927   7.387   3.213 -0.2722 -0.3134 -0.0826
 2235TIP3   OH2 6661   7.953   5.524   3.173  0.3952  0.2171 -0.9123
 2235TIP3    H1 6662   7.983   5.474   3.097  1.4428 -0.0904 -0.3204
 2235TIP3    H2 6663   7.948   5.460   3.243 -0.1337  0.5867 -0.6120
 2236TIP3   OH2 6664   3.730   5.553   3.144  0.3494 -0.0170  0.6134
 2236TIP3    H1 6665   3.636   5.569   3.147  0.5165  0.9421  1.5591
 2236TIP3    H2 6666   3.767   5.620   3.202  1.6977  0.2763 -0.5261
 2237TIP3   OH2 6667   4.791   6.691   2.338 -0.3883  0.6505  0.4403
 2237TIP3    H1 6668   4.861   6.700   2.273  0.8740  1.1358  1.7984
 2237TIP3    H2 6669   4.769   6.598   2.336 -0.9846  0.8011 -1.2591
 2238TIP3   OH2 6670   3.967   5.952   0.651  0.7546 -0.2535 -0.3011
 2238TIP3    H1 6671   3.878   5.945   0.686  1.3501  0.7158  1.5041
 2238TIP3    H2 6672   3.964   5.903   0.569 -1.2388 -0.9007  0.1065
 2239TIP3   OH2 6673   5.980   2.794   6.484 -0.5324  0.2974  0.0450
 2239TIP3    H1 6674   5.983   2.818   6.392 -0.0903 -1.7539 -0.5194
 2239TIP3    H2 6675   6.034   2.859   6.528  2.3468 -0.7484 -1.6647
 2240TIP3   OH2 6676   6.472   1.919   4.722  0.0524 -0.1533 -0.1025
 2240TIP3    H1 6677   6.451   1.867   4.799 -0.6379  1.5947  0.9497
 2240TIP3    H2 6678   6.555   1.962   4.744  0.6207 -0.7771 -0.9554
 2241TIP3   OH2 6679   4.918   6.555   6.669 -0.1522 -0.0505 -0.6264
 2241TIP3    H1 6680   4.823   6.568   6.674 -0.0211  0.6595  0.2773
 2241TIP3    H2 6681   4.929   6.482   6.608 -1.3748 -1.2893  0.5516
 2242TIP3   OH2 6682   7.202   1.669   1.009 -0.2862  1.1915  0.9307
 2242TIP3    H1 6683   7.233   1.747   0.963  0.4286  0.0209 -0.6656
 2242TIP3    H2 6684   7.273   1.606   1.000 -1.5195 -0.2156  0.6415
 2243TIP3   OH2 6685   6.866   2.514   0.006 -0.7065 -0.1139  0.0925
 2243TIP3    H1 6686   6.845   2.498   0.098 -1.8917 -0.5487 -0.2267
 2243TIP3    H2 6687   6.960   2.500  -0.000 -0.8902 -1.9991  0.8798
 2244TIP3   OH2 6688   6.866   7.704   5.387  0.0565  0.1731  0.0701
 2244TIP3    H1 6689   6.943   7.667   5.430  0.8193  1.1219 -0.4248
 2244TIP3    H2 6690   6.889   7.706   5.294 -0.2393  1.1665  0.0010
 2245TIP3   OH2 6691   6.987   2.284   5.852  0.0541  0.0551  0.1478
 2245TIP3    H1 6692   6.942   2.337   5.917  1.1350 -0.9542  1.7709
 2245TIP3    H2 6693   7.044   2.345   5.806 -1.1784  0.8894 -0.3387
 2246TIP3   OH2 6694   2.776   4.458   1.366 -0.3403 -0.1383 -0.4024
 2246TIP3    H1 6695   2.739   4.377   1.333  0.0114 -0.1757 -0.7138
 2246TIP3    H2 6696   2.831   4.432   1.440  0.4033 -0.2869 -0.9903
 2247TIP3   OH2 6697   7.799   2.982   3.001  0.9747 -0.2498  0.0848
 2247TIP3    H1 6698   7.817   3.050   2.937  0.1184 -1.2176 -1.2208
 2247TIP3    H2 6699   7.715   3.007   3.040  1.6610  0.5278  1.1407
 2248TIP3   OH2 6700   2.013   7.735   0.072 -0.3901  0.4981  0.1967
 2248TIP3    H1 6701   2.011   7.727  -0.023 -0.7931 -0.7593  0.2967
 2248TIP3    H2 6702   2.042   7.825   0.088 -1.8210  1.2469 -1.1205
 2249TIP3   OH2 6703   5.948   3.319   5.434 -0.3629 -0.3274  0.2421
 2249TIP3    H1 6704   6.036   3.285   5.420  0.2551  1.3404 -0.1636
 2249TIP3    H2 6705   5.923   3.357   5.349 -1.3421 -0.4823  0.4428
 2250TIP3   OH2 6706   0.133   0.508   1.011 -0.4408 -0.1677 -0.2057
 2250TIP3    H1 6707   0.038   0.500   1.001 -0.2306 -1.4604 -1.3011
 2250TIP3    H2 6708   0.165   0.418   1.018  0.5458  0.2912  2.0037
 2251TIP3   OH2 6709   5.893   6.512   5.402  0.0593  0.3929 -0.3017
 2251TIP3    H1 6710   5.814   6.566   5.402 -0.5575 -0.4510  1.1678
 2251TIP3    H2 6711   5.881   6.452   5.476  1.7302 -0.2692 -0.5265
 2252TIP3   OH2 6712   5.586   4.536   3.235  0.2652  0.8417  0.4635
 2252TIP3    H1 6713   5.510   4.485   3.266  0.4952 -0.0785 -0.4119
 2252TIP3    H2 6714   5.558   4.627   3.240 -0.3139  0.6115  1.6943
 2253TIP3   OH2 6715   2.634   5.304   1.731  0.2481  0.0802 -0.0641
 2253TIP3    H1 6716   2.613   5.316   1.638 -0.4215  1.0356  0.1975
 2253TIP3    H2 6717   2.584   5.227   1.757  0.5581 -0.2863 -0.5253
 2254TIP3   OH2 6718   5.615   1.315   0.307 -0.3140 -0.1511  0.1619
 2254TIP3    H1 6719   5.647   1.268   0.229  0.3287 -2.1527  1.5492
 2254TIP3    H2 6720   5.681   1.382   0.323 -0.1382 -0.1134 -0.6763
 2255TIP3   OH2 6721   6.999   7.368   2.758 -0.4012  0.3094 -0.0452
 2255TIP3    H1 6722   6.922   7.358   2.813  0.2806 -2.3497  0.6133
 2255TIP3    H2 6723   6.976   7.323   2.676  0.5430 -0.9898  0.3542
 2256TIP3   OH2 6724   7.533   6.032   3.044 -0.1539  0.0853  0.7322
 2256TIP3    H1 6725   7.490   5.992   2.969  0.5930  1.8381 -0.7254
 2256TIP3    H2 6726   7.626   6.009   3.033 -0.1885 -0.5705  1.7534
 2257TIP3   OH2 6727   0.121   4.400   1.058 -0.5143  0.6250 -0.0474
 2257TIP3    H1 6728   0.170   4.468   1.103  2.0852 -0.5434 -0.9133
 2257TIP3    H2 6729   0.180   4.325   1.056 -2.7356 -1.2271 -0.3519
 2258TIP3   OH2 6730   6.306   5.334   4.791  0.3608 -0.0074  0.3655
 2258TIP3    H1 6731   6.317   5.297   4.879  1.1570 -0.1579  0.2123
 2258TIP3    H2 6732   6.379   5.395   4.781 -0.2510  0.7095  0.1481
 2259TIP3   OH2 6733   6.792   2.160   5.192  0.1402  0.2450  0.4379
 2259TIP3    H1 6734   6.710   2.133   5.234 -0.4975  1.6904  0.1906
 2259TIP3    H2 6735   6.764   2.206   5.113  1.1941  0.7270  0.3389
 2260TIP3   OH2 6736   5.576   6.091   2.151 -0.2496 -0.2341  0.3900
 2260TIP3    H1 6737   5.571   6.174   2.200  1.1789  0.1617 -0.0853
 2260TIP3    H2 6738   5.634   6.036   2.203 -0.4100 -0.5777  0.2045
 2261TIP3   OH2 6739   0.292   4.939   0.472 -0.0525 -0.6071  0.0758
 2261TIP3    H1 6740   0.198   4.931   0.461 -0.2513  1.1921  0.1873
 2261TIP3    H2 6741   0.318   5.011   0.414  1.1070 -0.5173  0.6591
 2262TIP3   OH2 6742   1.491   4.693   5.641  0.4344  0.1918 -0.2399
 2262TIP3    H1 6743   1.567   4.634   5.644  0.7534  0.6582  1.1238
 2262TIP3    H2 6744   1.421   4.644   5.684  0.2778  0.2306 -0.4477
 2263TIP3   OH2 6745   1.288   1.454   5.055  0.2847 -0.2412 -0.5763
 2263TIP3    H1 6746   1.312   1.541   5.023 -2.4047  0.9948  0.4502
 2263TIP3    H2 6747   1.352   1.436   5.124  1.1484  0.7140 -1.1000
 2264TIP3   OH2 6748   0.463   5.568   0.660  0.1517 -0.3616 -0.1621
 2264TIP3    H1 6749   0.469   5.474   0.646  0.2000 -0.2464 -0.9533
 2264TIP3    H2 6750   0.463   5.578   0.755  1.3040 -1.0888 -0.0660
 2265TIP3   OH2 6751   1.497   7.533   0.516 -0.0099 -0.2558 -0.1483
 2265TIP3    H1 6752   1.451   7.615   0.498  0.6022 -0.4340 -3.0565
 2265TIP3    H2 6753   1.559   7.554   0.585  0.3337  1.8327 -1.0296
 2266TIP3   OH2 6754   8.327   0.760   3.838  0.1378 -0.2228  0.1546
 2266TIP3    H1 6755   8.235   0.738   3.823  0.2601  0.2289 -1.4195
 2266TIP3    H2 6756   8.344   0.733   3.928 -1.3416 -0.9618  0.2336
 2267TIP3   OH2 6757   4.817   0.150   5.112  0.1078  0.6641  0.0711
 2267TIP3    H1 6758   4.785   0.183   5.028 -1.5614  1.3197  0.9142
 2267TIP3    H2 6759   4.793   0.218   5.175 -1.3665 -1.0755  1.5182
 2268TIP3   OH2 6760   8.117   1.418   0.145  0.0429  0.3901  0.0018
 2268TIP3    H1 6761   8.127   1.350   0.211 -0.5511 -0.9599 -1.2376
 2268TIP3    H2 6762   8.034   1.460   0.166 -0.5410 -0.5651 -0.3020
 2269TIP3   OH2 6763   0.864   5.399   5.005  0.0140  0.6285 -0.3686
 2269TIP3    H1 6764   0.903   5.330   4.952  0.9161  1.0344 -0.2478
 2269TIP3    H2 6765   0.771   5.397   4.983  0.5576  1.8860 -3.2809
 2270TIP3   OH2 6766   6.668   4.408   1.316  0.2672 -0.6232 -0.7651
 2270TIP3    H1 6767   6.586   4.454   1.297  1.0159  1.7467  1.3632
 2270TIP3    H2 6768   6.640   4.321   1.347 -1.5287  0.3988  0.6488
 2271TIP3   OH2 6769   3.042   0.924   0.780 -0.4786 -0.2921  0.4143
 2271TIP3    H1 6770   3.032   0.841   0.734  3.3150 -1.3827  1.1921
 2271TIP3    H2 6771   3.015   0.905   0.870  1.2335 -1.0099  0.8032
 2272TIP3   OH2 6772   1.465   5.414   2.906  0.3123 -0.2575 -0.1961
 2272TIP3    H1 6773   1.494   5.495   2.863  2.3081 -0.9488 -0.2736
 2272TIP3    H2 6774   1.407   5.443   2.976 -0.4510  1.1071 -1.3419
 2273TIP3   OH2 6775   5.671   5.670   1.036  0.4401 -0.4620 -0.3561
 2273TIP3    H1 6776   5.764   5.669   1.060  0.2695 -0.5646  0.3278
 2273TIP3    H2 6777   5.659   5.753   0.991  0.7584 -0.2148  0.0087
 2274TIP3   OH2 6778   7.558   1.402   3.477  0.8188 -0.3526 -0.7557
 2274TIP3    H1 6779   7.522   1.440   3.557  1.2262  0.5926 -1.0037
 2274TIP3    H2 6780   7.524   1.313   3.475 -0.9356  0.2748 -0.6347
 2275TIP3   OH2 6781   5.025   6.745   5.653  0.2780  0.6852 -0.2133
 2275TIP3    H1 6782   5.095   6.807   5.633 -0.5676  1.6318 -0.3235
 2275TIP3    H2 6783   4.965   6.753   5.579  0.9253 -1.4449 -1.0300
 2276TIP3   OH2 6784   4.682   0.708   5.738  0.4665 -0.0040 -0.2041
 2276TIP3    H1 6785   4.675   0.761   5.659 -0.1125 -2.2163 -1.7301
 2276TIP3    H2 6786   4.596   0.666   5.746  1.1859 -1.3996  0.4139
 2277TIP3   OH2 6787   7.957   2.882   5.575  0.2584 -0.1201  0.3052
 2277TIP3    H1 6788   8.045   2.890   5.612  0.4573 -2.6707  0.5280
 2277TIP3    H2 6789   7.969   2.835   5.493 -0.9676 -1.5422  0.8931
 2278TIP3   OH2 6790   5.641   1.481   2.362  0.2803  0.1558 -0.7273
 2278TIP3    H1 6791   5.577   1.437   2.418 -0.3883  1.8541 -0.0710
 2278TIP3    H2 6792   5.696   1.411   2.328  0.3010 -1.0190  1.5415
 2279TIP3   OH2 6793   0.727   6.449   0.462  0.1206 -0.0384 -0.1522
 2279TIP3    H1 6794   0.780   6.482   0.534  1.1318 -2.2188  0.1875
 2279TIP3    H2 6795   0.664   6.519   0.445 -0.4312  0.4429  3.1084
 2280TIP3   OH2 6796   7.053   0.315   5.390 -0.1014 -0.5145 -0.4073
 2280TIP3    H1 6797   7.030   0.291   5.300 -1.2854 -0.8420 -0.0323
 2280TIP3    H2 6798   6.970   0.339   5.430  0.3389 -0.8998  0.7617
 2281TIP3   OH2 6799   2.071   1.372   5.469 -0.1014 -0.3745 -0.5464
 2281TIP3    H1 6800   2.046   1.282   5.490 -0.8572 -0.0709 -0.0987
 2281TIP3    H2 6801   2.134   1.396   5.537 -1.5585  0.1615  0.6849
 2282TIP3   OH2 6802   0.961   6.337   2.697 -0.0871  0.8484 -0.5655
 2282TIP3    H1 6803   1.029   6.270   2.687 -0.6431  0.3971 -1.4831
 2282TIP3    H2 6804   0.899   6.299   2.760  0.1924  1.0042 -0.1924
 2283TIP3   OH2 6805   6.489   0.285   6.745 -0.2969 -0.4546  0.3315
 2283TIP3    H1 6806   6.583   0.300   6.734 -0.3952 -0.3262 -0.3670
 2283TIP3    H2 6807   6.448   0.370   6.725 -0.8333 -1.4021 -3.3301
 2284TIP3   OH2 6808   2.089   1.878   1.676 -0.3009  0.6440 -0.4394
 2284TIP3    H1 6809   2.072   1.798   1.626 -0.0737  0.1619  0.2550
 2284TIP3    H2 6810   2.012   1.934   1.658 -0.9688 -0.1422 -0.0945
 2285TIP3   OH2 6811   1.243   0.861   0.535 -0.1429 -0.2433 -0.0809
 2285TIP3    H1 6812   1.192   0.938   0.559  0.9735  0.9006 -1.2185
 2285TIP3    H2 6813   1.186   0.811   0.477 -1.4886 -1.1760  1.9199
 2286TIP3   OH2 6814   2.657   7.107   0.748 -0.1064  0.8434  0.3071
 2286TIP3    H1 6815   2.655   7.188   0.799 -0.7583  0.9964  0.0578
 2286TIP3    H2 6816   2.624   7.040   0.808 -0.2405  0.8994  0.2974
 2287TIP3   OH2 6817   0.698   4.765   3.642  0.2042  0.3090  0.3384
 2287TIP3    H1 6818   0.609   4.742   3.615  0.8257 -0.1078 -1.4941
 2287TIP3    H2 6819   0.692   4.777   3.737 -2.3573  2.8696 -0.0362
 2288TIP3   OH2 6820   5.167   1.164   2.007  0.5529  0.2532 -0.3151
 2288TIP3    H1 6821   5.205   1.078   2.026  0.5939  0.0510 -1.2590
 2288TIP3    H2 6822   5.088   1.144   1.956 -0.7438  0.6709  1.4328
 2289TIP3   OH2 6823  -0.030   0.534   0.578  0.7016  0.3065  0.4633
 2289TIP3    H1 6824   0.055   0.578   0.579  1.2546 -0.6979 -0.6285
 2289TIP3    H2 6825  -0.021   0.464   0.513 -2.1644  2.5498 -2.7154
 2290TIP3   OH2 6826   4.585   0.905   2.499  0.0532 -0.3072  0.0961
 2290TIP3    H1 6827   4.508   0.875   2.548 -0.3774  1.0021  0.2692
 2290TIP3    H2 6828   4.659   0.865   2.544 -0.4832 -1.0733  0.3267
 2291TIP3   OH2 6829   6.238   5.078   0.080  0.0901  0.4943 -0.5909
 2291TIP3    H1 6830   6.144   5.060   0.093  0.0248  1.8311  1.1268
 2291TIP3    H2 6831   6.255   5.154   0.135  2.2278  0.2121 -0.8056
 2292TIP3   OH2 6832   6.139   0.802   2.373 -0.1393 -0.1209  0.0899
 2292TIP3    H1 6833   6.203   0.732   2.365 -0.8932 -0.9308  0.9936
 2292TIP3    H2 6834   6.100   0.790   2.459  0.3329  1.9597  0.6745
 2293TIP3   OH2 6835   7.195   1.181   1.279  0.3331  0.6478 -0.0284
 2293TIP3    H1 6836   7.211   1.269   1.245 -0.9217  0.8472 -0.1304
 2293TIP3    H2 6837   7.141   1.194   1.357 -0.6672 -0.0810 -0.5806
 2294TIP3   OH2 6838   1.872   5.775   3.933 -0.1032 -0.1072  0.3872
 2294TIP3    H1 6839   1.797   5.828   3.957 -0.1163 -0.7873  1.9498
 2294TIP3    H2 6840   1.877   5.707   4.001  1.2332 -0.7586 -0.3132
 2295TIP3   OH2 6841   7.539   4.183   5.669  0.2146  0.3379 -0.6693
 2295TIP3    H1 6842   7.585   4.145   5.744 -2.1083  2.5150  2.0711
 2295TIP3    H2 6843   7.489   4.111   5.632  2.2371 -1.0242 -0.9350
 2296TIP3   OH2 6844   6.009   3.078   4.787 -0.2613  0.1454  0.0468
 2296TIP3    H1 6845   5.982   3.062   4.697  1.7561  3.2025 -1.2583
 2296TIP3    H2 6846   5.943   3.033   4.840 -2.9567  0.2659 -2.9091
 2297TIP3   OH2 6847   1.043   2.699   2.602 -0.1624 -0.2418  0.1787
 2297TIP3    H1 6848   1.088   2.734   2.526 -0.1044 -0.4505  0.1147
 2297TIP3    H2 6849   1.081   2.745   2.677 -0.1414 -0.1166  0.0900
 2298TIP3   OH2 6850   3.048   2.220   2.347  0.0173  0.2612  0.0654
 2298TIP3    H1 6851   3.023   2.231   2.438  0.5449 -0.8491  0.3587
 2298TIP3    H2 6852   2.965   2.204   2.301 -0.2455  0.7974  0.3449
 2299TIP3   OH2 6853   7.669   2.982   1.113  0.4887 -0.3554  0.5761
 2299TIP3    H1 6854   7.681   2.933   1.032  2.4431  0.9792 -0.0167
 2299TIP3    H2 6855   7.733   3.052   1.108  0.3822  0.0118  3.1193
 2300TIP3   OH2 6856   1.823   1.008   4.383  0.4354 -0.2202  0.4369
 2300TIP3    H1 6857   1.855   1.088   4.341  0.2083 -0.8679 -1.0124
 2300TIP3    H2 6858   1.795   1.037   4.470 -0.5671  1.4852 -0.4029
 2301TIP3   OH2 6859   7.107   7.372   1.820 -0.0103  0.4202 -0.0079
 2301TIP3    H1 6860   7.098   7.324   1.738  0.2966 -0.0986  0.2561
 2301TIP3    H2 6861   7.023   7.360   1.864  0.1492 -0.0902  0.1663
 2302TIP3   OH2 6862   4.237   2.894   5.105 -0.4750  0.5016  0.3394
 2302TIP3    H1 6863   4.237   2.804   5.136 -1.6929 -0.2350 -1.5700
 2302TIP3    H2 6864   4.160   2.934   5.145 -2.0898 -0.4664 -1.6033
 2303TIP3   OH2 6865   1.639   4.780   1.773 -0.1015 -0.3882 -0.6404
 2303TIP3    H1 6866   1.686   4.835   1.836 -0.5655 -0.8848  0.1568
 2303TIP3    H2 6867   1.561   4.830   1.750  1.0469  0.6915 -2.4027
 2304TIP3   OH2 6868   7.148   5.360   4.082 -0.4703  0.2167  0.1686
 2304TIP3    H1 6869   7.128   5.387   3.993 -1.3495 -1.4807 -0.1840
 2304TIP3    H2 6870   7.231   5.403   4.102 -0.7455  1.3935 -1.0931
 2305TIP3   OH2 6871   0.016   6.079   6.634 -0.3740  0.1513 -0.0773
 2305TIP3    H1 6872  -0.074   6.107   6.615  0.5601  2.1861 -1.8461
 2305TIP3    H2 6873   0.062   6.159   6.655  1.1687 -0.8076  0.3238
 2306TIP3   OH2 6874   1.647   7.481   4.113  0.1928  0.2319  0.0608
 2306TIP3    H1 6875   1.556   7.506   4.097  0.4791  1.1220 -0.2133
 2306TIP3    H2 6876   1.667   7.519   4.199 -0.1328 -1.2210  0.8211
 2307TIP3   OH2 6877   0.766   7.676   1.690  0.0011  0.2670  0.1183
 2307TIP3    H1 6878   0.743   7.745   1.753 -1.8628 -0.4079  0.2530
 2307TIP3    H2 6879   0.707   7.692   1.616 -0.3092 -1.0218  0.0653
 2308TIP3   OH2 6880   4.769   3.785   4.672 -0.0212 -0.0996  0.1249
 2308TIP3    H1 6881   4.860   3.778   4.702  0.1402 -1.7584 -0.6740
 2308TIP3    H2 6882   4.738   3.695   4.667 -1.4155  0.3880 -0.5408
 2309TIP3   OH2 6883   5.106   3.315   1.962 -0.8082  0.0774  0.3549
 2309TIP3    H1 6884   5.041   3.281   1.900  0.8160 -2.0830 -0.2948
 2309TIP3    H2 6885   5.159   3.376   1.911  0.1172 -1.2063 -0.2867
 2310TIP3   OH2 6886   7.303   0.511   6.271  0.3065 -0.0566 -0.0643
 2310TIP3    H1 6887   7.239   0.553   6.214 -0.0729 -0.4825  0.0437
 2310TIP3    H2 6888   7.250   0.463   6.335  0.7154  0.5787  0.7742
 2311TIP3   OH2 6889   7.720   0.111   6.041 -0.3891  0.2741 -0.1106
 2311TIP3    H1 6890   7.643   0.125   5.986 -0.7062 -1.6358 -0.2218
 2311TIP3    H2 6891   7.777   0.185   6.020 -1.5649  0.9531 -1.1170
 2312TIP3   OH2 6892   0.610   6.364   6.151 -0.1174 -0.4156 -0.4265
 2312TIP3    H1 6893   0.668   6.425   6.196 -0.5118  0.0063 -0.4851
 2312TIP3    H2 6894   0.625   6.280   6.195 -1.3036  0.1906  1.2613
 2313TIP3   OH2 6895   1.500   6.959   6.009 -0.6032  0.5845 -0.8298
 2313TIP3    H1 6896   1.551   6.958   5.927  1.4271  1.9781  0.3069
 2313TIP3    H2 6897   1.534   6.885   6.059  0.1232  1.3211 -0.2025
 2314TIP3   OH2 6898   3.511   6.146   1.000  0.7665 -0.1404 -0.0296
 2314TIP3    H1 6899   3.518   6.074   1.063 -1.1222  1.4148  2.0910
 2314TIP3    H2 6900   3.456   6.211   1.043  1.0584  1.9153 -2.5170
 2315TIP3   OH2 6901   4.766   3.214   4.957 -0.5396  0.0053  0.6072
 2315TIP3    H1 6902   4.768   3.188   4.865 -2.1954 -0.6684  0.7152
 2315TIP3    H2 6903   4.722   3.141   5.000  1.2455 -0.2353  2.1534
 2316TIP3   OH2 6904   0.849   6.616   1.499 -0.0333  0.1655 -0.0773
 2316TIP3    H1 6905   0.806   6.677   1.440 -0.8943  0.0164  0.3752
 2316TIP3    H2 6906   0.877   6.669   1.573  0.9524  0.3341 -0.5523
 2317TIP3   OH2 6907   1.546   0.795   1.125  0.3701  0.2230 -0.2155
 2317TIP3    H1 6908   1.508   0.849   1.194  1.4448  0.7431 -0.0117
 2317TIP3    H2 6909   1.579   0.717   1.169 -0.0486 -0.0249 -0.3306
 2318TIP3   OH2 6910   3.354   4.279   1.216 -0.3124 -0.0399 -0.2035
 2318TIP3    H1 6911   3.272   4.328   1.208 -1.3410 -1.4166  1.2079
 2318TIP3    H2 6912   3.358   4.254   1.309  1.7451  0.0321 -0.2213
 2319TIP3   OH2 6913   1.479   6.345   4.762  0.4040  0.1208  0.5873
 2319TIP3    H1 6914   1.453   6.259   4.796  0.4182  0.3832  1.2551
 2319TIP3    H2 6915   1.440   6.348   4.674 -1.4435  0.3058  1.3610
 2320TIP3   OH2 6916   0.014   7.766   6.181 -0.0757  0.2536 -0.2045
 2320TIP3    H1 6917   0.094   7.727   6.145 -0.7328 -1.2273 -0.1153
 2320TIP3    H2 6918  -0.013   7.706   6.250 -0.7160  1.2814  0.4599
 2321TIP3   OH2 6919   6.275   5.743   4.310  0.2842  0.0857 -0.6180
 2321TIP3    H1 6920   6.208   5.811   4.302 -0.1430  0.1035  2.2892
 2321TIP3    H2 6921   6.328   5.753   4.231 -0.0111  3.5184 -0.5354
 2322TIP3   OH2 6922   7.503   2.228   0.566  0.1159 -0.0069  0.0702
 2322TIP3    H1 6923   7.577   2.237   0.627  0.4759 -0.1671 -0.3387
 2322TIP3    H2 6924   7.440   2.173   0.614  0.3803 -0.1005  0.3162
 2323TIP3   OH2 6925   2.342   1.251   2.342 -0.1221  0.0932 -0.3568
 2323TIP3    H1 6926   2.361   1.288   2.428 -0.0458 -1.4067  0.2984
 2323TIP3    H2 6927   2.422   1.265   2.291  0.1615  0.1717  0.1067
 2324TIP3   OH2 6928   4.431   6.215   6.550  0.0880  0.7351  0.2824
 2324TIP3    H1 6929   4.504   6.216   6.611  0.5097  1.2786 -0.2094
 2324TIP3    H2 6930   4.389   6.300   6.562  1.3594  1.7097 -1.5239
 2325TIP3   OH2 6931   6.218   2.082   6.774 -0.7228 -0.4175  0.1885
 2325TIP3    H1 6932   6.223   2.122   6.688 -3.2028  2.9010  1.3722
 2325TIP3    H2 6933   6.302   2.103   6.816 -0.0156 -0.9518 -0.9281
 2326TIP3   OH2 6934   6.614   0.595   5.843  0.4165  0.3788 -0.2404
 2326TIP3    H1 6935   6.519   0.600   5.855  0.1943 -2.3085 -0.4173
 2326TIP3    H2 6936   6.646   0.682   5.869 -2.1908  1.7935 -1.4624
 2327TIP3   OH2 6937   4.573   0.849   4.695 -0.3382  0.4103 -0.5524
 2327TIP3    H1 6938   4.487   0.888   4.679 -0.2211  0.6437 -0.6237
 2327TIP3    H2 6939   4.588   0.792   4.620 -0.4291  0.3756 -0.5434
 2328TIP3   OH2 6940   0.898   2.116   4.399  0.2498  0.2059  0.4126
 2328TIP3    H1 6941   0.920   2.041   4.455  0.7289  1.1259  1.5113
 2328TIP3    H2 6942   0.981   2.163   4.389  0.2674 -0.1915 -1.4956
 2329TIP3   OH2 6943   1.969   0.566   1.302  0.2807  0.2226 -0.2196
 2329TIP3    H1 6944   2.011   0.597   1.221  2.3664  1.0584  1.0932
 2329TIP3    H2 6945   2.002   0.477   1.313 -0.8777 -0.3095 -0.8024
 2330TIP3   OH2 6946   2.631   5.366   4.353 -0.1169 -0.1871  0.2333
 2330TIP3    H1 6947   2.705   5.375   4.413  1.2639 -0.3368 -1.3736
 2330TIP3    H2 6948   2.660   5.301   4.289 -1.5605 -0.0766 -0.5673
 2331TIP3   OH2 6949   3.513   1.875   3.298  0.1818  0.0098  0.8542
 2331TIP3    H1 6950   3.419   1.879   3.279  0.5714  1.4941 -1.0558
 2331TIP3    H2 6951   3.544   1.964   3.283  1.7110 -0.1821  2.6404
 2332TIP3   OH2 6952   6.881   3.513   2.701  0.0828 -0.6620  0.3510
 2332TIP3    H1 6953   6.920   3.426   2.711 -0.4901 -0.9620  0.0274
 2332TIP3    H2 6954   6.811   3.500   2.636  0.6033  0.2303 -0.4022
 2333TIP3   OH2 6955   6.635   6.473   4.164  0.5454  0.2638  0.3894
 2333TIP3    H1 6956   6.719   6.463   4.208  0.4832  0.8893  0.6611
 2333TIP3    H2 6957   6.649   6.438   4.076  0.9021 -0.2323  0.6436
 2334TIP3   OH2 6958   7.026   2.159   5.553  0.0602  0.0203  0.4288
 2334TIP3    H1 6959   6.995   2.125   5.469  1.4492 -2.0628  0.6960
 2334TIP3    H2 6960   6.995   2.250   5.554 -1.8019 -0.5170 -1.3726
 2335TIP3   OH2 6961   4.125   5.809   5.286 -0.6713 -0.0933  0.2050
 2335TIP3    H1 6962   4.195   5.746   5.299  0.2121  1.0606  1.3158
 2335TIP3    H2 6963   4.051   5.757   5.254  0.3059 -1.5190  0.1826
 2336TIP3   OH2 6964   7.472   3.434   4.067  0.5311 -0.3432  0.2380
 2336TIP3    H1 6965   7.392   3.413   4.020 -0.0169 -0.2105  1.0862
 2336TIP3    H2 6966   7.483   3.362   4.128  1.5946 -0.8479 -0.5286
 2337TIP3   OH2 6967   4.631   3.462   4.844 -0.1893 -0.3107 -0.3975
 2337TIP3    H1 6968   4.715   3.504   4.825 -0.6814  2.5901  2.8404
 2337TIP3    H2 6969   4.651   3.395   4.909 -0.2566 -0.5211 -0.5898
 2338TIP3   OH2 6970   4.729   2.150   4.453 -0.5656 -0.1101  0.3268
 2338TIP3    H1 6971   4.703   2.093   4.381  2.1099 -0.0233 -0.7993
 2338TIP3    H2 6972   4.684   2.233   4.435  0.3921  0.0603 -1.5689
 2339TIP3   OH2 6973   4.974   7.180   3.789  0.6250 -0.4060 -0.2161
 2339TIP3    H1 6974   5.010   7.269   3.793 -1.0713  0.2836  0.6027
 2339TIP3    H2 6975   5.049   7.125   3.767  2.4883  0.7625  2.6119
 2340TIP3   OH2 6976   7.662   7.299   5.065  0.5266  0.1200 -0.1535
 2340TIP3    H1 6977   7.588   7.312   5.125  0.2063 -0.0523 -0.5000
 2340TIP3    H2 6978   7.655   7.371   5.002 -0.0872 -0.5828 -0.9147
 2341TIP3   OH2 6979   6.488   5.375   4.543 -0.6706  0.1407 -0.4452
 2341TIP3    H1 6980   6.514   5.420   4.463  0.4888 -0.4054 -0.4057
 2341TIP3    H2 6981   6.426   5.308   4.514 -2.5183  1.8033 -0.4831
 2342TIP3   OH2 6982   7.484   1.545   1.978 -0.0430 -0.1684  0.2400
 2342TIP3    H1 6983   7.460   1.495   1.900 -0.0588 -0.4157  0.4040
 2342TIP3    H2 6984   7.538   1.486   2.030 -1.4329 -0.6306  1.2331
 2343TIP3   OH2 6985   0.808   3.840   5.604 -0.3250  0.0859  0.1557
 2343TIP3    H1 6986   0.751   3.780   5.653 -1.1558 -0.2648 -1.2002
 2343TIP3    H2 6987   0.886   3.787   5.585  0.2738  0.4122  1.5808
 2344TIP3   OH2 6988   3.194   6.041   1.230 -0.1107 -0.7802 -0.1240
 2344TIP3    H1 6989   3.287   6.019   1.234 -0.1247 -1.0188 -0.8823
 2344TIP3    H2 6990   3.160   5.990   1.156  0.1127  2.5382 -2.8195
 2345TIP3   OH2 6991   1.027   7.564   1.681 -0.2141 -0.4747 -0.1415
 2345TIP3    H1 6992   0.967   7.631   1.713  1.0847  0.7734 -0.2451
 2345TIP3    H2 6993   1.006   7.556   1.588 -0.6846 -0.5517 -0.0310
 2346TIP3   OH2 6994   1.975   0.161   4.590 -0.0528  0.4671  0.3014
 2346TIP3    H1 6995   1.946   0.223   4.657 -0.2773  0.9717 -0.2604
 2346TIP3    H2 6996   2.071   0.162   4.597 -0.0660  0.6948  0.4507
 2347TIP3   OH2 6997   0.872   4.335   4.257 -0.6610 -0.1030  0.5457
 2347TIP3    H1 6998   0.840   4.266   4.314 -2.2057  0.3594  0.2939
 2347TIP3    H2 6999   0.843   4.416   4.299 -2.1061  0.2450 -0.9787
 2348TIP3   OH2 7000   5.432   0.543   0.220 -0.5415 -0.4435  0.0471
 2348TIP3    H1 7001   5.398   0.571   0.305  1.7227  0.5809  0.6860
 2348TIP3    H2 7002   5.455   0.451   0.233  2.0257  0.2999  1.3856
 2349TIP3   OH2 7003   2.526   6.676   2.175  0.5290 -0.6330  0.0580
 2349TIP3    H1 7004   2.554   6.592   2.211 -0.5603 -1.9230 -1.9338
 2349TIP3    H2 7005   2.549   6.671   2.082 -0.4812  0.8628 -0.3051
 2350TIP3   OH2 7006   4.977   5.690   1.425 -0.2177 -0.5363 -0.5567
 2350TIP3    H1 7007   4.932   5.640   1.356 -0.7801  2.9146 -2.9931
 2350TIP3    H2 7008   5.068   5.691   1.397 -0.4285  0.7787 -1.2812
 2351TIP3   OH2 7009   3.728   4.601   2.837 -0.2316  0.1825  0.0948
 2351TIP3    H1 7010   3.678   4.591   2.756 -1.4886  0.9966  0.7511
 2351TIP3    H2 7011   3.755   4.512   2.860 -0.3215 -0.1190 -0.9243
 2352TIP3   OH2 7012   5.398   6.804   2.758 -0.4616 -0.4870  0.5608
 2352TIP3    H1 7013   5.426   6.721   2.720 -1.1484 -0.1599 -0.6941
 2352TIP3    H2 7014   5.456   6.870   2.719  0.3459 -0.3814  1.8471
 2353TIP3   OH2 7015   0.151   6.800   1.231  0.4310  0.3104 -0.4717
 2353TIP3    H1 7016   0.197   6.720   1.206  0.1860  0.2351 -0.6864
 2353TIP3    H2 7017   0.189   6.824   1.315 -1.0545 -1.2783  0.7147
 2354TIP3   OH2 7018   0.692   0.260   4.782  0.3579 -0.2476  0.0174
 2354TIP3    H1 7019   0.707   0.169   4.754  0.5055 -0.1679 -0.1638
 2354TIP3    H2 7020   0.635   0.252   4.858  1.6047 -0.5970  0.9553
 2355TIP3   OH2 7021   2.691   5.975   4.204  0.4858 -0.2651  0.3094
 2355TIP3    H1 7022   2.626   6.043   4.186  1.1664  0.3004 -0.1048
 2355TIP3    H2 7023   2.704   5.931   4.120 -1.0094 -1.9135  0.8740
 2356TIP3   OH2 7024   4.428   7.102   2.032  0.2388  0.2375 -0.8140
 2356TIP3    H1 7025   4.462   7.036   1.972 -0.2575  0.9967 -1.9472
 2356TIP3    H2 7026   4.471   7.183   2.006 -0.6108  0.7426 -0.6863
 2357TIP3   OH2 7027   6.510   1.065   6.426  0.0246 -0.4289  0.1693
 2357TIP3    H1 7028   6.424   1.024   6.424  0.1254 -0.6349 -1.4000
 2357TIP3    H2 7029   6.531   1.083   6.334  0.9470  1.1377  0.6318
 2358TIP3   OH2 7030   2.624   3.859   4.060  0.1141  0.1193  0.3763
 2358TIP3    H1 7031   2.565   3.933   4.041 -1.4510 -0.9822  0.7307
 2358TIP3    H2 7032   2.632   3.858   4.155  1.4139  0.7551  0.2917
 2359TIP3   OH2 7033   2.470   6.351   4.620 -0.3483 -0.2040  0.7096
 2359TIP3    H1 7034   2.521   6.272   4.634  0.5408  0.5219  1.8061
 2359TIP3    H2 7035   2.530   6.422   4.644 -0.4152  0.9538 -2.1051
 2360TIP3   OH2 7036   4.453   0.471   5.265  0.4582  0.8803  0.4943
 2360TIP3    H1 7037   4.374   0.417   5.255 -0.6424  2.7861 -2.2185
 2360TIP3    H2 7038   4.491   0.442   5.348 -1.5396 -2.0710  0.5499
 2361TIP3   OH2 7039   3.537   7.151   6.789 -0.0296 -0.0474 -0.2524
 2361TIP3    H1 7040   3.542   7.146   6.694 -0.8556  1.2359 -0.3934
 2361TIP3    H2 7041   3.604   7.090   6.820  1.3296  0.6408 -1.6717
 2362TIP3   OH2 7042   0.001   2.607   4.849 -0.6689  0.3582  0.0197
 2362TIP3    H1 7043   0.048   2.643   4.924 -0.5602  0.5631 -0.1468
 2362TIP3    H2 7044   0.048   2.526   4.828  0.4372  1.2256 -0.9794
 2363TIP3   OH2 7045   2.397   5.827   4.436  0.3368 -0.1302  0.5618
 2363TIP3    H1 7046   2.385   5.783   4.521 -0.1900 -0.9622  0.0698
 2363TIP3    H2 7047   2.474   5.786   4.398 -0.4813 -1.0495 -0.1440
 2364TIP3   OH2 7048   4.567   2.916   3.134 -0.5139  0.4499  0.0171
 2364TIP3    H1 7049   4.509   2.848   3.100  1.7844 -1.3102 -0.6384
 2364TIP3    H2 7050   4.563   2.986   3.068 -0.6916 -0.3153 -0.8015
 2365TIP3   OH2 7051   3.389   2.477   2.063 -0.0550 -0.3063  0.1557
 2365TIP3    H1 7052   3.439   2.418   2.119 -2.3208 -2.1408  0.4119
 2365TIP3    H2 7053   3.315   2.505   2.117 -0.0872  1.2392 -0.6257
 2366TIP3   OH2 7054   1.690   6.340   0.465 -0.3572 -0.2871 -0.6794
 2366TIP3    H1 7055   1.719   6.412   0.522  0.8734 -1.4447  0.2223
 2366TIP3    H2 7056   1.659   6.384   0.386  2.2867  1.1807 -1.0231
 2367TIP3   OH2 7057   1.915   0.621   4.408  0.6754 -0.2355  0.3751
 2367TIP3    H1 7058   1.971   0.607   4.484 -1.4994  0.3642  2.2271
 2367TIP3    H2 7059   1.943   0.705   4.372  2.3679 -0.9858 -0.1079
 2368TIP3   OH2 7060   6.174   4.032   2.074 -0.3836  0.1491 -0.2018
 2368TIP3    H1 7061   6.255   4.050   2.027  0.8819  0.9026  2.1254
 2368TIP3    H2 7062   6.125   4.114   2.070 -0.3815  0.1439 -0.3540
 2369TIP3   OH2 7063   2.418   3.281   1.117  0.3055 -0.4314 -0.1605
 2369TIP3    H1 7064   2.328   3.278   1.084  0.4159 -0.9303 -0.4378
 2369TIP3    H2 7065   2.434   3.193   1.152  0.6144 -0.2829  0.0814
 2370TIP3   OH2 7066   7.111   6.266   5.723 -0.1702 -0.0956 -0.7112
 2370TIP3    H1 7067   7.106   6.202   5.794 -0.3102 -0.2017 -0.8168
 2370TIP3    H2 7068   7.043   6.330   5.743 -0.2585 -0.1655 -0.7899
 2371TIP3   OH2 7069   2.652   6.203   2.685 -0.1497 -0.6340 -0.1153
 2371TIP3    H1 7070   2.598   6.256   2.743  0.6576 -0.0088  0.0898
 2371TIP3    H2 7071   2.590   6.153   2.633 -0.9015 -0.7279  0.8416
 2372TIP3   OH2 7072   4.088   6.702   3.899  0.1287 -0.1339 -0.0806
 2372TIP3    H1 7073   4.156   6.674   3.961  0.6206 -1.6858 -1.2597
 2372TIP3    H2 7074   4.009   6.707   3.951  0.1908 -3.0063  0.4329
 2373TIP3   OH2 7075   1.876   5.880   5.072  0.3208  0.4144  0.0429
 2373TIP3    H1 7076   1.876   5.787   5.096  0.4764  0.1629 -0.8930
 2373TIP3    H2 7077   1.966   5.897   5.044 -0.1141  0.4083 -1.4148
 2374TIP3   OH2 7078   6.318   7.092   0.622  0.2148 -0.3582 -0.7443
 2374TIP3    H1 7079   6.395   7.094   0.565  0.0954 -0.7153 -0.9133
 2374TIP3    H2 7080   6.302   7.000   0.639 -0.6222 -0.3194 -1.3037
 2375TIP3   OH2 7081   0.252   0.924   6.701 -0.0440 -0.6489 -0.0571
 2375TIP3    H1 7082   0.219   0.888   6.618 -0.1277  0.5330 -0.5462
 2375TIP3    H2 7083   0.347   0.925   6.691 -0.0981  0.5274 -0.5949
 2376TIP3   OH2 7084   4.262   2.798   1.953 -0.5002  0.7473  0.5246
 2376TIP3    H1 7085   4.172   2.771   1.935 -0.4384  0.6295  0.3900
 2376TIP3    H2 7086   4.267   2.888   1.920  0.5455 -0.5161 -3.2241
 2377TIP3   OH2 7087   3.245   7.491   3.726 -0.5351  0.3025  0.4152
 2377TIP3    H1 7088   3.318   7.530   3.773 -0.2111  1.0095 -0.6468
 2377TIP3    H2 7089   3.192   7.566   3.698 -1.9378 -0.2017  1.5352
 2378TIP3   OH2 7090   0.200   3.310   3.643 -0.4852  0.3242 -0.0341
 2378TIP3    H1 7091   0.252   3.248   3.592 -0.5801  0.4705 -0.3091
 2378TIP3    H2 7092   0.164   3.258   3.715 -0.2689  0.1404 -0.0604
 2379TIP3   OH2 7093   6.915   7.777   0.382  0.3072 -0.0872 -0.2352
 2379TIP3    H1 7094   6.892   7.704   0.439 -0.1668 -0.1989 -0.5663
 2379TIP3    H2 7095   6.937   7.736   0.298 -0.9794  0.2057 -0.7446
 2380TIP3   OH2 7096   5.087   2.264   4.334  0.0207  0.0610  0.3031
 2380TIP3    H1 7097   5.093   2.359   4.338 -1.5632  0.2121 -0.2209
 2380TIP3    H2 7098   5.091   2.244   4.240 -2.0772 -0.1597  0.2226
 2381TIP3   OH2 7099   5.981   0.673   3.184 -0.1120  0.1660 -0.4882
 2381TIP3    H1 7100   5.949   0.756   3.219 -2.5282 -0.5318 -0.8138
 2381TIP3    H2 7101   6.005   0.622   3.262 -1.4823  0.1240 -0.0639
 2382TIP3   OH2 7102   7.493   0.073   4.995  0.0645  0.0681 -0.1261
 2382TIP3    H1 7103   7.538  -0.006   5.027 -1.0031 -0.4313  0.1882
 2382TIP3    H2 7104   7.431   0.095   5.064 -1.2906 -0.1930 -1.2020
 2383TIP3   OH2 7105   5.776   7.658   3.826 -0.0513 -0.5230  0.2271
 2383TIP3    H1 7106   5.783   7.723   3.896  0.5263  0.7685 -0.9970
 2383TIP3    H2 7107   5.683   7.634   3.826 -0.8396  2.1822 -0.8987
 2384TIP3   OH2 7108   5.260   1.073   0.671 -0.2970 -0.2321  0.0731
 2384TIP3    H1 7109   5.203   1.004   0.706 -0.4679 -0.3915 -0.5050
 2384TIP3    H2 7110   5.284   1.042   0.584 -0.8639  0.7149 -0.4414
 2385TIP3   OH2 7111   4.873   7.602   2.380  0.4767  0.0653  0.7217
 2385TIP3    H1 7112   4.779   7.595   2.364  0.8845  0.7355 -2.6731
 2385TIP3    H2 7113   4.888   7.695   2.396  0.5975 -0.0038  1.0162
 2386TIP3   OH2 7114   1.276   2.401   4.836 -0.1852 -0.0798  0.2082
 2386TIP3    H1 7115   1.310   2.316   4.863 -0.8195 -0.4854 -0.2313
 2386TIP3    H2 7116   1.333   2.465   4.880  0.2514 -0.7241  0.6019
 2387TIP3   OH2 7117   2.678   7.249   3.669 -0.0736 -0.1548 -0.2108
 2387TIP3    H1 7118   2.761   7.282   3.634 -0.8419  1.1412 -0.8986
 2387TIP3    H2 7119   2.659   7.308   3.742 -0.4173 -0.4172 -0.0906
 2388TIP3   OH2 7120   4.962   6.476   5.303  1.0501  0.6590  0.0579
 2388TIP3    H1 7121   4.941   6.536   5.374  1.7688  1.0374 -0.0395
 2388TIP3    H2 7122   4.908   6.506   5.230  0.7364  0.6188  0.2689
 2389TIP3   OH2 7123   1.395   7.772   3.041 -0.2800  0.1473 -0.3691
 2389TIP3    H1 7124   1.434   7.725   2.967  1.6378 -0.9308  1.2215
 2389TIP3    H2 7125   1.398   7.864   3.014  2.0576 -0.0400 -0.9741
 2390TIP3   OH2 7126   6.233   5.039   4.439 -0.8110 -0.2351  0.2600
 2390TIP3    H1 7127   6.262   5.130   4.426  0.2753 -0.0266  3.3210
 2390TIP3    H2 7128   6.204   5.036   4.530 -1.4317 -2.8390  0.0523
 2391TIP3   OH2 7129   4.047   2.785   5.681 -0.3601  0.0966  0.0726
 2391TIP3    H1 7130   3.986   2.726   5.638  0.2440 -0.2969 -0.2658
 2391TIP3    H2 7131   4.123   2.731   5.701  0.3608  0.8381 -0.5871
 2392TIP3   OH2 7132   2.534   2.012   4.130  0.0713  0.4586 -0.1050
 2392TIP3    H1 7133   2.536   1.921   4.159 -0.4625  0.3648 -0.3455
 2392TIP3    H2 7134   2.442   2.038   4.141 -0.1909  0.3704 -1.8430
 2393TIP3   OH2 7135   3.328   2.622   1.154 -0.8137  0.2117  0.1968
 2393TIP3    H1 7136   3.378   2.574   1.220 -0.7309  1.4849  1.0817
 2393TIP3    H2 7137   3.267   2.556   1.119  0.7207 -1.0783 -0.1573
 2394TIP3   OH2 7138   2.701   4.485   5.600 -0.4892 -0.0300 -0.0200
 2394TIP3    H1 7139   2.680   4.520   5.514 -1.0608  1.4473  0.6841
 2394TIP3    H2 7140   2.658   4.399   5.603 -0.9588  0.1634 -0.9926
 2395TIP3   OH2 7141   4.261   3.846   0.803 -0.1841 -0.0661  0.4061
 2395TIP3    H1 7142   4.305   3.917   0.849 -0.8514 -0.0580  1.0300
 2395TIP3    H2 7143   4.168   3.859   0.819 -0.5796  0.7418 -2.0761
 2396TIP3   OH2 7144   7.037   0.943   1.522 -0.4833  0.0569 -0.0151
 2396TIP3    H1 7145   7.009   0.944   1.430 -1.7979  1.3529  0.3637
 2396TIP3    H2 7146   6.964   0.982   1.570 -0.3109 -1.6557  1.7487
 2397TIP3   OH2 7147   4.111   5.396   5.671 -0.2676 -0.2419 -0.2903
 2397TIP3    H1 7148   4.169   5.469   5.689 -0.4869 -0.3627  1.0246
 2397TIP3    H2 7149   4.087   5.362   5.757 -0.4283 -1.6661 -0.8534
 2398TIP3   OH2 7150   6.029   1.069   1.006  0.0315  0.0856  0.6114
 2398TIP3    H1 7151   6.120   1.064   0.978 -0.8036  1.0449 -2.6947
 2398TIP3    H2 7152   6.034   1.075   1.102  3.2559 -2.2840  0.7564
 2399TIP3   OH2 7153   1.182   3.940   4.995 -0.1633 -0.1136 -0.8886
 2399TIP3    H1 7154   1.213   3.851   5.011 -1.3369 -0.4107 -0.1359
 2399TIP3    H2 7155   1.132   3.934   4.913  0.0580 -0.0681 -1.0270
 2400TIP3   OH2 7156   7.647   3.904   4.733  0.1697  0.6308  0.2238
 2400TIP3    H1 7157   7.641   3.827   4.677  1.5686 -0.0877  1.0004
 2400TIP3    H2 7158   7.589   3.968   4.693 -2.3360 -1.3611  0.4505
 2401TIP3   OH2 7159   3.065   3.922   3.884  0.1340  0.4466 -0.4253
 2401TIP3    H1 7160   3.060   4.016   3.903 -0.1087  0.4471 -0.4888
 2401TIP3    H2 7161   3.011   3.881   3.951  1.2427  0.2453  0.3665
 2402TIP3   OH2 7162   2.847   6.742   0.870  0.3315 -0.0893 -0.1481
 2402TIP3    H1 7163   2.897   6.824   0.866 -1.8756  1.2816 -2.2312
 2402TIP3    H2 7164   2.897   6.681   0.816  1.0282  0.4727 -0.1586
 2403TIP3   OH2 7165   3.705   7.694   1.114  0.1894 -0.3311 -0.2689
 2403TIP3    H1 7166   3.623   7.707   1.067 -0.4032 -0.4672  0.6910
 2403TIP3    H2 7167   3.744   7.617   1.074  0.0340 -0.0515 -0.9727
 2404TIP3   OH2 7168   4.408   2.251   3.239  0.0797 -0.2554 -0.0564
 2404TIP3    H1 7169   4.343   2.299   3.292 -0.4744 -0.4606 -0.5487
 2404TIP3    H2 7170   4.443   2.186   3.299 -2.6936 -2.5131 -0.6895
 2405TIP3   OH2 7171   7.683   2.964   4.257 -0.3735 -0.3856  0.2031
 2405TIP3    H1 7172   7.735   2.928   4.185  0.2217  1.6755 -0.4968
 2405TIP3    H2 7173   7.598   2.922   4.249  0.3727 -1.8588 -0.3032
 2406TIP3   OH2 7174   3.303   3.595   2.462  0.3553  0.1598 -0.3691
 2406TIP3    H1 7175   3.389   3.557   2.480  0.7167 -0.6350 -3.2345
 2406TIP3    H2 7176   3.321   3.672   2.409 -0.6852  0.2251 -0.6533
 2407TIP3   OH2 7177   6.209   1.245   1.954  0.2323 -0.2906  0.1662
 2407TIP3    H1 7178   6.127   1.283   1.986 -1.5249 -1.6268 -2.3217
 2407TIP3    H2 7179   6.246   1.312   1.896 -0.2770 -0.4794 -0.3903
 2408TIP3   OH2 7180   1.381   1.424   4.143  0.1525 -0.1379  0.3108
 2408TIP3    H1 7181   1.329   1.481   4.199 -0.3874  1.1916 -1.4655
 2408TIP3    H2 7182   1.333   1.420   4.060  0.7102 -2.3620  0.0130
 2409TIP3   OH2 7183   1.649   0.598   1.297 -0.5338 -0.0893 -0.0746
 2409TIP3    H1 7184   1.681   0.512   1.270 -1.2859 -0.0161 -1.2544
 2409TIP3    H2 7185   1.726   0.642   1.334 -0.2369 -1.4250  1.0023
 2410TIP3   OH2 7186   7.712   0.475   0.565 -0.3119 -0.4144 -0.2173
 2410TIP3    H1 7187   7.715   0.567   0.537  0.7487  0.0845  1.4162
 2410TIP3    H2 7188   7.742   0.476   0.655 -0.3000 -2.3942 -0.1527
 2411TIP3   OH2 7189   5.200   3.716   0.735  0.0398 -0.5651  0.0142
 2411TIP3    H1 7190   5.129   3.677   0.786  0.6204 -1.9333 -0.1645
 2411TIP3    H2 7191   5.280   3.688   0.780  0.5129  2.4713  1.3077
 2412TIP3   OH2 7192   3.435   1.714   3.535  0.0629 -0.0598 -0.7527
 2412TIP3    H1 7193   3.379   1.770   3.589  2.3523  0.0183  1.7323
 2412TIP3    H2 7194   3.481   1.775   3.478  0.4686  0.3124 -0.0427
 2413TIP3   OH2 7195   6.629   1.760   4.011  0.2430  0.7030 -0.1843
 2413TIP3    H1 7196   6.664   1.719   3.932 -0.5645  0.5997 -0.5028
 2413TIP3    H2 7197   6.615   1.688   4.072 -0.2890  0.6111 -0.4037
 2414TIP3   OH2 7198   7.670   5.385   6.676  0.2954  0.0302 -0.2019
 2414TIP3    H1 7199   7.765   5.374   6.686  0.0077 -2.1071  0.8408
 2414TIP3    H2 7200   7.639   5.408   6.763 -0.1745  0.4945 -0.4891
 2415TIP3   OH2 7201   0.675   2.193   6.619  0.1466 -0.5810 -0.1346
 2415TIP3    H1 7202   0.657   2.221   6.709 -1.1302 -0.4555 -0.4145
 2415TIP3    H2 7203   0.746   2.250   6.589  0.9600 -0.9747  0.9575
 2416TIP3   OH2 7204   8.014   1.694   3.853 -0.0145 -0.0490 -0.5038
 2416TIP3    H1 7205   8.022   1.764   3.788 -0.9571  0.7958  0.2399
 2416TIP3    H2 7206   7.961   1.627   3.810 -0.7728  0.5760 -0.5728
 2417TIP3   OH2 7207   4.186   3.741   2.740  0.2284  0.0554  0.4132
 2417TIP3    H1 7208   4.183   3.648   2.759  2.4818  0.0464  0.9915
 2417TIP3    H2 7209   4.240   3.779   2.810 -1.7369  2.0432  0.9865
 2418TIP3   OH2 7210   2.293   4.240   5.796 -0.5210 -0.1937  0.6215
 2418TIP3    H1 7211   2.252   4.154   5.791  0.9789 -0.8792 -0.9241
 2418TIP3    H2 7212   2.225   4.301   5.767 -1.5829 -0.8243  1.6863
 2419TIP3   OH2 7213   6.163   4.047   4.217  0.0044 -0.3997  0.1633
 2419TIP3    H1 7214   6.183   3.978   4.153  0.6678 -1.1927  1.1980
 2419TIP3    H2 7215   6.080   4.020   4.257  0.4828 -0.8421  0.8760
 2420TIP3   OH2 7216   0.466   5.783   5.029 -0.6112 -0.0561  0.4186
 2420TIP3    H1 7217   0.437   5.736   4.951 -1.1339  0.6689  0.1691
 2420TIP3    H2 7218   0.504   5.715   5.085  0.5190 -0.4705 -0.8076
 2421TIP3   OH2 7219   0.964   3.260   5.865  0.0219 -0.5080 -0.3631
 2421TIP3    H1 7220   0.884   3.207   5.871  0.0996 -0.4946  1.6233
 2421TIP3    H2 7221   1.013   3.238   5.945  2.7336 -1.6159 -2.1710
 2422TIP3   OH2 7222   7.780   2.955   5.225  0.0335 -0.3997 -0.1502
 2422TIP3    H1 7223   7.705   2.899   5.244  0.1791  0.0218  1.8836
 2422TIP3    H2 7224   7.856   2.897   5.230 -0.1091 -0.8140 -2.1485
 2423TIP3   OH2 7225   5.176   0.340   2.616  0.4022  0.5129 -0.0715
 2423TIP3    H1 7226   5.197   0.259   2.663  0.0256 -0.0146 -0.7995
 2423TIP3    H2 7227   5.194   0.410   2.679  0.2022 -0.1686  0.7533
 2424TIP3   OH2 7228   1.073   6.903   3.343 -0.5169 -0.0179 -0.1255
 2424TIP3    H1 7229   1.013   6.904   3.418  0.3705  0.3499  0.5940
 2424TIP3    H2 7230   1.061   6.816   3.304 -1.0763 -0.1684  0.3654
 2425TIP3   OH2 7231   7.793   4.587   1.916  0.1357  0.3545  0.7849
 2425TIP3    H1 7232   7.699   4.599   1.927  0.3331  2.7818  0.3036
 2425TIP3    H2 7233   7.816   4.520   1.981 -2.0605 -1.1551  0.1141
 2426TIP3   OH2 7234   4.418   2.069   2.217 -0.4262  0.1608  0.1359
 2426TIP3    H1 7235   4.492   2.096   2.271 -0.9161 -0.7768  1.3168
 2426TIP3    H2 7236   4.457   2.018   2.146  0.3807  2.6824 -1.3597
 2427TIP3   OH2 7237   5.901   2.341   4.215 -0.5003 -0.0506  0.3193
 2427TIP3    H1 7238   5.984   2.293   4.219 -0.4644  0.0778  1.7882
 2427TIP3    H2 7239   5.843   2.284   4.164  0.3609 -0.3270 -0.3800
 2428TIP3   OH2 7240   8.051   3.571   3.655 -0.1568 -0.3445 -0.9292
 2428TIP3    H1 7241   8.095   3.556   3.740 -0.7827  0.5243 -0.4430
 2428TIP3    H2 7242   8.057   3.665   3.641 -0.3540 -0.4429 -1.7005
 2429TIP3   OH2 7243   2.954   2.971   0.075  0.1947  0.3147 -0.2586
 2429TIP3    H1 7244   2.931   3.011  -0.010  1.1276 -1.3899 -1.3777
 2429TIP3    H2 7245   3.042   2.935   0.061  0.0171 -0.7401  1.1787
 2430TIP3   OH2 7246   2.923   6.665   2.141  0.1869  0.3416  0.0858
 2430TIP3    H1 7247   2.972   6.706   2.070  1.4465 -0.6288  0.3734
 2430TIP3    H2 7248   2.849   6.622   2.098  0.0545  1.0835 -0.4467
 2431TIP3   OH2 7249   8.173   4.140   2.427 -0.8479  0.1873  0.4318
 2431TIP3    H1 7250   8.114   4.087   2.373 -0.7234 -0.4185  0.8843
 2431TIP3    H2 7251   8.260   4.102   2.413 -0.4601  1.4058 -0.6409
 2432TIP3   OH2 7252   6.898   7.430   1.453  0.1515  0.4946  0.4657
 2432TIP3    H1 7253   6.846   7.383   1.387 -0.8235 -0.5612  1.9117
 2432TIP3    H2 7254   6.979   7.452   1.407  0.5195 -2.2941 -0.4683
 2433TIP3   OH2 7255   3.716   5.935   0.409  0.0432  0.8178 -0.0239
 2433TIP3    H1 7256   3.770   5.874   0.358  0.4126  1.4585 -0.4205
 2433TIP3    H2 7257   3.645   5.960   0.350 -1.3369 -0.8515  0.8625
 2434TIP3   OH2 7258   1.157   6.641   2.233  0.1844 -0.1725 -0.2549
 2434TIP3    H1 7259   1.205   6.571   2.278 -0.5899 -0.1744  0.5999
 2434TIP3    H2 7260   1.188   6.637   2.143  1.4817 -0.4430  0.1764
 2435TIP3   OH2 7261   3.811   4.673   5.920  0.0154 -0.3466  0.1309
 2435TIP3    H1 7262   3.731   4.691   5.969 -0.0402 -2.3751  0.8962
 2435TIP3    H2 7263   3.858   4.609   5.974  3.6333  2.7841  1.2158
 2436TIP3   OH2 7264   0.091   3.977   1.052 -0.2337  0.5715  0.2678
 2436TIP3    H1 7265   0.073   3.907   1.115 -4.3382  1.3174  0.2010
 2436TIP3    H2 7266   0.116   4.052   1.106  1.0208 -0.0044  0.5483
 2437TIP3   OH2 7267   6.445   5.111   4.673 -0.1109  0.2046  0.5554
 2437TIP3    H1 7268   6.425   5.189   4.726 -0.4883 -0.0401  0.7762
 2437TIP3    H2 7269   6.362   5.064   4.667 -0.0342  0.1490 -0.1351
 2438TIP3   OH2 7270   0.886   0.495   5.459 -0.0484 -0.4721 -0.0357
 2438TIP3    H1 7271   0.840   0.487   5.542 -0.3135 -1.3157 -0.2463
 2438TIP3    H2 7272   0.908   0.588   5.452 -0.3788 -0.3225  0.7801
 2439TIP3   OH2 7273   3.212   2.635   6.454  0.1751 -0.0529  0.0762
 2439TIP3    H1 7274   3.209   2.566   6.521  2.5930  1.0539  1.4640
 2439TIP3    H2 7275   3.173   2.711   6.496  0.3810  0.2648 -0.3046
 2440TIP3   OH2 7276   4.944   5.192   0.383  0.3561 -0.1371 -0.0664
 2440TIP3    H1 7277   4.946   5.274   0.335  1.4607  0.4172  0.8617
 2440TIP3    H2 7278   4.852   5.167   0.386 -0.1885  1.8116  0.8675
 2441TIP3   OH2 7279   2.150   2.908   5.765 -0.2511  0.1167 -0.8863
 2441TIP3    H1 7280   2.170   2.985   5.712 -1.5607  1.7378  0.8151
 2441TIP3    H2 7281   2.073   2.869   5.723 -0.9159  1.0371 -0.5525
 2442TIP3   OH2 7282   6.707   0.164   3.289  0.2219 -0.3693  0.0846
 2442TIP3    H1 7283   6.619   0.141   3.319  0.5432 -0.8342  0.6951
 2442TIP3    H2 7284   6.726   0.100   3.221 -0.2620  0.2998 -0.7003
 2443TIP3   OH2 7285   7.937   4.662   4.844  0.1044 -0.3343  0.2298
 2443TIP3    H1 7286   7.997   4.681   4.915  0.1470  0.5038 -0.0215
 2443TIP3    H2 7287   7.950   4.733   4.781 -1.6410  0.2583  0.4918
 2444TIP3   OH2 7288   3.360   6.185   3.060 -0.0799 -0.1892  0.3010
 2444TIP3    H1 7289   3.396   6.240   2.991  0.3566 -0.5869  0.2036
 2444TIP3    H2 7290   3.436   6.135   3.093 -0.4180 -0.5415  0.5571
 2445TIP3   OH2 7291   1.937   5.198   1.660 -0.0036 -0.2124  0.3425
 2445TIP3    H1 7292   1.903   5.233   1.743 -0.7193 -1.1279  0.4560
 2445TIP3    H2 7293   1.956   5.106   1.679 -2.0015 -0.9593 -0.9980
 2446TIP3   OH2 7294   1.329   4.110   5.361 -0.4090  0.3048 -0.4341
 2446TIP3    H1 7295   1.361   4.052   5.292 -0.6475 -1.5837  0.9549
 2446TIP3    H2 7296   1.234   4.097   5.361 -0.3365 -0.4029  0.7743
 2447TIP3   OH2 7297   7.617   6.100   4.094 -0.3193 -0.4039  0.3483
 2447TIP3    H1 7298   7.615   6.104   3.998 -0.8118  1.3461  0.3886
 2447TIP3    H2 7299   7.526   6.085   4.119 -0.5356  1.0128  0.5399
 2448TIP3   OH2 7300   4.725   3.849   0.123 -0.7298  0.2342  0.1880
 2448TIP3    H1 7301   4.754   3.930   0.164 -0.4481  0.1162  0.2228
 2448TIP3    H2 7302   4.803   3.795   0.118 -0.2777  0.9689 -2.2471
 2449TIP3   OH2 7303   6.986   3.568   0.811  0.2976  0.1762 -0.1043
 2449TIP3    H1 7304   6.904   3.537   0.849  0.9497 -0.5751  0.7263
 2449TIP3    H2 7305   7.003   3.651   0.855 -0.3000  0.6298 -0.7036
 2450TIP3   OH2 7306   0.325   4.878   4.994 -0.1719  0.2967 -0.4405
 2450TIP3    H1 7307   0.378   4.951   5.026  0.5654 -0.5289  0.2644
 2450TIP3    H2 7308   0.388   4.812   4.967 -0.8325 -0.2643 -0.6524
 2451TIP3   OH2 7309   6.832   6.890   4.873 -0.0710 -0.6282  0.4570
 2451TIP3    H1 7310   6.920   6.855   4.887 -0.1032 -0.4934  0.9846
 2451TIP3    H2 7311   6.844   6.956   4.804 -0.4108 -3.4064 -2.5487
 2452TIP3   OH2 7312   7.619   7.795   1.195  0.4104 -0.0888  0.3312
 2452TIP3    H1 7313   7.630   7.743   1.116 -0.1823 -1.2189  0.9705
 2452TIP3    H2 7314   7.690   7.767   1.253 -0.9651 -1.5721  1.3816
 2453TIP3   OH2 7315   7.997   3.295   3.560  0.5378  0.2537 -0.2910
 2453TIP3    H1 7316   7.958   3.308   3.647 -0.4471 -0.2771 -0.6336
 2453TIP3    H2 7317   8.033   3.380   3.537 -1.2094  1.0386 -0.3176
 2454TIP3   OH2 7318   2.568   5.477   3.475  0.2818  0.1842  0.1972
 2454TIP3    H1 7319   2.493   5.490   3.533 -0.2330 -1.2397 -0.1015
 2454TIP3    H2 7320   2.591   5.565   3.445 -1.5625  0.6098 -0.0631
 2455TIP3   OH2 7321   0.923   7.608   5.093  0.4681 -0.1067 -0.6529
 2455TIP3    H1 7322   0.854   7.659   5.051  1.1588  1.4632  0.0284
 2455TIP3    H2 7323   0.900   7.609   5.186  0.9966 -0.2173 -0.5142
 2456TIP3   OH2 7324   2.821   4.132   4.115 -0.6033  0.1889 -0.0577
 2456TIP3    H1 7325   2.750   4.076   4.083 -1.5485  1.5508 -0.4450
 2456TIP3    H2 7326   2.779   4.216   4.132  0.7477  0.7457  0.6561
 2457TIP3   OH2 7327   6.731   4.655   4.599  0.0107 -0.4657 -0.2514
 2457TIP3    H1 7328   6.645   4.640   4.638 -0.0004  1.7559  0.7329
 2457TIP3    H2 7329   6.714   4.710   4.522  0.6092  1.6598  1.0304
 2458TIP3   OH2 7330   4.563   5.430   3.620 -0.0004  0.4527 -0.2246
 2458TIP3    H1 7331   4.468   5.420   3.629  0.0397  1.2979  1.7291
 2458TIP3    H2 7332   4.600   5.352   3.662  0.2113 -0.2849 -1.7004
 2459TIP3   OH2 7333   2.257   3.095   3.663  0.5963 -0.6680  0.5825
 2459TIP3    H1 7334   2.251   3.003   3.640  0.4440 -0.5056 -0.0380
 2459TIP3    H2 7335   2.338   3.125   3.621 -0.5408  0.0386 -1.2321
 2460TIP3   OH2 7336   2.782   2.458   5.140  0.3143  0.1897  0.1867
 2460TIP3    H1 7337   2.729   2.419   5.070  0.9826 -0.3358 -0.0342
 2460TIP3    H2 7338   2.759   2.551   5.138 -0.8324 -0.0682  0.3073
 2461TIP3   OH2 7339   7.304   2.472   5.031 -0.1382 -0.5730  0.2883
 2461TIP3    H1 7340   7.336   2.399   4.978 -0.6428  0.5551 -1.6597
 2461TIP3    H2 7341   7.356   2.547   5.003  0.1947 -0.0842  2.0672
 2462TIP3   OH2 7342   7.010   3.720   2.798  0.1343  1.1784  0.5429
 2462TIP3    H1 7343   6.949   3.649   2.781  1.8523 -0.2275 -0.0277
 2462TIP3    H2 7344   6.964   3.777   2.860 -1.9300  0.4806 -0.2691
 2463TIP3   OH2 7345   4.997   4.322   6.292 -0.1054  0.4645 -0.2966
 2463TIP3    H1 7346   4.987   4.274   6.210  1.7305 -1.3934  0.4879
 2463TIP3    H2 7347   5.013   4.254   6.358 -0.5334  1.9699  1.4454
 2464TIP3   OH2 7348   4.159   7.340   1.413  0.2374 -0.3134  0.6155
 2464TIP3    H1 7349   4.063   7.335   1.409  0.3003 -0.8744 -1.2846
 2464TIP3    H2 7350   4.184   7.271   1.474 -0.5176 -1.1053  0.0590
 2465TIP3   OH2 7351   0.411   0.025   1.087 -0.1429  0.2562 -0.5381
 2465TIP3    H1 7352   0.349   0.098   1.080  0.3271  0.5392 -1.9212
 2465TIP3    H2 7353   0.395  -0.029   1.010  0.2475 -0.5440 -0.0784
 2466TIP3   OH2 7354   2.081   2.637   3.128  0.2572 -0.5711 -0.0714
 2466TIP3    H1 7355   2.048   2.724   3.151  1.1572 -0.5939  1.4020
 2466TIP3    H2 7356   2.108   2.598   3.211 -0.6673 -2.5197 -0.6209
 2467TIP3   OH2 7357   3.392   1.918   0.580  0.1379 -0.4447  0.9459
 2467TIP3    H1 7358   3.343   1.842   0.551  1.0626  0.0113 -2.2628
 2467TIP3    H2 7359   3.482   1.887   0.590 -0.1146 -0.5529  3.5215
 2468TIP3   OH2 7360   6.067   1.381   0.460 -0.1153 -0.3284  0.2053
 2468TIP3    H1 7361   6.053   1.292   0.491  0.6143 -0.8331 -0.8690
 2468TIP3    H2 7362   5.979   1.420   0.461 -0.5362 -1.2412  0.1330
 2469TIP3   OH2 7363   4.386   5.332   5.402 -0.7535  0.4780 -0.1536
 2469TIP3    H1 7364   4.410   5.404   5.461 -0.3235 -0.3051  0.6464
 2469TIP3    H2 7365   4.428   5.255   5.440 -1.0114 -0.1605 -1.1339
 2470TIP3   OH2 7366   2.796   2.194   1.678 -0.1746 -0.4541 -0.3703
 2470TIP3    H1 7367   2.781   2.257   1.607  1.4743  0.4260 -0.0005
 2470TIP3    H2 7368   2.722   2.206   1.737  0.6589  2.1155  0.3196
 2471TIP3   OH2 7369   3.407   2.922   3.423 -0.5249  0.2569 -0.4819
 2471TIP3    H1 7370   3.389   3.008   3.462 -0.6543  0.3428 -0.7329
 2471TIP3    H2 7371   3.408   2.863   3.498 -1.7292  0.2618 -0.4360
 2472TIP3   OH2 7372   1.590   7.368   5.295  0.6593 -0.0998  0.0050
 2472TIP3    H1 7373   1.536   7.301   5.338 -0.0460  0.8051  0.5608
 2472TIP3    H2 7374   1.527   7.433   5.264  1.1372 -0.6758 -2.4059
 2473TIP3   OH2 7375   2.410   3.950   1.638  0.0155 -0.1511  0.4479
 2473TIP3    H1 7376   2.361   4.005   1.697 -1.1259 -3.4229  2.8504
 2473TIP3    H2 7377   2.462   3.893   1.695  0.4181 -2.1526 -1.7254
 2474TIP3   OH2 7378   0.501   6.024   6.326 -0.0282 -0.3761  0.4026
 2474TIP3    H1 7379   0.533   6.100   6.374 -0.3690  0.8043 -1.1522
 2474TIP3    H2 7380   0.554   5.952   6.357  0.3826  0.5120  1.8512
 2475TIP3   OH2 7381   1.988   3.206   1.843  0.1366  0.0232  0.2067
 2475TIP3    H1 7382   1.990   3.184   1.936  0.6088 -1.2190 -0.0824
 2475TIP3    H2 7383   2.079   3.197   1.814 -0.2903 -1.4942 -0.7730
 2476TIP3   OH2 7384   1.965   2.542   5.575  0.7633 -0.4175 -0.4889
 2476TIP3    H1 7385   1.942   2.471   5.636  0.5348  0.3151  0.3023
 2476TIP3    H2 7386   2.042   2.510   5.530  1.0409 -0.9224  0.3157
 2477TIP3   OH2 7387   7.865   1.731   3.460  0.0098 -0.2325  0.1152
 2477TIP3    H1 7388   7.902   1.712   3.374  1.1333 -1.6858  0.8723
 2477TIP3    H2 7389   7.777   1.763   3.442  1.5145  3.4859 -1.8046
 2478TIP3   OH2 7390   7.084   0.114   4.158 -0.5111 -0.5310 -0.4107
 2478TIP3    H1 7391   7.148   0.181   4.135 -1.2019  0.2877 -0.0194
 2478TIP3    H2 7392   7.112   0.081   4.243 -0.5194 -0.2898 -0.3147
 2479TIP3   OH2 7393   0.076   6.838   5.495 -0.2369 -0.4612  0.0666
 2479TIP3    H1 7394   0.153   6.883   5.528 -0.7676 -0.5629  1.5125
 2479TIP3    H2 7395   0.019   6.827   5.571 -1.8348 -0.0943 -1.0151
 2480TIP3   OH2 7396   0.657   1.766   1.180  0.4773 -0.5343  0.5002
 2480TIP3    H1 7397   0.572   1.724   1.191  0.6739 -1.5536 -1.5035
 2480TIP3    H2 7398   0.712   1.700   1.138  1.6491  0.7741 -0.1027
 2481TIP3   OH2 7399   6.304   7.222   0.073  0.5947 -0.9640  0.1110
 2481TIP3    H1 7400   6.249   7.174   0.011 -1.0759  0.6949  0.1926
 2481TIP3    H2 7401   6.281   7.314   0.058  1.6056 -0.3857  1.8367
 2482TIP3   OH2 7402   4.990   1.783   4.520 -0.5013 -0.5184  0.4146
 2482TIP3    H1 7403   5.004   1.878   4.518 -0.8952 -0.4685 -0.1422
 2482TIP3    H2 7404   5.043   1.749   4.448 -1.3983 -0.5736 -0.2324
 2483TIP3   OH2 7405   1.391   4.824   6.645 -1.0295 -0.5488 -0.3348
 2483TIP3    H1 7406   1.366   4.860   6.730 -2.8335 -1.2169 -0.5563
 2483TIP3    H2 7407   1.407   4.902   6.591 -0.9150 -0.1193  0.2980
 2484TIP3   OH2 7408   2.989   6.267   5.560 -0.6051  0.1513 -0.6576
 2484TIP3    H1 7409   2.909   6.305   5.525 -0.2755  0.8896 -0.6190
 2484TIP3    H2 7410   3.045   6.342   5.579  0.5553 -0.4067 -1.7599
 2485TIP3   OH2 7411   1.151   5.019   2.531  0.1170 -0.5514  0.6073
 2485TIP3    H1 7412   1.214   4.956   2.564  0.7437 -0.8901 -1.1472
 2485TIP3    H2 7413   1.131   5.074   2.607  1.9519 -0.8875  1.3929
 2486TIP3   OH2 7414   5.525   6.122   3.854  0.1726 -0.5129  0.0238
 2486TIP3    H1 7415   5.465   6.065   3.807  0.7869 -1.1971  0.0488
 2486TIP3    H2 7416   5.610   6.109   3.812  0.6756 -0.9153  1.0996
 2487TIP3   OH2 7417   5.009   2.701   2.626 -0.0651 -0.1021 -0.2152
 2487TIP3    H1 7418   5.091   2.683   2.671 -0.7185  0.0096  1.0467
 2487TIP3    H2 7419   4.956   2.749   2.689 -0.9819  0.1401 -1.1293
 2488TIP3   OH2 7420   6.830   5.440   2.699  0.1743  0.6384  0.7449
 2488TIP3    H1 7421   6.917   5.433   2.659 -0.6172 -2.5117 -0.7355
 2488TIP3    H2 7422   6.846   5.482   2.783  2.8558  1.7818 -0.2193
 2489TIP3   OH2 7423   8.096   3.222   3.118  0.0387  0.0333 -0.6405
 2489TIP3    H1 7424   8.021   3.183   3.163 -0.6513  1.9130 -0.0507
 2489TIP3    H2 7425   8.173   3.184   3.159 -0.5678 -1.9022 -1.2234
 2490TIP3   OH2 7426   1.173   1.380   5.588 -0.2152 -0.0136 -0.0530
 2490TIP3    H1 7427   1.268   1.394   5.594 -0.1897  0.3232 -1.1067
 2490TIP3    H2 7428   1.161   1.327   5.509 -0.9549  0.4503 -0.2584
 2491TIP3   OH2 7429   8.152   2.937   4.454  0.2229  0.2004  0.2205
 2491TIP3    H1 7430   8.196   2.907   4.534 -0.1686  1.0070  0.7509
 2491TIP3    H2 7431   8.062   2.907   4.464  0.0834  0.6340  0.2562
 2492TIP3   OH2 7432   4.393   3.504   6.479 -0.7540 -0.7033 -0.2143
 2492TIP3    H1 7433   4.419   3.465   6.563 -2.1927 -1.1274  0.0678
 2492TIP3    H2 7434   4.297   3.505   6.482 -0.8057  0.9568 -1.1073
 2493TIP3   OH2 7435   0.826   4.116   4.985 -0.0449  0.0838  0.1608
 2493TIP3    H1 7436   0.879   4.119   4.906  0.8562  2.0968  0.7774
 2493TIP3    H2 7437   0.794   4.206   4.996 -2.3101 -0.7001  0.7029
 2494TIP3   OH2 7438   0.322   7.678   2.735  0.0205  0.3140  0.5182
 2494TIP3    H1 7439   0.232   7.706   2.716  0.3405  0.6225 -0.6252
 2494TIP3    H2 7440   0.340   7.714   2.823 -0.4506  1.5894  0.1200
 2495TIP3   OH2 7441   6.443   2.638   0.487  0.3749  0.7206 -0.4755
 2495TIP3    H1 7442   6.375   2.693   0.448 -0.7213 -1.0289 -1.1643
 2495TIP3    H2 7443   6.400   2.554   0.500  1.1325  0.7590  3.1689
 2496TIP3   OH2 7444   2.384   5.300   4.362  0.2692 -0.0583  0.0024
 2496TIP3    H1 7445   2.361   5.393   4.369 -0.2939 -0.3010  2.0171
 2496TIP3    H2 7446   2.477   5.299   4.341  0.5229  0.9882  0.9739
 2497TIP3   OH2 7447   1.836   2.724   6.542  0.2732 -0.2049  0.2830
 2497TIP3    H1 7448   1.878   2.712   6.628 -0.6230 -1.0967  0.6081
 2497TIP3    H2 7449   1.909   2.722   6.480  0.8779 -0.0844  0.9683
 2498TIP3   OH2 7450   1.214   1.981   4.597  0.8778  0.6567  0.5329
 2498TIP3    H1 7451   1.123   1.953   4.591  1.3829 -0.8017 -1.3395
 2498TIP3    H2 7452   1.220   2.057   4.539  0.8421  0.7588  0.6637
 2499TIP3   OH2 7453   6.050   6.308   3.052 -0.0440 -0.1797  0.1831
 2499TIP3    H1 7454   5.963   6.268   3.046  0.1109 -0.6740  1.0194
 2499TIP3    H2 7455   6.071   6.304   3.145  0.2038  1.4127  0.2114
 2500TIP3   OH2 7456   0.454   1.294   1.774 -0.1921  0.4863  0.6385
 2500TIP3    H1 7457   0.441   1.220   1.715 -0.4869  0.9284  0.1450
 2500TIP3    H2 7458   0.439   1.257   1.861 -1.0191  0.1131  0.3482
 2501TIP3   OH2 7459   3.286   0.698   1.744 -0.0177 -0.1379  0.0548
 2501TIP3    H1 7460   3.209   0.668   1.792  1.5529  0.0497  2.9302
 2501TIP3    H2 7461   3.272   0.793   1.736 -0.3385 -0.1794  0.0897
 2502TIP3   OH2 7462   1.015   4.961   5.417 -0.8604 -0.0923  0.0042
 2502TIP3    H1 7463   0.947   4.894   5.422 -1.7427  0.7708 -0.0884
 2502TIP3    H2 7464   0.970   5.038   5.382 -0.0673  0.7996  0.8796
 2503TIP3   OH2 7465   1.707   0.746   6.172  0.1006 -0.0540  0.4402
 2503TIP3    H1 7466   1.625   0.776   6.212 -0.9087 -0.0220 -1.5419
 2503TIP3    H2 7467   1.765   0.730   6.247 -0.6986  2.7372  1.7976
 2504TIP3   OH2 7468   7.183   1.048   6.069  0.0400 -0.3065 -0.5775
 2504TIP3    H1 7469   7.102   1.085   6.035 -1.4055 -0.2709  2.6021
 2504TIP3    H2 7470   7.156   0.966   6.110  1.6563 -0.4147  0.3349
 2505TIP3   OH2 7471   5.322   3.078   3.302 -0.2387 -0.2686  0.3102
 2505TIP3    H1 7472   5.232   3.079   3.334 -0.0137  1.5950  1.0025
 2505TIP3    H2 7473   5.369   3.138   3.359  1.5361 -1.3928  0.1297
 2506TIP3   OH2 7474   5.352   2.265   3.710 -0.9561  0.6932 -0.6296
 2506TIP3    H1 7475   5.275   2.208   3.717 -0.5864  0.0896 -1.4070
 2506TIP3    H2 7476   5.353   2.294   3.619  2.0354 -2.6433 -1.8656
 2507TIP3   OH2 7477   4.305   4.650   6.681 -0.0358 -0.3600 -0.3971
 2507TIP3    H1 7478   4.384   4.688   6.641 -0.4562 -0.0253 -0.9279
 2507TIP3    H2 7479   4.298   4.563   6.643  0.2021 -0.4753 -0.1780
 2508TIP3   OH2 7480   7.809   7.330   0.731 -0.5480 -0.1680 -0.3545
 2508TIP3    H1 7481   7.768   7.304   0.649 -0.5296 -0.4418 -0.2776
 2508TIP3    H2 7482   7.891   7.282   0.734 -0.5833 -0.2190 -0.1412
 2509TIP3   OH2 7483   7.276   2.934   6.499 -0.2561  0.1815 -0.7745
 2509TIP3    H1 7484   7.327   2.942   6.418 -1.2715  0.7860 -1.3936
 2509TIP3    H2 7485   7.214   2.863   6.481  0.5015 -0.7107  0.0550
 2510TIP3   OH2 7486   2.424   0.230   4.067  0.6099  0.0023 -0.2221
 2510TIP3    H1 7487   2.410   0.248   3.974  0.3090  1.0182  0.0054
 2510TIP3    H2 7488   2.380   0.147   4.083 -0.5036  0.4849 -0.6978
 2511TIP3   OH2 7489   4.574   6.858   2.395  0.3696 -0.5281 -0.1053
 2511TIP3    H1 7490   4.621   6.778   2.372  1.3542 -0.5027  1.6922
 2511TIP3    H2 7491   4.618   6.891   2.473 -2.8971 -0.7496  2.0028
 2512TIP3   OH2 7492   6.182   5.741   4.977 -0.1965 -0.0563 -0.0021
 2512TIP3    H1 7493   6.145   5.669   5.028  1.4043 -0.4053  0.7215
 2512TIP3    H2 7494   6.175   5.712   4.886 -2.1528  0.1378  0.0532
 2513TIP3   OH2 7495   3.542   0.548   2.981 -0.0634 -0.5560  0.1089
 2513TIP3    H1 7496   3.587   0.618   2.933  0.7614 -0.5583  0.8461
 2513TIP3    H2 7497   3.598   0.532   3.057  0.1492 -2.5090 -0.4002
 2514TIP3   OH2 7498   6.793   0.914   6.389 -0.6679 -0.5537  0.3600
 2514TIP3    H1 7499   6.756   0.990   6.344 -0.9832 -1.4504 -0.9446
 2514TIP3    H2 7500   6.726   0.846   6.381  0.7080 -1.8258 -0.9450
 2515TIP3   OH2 7501   6.210   7.213   2.730 -0.0167 -0.7299 -0.1634
 2515TIP3    H1 7502   6.162   7.261   2.798  0.6097  0.2525 -0.3984
 2515TIP3    H2 7503   6.145   7.199   2.661 -0.7033 -1.8763  0.6812
 2516TIP3   OH2 7504   4.154   6.126   6.653 -0.0784 -0.1877  0.1421
 2516TIP3    H1 7505   4.246   6.152   6.662 -0.4165  1.8003 -1.2252
 2516TIP3    H2 7506   4.157   6.037   6.619  1.4392  0.3759 -1.3879
 2517TIP3   OH2 7507   5.243   3.226   0.341  0.1955  0.5244  0.4102
 2517TIP3    H1 7508   5.208   3.264   0.261  1.7574  2.9274  0.7755
 2517TIP3    H2 7509   5.338   3.238   0.334  0.4989 -0.6057  1.9680
 2518TIP3   OH2 7510   0.989   0.616   1.359 -0.0654  0.0410  0.4006
 2518TIP3    H1 7511   0.937   0.660   1.292  1.1165  0.8591 -0.0041
 2518TIP3    H2 7512   1.014   0.685   1.420  2.8662  0.2614 -0.9055
 2519TIP3   OH2 7513   2.439   2.244   2.910 -0.6457  0.1575 -0.0617
 2519TIP3    H1 7514   2.429   2.307   2.981  0.9311  1.0872 -0.6107
 2519TIP3    H2 7515   2.422   2.159   2.950 -2.4842  0.8627  0.7763
 2520TIP3   OH2 7516   4.551   7.533   6.691  0.0387 -0.1040 -1.1110
 2520TIP3    H1 7517   4.528   7.492   6.607  1.3293 -1.4372 -0.8428
 2520TIP3    H2 7518   4.541   7.464   6.756  1.3132  0.2430 -0.5051
 2521TIP3   OH2 7519   5.653   3.255   3.115  0.2416 -0.1432  0.3491
 2521TIP3    H1 7520   5.565   3.293   3.123 -0.0802 -0.6551 -0.5917
 2521TIP3    H2 7521   5.654   3.184   3.179  0.1073  0.1188  0.6419
 2522TIP3   OH2 7522   1.709   7.115   5.688  0.5108 -0.1726 -0.3158
 2522TIP3    H1 7523   1.698   7.187   5.625  1.0420  0.7343  0.6032
 2522TIP3    H2 7524   1.634   7.058   5.672  0.5336  0.1320 -1.6486
 2523TIP3   OH2 7525   1.866   1.975   4.657  0.2705  0.1703  0.1739
 2523TIP3    H1 7526   1.851   1.881   4.643  1.3679  0.0625 -0.3604
 2523TIP3    H2 7527   1.791   2.018   4.616 -0.1898 -0.4626  0.3365
 2524TIP3   OH2 7528   1.775   1.489   3.054  0.5929 -0.2386  0.0192
 2524TIP3    H1 7529   1.777   1.399   3.084  1.0314 -0.7094 -1.3487
 2524TIP3    H2 7530   1.765   1.541   3.134 -0.6795 -1.5242  0.7517
 2525TIP3   OH2 7531   7.549   6.613   5.513 -0.1909 -0.4472 -0.0885
 2525TIP3    H1 7532   7.540   6.563   5.594  3.4808 -0.0356  0.7489
 2525TIP3    H2 7533   7.560   6.547   5.445  1.4535 -0.8556  0.5297
 2526TIP3   OH2 7534   3.921   5.842   6.191 -0.2075 -0.1134 -0.1352
 2526TIP3    H1 7535   4.004   5.824   6.147  0.4002 -0.5181  1.1363
 2526TIP3    H2 7536   3.855   5.822   6.125  0.6993  2.3342 -1.9485
 2527TIP3   OH2 7537   6.161   4.437   1.546 -0.6302 -0.2040 -0.2240
 2527TIP3    H1 7538   6.219   4.406   1.477 -2.5370 -0.6220 -1.7169
 2527TIP3    H2 7539   6.152   4.363   1.605 -1.4964 -0.9620 -1.2776
 2528TIP3   OH2 7540   0.213   2.967   4.593 -0.4977 -0.1650  0.1187
 2528TIP3    H1 7541   0.187   2.901   4.529 -2.9359  0.7588  0.0487
 2528TIP3    H2 7542   0.306   2.984   4.574 -0.8972 -0.5809 -2.5899
 2529TIP3   OH2 7543   1.210   5.012   3.666 -0.2252 -0.2440 -0.2035
 2529TIP3    H1 7544   1.139   4.966   3.711  1.2848 -0.7749  1.8091
 2529TIP3    H2 7545   1.289   4.965   3.691  0.9601  0.8651 -1.6294
 2530TIP3   OH2 7546   0.709   0.938   2.706 -0.0457 -0.1312  0.0155
 2530TIP3    H1 7547   0.712   0.925   2.801  0.4336  0.5413  0.0995
 2530TIP3    H2 7548   0.781   0.884   2.672  0.3862  0.3699  0.1277
 2531TIP3   OH2 7549   7.874   2.417   5.231  0.1481 -0.1186 -0.1965
 2531TIP3    H1 7550   7.782   2.392   5.235  0.0328  0.3905  0.8731
 2531TIP3    H2 7551   7.894   2.424   5.138 -0.5842 -1.3377 -0.4608
 2532TIP3   OH2 7552   3.386   3.387   3.906 -0.2058 -0.5639 -0.3164
 2532TIP3    H1 7553   3.328   3.368   3.832  1.2824  1.6251 -2.1827
 2532TIP3    H2 7554   3.347   3.462   3.950  1.1181  0.9545 -1.6126
 2533TIP3   OH2 7555   2.159   1.679   3.824  0.1656  0.1187  0.4695
 2533TIP3    H1 7556   2.202   1.668   3.739 -0.6037  2.0512 -0.2402
 2533TIP3    H2 7557   2.178   1.599   3.872  0.7059 -0.9826 -1.4928
 2534TIP3   OH2 7558   4.992   2.447   4.730  0.3044  0.1326  0.1593
 2534TIP3    H1 7559   4.903   2.420   4.710  0.0604 -0.5722  2.0012
 2534TIP3    H2 7560   4.984   2.499   4.810  1.6869 -1.4063  1.3694
 2535TIP3   OH2 7561   3.238   1.431   0.612 -0.5699 -0.6793 -0.5805
 2535TIP3    H1 7562   3.228   1.441   0.707 -0.8312 -0.8758 -0.5861
 2535TIP3    H2 7563   3.229   1.337   0.596 -0.1980 -0.6855 -0.7643
 2536TIP3   OH2 7564   1.390   0.619   6.414  0.2798  0.0140  0.0553
 2536TIP3    H1 7565   1.401   0.525   6.405 -0.7970 -0.3855  2.2687
 2536TIP3    H2 7566   1.471   0.649   6.456 -0.5042 -0.4515  2.0282
 2537TIP3   OH2 7567   5.360   2.099   1.935 -0.0989 -0.8649 -0.4701
 2537TIP3    H1 7568   5.453   2.110   1.917 -0.0006 -0.1414  0.4056
 2537TIP3    H2 7569   5.317   2.113   1.851  0.5942 -1.4718 -0.9376
 2538TIP3   OH2 7570   4.469   4.245   0.320  0.4221  0.3745 -0.5716
 2538TIP3    H1 7571   4.545   4.281   0.366  0.3526  1.0287 -0.9572
 2538TIP3    H2 7572   4.411   4.216   0.391  1.0053 -0.0892 -0.2759
 2539TIP3   OH2 7573   7.296   5.326   3.598  0.4459 -0.1009  0.3232
 2539TIP3    H1 7574   7.310   5.420   3.595 -1.5200  0.2260  0.1613
 2539TIP3    H2 7575   7.242   5.307   3.521 -0.0592 -1.1725  0.9111
 2540TIP3   OH2 7576   1.719   1.321   0.526 -0.0786 -0.7386  0.4758
 2540TIP3    H1 7577   1.702   1.262   0.453 -1.4952 -0.4450  0.5334
 2540TIP3    H2 7578   1.647   1.305   0.587 -0.7244  1.2633  0.3221
 2541TIP3   OH2 7579   1.862   0.991   1.163 -0.3202  0.0445  0.2496
 2541TIP3    H1 7580   1.799   0.921   1.145  0.3977 -0.6656  0.4326
 2541TIP3    H2 7581   1.812   1.055   1.213 -0.6152 -1.0352  1.3854
 2542TIP3   OH2 7582   2.780   6.130   0.069 -0.3936 -0.2520 -0.3324
 2542TIP3    H1 7583   2.843   6.104   0.001 -0.0233  0.9111 -0.4448
 2542TIP3    H2 7584   2.717   6.057   0.072  0.9656 -1.4739 -0.1818
 2543TIP3   OH2 7585   5.808   4.056   1.858 -0.6114  0.3308 -0.6660
 2543TIP3    H1 7586   5.892   4.010   1.858  0.3322  1.9009  1.3774
 2543TIP3    H2 7587   5.759   4.016   1.785  0.2564 -3.5280  0.5973
 2544TIP3   OH2 7588   6.718   2.186   6.118 -0.2649  0.4865 -0.3412
 2544TIP3    H1 7589   6.645   2.227   6.164  0.1796 -0.9762  1.8622
 2544TIP3    H2 7590   6.776   2.258   6.095 -1.3108  1.4448 -0.0684
 2545TIP3   OH2 7591   5.409   6.953   4.530  0.4629  0.5368  0.0383
 2545TIP3    H1 7592   5.327   6.971   4.576 -0.3990  0.0772 -1.2483
 2545TIP3    H2 7593   5.472   7.015   4.567 -1.0463  2.4672 -0.5175
 2546TIP3   OH2 7594   7.443   5.404   0.864 -0.3083 -0.5235 -0.6406
 2546TIP3    H1 7595   7.450   5.391   0.959  0.9375 -1.1504 -0.7933
 2546TIP3    H2 7596   7.459   5.317   0.827 -1.1152 -0.3488 -1.4237
 2547TIP3   OH2 7597   1.135   6.677   3.137 -0.2962 -0.5894  0.0698
 2547TIP3    H1 7598   1.134   6.602   3.077 -2.7858 -0.7702  0.2089
 2547TIP3    H2 7599   1.209   6.661   3.195 -0.3648 -2.6189 -0.3282
 2548TIP3   OH2 7600   7.407   0.937   5.880  0.1491 -0.2285  0.1534
 2548TIP3    H1 7601   7.384   0.891   5.960  0.5998  0.5266  0.7299
 2548TIP3    H2 7602   7.413   1.029   5.906  0.8438 -0.0435 -0.6297
 2549TIP3   OH2 7603   1.902   0.201   6.759  0.7341 -0.6119 -0.0606
 2549TIP3    H1 7604   1.938   0.284   6.728 -0.4964  0.5577  1.5068
 2549TIP3    H2 7605   1.929   0.196   6.850 -0.5554 -1.1382  0.3096
 2550TIP3   OH2 7606   1.323   5.957   5.255  0.2328  0.5653 -0.1807
 2550TIP3    H1 7607   1.339   5.906   5.176 -2.3039 -1.2746  0.3175
 2550TIP3    H2 7608   1.375   5.913   5.323  0.4168  0.5191 -0.3536
 2551TIP3   OH2 7609   1.235   3.750   2.613  0.4699 -0.2017  0.1358
 2551TIP3    H1 7610   1.215   3.809   2.687 -1.1965  0.3987 -0.7540
 2551TIP3    H2 7611   1.167   3.768   2.549  1.9261 -0.6557 -1.6183
 2552TIP3   OH2 7612   1.749   0.674   6.628 -0.3096  0.7561  0.2202
 2552TIP3    H1 7613   1.740   0.636   6.715 -0.7699  0.1128 -0.0970
 2552TIP3    H2 7614   1.677   0.737   6.622 -0.0781  1.0397  0.4257
 2553TIP3   OH2 7615   5.284   4.627   1.409 -0.1538  0.3364  0.4367
 2553TIP3    H1 7616   5.285   4.717   1.443  0.2933  0.7014 -0.4942
 2553TIP3    H2 7617   5.313   4.636   1.318  2.3912 -0.9989  0.9982
 2554TIP3   OH2 7618   6.613   1.338   3.689  0.5597  0.0107 -0.1974
 2554TIP3    H1 7619   6.618   1.420   3.640 -1.0179 -0.5776 -1.4093
 2554TIP3    H2 7620   6.525   1.339   3.728  0.1083 -1.5755 -1.1197
 2555TIP3   OH2 7621   3.514   2.007   2.428 -0.3772  0.6323  0.1364
 2555TIP3    H1 7622   3.588   2.001   2.368  0.9555 -0.0436  1.7718
 2555TIP3    H2 7623   3.437   2.014   2.371  0.7983 -0.2825 -1.6462
 2556TIP3   OH2 7624   1.315   5.935   2.544 -0.3133 -0.1785 -0.6417
 2556TIP3    H1 7625   1.339   6.026   2.532  1.2097 -0.5045 -0.2161
 2556TIP3    H2 7626   1.286   5.929   2.635  0.1660 -0.2414 -0.4935
 2557TIP3   OH2 7627   1.921   1.799   1.285  0.3495 -0.6710  0.4043
 2557TIP3    H1 7628   1.877   1.781   1.202 -0.5796 -0.1279  0.7679
 2557TIP3    H2 7629   1.928   1.894   1.288  1.7194 -0.7396  0.2831
 2558TIP3   OH2 7630   6.620   2.357   3.421 -0.0057 -0.4618  0.0200
 2558TIP3    H1 7631   6.694   2.387   3.473  1.0348 -1.2754 -0.9264
 2558TIP3    H2 7632   6.596   2.432   3.367  0.2002 -0.2167  0.2711
 2559TIP3   OH2 7633   3.467   4.715   5.046 -0.2833 -0.7449  0.4186
 2559TIP3    H1 7634   3.514   4.641   5.086  1.2729  0.9775  1.9498
 2559TIP3    H2 7635   3.386   4.676   5.014  0.4522 -3.1229  1.1780
 2560TIP3   OH2 7636   1.998   1.525   0.243  0.1206  0.0589 -0.4706
 2560TIP3    H1 7637   1.977   1.572   0.163 -0.6097  0.1131 -0.2622
 2560TIP3    H2 7638   1.984   1.589   0.313 -1.6047 -0.6361 -0.1259
 2561TIP3   OH2 7639   1.295   0.383   1.639  0.2017 -0.2576 -0.2061
 2561TIP3    H1 7640   1.202   0.389   1.620 -0.3579  0.3487  2.3297
 2561TIP3    H2 7641   1.320   0.472   1.665  1.3165 -0.5665 -0.1719
 2562TIP3   OH2 7642   0.438   4.181   4.846 -0.1399  0.0385  0.0374
 2562TIP3    H1 7643   0.492   4.105   4.866 -0.1058  0.4534  1.7633
 2562TIP3    H2 7644   0.443   4.192   4.751  0.1527 -1.8692 -0.1963
 2563TIP3   OH2 7645   8.223   2.457   1.691  0.2240  0.1183  0.0076
 2563TIP3    H1 7646   8.288   2.406   1.739 -1.3215 -0.4365  1.6112
 2563TIP3    H2 7647   8.228   2.545   1.730  0.3166  0.2009 -0.1881
 2564TIP3   OH2 7648   7.095   6.952   3.363  0.2598  0.0050  0.1114
 2564TIP3    H1 7649   7.116   6.948   3.270  1.9470  2.6413  0.2775
 2564TIP3    H2 7650   7.158   6.894   3.405 -0.0346 -0.6237 -0.2951
 2565TIP3   OH2 7651   8.081   1.752   3.264  0.1817  0.5630  0.5665
 2565TIP3    H1 7652   8.162   1.714   3.298 -0.8297 -1.5028  0.8408
 2565TIP3    H2 7653   8.059   1.697   3.188 -0.7202  1.3737  0.2247
 2566TIP3   OH2 7654   5.969   3.386   2.741 -0.2642 -0.4994  0.6691
 2566TIP3    H1 7655   5.958   3.296   2.773 -2.4028 -0.9436 -1.1054
 2566TIP3    H2 7656   6.063   3.393   2.722  0.2793 -1.6921  2.5770
 2567TIP3   OH2 7657   2.562   4.104   5.975 -0.2694 -0.0603 -0.2907
 2567TIP3    H1 7658   2.480   4.076   6.016  2.0300 -3.5019  2.6446
 2567TIP3    H2 7659   2.591   4.027   5.926  1.0317  1.2125 -1.6101
 2568TIP3   OH2 7660   4.930   0.207   0.003 -0.0313 -0.2336  0.1996
 2568TIP3    H1 7661   4.876   0.233   0.078  1.5772  0.2852  1.2326
 2568TIP3    H2 7662   5.014   0.184   0.042  0.9215  0.2849 -1.4909
 2569TIP3   OH2 7663   2.545   4.591   1.121  0.0719  0.0357 -0.5828
 2569TIP3    H1 7664   2.626   4.629   1.155 -0.2082  1.4953 -1.4686
 2569TIP3    H2 7665   2.541   4.622   1.030 -1.3583 -0.2260 -0.6245
 2570TIP3   OH2 7666   5.315   2.485   2.279 -0.0406 -0.1342  0.1801
 2570TIP3    H1 7667   5.226   2.452   2.293 -0.4684  1.1266  0.5468
 2570TIP3    H2 7668   5.371   2.407   2.286 -1.3104 -1.4729 -2.8689
 2571TIP3   OH2 7669   2.450   1.461   1.565  0.0211 -0.4171  0.0544
 2571TIP3    H1 7670   2.496   1.539   1.596 -0.8462 -0.0045  0.3277
 2571TIP3    H2 7671   2.415   1.486   1.480 -1.1914 -0.1318  0.6262
 2572TIP3   OH2 7672   2.757   2.648   3.704 -0.8416  0.3492 -0.2886
 2572TIP3    H1 7673   2.706   2.692   3.771  1.1151  0.5442  1.1502
 2572TIP3    H2 7674   2.714   2.563   3.693 -1.4057  0.4527  0.9522
 2573TIP3   OH2 7675   6.431   2.385   0.965 -0.4606  0.1801 -0.0187
 2573TIP3    H1 7676   6.454   2.459   0.908  2.0088  0.3666  1.0739
 2573TIP3    H2 7677   6.361   2.419   1.021 -1.2006  0.7824 -1.2549
 2574TIP3   OH2 7678   2.549   2.237   1.789  0.2836  0.1927  0.4628
 2574TIP3    H1 7679   2.508   2.295   1.725  0.4354 -1.9409 -1.6973
 2574TIP3    H2 7680   2.483   2.170   1.807  0.8806 -0.2220  1.1628
 2575TIP3   OH2 7681   1.530   4.244   0.145 -0.2730 -0.2877 -0.7169
 2575TIP3    H1 7682   1.570   4.326   0.175  1.6324 -1.4640  0.2356
 2575TIP3    H2 7683   1.593   4.208   0.083 -0.3059 -1.7214  0.0237
 2576TIP3   OH2 7684   4.657   2.265   0.417 -0.7746  0.1935 -0.2224
 2576TIP3    H1 7685   4.647   2.219   0.334  0.0725 -0.8989  0.2518
 2576TIP3    H2 7686   4.658   2.196   0.483  0.4658  0.8832  0.5258
 2577TIP3   OH2 7687   1.899   4.147   0.573  0.1260 -0.0105 -0.4709
 2577TIP3    H1 7688   1.850   4.222   0.606  1.0025 -0.1690  1.3223
 2577TIP3    H2 7689   1.874   4.140   0.481 -2.0561  0.7979  0.0073
 2578TIP3   OH2 7690   2.157   3.947   5.455 -0.0576 -0.2346  0.0635
 2578TIP3    H1 7691   2.105   3.907   5.525 -0.7735  0.1637 -0.2228
 2578TIP3    H2 7692   2.143   4.041   5.467  0.0775 -0.1538 -0.4112
 2579TIP3   OH2 7693   8.243   4.666   5.437 -0.5710 -0.8606 -0.5655
 2579TIP3    H1 7694   8.154   4.696   5.457 -0.0925  0.4576 -0.3297
 2579TIP3    H2 7695   8.263   4.703   5.351 -0.5407 -1.8521 -1.0031
 2580TIP3   OH2 7696   3.896   4.766   1.550  0.1836  0.0495  0.6202
 2580TIP3    H1 7697   3.813   4.734   1.513  0.0474  1.8296 -0.7503
 2580TIP3    H2 7698   3.875   4.851   1.588  1.1885  0.0895  1.1233
 2581TIP3   OH2 7699   6.357   2.367   3.526  0.5467  0.2805 -0.1075
 2581TIP3    H1 7700   6.400   2.415   3.598  2.2710  0.2492 -1.0629
 2581TIP3    H2 7701   6.428   2.345   3.466 -0.8430  0.3178 -1.8524
 2582TIP3   OH2 7702   2.746   1.741   4.231  0.0964  0.4255  0.4903
 2582TIP3    H1 7703   2.653   1.718   4.225 -0.1019  1.3578 -0.1760
 2582TIP3    H2 7704   2.782   1.676   4.291 -0.2114 -2.2909 -2.0253
 2583TIP3   OH2 7705   5.338   4.436   3.562  0.5680 -0.1855  0.2721
 2583TIP3    H1 7706   5.311   4.495   3.492 -0.3143 -0.9052 -0.0113
 2583TIP3    H2 7707   5.318   4.348   3.529  1.8947 -0.6731  0.6662
 2584TIP3   OH2 7708   2.777   4.926   3.770  0.4227  0.7371  0.6162
 2584TIP3    H1 7709   2.706   4.987   3.751 -0.9938 -0.4778  1.7400
 2584TIP3    H2 7710   2.792   4.935   3.864 -0.3055 -1.0971  0.9472
 2585TIP3   OH2 7711   3.676   7.505   0.687  0.9187  0.3096 -0.4988
 2585TIP3    H1 7712   3.663   7.532   0.596 -0.1129 -2.2885 -1.2176
 2585TIP3    H2 7713   3.640   7.577   0.739 -1.8207  0.3668 -2.2612
 2586TIP3   OH2 7714   1.369   3.235   2.669 -0.1074  0.4257  0.5501
 2586TIP3    H1 7715   1.402   3.271   2.751  0.8842  1.0489 -0.0941
 2586TIP3    H2 7716   1.290   3.285   2.650 -0.3768  0.2348  1.1431
 2587TIP3   OH2 7717   1.935   3.320   4.969  0.4641 -0.0249 -0.1242
 2587TIP3    H1 7718   1.967   3.410   4.972  2.2483 -0.6152  0.2814
 2587TIP3    H2 7719   2.013   3.268   4.947 -0.1900 -1.6094  1.0991
 2588TIP3   OH2 7720   6.300   0.570   1.886  0.0814  0.4354  0.2608
 2588TIP3    H1 7721   6.269   0.648   1.840 -1.8346  1.1870  2.5971
 2588TIP3    H2 7722   6.287   0.498   1.824 -0.4999  1.6439 -1.0598
 2589TIP3   OH2 7723   3.598   6.457   1.005 -0.2018  0.2765 -0.1366
 2589TIP3    H1 7724   3.509   6.444   0.973 -0.0726 -0.6217 -0.1488
 2589TIP3    H2 7725   3.588   6.469   1.100 -0.4816  1.8899 -0.3421
 2590TIP3   OH2 7726   4.609   0.066   3.595 -0.2821  0.5633 -0.0075
 2590TIP3    H1 7727   4.549   0.019   3.538  0.7014 -0.4021 -0.2807
 2590TIP3    H2 7728   4.552   0.105   3.662 -1.2134 -0.3430 -0.2378
 2591TIP3   OH2 7729   3.163   3.320   0.853  0.6780  0.0692 -0.3142
 2591TIP3    H1 7730   3.094   3.362   0.904  0.8403 -0.5575  0.4269
 2591TIP3    H2 7731   3.201   3.392   0.802 -0.0472  0.5473 -0.2060
 2592TIP3   OH2 7732   6.811   3.517   6.327 -0.5804 -0.0658  0.0287
 2592TIP3    H1 7733   6.831   3.508   6.421  0.3964 -1.6430 -0.2958
 2592TIP3    H2 7734   6.897   3.517   6.285 -1.0516 -0.5286 -0.9489
 2593TIP3   OH2 7735   2.424   6.662   5.312 -0.5764  0.2923 -0.1830
 2593TIP3    H1 7736   2.353   6.612   5.271 -1.1509  0.4642  0.5866
 2593TIP3    H2 7737   2.500   6.646   5.255 -0.6554 -1.6992  0.1944
 2594TIP3   OH2 7738   1.154   2.958   6.191  0.4036  0.9287  0.1402
 2594TIP3    H1 7739   1.190   2.875   6.159 -1.5869 -0.1404  0.5126
 2594TIP3    H2 7740   1.187   2.965   6.281 -0.1410  0.0617  0.4216
 2595TIP3   OH2 7741   6.857   3.466   3.158  0.5544 -0.2428 -0.0468
 2595TIP3    H1 7742   6.912   3.424   3.225  0.7320  1.2015  0.7343
 2595TIP3    H2 7743   6.794   3.398   3.134  2.7676 -2.0422 -1.1334
 2596TIP3   OH2 7744   0.964   4.497   3.452  0.0161  0.2686  0.1646
 2596TIP3    H1 7745   1.054   4.528   3.457 -0.4528  1.7422  0.0501
 2596TIP3    H2 7746   0.934   4.495   3.543 -0.2008  0.9551  0.1126
 2597TIP3   OH2 7747   4.361   7.260   4.640 -0.0928  0.2482  0.1361
 2597TIP3    H1 7748   4.413   7.311   4.579 -0.8933  0.1366 -0.6666
 2597TIP3    H2 7749   4.364   7.171   4.605 -0.0491  0.0624  0.6072
 2598TIP3   OH2 7750   0.465   4.408   1.524 -0.5795  0.2690 -0.0515
 2598TIP3    H1 7751   0.479   4.340   1.458 -0.4604 -1.6005  1.8048
 2598TIP3    H2 7752   0.544   4.406   1.578 -1.5718  0.1984  1.4458
 2599TIP3   OH2 7753   1.318   5.546   5.215  0.0370 -0.3916 -0.2036
 2599TIP3    H1 7754   1.224   5.543   5.231  0.1648  0.0036  0.6645
 2599TIP3    H2 7755   1.356   5.581   5.296  0.7121  1.7956 -1.3644
 2600TIP3   OH2 7756   1.196   5.657   6.525 -0.3009  0.2049 -0.4655
 2600TIP3    H1 7757   1.175   5.618   6.610  1.0462 -0.5334 -0.4264
 2600TIP3    H2 7758   1.209   5.750   6.544  0.4680 -0.0288  0.2599
 2601TIP3   OH2 7759   4.009   0.488   2.961 -0.2158 -0.6881 -0.5346
 2601TIP3    H1 7760   3.943   0.485   3.030  0.4919  0.9079  0.2654
 2601TIP3    H2 7761   3.962   0.521   2.885 -0.0743  2.2138  0.4990
 2602TIP3   OH2 7762   2.930   7.295   5.833  0.1419 -0.0367  0.0735
 2602TIP3    H1 7763   2.852   7.335   5.793 -0.2465  2.5539  3.0327
 2602TIP3    H2 7764   2.903   7.205   5.852 -2.0490  0.6838  0.6922
 2603TIP3   OH2 7765   5.953   3.544   0.510 -0.3990 -0.1507 -0.5135
 2603TIP3    H1 7766   5.960   3.473   0.446 -1.7217  0.5860 -1.5252
 2603TIP3    H2 7767   5.913   3.502   0.587 -1.8638 -0.3775 -1.3654
 2604TIP3   OH2 7768   7.603   4.897   2.645 -0.5668  0.6328 -0.2217
 2604TIP3    H1 7769   7.541   4.920   2.715 -0.8984  0.6615 -0.5218
 2604TIP3    H2 7770   7.623   4.805   2.659  1.0697  1.1561  1.2244
 2605TIP3   OH2 7771   5.897   5.152   5.416  0.2000 -0.3398 -0.5275
 2605TIP3    H1 7772   5.829   5.109   5.364 -1.3897  0.0678  1.1098
 2605TIP3    H2 7773   5.862   5.240   5.433  1.1001 -0.1436  0.3944
 2606TIP3   OH2 7774   1.102   0.368   6.493 -0.4248  0.0231 -0.1636
 2606TIP3    H1 7775   1.055   0.367   6.410 -1.7533  0.2432  0.5680
 2606TIP3    H2 7776   1.172   0.432   6.481  1.2954 -2.0644 -2.1024
 2607TIP3   OH2 7777   4.461   1.049   1.377  0.1605  0.1230 -0.4554
 2607TIP3    H1 7778   4.371   1.076   1.395 -0.0041 -0.7095  0.0168
 2607TIP3    H2 7779   4.515   1.110   1.427 -0.2071 -0.4023  0.6136
 2608TIP3   OH2 7780   2.089   2.983   6.386  0.1784 -0.1436  0.0218
 2608TIP3    H1 7781   2.141   2.906   6.366  2.6918  1.8119 -1.5554
 2608TIP3    H2 7782   2.085   2.985   6.482  3.1532 -0.4004  0.2414
 2609TIP3   OH2 7783   2.328   5.103   0.884  0.3265  0.5556  0.3370
 2609TIP3    H1 7784   2.387   5.136   0.952 -0.8125  1.3613  0.9517
 2609TIP3    H2 7785   2.264   5.050   0.932  0.2711  0.0546 -0.2778
 2610TIP3   OH2 7786   7.166   4.482   4.060 -0.4179 -0.1395  0.0177
 2610TIP3    H1 7787   7.145   4.428   4.136  0.9705 -1.1107 -0.2540
 2610TIP3    H2 7788   7.262   4.480   4.054 -0.4594  0.5152 -1.3176
 2611TIP3   OH2 7789   4.153   4.916   3.499 -0.2545 -0.3264 -0.2169
 2611TIP3    H1 7790   4.230   4.865   3.524 -0.7324 -1.1347 -0.3501
 2611TIP3    H2 7791   4.112   4.939   3.582  0.3012  0.3945 -0.1322
 2612TIP3   OH2 7792   6.356   6.723   5.164  0.1579 -0.5153  0.2144
 2612TIP3    H1 7793   6.280   6.671   5.190 -0.7804  1.2130  1.1320
 2612TIP3    H2 7794   6.385   6.764   5.246  0.7080  0.5907 -0.5166
 2613TIP3   OH2 7795   2.216   3.250   6.506 -0.5625  0.3675 -0.3668
 2613TIP3    H1 7796   2.172   3.264   6.590  0.5060 -2.8991  0.8810
 2613TIP3    H2 7797   2.166   3.182   6.463  0.5274 -0.0027 -1.0952
 2614TIP3   OH2 7798   5.917   2.685   5.887 -0.0731  0.3673  0.3709
 2614TIP3    H1 7799   5.841   2.727   5.847 -0.6841 -0.0277  1.1063
 2614TIP3    H2 7800   5.952   2.750   5.947 -0.7171  0.0245  1.1308
 2615TIP3   OH2 7801   4.567   0.666   0.816  0.0538 -0.3382 -0.3302
 2615TIP3    H1 7802   4.508   0.648   0.889  0.0228 -0.4055 -0.3716
 2615TIP3    H2 7803   4.613   0.746   0.842  0.1523 -0.4453 -0.1692
 2616TIP3   OH2 7804   5.200   7.101   6.476  0.2325 -0.2295  0.2649
 2616TIP3    H1 7805   5.173   7.127   6.564 -0.0339  0.5687 -0.0409
 2616TIP3    H2 7806   5.126   7.050   6.442  1.1621 -2.3518  1.2390
 2617TIP3   OH2 7807   2.036   4.455   0.797  0.0237  0.2737  0.5391
 2617TIP3    H1 7808   2.023   4.380   0.855 -1.5190  0.8154  0.9315
 2617TIP3    H2 7809   2.067   4.525   0.855  2.4013 -0.2620  0.0287
 2618TIP3   OH2 7810   6.016   5.390   1.218 -0.4824  0.2866 -0.2935
 2618TIP3    H1 7811   5.971   5.335   1.154 -2.5666  1.6326 -0.0977
 2618TIP3    H2 7812   6.014   5.340   1.299  1.4230 -1.0668 -0.9958
 2619TIP3   OH2 7813   2.902   7.307   4.099 -0.1570  0.7517 -0.2272
 2619TIP3    H1 7814   2.873   7.381   4.153 -0.0585 -1.5040  3.2467
 2619TIP3    H2 7815   2.822   7.276   4.056 -0.5212  1.8173 -0.3492
 2620TIP3   OH2 7816   0.040   7.148   0.381 -0.2400 -0.1953  0.3015
 2620TIP3    H1 7817  -0.031   7.210   0.397 -0.7648 -0.2080 -1.6693
 2620TIP3    H2 7818   0.083   7.138   0.466 -1.5255  1.1306  1.1614
 2621TIP3   OH2 7819   0.031   1.068   6.092  0.0161  0.5490 -0.3911
 2621TIP3    H1 7820   0.087   1.127   6.143 -0.6561  0.7145  0.1609
 2621TIP3    H2 7821  -0.028   1.029   6.157  1.6819 -2.2241 -0.3620
 2622TIP3   OH2 7822   2.630   7.375   3.905  0.4805 -0.0601 -0.3435
 2622TIP3    H1 7823   2.538   7.370   3.931  0.0757  0.8341 -1.5415
 2622TIP3    H2 7824   2.651   7.468   3.908  1.6386 -0.3284  0.8121
 2623TIP3   OH2 7825   0.758   6.224   4.987  0.1620  0.0290 -0.1797
 2623TIP3    H1 7826   0.729   6.299   5.040  3.0561  1.0786  0.0833
 2623TIP3    H2 7827   0.780   6.261   4.902 -1.7160 -1.1873 -1.2712
 2624TIP3   OH2 7828   6.480   3.523   6.610 -0.4717 -0.4157  0.0963
 2624TIP3    H1 7829   6.504   3.614   6.597 -2.1813  0.2949  1.4857
 2624TIP3    H2 7830   6.435   3.498   6.530  0.1216 -0.0986 -0.3405
 2625TIP3   OH2 7831   4.916   3.382   0.980  0.1878  0.2022 -0.0657
 2625TIP3    H1 7832   4.828   3.346   0.993  0.2452 -0.2898 -0.9289
 2625TIP3    H2 7833   4.973   3.305   0.981  0.4099  0.3414 -1.1266
 2626TIP3   OH2 7834   6.912   6.925   4.146  0.3824  0.1235  0.3185
 2626TIP3    H1 7835   6.820   6.933   4.174  0.1600  0.6218 -0.5117
 2626TIP3    H2 7836   6.950   7.011   4.165  0.5758  0.0359  0.3212
 2627TIP3   OH2 7837   1.465   4.277   5.572  0.0651  0.2401  0.8878
 2627TIP3    H1 7838   1.472   4.211   5.641 -0.0497  0.4635  1.1131
 2627TIP3    H2 7839   1.432   4.229   5.497 -0.3136  0.1012  1.1408
 2628TIP3   OH2 7840   4.112   3.723   1.364 -0.2870 -0.1113 -0.5227
 2628TIP3    H1 7841   4.065   3.678   1.293  2.3544 -0.4304 -2.1952
 2628TIP3    H2 7842   4.192   3.755   1.323  0.3828  1.5298  1.8912
 2629TIP3   OH2 7843   2.849   0.559   3.800  0.4113  0.4624  0.2211
 2629TIP3    H1 7844   2.940   0.537   3.781  0.2574 -0.6954  0.7747
 2629TIP3    H2 7845   2.802   0.540   3.719  0.0348 -2.8221  1.0926
 2630TIP3   OH2 7846   2.184   6.802   2.155  0.1432  0.8507  0.0302
 2630TIP3    H1 7847   2.262   6.851   2.180  0.4241  0.5263 -0.2127
 2630TIP3    H2 7848   2.187   6.799   2.059 -0.0615  0.6609  0.0293
 2631TIP3   OH2 7849   2.265   0.976   5.729 -0.4393  0.3595 -0.4665
 2631TIP3    H1 7850   2.257   0.894   5.682 -0.3114  0.3200 -0.4192
 2631TIP3    H2 7851   2.349   0.970   5.775 -0.1627  0.7561 -0.9187
 2632TIP3   OH2 7852   0.680   4.662   0.315  0.3907 -0.7560  0.2353
 2632TIP3    H1 7853   0.600   4.684   0.364 -0.0822  2.0784 -1.5404
 2632TIP3    H2 7854   0.660   4.580   0.271 -0.9386 -0.9251  1.1110
 2633TIP3   OH2 7855   4.918   1.810   5.364 -0.1660  0.0819 -0.5304
 2633TIP3    H1 7856   4.867   1.843   5.289  1.3163  1.6375 -0.9400
 2633TIP3    H2 7857   5.004   1.790   5.327  0.2773 -0.1267  0.5784
 2634TIP3   OH2 7858   4.204   2.480   0.297  0.6022  0.1277  0.1762
 2634TIP3    H1 7859   4.219   2.414   0.229  1.3448  0.2770  0.1829
 2634TIP3    H2 7860   4.278   2.469   0.357  0.7685  1.0130  0.1408
 2635TIP3   OH2 7861   6.329   2.918   3.488  0.0201 -0.6449  0.3978
 2635TIP3    H1 7862   6.268   2.861   3.441 -0.0615 -3.2462  3.3152
 2635TIP3    H2 7863   6.408   2.864   3.500  0.9186  0.7763  1.1657
 2636TIP3   OH2 7864   4.739   5.180   3.306  0.0674 -0.3654 -0.8076
 2636TIP3    H1 7865   4.762   5.124   3.232  0.4251  0.5865 -1.4340
 2636TIP3    H2 7866   4.816   5.234   3.321 -0.0632 -0.4261  0.1656
 2637TIP3   OH2 7867   0.708   1.758   2.430 -0.1546  0.1892  0.3476
 2637TIP3    H1 7868   0.709   1.673   2.475 -0.4994 -0.4689 -0.8291
 2637TIP3    H2 7869   0.622   1.760   2.386  0.5201  0.3854 -1.0194
 2638TIP3   OH2 7870   2.148   3.725   3.083 -0.1002 -0.1884 -0.3428
 2638TIP3    H1 7871   2.095   3.706   3.161  0.2391  0.3484  0.0337
 2638TIP3    H2 7872   2.233   3.752   3.118  0.1677 -0.2735 -0.9145
 2639TIP3   OH2 7873   3.883   6.209   1.733  0.3188  0.0152  0.2735
 2639TIP3    H1 7874   3.971   6.242   1.755  0.1197  0.4913  0.3607
 2639TIP3    H2 7875   3.825   6.284   1.748 -0.3365 -0.7718  1.8534
 2640TIP3   OH2 7876   6.381   7.758   4.834  0.1808 -0.4749 -0.3402
 2640TIP3    H1 7877   6.348   7.722   4.916 -0.9338  0.2002 -0.4670
 2640TIP3    H2 7878   6.475   7.769   4.848 -0.1089  0.3650  1.1379
 2641TIP3   OH2 7879   3.963   7.747   5.243 -0.0076  0.1831  0.0917
 2641TIP3    H1 7880   3.946   7.839   5.223  0.3678  0.4169  0.8138
 2641TIP3    H2 7881   3.996   7.711   5.161 -3.3100 -0.1780 -1.2311
 2642TIP3   OH2 7882   1.124   4.480   2.896  0.3027  0.2721  0.2377
 2642TIP3    H1 7883   1.098   4.570   2.914 -0.1337  0.0087  1.0038
 2642TIP3    H2 7884   1.103   4.466   2.804  0.1431  0.8741  0.1798
 2643TIP3   OH2 7885   5.799   1.191   5.795  0.1316  0.1018 -0.1870
 2643TIP3    H1 7886   5.817   1.265   5.737 -0.6182  0.3269 -0.1443
 2643TIP3    H2 7887   5.824   1.114   5.744  1.8359  0.4062  0.1169
 2644TIP3   OH2 7888   2.715   0.307   6.025  0.1825 -0.1266 -0.6649
 2644TIP3    H1 7889   2.651   0.268   5.966  1.3018  0.8153 -2.6125
 2644TIP3    H2 7890   2.670   0.384   6.061 -0.6983 -1.0119  0.2139
 2645TIP3   OH2 7891   5.776   7.752   0.378 -0.8833 -0.7977  0.2784
 2645TIP3    H1 7892   5.687   7.733   0.349 -0.1999 -2.0202 -1.1533
 2645TIP3    H2 7893   5.813   7.666   0.397  0.2167 -0.3658  0.1360
 2646TIP3   OH2 7894   0.844   7.470   5.406 -0.2153  0.7869  0.1364
 2646TIP3    H1 7895   0.802   7.504   5.485 -0.8726  2.4664 -0.8780
 2646TIP3    H2 7896   0.878   7.384   5.432 -0.9657  1.0121  2.0459
 2647TIP3   OH2 7897   1.328   3.047   2.275 -0.3570  0.2160  0.3626
 2647TIP3    H1 7898   1.399   3.105   2.303  1.2486 -1.9382  1.0335
 2647TIP3    H2 7899   1.351   3.021   2.186 -0.5642 -0.1271  0.4061
 2648TIP3   OH2 7900   3.396   0.855   4.730  0.0109 -0.1006 -0.7638
 2648TIP3    H1 7901   3.337   0.848   4.805 -0.1502  0.4565 -0.8376
 2648TIP3    H2 7902   3.382   0.773   4.682  0.5749 -0.7522  0.1389
 2649TIP3   OH2 7903   6.575   1.431   0.240  0.0999 -0.0445 -0.6570
 2649TIP3    H1 7904   6.566   1.407   0.333  2.3496  1.5688  0.0650
 2649TIP3    H2 7905   6.485   1.438   0.208 -0.7269 -2.2842  0.9092
 2650TIP3   OH2 7906   1.369   4.169   3.331 -0.6057 -0.8779  1.0014
 2650TIP3    H1 7907   1.376   4.264   3.323  2.6094 -0.7572  3.2538
 2650TIP3    H2 7908   1.385   4.136   3.243 -1.2874  0.6226  0.2794
 2651TIP3   OH2 7909   5.660   3.742   0.981  0.9962  0.1872 -0.1459
 2651TIP3    H1 7910   5.626   3.784   0.903  1.3572 -0.2326 -0.5368
 2651TIP3    H2 7911   5.720   3.807   1.019 -1.0606  1.4046  1.1993
 2652TIP3   OH2 7912   7.836   1.533   6.719  0.4303 -0.5106 -0.8017
 2652TIP3    H1 7913   7.817   1.439   6.708 -0.3206 -0.4378 -0.2506
 2652TIP3    H2 7914   7.868   1.540   6.809  0.2265 -0.2082 -0.7518
 2653TIP3   OH2 7915   7.543   6.656   0.282 -0.0360  0.1350 -0.6581
 2653TIP3    H1 7916   7.548   6.628   0.373  2.0959 -1.7881 -1.2534
 2653TIP3    H2 7917   7.591   6.739   0.280  0.8859 -0.3589 -0.1530
 2654TIP3   OH2 7918   0.292   2.827   2.127 -0.5134  0.4201 -0.5593
 2654TIP3    H1 7919   0.264   2.808   2.037 -1.4809 -0.0327 -0.1722
 2654TIP3    H2 7920   0.268   2.749   2.177  1.1762  0.1467 -0.1314
 2655TIP3   OH2 7921   2.944   4.485   3.879 -0.1382  0.3268 -0.0710
 2655TIP3    H1 7922   2.978   4.396   3.875  0.9829  0.7151  0.3475
 2655TIP3    H2 7923   2.933   4.511   3.787  0.5432  0.1217 -0.2150
 2656TIP3   OH2 7924   4.459   3.288   6.305  0.0728 -0.0083  0.3153
 2656TIP3    H1 7925   4.425   3.359   6.358 -0.5162 -0.4072  0.4765
 2656TIP3    H2 7926   4.401   3.284   6.229  0.8780  0.5271 -0.3580
 2657TIP3   OH2 7927   0.151   5.015   5.845 -0.5642 -0.1774  0.6545
 2657TIP3    H1 7928   0.247   5.014   5.846 -0.4834  1.9791  1.0872
 2657TIP3    H2 7929   0.127   4.968   5.765  0.8741 -0.2874  0.2615
 2658TIP3   OH2 7930   2.964   2.017   4.567 -0.3417 -0.4081 -0.1181
 2658TIP3    H1 7931   2.924   1.945   4.615  0.5266 -0.9598 -0.2066
 2658TIP3    H2 7932   3.055   1.992   4.557 -0.0484  0.6459 -0.2651
 2659TIP3   OH2 7933   5.529   2.585   4.812  0.4288  0.3745 -0.0194
 2659TIP3    H1 7934   5.564   2.562   4.898  2.6954  1.4922 -0.5742
 2659TIP3    H2 7935   5.453   2.528   4.801  0.3524 -0.1125  2.5142
 2660TIP3   OH2 7936   2.933   5.686   5.530  0.3177 -0.6268 -0.4901
 2660TIP3    H1 7937   2.971   5.645   5.608 -1.6909 -3.2289 -0.7354
 2660TIP3    H2 7938   2.839   5.674   5.540 -0.0472 -0.3140 -2.9386
 2661TIP3   OH2 7939   3.074   4.954   3.121  0.8205  0.1482  0.6112
 2661TIP3    H1 7940   3.048   4.929   3.210 -2.3191 -1.8354 -0.7203
 2661TIP3    H2 7941   3.153   4.903   3.104  0.6524 -0.5326  1.7569
 2662TIP3   OH2 7942   8.225   0.035   5.893  0.1150 -0.2813 -0.1635
 2662TIP3    H1 7943   8.313   0.014   5.925 -0.6108 -2.8740  0.3172
 2662TIP3    H2 7944   8.172  -0.042   5.913 -2.3537  1.2674 -0.2784
 2663TIP3   OH2 7945   4.023   7.562   0.045  0.7273 -0.3440  0.0976
 2663TIP3    H1 7946   4.069   7.512  -0.022 -0.6197 -1.6198  0.0734
 2663TIP3    H2 7947   4.091   7.588   0.107  1.8833  0.2492 -1.3652
 2664TIP3   OH2 7948   7.990   3.036   1.213  0.1468  0.2662 -0.7050
 2664TIP3    H1 7949   8.081   3.045   1.186  0.7454  0.0110  1.1065
 2664TIP3    H2 7950   7.983   3.087   1.294 -0.5959 -1.8124  0.6498
 2665TIP3   OH2 7951   3.828   3.687   2.974  0.0461  0.2219  0.2288
 2665TIP3    H1 7952   3.814   3.593   2.979 -1.1041  0.2828 -1.1585
 2665TIP3    H2 7953   3.779   3.722   3.049  0.9281 -0.2933  1.0670
 2666TIP3   OH2 7954   4.125   3.993   2.563 -0.0129  0.5302 -1.1894
 2666TIP3    H1 7955   4.174   3.914   2.586  0.5929  1.2820  0.2317
 2666TIP3    H2 7956   4.153   4.058   2.628 -1.6468  1.4624 -1.3775
 2667TIP3   OH2 7957   0.052   2.237   1.524 -0.1581  0.3353  0.4531
 2667TIP3    H1 7958   0.032   2.325   1.493 -0.5500  0.1541  0.1661
 2667TIP3    H2 7959   0.104   2.198   1.454  1.2557  0.8126  1.2126
 2668TIP3   OH2 7960   5.564   2.025   4.163  0.3541 -0.3159 -0.4222
 2668TIP3    H1 7961   5.575   2.101   4.106  3.5743 -0.2464  0.0937
 2668TIP3    H2 7962   5.616   2.046   4.241 -1.2097 -1.8020  1.1079
 2669TIP3   OH2 7963   3.303   3.656   5.105  0.0947  0.9147 -0.5224
 2669TIP3    H1 7964   3.386   3.610   5.107  1.1984  2.7958 -0.4528
 2669TIP3    H2 7965   3.289   3.678   5.013 -0.8600 -0.2377 -0.6822
 2670TIP3   OH2 7966   3.327   3.758   4.828  0.1474  0.5767 -0.0828
 2670TIP3    H1 7967   3.233   3.740   4.821  0.1228  0.5775  0.2485
 2670TIP3    H2 7968   3.367   3.706   4.757 -0.2793  1.9596 -1.3832
 2671TIP3   OH2 7969   0.841   7.790   0.561 -0.1220 -0.0247 -0.0401
 2671TIP3    H1 7970   0.853   7.710   0.509  0.4642  0.0126  0.0289
 2671TIP3    H2 7971   0.765   7.772   0.616 -1.8212  0.5595 -2.0843
 2672TIP3   OH2 7972   5.293   3.679   6.294  0.3027 -0.0187  0.1784
 2672TIP3    H1 7973   5.326   3.597   6.332  1.1821  0.0633 -0.3776
 2672TIP3    H2 7974   5.206   3.690   6.332  0.5156 -0.7744  0.9135
 2673TIP3   OH2 7975   2.841   0.459   2.034  0.2534  0.2191 -0.4445
 2673TIP3    H1 7976   2.929   0.495   2.020 -0.1325  0.1719 -4.0880
 2673TIP3    H2 7977   2.847   0.370   1.998 -0.7777 -0.5790  1.2692
 2674TIP3   OH2 7978   0.273   5.531   5.186 -0.6581 -0.3382 -0.7408
 2674TIP3    H1 7979   0.340   5.465   5.203  0.4391  0.7116 -0.9257
 2674TIP3    H2 7980   0.208   5.485   5.132  0.4053 -1.0818 -1.4206
 2675TIP3   OH2 7981   6.330   7.194   1.678 -0.0358 -0.3456  0.2125
 2675TIP3    H1 7982   6.306   7.183   1.770 -0.5616  1.8271  0.3943
 2675TIP3    H2 7983   6.402   7.257   1.680  3.0637 -3.5173 -0.6308
 2676TIP3   OH2 7984   7.120   1.157   3.184 -0.2258 -0.1766  0.0108
 2676TIP3    H1 7985   7.185   1.192   3.245 -0.1043 -1.1622  0.4532
 2676TIP3    H2 7986   7.041   1.208   3.201  0.0722  0.1811  0.3375
 2677TIP3   OH2 7987   5.851   1.900   5.632  0.5096  0.2517 -0.1035
 2677TIP3    H1 7988   5.862   1.821   5.685 -0.0221  0.3486  0.1607
 2677TIP3    H2 7989   5.827   1.868   5.545 -3.1305  0.1160  0.7928
 2678TIP3   OH2 7990   6.619   5.121   4.126  0.2401 -0.1480  0.4424
 2678TIP3    H1 7991   6.533   5.078   4.128 -0.4746  1.1768 -0.3646
 2678TIP3    H2 7992   6.622   5.172   4.206  0.2016 -0.0609  0.3886
 2679TIP3   OH2 7993   3.445   4.540   1.398 -0.3483 -0.2668 -0.4346
 2679TIP3    H1 7994   3.438   4.453   1.439  0.0521 -1.1722 -2.1862
 2679TIP3    H2 7995   3.364   4.584   1.421  0.3302 -0.2563  2.2897
 2680TIP3   OH2 7996   6.855   6.815   3.380 -0.3576 -0.4007 -0.2285
 2680TIP3    H1 7997   6.833   6.842   3.469 -1.2289  0.0691 -0.5715
 2680TIP3    H2 7998   6.940   6.856   3.362  0.9258 -2.3255  1.1607
 2681TIP3   OH2 7999   6.628   6.179   3.469  0.2062  0.8495 -0.0339
 2681TIP3    H1 8000   6.667   6.094   3.489 -0.3433  0.3322 -1.0096
 2681TIP3    H2 8001   6.654   6.196   3.378  0.4477  1.8113  0.2088
 2682TIP3   OH2 8002   3.582   4.173   3.196  0.2537  0.3594  0.5795
 2682TIP3    H1 8003   3.645   4.109   3.162  0.6765  0.2949  1.4698
 2682TIP3    H2 8004   3.575   4.238   3.126 -0.9020 -1.1177 -0.7554
 2683TIP3   OH2 8005   3.168   4.216   3.269 -0.4951  0.2330 -0.4684
 2683TIP3    H1 8006   3.207   4.299   3.242  0.7672  1.0915  3.3731
 2683TIP3    H2 8007   3.078   4.239   3.294 -0.0343  0.6402  0.9559
 2684TIP3   OH2 8008   4.348   5.351   0.261  0.0404  0.7622  0.3006
 2684TIP3    H1 8009   4.289   5.277   0.246 -1.5515  1.9747  0.3442
 2684TIP3    H2 8010   4.379   5.339   0.351 -2.2937  1.5013  1.2717
 2685TIP3   OH2 8011   3.032   1.605   2.833  0.6896  0.1351 -0.6025
 2685TIP3    H1 8012   2.971   1.593   2.905 -1.7226 -0.0105 -2.5647
 2685TIP3    H2 8013   3.101   1.540   2.849 -0.3896 -0.7014  0.8958
 2686TIP3   OH2 8014   5.411   3.292   6.636 -0.0957  0.1736 -0.4127
 2686TIP3    H1 8015   5.322   3.301   6.672 -0.2442 -0.3629 -0.6297
 2686TIP3    H2 8016   5.469   3.306   6.711 -0.4095 -1.2601  0.1356
 2687TIP3   OH2 8017   2.547   5.350   3.791 -0.2168  0.5428  0.7975
 2687TIP3    H1 8018   2.579   5.263   3.766  0.2177  0.6483  0.9722
 2687TIP3    H2 8019   2.623   5.392   3.832 -0.1478  1.3517 -0.1251
 2688TIP3   OH2 8020   0.771   5.700   4.919  0.3319 -0.0714 -0.0931
 2688TIP3    H1 8021   0.744   5.789   4.939 -0.1277 -0.2765  0.2298
 2688TIP3    H2 8022   0.713   5.645   4.972 -1.7671 -0.7011 -2.7950
 2689TIP3   OH2 8023   1.703   1.822   6.348  0.1941 -0.3131  0.0642
 2689TIP3    H1 8024   1.633   1.887   6.359 -0.0653 -0.1394 -2.1583
 2689TIP3    H2 8025   1.657   1.738   6.350  0.3037 -0.3700  1.1647
 2690TIP3   OH2 8026   1.994   2.553   6.019 -0.6402 -0.6640  0.5359
 2690TIP3    H1 8027   2.073   2.508   5.988  0.3778  0.4372  1.4215
 2690TIP3    H2 8028   1.933   2.548   5.946 -0.0498 -2.2299  0.1088
 2691TIP3   OH2 8029   2.176   4.749   2.743  0.6070 -0.3911 -0.0622
 2691TIP3    H1 8030   2.207   4.766   2.832  1.3715  0.1756 -0.4238
 2691TIP3    H2 8031   2.118   4.823   2.723 -0.2359 -0.9527  0.2629
 2692TIP3   OH2 8032   7.846   0.285   5.607  0.0883 -0.5711 -0.1577
 2692TIP3    H1 8033   7.823   0.281   5.514 -2.2857  0.2307  0.3081
 2692TIP3    H2 8034   7.863   0.194   5.631 -2.3226 -1.2715 -0.7647
 2693TIP3   OH2 8035   1.828   1.269   1.992  0.6551  0.1022 -0.0047
 2693TIP3    H1 8036   1.874   1.184   1.987 -0.3790 -0.4711 -0.0386
 2693TIP3    H2 8037   1.859   1.317   1.916  0.6146 -0.5802 -0.4653
 2694TIP3   OH2 8038   3.346   4.754   3.334 -0.2899  0.2088  0.0568
 2694TIP3    H1 8039   3.422   4.807   3.359  2.3983 -2.8279 -0.9585
 2694TIP3    H2 8040   3.315   4.715   3.416  1.0179 -0.6005  0.1893
 2695TIP3   OH2 8041   5.371   7.295   3.344  0.7951  0.0792 -0.3915
 2695TIP3    H1 8042   5.417   7.272   3.425  0.8017  1.4450  0.0137
 2695TIP3    H2 8043   5.317   7.218   3.325  1.0045 -0.3725  0.7585
 2696TIP3   OH2 8044   2.098   1.131   6.402 -0.3615  0.5829 -0.1713
 2696TIP3    H1 8045   2.098   1.160   6.311  0.0212  1.4144  0.0872
 2696TIP3    H2 8046   2.090   1.211   6.453 -0.2083  0.1535  0.5427
 2697TIP3   OH2 8047   7.635   5.410   5.318  0.0190  0.4573 -0.2521
 2697TIP3    H1 8048   7.678   5.325   5.326  1.5756  1.2471  0.0578
 2697TIP3    H2 8049   7.559   5.404   5.376  1.9174  0.3796  2.3762
 2698TIP3   OH2 8050   3.749   1.122   2.641 -0.1808 -0.2545  0.2562
 2698TIP3    H1 8051   3.817   1.068   2.599 -0.7075 -1.4842  0.9496
 2698TIP3    H2 8052   3.733   1.193   2.578  1.8864  0.1961  0.1707
 2699TIP3   OH2 8053   3.330   2.014   5.569 -0.0437  0.3973 -0.1438
 2699TIP3    H1 8054   3.403   2.060   5.610 -0.7671  1.8342 -0.4144
 2699TIP3    H2 8055   3.298   1.954   5.637  0.9521  0.2498  0.1985
 2700TIP3   OH2 8056   8.065   4.409   2.344  0.5978 -0.1769  0.0343
 2700TIP3    H1 8057   8.103   4.333   2.388 -0.4379 -0.2260  0.9016
 2700TIP3    H2 8058   8.066   4.478   2.410 -0.9465 -0.2397  0.1701
 2701TIP3   OH2 8059   6.150   3.760   6.077 -0.3060  0.1678 -0.3242
 2701TIP3    H1 8060   6.164   3.712   6.160 -1.8603 -0.2543 -0.2816
 2701TIP3    H2 8061   6.140   3.851   6.104 -1.1491 -0.0129  0.0050
 2702TIP3   OH2 8062   5.782   3.052   0.430  0.0629  0.2822 -0.3837
 2702TIP3    H1 8063   5.744   3.084   0.348  1.6452  3.0249 -0.1714
 2702TIP3    H2 8064   5.835   2.977   0.403  0.2726  0.9153 -1.8486
 2703TIP3   OH2 8065   2.337   0.752   4.979  0.5514  0.7714 -0.5716
 2703TIP3    H1 8066   2.257   0.760   4.926  0.3049  1.3272 -0.1319
 2703TIP3    H2 8067   2.407   0.743   4.915  0.0924 -0.2909 -0.9610
 2704TIP3   OH2 8068   3.036   1.372   3.918 -0.0589 -0.5108  0.1899
 2704TIP3    H1 8069   3.001   1.444   3.971  0.1833 -0.2052 -0.0572
 2704TIP3    H2 8070   2.980   1.297   3.938 -1.6734  0.2732 -1.1523
 2705TIP3   OH2 8071   5.319   2.871   6.211 -0.4295 -0.1973 -0.0909
 2705TIP3    H1 8072   5.255   2.901   6.147 -1.7637  0.3696  1.4464
 2705TIP3    H2 8073   5.279   2.793   6.250 -0.4341  0.4378  1.2237
 2706TIP3   OH2 8074   4.156   5.690   4.142  0.5238 -0.1391  0.4137
 2706TIP3    H1 8075   4.250   5.706   4.142  0.1001  2.8987 -0.1798
 2706TIP3    H2 8076   4.128   5.715   4.230  0.0669  0.5176  0.0853
 2707TIP3   OH2 8077   2.233   3.076   1.716  0.0171 -0.0030 -0.7186
 2707TIP3    H1 8078   2.212   3.135   1.643 -2.4373  0.7149  0.4439
 2707TIP3    H2 8079   2.322   3.099   1.741  0.9408 -0.2868 -3.4408
 2708TIP3   OH2 8080   0.067   7.002   1.927 -0.1379 -0.5980  0.0767
 2708TIP3    H1 8081   0.038   7.066   1.862 -0.9339  0.5182  1.4620
 2708TIP3    H2 8082   0.162   7.013   1.930 -0.1148 -0.5181 -0.7365
 2709TIP3   OH2 8083   0.760   0.733   6.244 -0.1486 -0.3952  0.1616
 2709TIP3    H1 8084   0.788   0.730   6.153 -0.0949 -1.2299  0.1984
 2709TIP3    H2 8085   0.823   0.790   6.288 -0.0484 -0.1693 -0.2759
 2710TIP3   OH2 8086   4.510   1.056   1.089  0.0105  0.0308 -0.3739
 2710TIP3    H1 8087   4.504   1.151   1.078  1.9316  0.1317 -0.8216
 2710TIP3    H2 8088   4.503   1.042   1.183  2.1933  0.8815 -0.0334
 2711TIP3   OH2 8089   8.077   7.025   2.260  0.0959 -0.0359  0.0299
 2711TIP3    H1 8090   8.036   7.020   2.173  1.4212  1.1130 -0.7146
 2711TIP3    H2 8091   8.128   6.945   2.268  0.1236 -0.0560 -0.3389
 2712TIP3   OH2 8092   7.540   5.334   2.972  0.4407 -0.4413 -0.2167
 2712TIP3    H1 8093   7.585   5.372   2.897  2.1100 -1.1129  0.4134
 2712TIP3    H2 8094   7.468   5.395   2.989  1.3618  0.9213 -0.9723
 2713TIP3   OH2 8095   2.232   3.544   5.652 -0.3894  0.1864 -0.7087
 2713TIP3    H1 8096   2.291   3.470   5.667  2.3759  2.6206  1.6913
 2713TIP3    H2 8097   2.153   3.522   5.701 -0.1837 -1.6724 -1.1173
 2714TIP3   OH2 8098   2.664   6.437   6.774  0.8411 -0.4261 -0.6357
 2714TIP3    H1 8099   2.680   6.512   6.717  1.4152  1.6410  2.0097
 2714TIP3    H2 8100   2.580   6.402   6.745  1.6441 -0.2416 -3.4057
 2715TIP3   OH2 8101   6.299   4.352   1.328 -0.9602 -0.4939 -0.4230
 2715TIP3    H1 8102   6.356   4.391   1.261 -1.1378  1.3605  0.4493
 2715TIP3    H2 8103   6.238   4.297   1.279 -0.3959 -0.0449 -1.6683
 2716TIP3   OH2 8104   7.380   7.078   4.904 -0.5069  0.2587 -0.8787
 2716TIP3    H1 8105   7.351   6.997   4.861  2.1835 -0.9108 -0.7433
 2716TIP3    H2 8106   7.446   7.113   4.845  0.8210  0.4565  0.6567
 2717TIP3   OH2 8107   0.428   5.361   1.534  0.0944  0.3175 -0.0616
 2717TIP3    H1 8108   0.381   5.381   1.615 -0.9003 -0.2073 -0.4993
 2717TIP3    H2 8109   0.360   5.341   1.471  0.9331 -2.1705 -0.2687
 2718TIP3   OH2 8110   2.279   6.684   4.719  0.0357 -0.3961 -0.6893
 2718TIP3    H1 8111   2.248   6.665   4.808 -1.9608  0.2255 -1.2069
 2718TIP3    H2 8112   2.304   6.776   4.722  1.2132 -0.7026 -0.4725
 2719TIP3   OH2 8113   3.037   2.297   0.727 -0.5045 -0.7226  0.0401
 2719TIP3    H1 8114   3.111   2.250   0.766 -0.2214 -0.1370  0.2118
 2719TIP3    H2 8115   3.036   2.382   0.771  0.4317  0.3688 -1.9160
 2720TIP3   OH2 8116   6.494   7.834   6.205 -0.2624 -0.1914  0.0977
 2720TIP3    H1 8117   6.416   7.876   6.240 -0.8894 -0.1569 -1.2893
 2720TIP3    H2 8118   6.499   7.750   6.252 -1.1928 -0.2397  0.1259
 2721TIP3   OH2 8119   3.845   6.888   0.376 -0.4944  0.8371  0.3504
 2721TIP3    H1 8120   3.853   6.797   0.406  1.9074  0.7250 -0.4768
 2721TIP3    H2 8121   3.763   6.889   0.326  0.0823 -1.2215 -0.7499
 2722TIP3   OH2 8122   3.629   4.885   0.089  0.0450 -0.5748 -0.1497
 2722TIP3    H1 8123   3.555   4.829   0.064  0.5027 -1.0851 -0.3905
 2722TIP3    H2 8124   3.588   4.966   0.119 -0.5964 -0.6362 -0.8125
 2723TIP3   OH2 8125   6.467   5.451   4.211 -0.1871  0.3058 -0.0202
 2723TIP3    H1 8126   6.481   5.538   4.173 -2.1408  1.2465  1.2171
 2723TIP3    H2 8127   6.555   5.420   4.233  0.6004  1.7149 -1.0029
 2724TIP3   OH2 8128   7.140   0.020   0.213 -0.3207 -0.9287 -0.2331
 2724TIP3    H1 8129   7.135   0.023   0.308 -1.2279  2.1025 -0.2811
 2724TIP3    H2 8130   7.063  -0.030   0.186  0.7489 -3.1571  0.5654
 2725TIP3   OH2 8131   1.151   6.129   2.708  0.0965 -0.1002  0.2946
 2725TIP3    H1 8132   1.232   6.155   2.663 -0.5925  1.5842 -0.0494
 2725TIP3    H2 8133   1.168   6.147   2.801  0.0066  0.6170  0.1802
 2726TIP3   OH2 8134   2.140   5.777   0.407  0.3362 -0.2618 -0.5021
 2726TIP3    H1 8135   2.109   5.855   0.454  0.6129 -0.4331 -0.0302
 2726TIP3    H2 8136   2.235   5.781   0.414  0.3299 -1.0920  0.2747
 2727TIP3   OH2 8137   2.324   0.726   0.064 -0.4785 -0.0910  0.2107
 2727TIP3    H1 8138   2.413   0.695   0.082 -0.4631  1.3732  3.2375
 2727TIP3    H2 8139   2.335   0.788  -0.008  0.3559 -2.3400 -1.7523
 2728TIP3   OH2 8140   6.216   5.699   0.464  0.2045 -0.2639 -0.6433
 2728TIP3    H1 8141   6.149   5.761   0.491  0.0769 -0.9035  0.6177
 2728TIP3    H2 8142   6.289   5.714   0.525  0.3632 -1.0034 -0.6364
 2729TIP3   OH2 8143   8.209   1.586   4.663 -0.1015  0.4246 -0.1602
 2729TIP3    H1 8144   8.172   1.673   4.672  1.9296  1.3174  0.0476
 2729TIP3    H2 8145   8.286   1.597   4.607 -0.2614 -1.3860 -0.8213
 2730TIP3   OH2 8146   1.066   4.277   4.774 -0.3496 -0.0695  0.1406
 2730TIP3    H1 8147   1.118   4.266   4.854 -0.1150  0.6412  0.0905
 2730TIP3    H2 8148   1.049   4.371   4.769  1.2534  0.1780 -1.6456
 2731TIP3   OH2 8149   1.738   4.056   4.032  0.1123  0.6372 -0.1732
 2731TIP3    H1 8150   1.704   4.047   3.943  0.3529 -0.9772 -0.1270
 2731TIP3    H2 8151   1.819   4.006   4.031 -0.5130 -0.4464  1.2899
 2732TIP3   OH2 8152   6.288   5.651   6.163  0.4420 -0.3156  0.4636
 2732TIP3    H1 8153   6.296   5.695   6.248 -0.6502  0.2858  0.2793
 2732TIP3    H2 8154   6.259   5.562   6.185 -3.2082  0.7682  0.6805
 2733TIP3   OH2 8155   2.883   5.798   4.910 -0.0539  0.1911 -0.3196
 2733TIP3    H1 8156   2.881   5.738   4.984 -1.4099  1.3233  0.6240
 2733TIP3    H2 8157   2.860   5.745   4.835 -1.1701 -0.4967  0.4830
 2734TIP3   OH2 8158   2.227   4.850   6.246 -0.0489 -0.0918 -0.6856
 2734TIP3    H1 8159   2.158   4.787   6.262 -0.3222  0.1480 -0.9045
 2734TIP3    H2 8160   2.195   4.931   6.287  1.3758 -0.6839  1.8082
 2735TIP3   OH2 8161   5.116   1.427   2.846  0.4518 -0.4197  0.1603
 2735TIP3    H1 8162   5.071   1.477   2.778 -0.0407  0.5761  1.1715
 2735TIP3    H2 8163   5.090   1.336   2.832 -2.3151  0.1624  0.9938
 2736TIP3   OH2 8164   2.617   4.570   4.352  0.1926  0.2237 -0.5354
 2736TIP3    H1 8165   2.555   4.522   4.407  0.5944 -1.3002 -1.3804
 2736TIP3    H2 8166   2.564   4.604   4.280  0.3259 -1.1903 -1.3286
 2737TIP3   OH2 8167   6.699   5.350   1.928  0.3950 -0.3761 -0.3552
 2737TIP3    H1 8168   6.722   5.261   1.900 -0.0116 -0.7804  0.5627
 2737TIP3    H2 8169   6.761   5.370   1.998  2.2920  1.1560 -2.3317
 2738TIP3   OH2 8170   7.019   6.136   5.958  0.4742 -0.6762 -0.5559
 2738TIP3    H1 8171   6.956   6.065   5.974 -1.4967  0.5138 -2.6328
 2738TIP3    H2 8172   6.971   6.216   5.979  1.6088  0.2167 -1.2748
 2739TIP3   OH2 8173   2.022   1.705   0.024  0.2696  0.4014 -0.0008
 2739TIP3    H1 8174   1.975   1.787   0.007  1.4498  0.9219 -0.8861
 2739TIP3    H2 8175   2.105   1.733   0.063  0.6666 -0.3746 -0.2633
 2740TIP3   OH2 8176   3.995   0.878   6.124  0.2577  0.4155  0.0840
 2740TIP3    H1 8177   4.042   0.809   6.077 -0.9101 -0.4205  0.0941
 2740TIP3    H2 8178   3.945   0.832   6.191 -0.3346  1.3140  0.2811
 2741TIP3   OH2 8179   4.273   5.623   6.750 -0.1501  0.2584  0.0513
 2741TIP3    H1 8180   4.337   5.631   6.821 -1.7491 -1.0671  1.7195
 2741TIP3    H2 8181   4.267   5.529   6.734 -2.6276  0.2218  0.8729
 2742TIP3   OH2 8182   0.161   2.258   1.763 -0.0296 -0.4805  0.3614
 2742TIP3    H1 8183   0.144   2.249   1.669  4.2434  0.0779 -0.6545
 2742TIP3    H2 8184   0.159   2.168   1.796 -1.4111 -0.6993 -0.2337
 2743TIP3   OH2 8185   7.089   3.301   2.535  0.0491  0.2382 -0.3948
 2743TIP3    H1 8186   7.135   3.304   2.619  1.8496 -2.0520 -1.1856
 2743TIP3    H2 8187   7.046   3.215   2.535 -1.4758  0.9777 -1.0769
 2744TIP3   OH2 8188   3.437   0.601   5.040  0.1566  0.1389 -0.2770
 2744TIP3    H1 8189   3.453   0.508   5.021 -0.7163 -0.4105  1.4008
 2744TIP3    H2 8190   3.343   0.605   5.056  0.3410  1.1238  0.6137
 2745TIP3   OH2 8191   7.315   2.123   4.420  0.6042 -0.1316 -0.3118
 2745TIP3    H1 8192   7.355   2.145   4.336 -0.4572 -1.2885 -1.1650
 2745TIP3    H2 8193   7.252   2.053   4.399  1.6703 -1.8234  1.7335
 2746TIP3   OH2 8194   3.840   2.343   4.868  0.0815 -0.4103  0.1847
 2746TIP3    H1 8195   3.800   2.372   4.787 -0.6321 -1.3795  0.1828
 2746TIP3    H2 8196   3.796   2.394   4.936 -1.5262 -1.7977  0.2271
 2747TIP3   OH2 8197   7.959   6.583   5.386 -0.5125  0.2686 -0.1912
 2747TIP3    H1 8198   7.872   6.549   5.406 -0.4032 -0.1858 -0.4678
 2747TIP3    H2 8199   7.957   6.599   5.291 -0.3389  0.3818 -0.1755
 2748TIP3   OH2 8200   5.312   4.423   4.747 -0.5425  0.1685  0.2053
 2748TIP3    H1 8201   5.302   4.462   4.660 -0.3045 -0.6081 -0.1829
 2748TIP3    H2 8202   5.351   4.493   4.800  0.2734  0.3273 -0.5799
 2749TIP3   OH2 8203   6.254   7.654   5.072 -0.3886  0.1771 -0.3631
 2749TIP3    H1 8204   6.197   7.609   5.010 -1.3011 -1.5552  1.5688
 2749TIP3    H2 8205   6.239   7.608   5.155  2.4858  0.8358  0.6549
 2750TIP3   OH2 8206   4.327   5.626   5.760  0.4385 -0.4433 -0.9198
 2750TIP3    H1 8207   4.296   5.707   5.719  1.2588  0.3419 -0.0342
 2750TIP3    H2 8208   4.377   5.583   5.691  0.6929  0.2155 -1.1567
 2751TIP3   OH2 8209   5.331   4.739   5.575 -0.3107  0.1820  0.0192
 2751TIP3    H1 8210   5.324   4.643   5.572  0.3564  0.1528 -0.5979
 2751TIP3    H2 8211   5.415   4.759   5.535 -0.4478  1.0349  0.1359
 2752TIP3   OH2 8212   5.771   6.073   6.450  0.2088 -0.0226 -0.7492
 2752TIP3    H1 8213   5.823   6.073   6.530  0.5380  0.4197 -0.9591
 2752TIP3    H2 8214   5.727   6.158   6.450 -0.1530 -0.2076 -0.8064
 2753TIP3   OH2 8215   2.784   0.971   3.917  0.3056  0.7058 -0.3408
 2753TIP3    H1 8216   2.848   0.935   3.855  1.3008 -1.1536  1.6100
 2753TIP3    H2 8217   2.704   0.921   3.900  0.2872  0.8702 -0.7475
 2754TIP3   OH2 8218   8.104   3.700   6.457  0.3324  0.0632  0.0765
 2754TIP3    H1 8219   8.166   3.627   6.452 -1.4255 -1.4328 -1.5371
 2754TIP3    H2 8220   8.116   3.746   6.374  0.3388  0.7074  0.4272
 2755TIP3   OH2 8221   2.894   1.555   1.129 -0.3257 -0.1890  0.0218
 2755TIP3    H1 8222   2.824   1.537   1.067  1.8245  1.0807 -3.0339
 2755TIP3    H2 8223   2.877   1.644   1.160 -0.4383 -0.1387 -0.1824
 2756TIP3   OH2 8224   2.244   4.640   6.026 -0.0024 -0.4215  0.3326
 2756TIP3    H1 8225   2.328   4.617   5.985 -0.5941 -1.7207 -0.2137
 2756TIP3    H2 8226   2.228   4.730   5.997  0.6242 -0.5730 -0.5607
 2757TIP3   OH2 8227   2.490   0.986   1.600  0.5091 -0.8785 -0.3489
 2757TIP3    H1 8228   2.545   0.936   1.660  0.3445 -0.7522 -0.0910
 2757TIP3    H2 8229   2.547   1.055   1.565  0.6770 -1.1153 -0.5409
 2758TIP3   OH2 8230   0.958   1.820   2.009 -0.2950  0.2122  0.1446
 2758TIP3    H1 8231   0.867   1.793   2.003 -0.3411 -0.2053  2.0913
 2758TIP3    H2 8232   1.003   1.745   2.048  0.7674  0.6642 -0.1556
 2759TIP3   OH2 8233   4.995   1.437   1.844  0.1656  0.3111  0.9346
 2759TIP3    H1 8234   5.038   1.505   1.896 -0.3180  0.6507  0.8989
 2759TIP3    H2 8235   5.067   1.389   1.802  0.5989 -0.3226  2.3318
 2760TIP3   OH2 8236   6.031   3.712   0.082  0.1610  0.2820  0.2707
 2760TIP3    H1 8237   6.035   3.638   0.143 -0.2605 -0.8196 -0.9868
 2760TIP3    H2 8238   6.121   3.721   0.050 -0.3252 -1.8802 -2.0140
 2761TIP3   OH2 8239   2.353   5.679   6.163  0.0371  0.0718  0.0864
 2761TIP3    H1 8240   2.337   5.741   6.234 -0.2083  0.3740 -0.2303
 2761TIP3    H2 8241   2.440   5.643   6.181  0.0618  0.3006  0.4242
 2762TIP3   OH2 8242   2.437   1.787   2.728  0.3897  0.1770 -0.6093
 2762TIP3    H1 8243   2.366   1.820   2.673 -0.5347  0.4503  0.6838
 2762TIP3    H2 8244   2.510   1.846   2.711 -0.0896  0.6597 -1.0521
 2763TIP3   OH2 8245   3.115   4.094   3.550 -0.2429  0.3950 -0.0625
 2763TIP3    H1 8246   3.187   4.153   3.528  1.0373 -0.3467  1.8394
 2763TIP3    H2 8247   3.153   4.006   3.541 -1.4861 -0.0710 -0.8466
 2764TIP3   OH2 8248   3.541   4.272   2.924  0.1563 -0.6940 -0.2141
 2764TIP3    H1 8249   3.451   4.278   2.958  0.7982 -2.0905  1.9516
 2764TIP3    H2 8250   3.538   4.197   2.863 -0.3790  0.0407 -1.1242
 2765TIP3   OH2 8251   0.528   0.035   1.352 -0.5588 -0.5261 -0.2346
 2765TIP3    H1 8252   0.588   0.108   1.340 -0.1839 -0.8562 -0.3969
 2765TIP3    H2 8253   0.475   0.033   1.273  0.1255 -1.0593 -0.6999
 2766TIP3   OH2 8254   5.111   2.140   0.244 -0.2393 -0.4764 -0.2772
 2766TIP3    H1 8255   5.049   2.212   0.243 -0.6673 -0.8150  0.7464
 2766TIP3    H2 8256   5.190   2.176   0.204 -0.4220  0.5788  0.2734
 2767TIP3   OH2 8257   2.189   5.290   2.704  0.4273 -0.2159 -0.2337
 2767TIP3    H1 8258   2.273   5.310   2.747  0.6818  1.2023 -1.3138
 2767TIP3    H2 8259   2.130   5.268   2.776  1.6121 -0.8691  0.5861
 2768TIP3   OH2 8260   6.883   6.825   3.686  0.4286 -0.0455 -0.0582
 2768TIP3    H1 8261   6.951   6.758   3.673 -0.8411 -1.2936 -0.6709
 2768TIP3    H2 8262   6.873   6.831   3.781  0.5663 -0.7429  0.0084
 2769TIP3   OH2 8263   0.138   7.364   3.969  0.7686  0.1752  0.2611
 2769TIP3    H1 8264   0.174   7.322   4.047  1.0377  1.4480  0.8403
 2769TIP3    H2 8265   0.132   7.457   3.991  0.8024  0.5613 -1.2156
 2770TIP3   OH2 8266   7.058   0.561   5.879  0.5908 -0.2365 -0.1000
 2770TIP3    H1 8267   7.040   0.561   5.785 -0.0947  0.8849  0.0158
 2770TIP3    H2 8268   7.081   0.652   5.900  1.5712 -0.6380  0.6720
 2771TIP3   OH2 8269   3.255   3.090   5.308  0.0425 -0.2722  0.2431
 2771TIP3    H1 8270   3.171   3.119   5.341  0.8778  0.9774  1.3956
 2771TIP3    H2 8271   3.295   3.043   5.381  0.9034  0.3584  0.1961
 2772TIP3   OH2 8272   3.565   3.657   6.595  0.2740  0.2689  0.2074
 2772TIP3    H1 8273   3.527   3.629   6.512  1.2673 -0.0304 -0.1683
 2772TIP3    H2 8274   3.574   3.752   6.586 -1.6704  0.5702  0.8773
 2773TIP3   OH2 8275   1.172   2.654   5.475  0.2221 -0.1604 -0.2320
 2773TIP3    H1 8276   1.161   2.741   5.436 -1.7504  0.0496  0.6731
 2773TIP3    H2 8277   1.085   2.615   5.472  0.5346 -1.1357  1.5887
 2774TIP3   OH2 8278   2.095   0.110   6.332 -0.4969  0.7544 -1.3352
 2774TIP3    H1 8279   2.050   0.194   6.329 -0.8746  0.6893  0.9453
 2774TIP3    H2 8280   2.092   0.084   6.424  2.9135  0.0372 -1.2799
 2775TIP3   OH2 8281   4.150   7.219   3.758  0.6023  0.3287 -0.3145
 2775TIP3    H1 8282   4.147   7.298   3.812  2.5378  0.1143  0.2002
 2775TIP3    H2 8283   4.060   7.188   3.754  0.0097  1.8473  0.5401
 2776TIP3   OH2 8284   2.004   5.443   1.937  0.0174 -0.3232  0.1116
 2776TIP3    H1 8285   2.062   5.373   1.967  0.0981 -0.2104  0.2173
 2776TIP3    H2 8286   1.935   5.447   2.003 -0.2908 -0.6778 -0.1823
 2777TIP3   OH2 8287   0.526   0.925   0.908 -0.4503  0.1952 -0.5463
 2777TIP3    H1 8288   0.551   0.977   0.985 -2.8373  0.6754  0.0125
 2777TIP3    H2 8289   0.599   0.934   0.847  0.2069  2.3510  0.4639
 2778TIP3   OH2 8290   1.205   5.941   1.679 -0.7635  0.4243  0.2529
 2778TIP3    H1 8291   1.182   5.949   1.587 -1.8017  1.1793  0.5594
 2778TIP3    H2 8292   1.181   6.025   1.718 -1.1868 -0.1949  1.3852
 2779TIP3   OH2 8293   5.681   3.920   3.303  0.0256  0.4446 -0.2259
 2779TIP3    H1 8294   5.659   3.981   3.373 -3.6918  0.2291 -0.9928
 2779TIP3    H2 8295   5.701   3.975   3.228  0.2694  0.6938  0.0206
 2780TIP3   OH2 8296   5.224   1.336   0.544  0.2515 -0.5598 -0.3897
 2780TIP3    H1 8297   5.216   1.246   0.577 -1.6113 -0.4036 -0.2869
 2780TIP3    H2 8298   5.143   1.350   0.496 -0.1707  1.5558  0.8317
 2781TIP3   OH2 8299   5.903   7.719   3.344 -0.2423 -0.8400 -0.3220
 2781TIP3    H1 8300   5.932   7.710   3.434  1.5295 -1.0092 -0.8649
 2781TIP3    H2 8301   5.807   7.717   3.348 -0.1759 -2.3432  1.3884
 2782TIP3   OH2 8302   3.293   1.052   2.750 -0.2243  0.1902 -0.4355
 2782TIP3    H1 8303   3.377   1.029   2.709  0.2143  2.9781 -1.3290
 2782TIP3    H2 8304   3.313   1.063   2.843  0.0654 -0.5242 -0.4072
 2783TIP3   OH2 8305   5.342   4.014   0.253  0.1974 -0.1344  0.2081
 2783TIP3    H1 8306   5.371   4.097   0.291  2.3082 -0.3188 -0.8302
 2783TIP3    H2 8307   5.404   3.949   0.287 -0.5190 -1.0263 -0.1551
 2784TIP3   OH2 8308   6.454   0.803   3.210  0.2592 -0.1694 -0.3709
 2784TIP3    H1 8309   6.465   0.710   3.187  0.0635 -0.5271  0.8711
 2784TIP3    H2 8310   6.359   0.814   3.215  0.2694  0.2394 -1.0067
 2785TIP3   OH2 8311   7.609   3.910   3.944 -0.0763  0.1555 -0.0067
 2785TIP3    H1 8312   7.540   3.844   3.952 -0.8136  0.8116 -0.7429
 2785TIP3    H2 8313   7.628   3.913   3.850  1.2298 -0.2633  0.2119
 2786TIP3   OH2 8314   4.834   7.382   0.680  0.3719  0.0929 -0.4168
 2786TIP3    H1 8315   4.786   7.369   0.598  0.6070 -0.2007 -0.5113
 2786TIP3    H2 8316   4.797   7.461   0.717 -1.1515 -0.8466  0.1805
 2787TIP3   OH2 8317   2.292   4.342   2.052 -0.2850 -0.2607  0.1338
 2787TIP3    H1 8318   2.210   4.298   2.078 -0.5179 -0.4882 -0.9347
 2787TIP3    H2 8319   2.349   4.334   2.129 -1.4105  0.2915  1.0657
 2788TIP3   OH2 8320   3.974   5.261   0.197  0.4732  0.9183  0.0933
 2788TIP3    H1 8321   4.005   5.210   0.272 -2.8311  1.2318  1.8533
 2788TIP3    H2 8322   3.968   5.197   0.126 -1.5796 -0.7765  1.6797
 2789TIP3   OH2 8323   2.821   6.289   4.166  0.3969  0.2141  0.2177
 2789TIP3    H1 8324   2.856   6.231   4.234  0.3268  1.5161  1.3949
 2789TIP3    H2 8325   2.744   6.329   4.205  0.6895  1.4370 -0.4010
 2790TIP3   OH2 8326   0.796   1.229   2.698 -0.5254 -0.0438 -0.6136
 2790TIP3    H1 8327   0.880   1.236   2.651 -0.5633 -1.2884 -0.8861
 2790TIP3    H2 8328   0.774   1.137   2.693 -0.1005 -0.4142  2.6626
 2791TIP3   OH2 8329   2.398   2.720   0.475  0.2930  0.2688  0.6481
 2791TIP3    H1 8330   2.457   2.712   0.399  0.1835  0.3538  0.5545
 2791TIP3    H2 8331   2.353   2.803   0.461  0.5400  0.4623  0.9953
 2792TIP3   OH2 8332   0.288   6.706   0.296 -0.5968  0.1990 -0.2029
 2792TIP3    H1 8333   0.242   6.660   0.226 -0.4998 -1.5425  0.8205
 2792TIP3    H2 8334   0.218   6.748   0.346 -0.9765 -1.0056  0.3323
 2793TIP3   OH2 8335   1.821   3.526   3.816  0.2363  0.0660  0.4432
 2793TIP3    H1 8336   1.743   3.474   3.798 -1.6536  3.2036 -1.5003
 2793TIP3    H2 8337   1.884   3.499   3.750 -1.2138  1.0195 -1.4467
 2794TIP3   OH2 8338   3.357   3.280   6.641 -0.0881  0.2316 -0.1041
 2794TIP3    H1 8339   3.261   3.285   6.646  0.0043  2.0600  1.3073
 2794TIP3    H2 8340   3.384   3.371   6.630  1.5484  0.0548  1.8758
 2795TIP3   OH2 8341   1.283   3.449   4.835 -0.0172 -0.1782  0.6846
 2795TIP3    H1 8342   1.353   3.447   4.900  0.9944 -0.3360 -0.3817
 2795TIP3    H2 8343   1.324   3.418   4.754 -1.6823 -1.8283  0.3827
 2796TIP3   OH2 8344   5.777   2.330   6.752 -0.2186  0.1634  0.0514
 2796TIP3    H1 8345   5.775   2.388   6.676  1.3302 -1.0134 -0.9404
 2796TIP3    H2 8346   5.851   2.361   6.804 -0.5152  0.1879  0.4678
 2797TIP3   OH2 8347   7.718   6.463   6.666 -0.0466  0.6379  0.1876
 2797TIP3    H1 8348   7.708   6.368   6.678 -0.3183  0.2177 -2.6791
 2797TIP3    H2 8349   7.631   6.499   6.683  0.0102  0.3731  1.0940
 2798TIP3   OH2 8350   5.434   3.701   3.126 -0.8668 -0.0418  0.1390
 2798TIP3    H1 8351   5.471   3.777   3.082 -1.3324  0.4010  0.5052
 2798TIP3    H2 8352   5.498   3.679   3.195 -1.8400  1.5026  1.6078
 2799TIP3   OH2 8353   6.565   7.217   3.127 -0.2053 -0.1978  0.3268
 2799TIP3    H1 8354   6.518   7.136   3.145 -0.5612  0.1881  1.1823
 2799TIP3    H2 8355   6.545   7.236   3.035 -0.8843 -0.5842  0.3864
 2800TIP3   OH2 8356   0.068   3.295   2.994 -0.2446  0.7429  0.2434
 2800TIP3    H1 8357   0.127   3.287   3.069 -0.2097  1.4777  0.2995
 2800TIP3    H2 8358   0.042   3.387   2.994 -0.1184  0.7814 -0.7468
 2801TIP3   OH2 8359   4.918   3.557   2.920  0.3941  0.3019  0.5473
 2801TIP3    H1 8360   4.891   3.610   2.846 -0.5384 -0.9260 -0.0287
 2801TIP3    H2 8361   5.000   3.596   2.949  0.0437  1.6742 -0.2107
 2802TIP3   OH2 8362   2.319   6.492   6.494  0.0061  0.2307 -0.3049
 2802TIP3    H1 8363   2.241   6.545   6.509  0.4306  0.6268  0.6071
 2802TIP3    H2 8364   2.352   6.473   6.582  0.0442 -1.2783 -0.6297
 2803TIP3   OH2 8365   3.548   5.470   1.732  0.1532 -0.3777 -0.2791
 2803TIP3    H1 8366   3.568   5.541   1.793  1.1091  0.5102 -1.5728
 2803TIP3    H2 8367   3.477   5.504   1.679 -1.4117 -1.5575  0.9589
 2804TIP3   OH2 8368   2.315   0.775   3.609  0.2410 -0.3737  0.3968
 2804TIP3    H1 8369   2.247   0.731   3.558 -1.9508  1.5426  1.4600
 2804TIP3    H2 8370   2.312   0.866   3.579  0.0600  0.4373  2.6736
 2805TIP3   OH2 8371   3.665   2.134   2.030 -0.2096  0.3921 -0.0265
 2805TIP3    H1 8372   3.607   2.188   2.083  0.1468  1.1738 -0.4093
 2805TIP3    H2 8373   3.719   2.086   2.093 -1.7716 -0.9460  0.3507
 2806TIP3   OH2 8374   6.316   4.702   1.035  0.2393 -0.0472  0.6441
 2806TIP3    H1 8375   6.292   4.719   1.126 -0.6960  0.9035  0.2425
 2806TIP3    H2 8376   6.233   4.696   0.989  0.6546 -2.0076  0.0724
 2807TIP3   OH2 8377   4.684   3.303   5.850 -0.1605 -0.1067  0.8785
 2807TIP3    H1 8378   4.769   3.297   5.808  0.7203  0.4858  2.4889
 2807TIP3    H2 8379   4.693   3.252   5.930 -1.8417 -1.3582  0.3309
 2808TIP3   OH2 8380   6.849   3.082   4.324  0.5502  0.2477 -0.2017
 2808TIP3    H1 8381   6.812   3.087   4.236 -2.9436 -1.8452  0.9602
 2808TIP3    H2 8382   6.794   3.140   4.376  2.0335  0.7913  0.8285
 2809TIP3   OH2 8383   7.409   1.727   5.597  0.1150 -0.7253  0.0210
 2809TIP3    H1 8384   7.499   1.725   5.565 -0.2934 -1.8227 -1.1020
 2809TIP3    H2 8385   7.360   1.772   5.528 -0.0430  0.8194  1.0976
 2810TIP3   OH2 8386   2.892   4.007   2.769 -0.2438  0.0750  0.2592
 2810TIP3    H1 8387   2.834   3.931   2.773 -0.4328  0.0234 -2.0011
 2810TIP3    H2 8388   2.940   4.006   2.852  0.5729 -3.1849 -0.1253
 2811TIP3   OH2 8389   5.161   7.142   3.267  0.0379  0.3634  0.0913
 2811TIP3    H1 8390   5.177   7.063   3.320 -0.6071  1.1285  1.4650
 2811TIP3    H2 8391   5.066   7.142   3.252  0.0300  0.9138  0.1461
 2812TIP3   OH2 8392   5.029   3.200   2.219  0.6756  0.1388  0.1486
 2812TIP3    H1 8393   4.935   3.213   2.211  0.8146  0.8641 -0.4090
 2812TIP3    H2 8394   5.067   3.255   2.150  1.6050  1.3675  1.5715
 2813TIP3   OH2 8395   2.699   3.820   1.655  0.2298 -0.3789  0.7937
 2813TIP3    H1 8396   2.673   3.739   1.698  0.3659  0.1197  1.8580
 2813TIP3    H2 8397   2.704   3.884   1.726  1.5435  0.2169  0.2063
 2814TIP3   OH2 8398   5.134   2.078   2.556  0.2473  0.0887  0.0459
 2814TIP3    H1 8399   5.114   2.064   2.648  0.4306 -0.2786  0.0319
 2814TIP3    H2 8400   5.228   2.094   2.554  0.4301 -0.9088 -0.1777
 2815TIP3   OH2 8401   7.648   7.160   1.294  0.3280 -0.0887 -0.3989
 2815TIP3    H1 8402   7.598   7.082   1.267 -0.9473 -0.3502  2.3477
 2815TIP3    H2 8403   7.733   7.125   1.322 -0.0940 -0.4510  0.4460
 2816TIP3   OH2 8404   4.602   5.742   3.661 -0.4839  0.2026  0.4330
 2816TIP3    H1 8405   4.685   5.784   3.684 -0.1151 -0.1038 -0.3300
 2816TIP3    H2 8406   4.537   5.788   3.715  0.2955 -0.1966  1.7699
 2817TIP3   OH2 8407   2.143   1.726   0.889  0.1520 -0.0318 -0.4051
 2817TIP3    H1 8408   2.137   1.636   0.858 -0.2561 -0.9980  2.2688
 2817TIP3    H2 8409   2.237   1.742   0.897  0.2076 -0.5463 -0.0183
 2818TIP3   OH2 8410   6.244   7.741   0.616  0.1250 -0.1230  0.2554
 2818TIP3    H1 8411   6.188   7.780   0.548  1.3819  0.3766 -0.5447
 2818TIP3    H2 8412   6.191   7.744   0.695 -0.8171  0.7339 -0.3710
 2819TIP3   OH2 8413   7.397   6.906   1.001 -0.3801 -0.4419 -0.1332
 2819TIP3    H1 8414   7.457   6.844   0.961  1.0616  1.3684 -0.9481
 2819TIP3    H2 8415   7.311   6.884   0.965  0.0696 -1.9775 -0.3203
 2820TIP3   OH2 8416   7.040   1.972   0.920  0.0668  0.9689  0.4816
 2820TIP3    H1 8417   7.057   1.887   0.880  3.2188  0.3207  2.7954
 2820TIP3    H2 8418   6.954   1.963   0.960  0.2803 -1.1468  0.5743
 2821TIP3   OH2 8419   4.840   6.628   0.359 -0.1571 -0.4185  0.3346
 2821TIP3    H1 8420   4.900   6.562   0.393  1.3736  0.9669  0.4216
 2821TIP3    H2 8421   4.871   6.711   0.396 -0.3906  0.7209 -1.8434
 2822TIP3   OH2 8422   1.813   0.689   0.783 -0.4586  0.3990 -0.2466
 2822TIP3    H1 8423   1.803   0.668   0.876 -0.2250 -0.1143 -0.3332
 2822TIP3    H2 8424   1.811   0.604   0.739  3.3008  0.2050 -0.3474
 2823TIP3   OH2 8425   0.046   5.528   1.559 -0.7128  0.1293  0.0747
 2823TIP3    H1 8426   0.102   5.471   1.507  0.8117 -0.6044  2.3705
 2823TIP3    H2 8427   0.080   5.616   1.543  0.8615 -0.2582  1.0378
 2824TIP3   OH2 8428   5.440   6.564   3.628  0.4016 -0.3902 -0.4624
 2824TIP3    H1 8429   5.453   6.477   3.591 -0.7659 -0.4613 -0.7383
 2824TIP3    H2 8430   5.492   6.564   3.709  0.4322 -1.3220 -0.4771
 2825TIP3   OH2 8431   5.444   7.605   2.163 -0.0182  0.0502 -0.4117
 2825TIP3    H1 8432   5.451   7.690   2.207 -0.7546 -0.2565  0.3117
 2825TIP3    H2 8433   5.357   7.573   2.186  0.7209 -1.4746  0.3646
 2826TIP3   OH2 8434   3.618   5.357   4.428  0.0419 -1.0504 -0.0032
 2826TIP3    H1 8435   3.661   5.355   4.342  0.0115  0.0931 -0.0551
 2826TIP3    H2 8436   3.614   5.265   4.454  1.7624 -1.2793 -0.3775
 2827TIP3   OH2 8437   0.774   6.875   3.494 -0.3690  0.0004  0.4531
 2827TIP3    H1 8438   0.753   6.915   3.410  1.0059 -0.3937 -0.1087
 2827TIP3    H2 8439   0.727   6.792   3.494 -0.1620 -0.1214 -0.0576
 2828TIP3   OH2 8440   6.234   5.930   3.899 -0.2402  0.3083 -0.1201
 2828TIP3    H1 8441   6.277   6.012   3.924 -2.0063  0.9102  1.1483
 2828TIP3    H2 8442   6.152   5.958   3.859 -1.2640 -0.8150  1.1176
 2829TIP3   OH2 8443   3.927   3.069   1.454 -0.5227  0.6663  0.5555
 2829TIP3    H1 8444   3.979   3.034   1.526 -0.1512  0.8633  0.3881
 2829TIP3    H2 8445   3.929   3.001   1.387  1.1500  1.4241 -0.2289
 2830TIP3   OH2 8446   7.629   1.684   2.952  0.2745  0.6982  0.1632
 2830TIP3    H1 8447   7.572   1.760   2.945 -0.1063  0.3912 -0.1409
 2830TIP3    H2 8448   7.581   1.623   3.008 -0.5878 -0.3294 -1.5995
 2831TIP3   OH2 8449   2.197   2.120   5.739 -0.0730  0.1115 -0.3893
 2831TIP3    H1 8450   2.241   2.195   5.698 -0.9251  1.4270  0.9721
 2831TIP3    H2 8451   2.118   2.107   5.687 -0.6831  1.1693  0.2406
 2832TIP3   OH2 8452   0.784   5.387   1.929 -0.3916  0.2468  0.1040
 2832TIP3    H1 8453   0.848   5.453   1.952  1.8672 -1.0475 -1.9498
 2832TIP3    H2 8454   0.725   5.430   1.867  0.7385  0.5212 -0.8094
 2833TIP3   OH2 8455   1.183   4.068   0.468  0.2283 -0.2460 -0.2182
 2833TIP3    H1 8456   1.243   4.142   0.458  0.5777 -0.2897  1.3199
 2833TIP3    H2 8457   1.239   3.994   0.491 -0.3248 -0.5072  0.2977
 2834TIP3   OH2 8458   2.594   0.464   5.056 -0.1274  0.4490 -0.5296
 2834TIP3    H1 8459   2.624   0.504   5.138  0.1927  0.1712 -0.5092
 2834TIP3    H2 8460   2.672   0.423   5.020 -0.0652  1.3232 -1.4245
 2835TIP3   OH2 8461   7.914   3.310   3.820 -0.3561  0.1553 -0.0605
 2835TIP3    H1 8462   7.842   3.298   3.882  0.6672 -0.3475  1.0720
 2835TIP3    H2 8463   7.989   3.330   3.875  0.4456  0.3864 -1.2065
 2836TIP3   OH2 8464   6.325   4.488   0.721 -0.2061  0.3392  0.1940
 2836TIP3    H1 8465   6.372   4.564   0.755 -1.4378  1.0765  0.2927
 2836TIP3    H2 8466   6.303   4.511   0.631  0.4135 -0.3908 -0.1610
 2837TIP3   OH2 8467   0.034   3.009   6.193 -0.1093  0.3027 -0.3661
 2837TIP3    H1 8468   0.039   2.964   6.109  0.8812  0.9586 -0.6658
 2837TIP3    H2 8469   0.111   2.978   6.242  0.2663  1.2319 -0.3599
 2838TIP3   OH2 8470   4.281   4.211   0.537 -0.1501 -0.9417  0.2167
 2838TIP3    H1 8471   4.207   4.258   0.497 -0.2045  0.6718  2.0487
 2838TIP3    H2 8472   4.294   4.255   0.622  2.8871 -1.2044 -0.0071
 2839TIP3   OH2 8473   3.977   0.349   2.215 -0.1960  0.5512  0.4842
 2839TIP3    H1 8474   3.893   0.320   2.249 -0.8622  0.0765 -1.4140
 2839TIP3    H2 8475   3.970   0.336   2.120  2.4525 -0.6632  0.3733
 2840TIP3   OH2 8476   2.336   1.932   5.429  0.5360  0.4516  0.1730
 2840TIP3    H1 8477   2.371   1.901   5.345  0.7090  1.4559 -0.1351
 2840TIP3    H2 8478   2.344   1.856   5.487 -1.7316 -1.0502 -1.2885
 2841TIP3   OH2 8479   5.974   0.413   4.136  0.3565  0.2094  0.1197
 2841TIP3    H1 8480   6.026   0.395   4.058  0.9098 -0.3805  0.6067
 2841TIP3    H2 8481   5.948   0.504   4.127  0.5568  0.1975 -0.6641
 2842TIP3   OH2 8482   0.150   2.400   0.425 -0.0817 -0.2700 -0.2223
 2842TIP3    H1 8483   0.186   2.312   0.413  0.1271 -0.3530  0.8761
 2842TIP3    H2 8484   0.216   2.458   0.388  0.4557 -0.5102  0.3428
 2843TIP3   OH2 8485   0.398   4.567   6.541 -0.2498 -0.3217 -0.0707
 2843TIP3    H1 8486   0.371   4.610   6.459  1.1760  0.4487 -0.1776
 2843TIP3    H2 8487   0.493   4.583   6.545 -0.1511 -1.1657  1.2667
 2844TIP3   OH2 8488   6.573   6.553   3.352 -0.4457 -0.0864  0.0885
 2844TIP3    H1 8489   6.512   6.613   3.395  1.5828  1.2289  1.3072
 2844TIP3    H2 8490   6.552   6.561   3.259  0.1873  3.1981  0.0775
 2845TIP3   OH2 8491   4.254   1.536   1.614  0.3181 -0.7255 -0.2513
 2845TIP3    H1 8492   4.241   1.611   1.555  0.5310 -0.5550 -0.0811
 2845TIP3    H2 8493   4.271   1.575   1.699  0.7028 -0.9623 -0.2164
 2846TIP3   OH2 8494   6.355   2.881   6.388  0.4826 -0.6233  0.2192
 2846TIP3    H1 8495   6.347   2.932   6.307  1.1094 -0.4615  0.2466
 2846TIP3    H2 8496   6.275   2.900   6.437  1.3286  1.5679  0.8964
 2847TIP3   OH2 8497   3.260   2.122   0.705 -0.9348 -0.1588  0.1572
 2847TIP3    H1 8498   3.314   2.061   0.655 -2.0157 -0.3348 -0.8356
 2847TIP3    H2 8499   3.285   2.108   0.796  0.6252 -0.2856 -0.2725
 2848TIP3   OH2 8500   3.128   5.097   0.671  0.3355  0.9811  0.4468
 2848TIP3    H1 8501   3.199   5.105   0.608  0.3580 -2.1846 -0.1326
 2848TIP3    H2 8502   3.065   5.164   0.646  2.2783  2.6408 -0.1618
 2849TIP3   OH2 8503   0.766   7.786   4.699  0.7525  0.1407 -0.0320
 2849TIP3    H1 8504   0.708   7.774   4.774  0.2297  0.5604 -0.3604
 2849TIP3    H2 8505   0.838   7.725   4.714  0.9661  0.6317  1.1227
 2850TIP3   OH2 8506   3.755   1.420   6.424  0.4002  0.1476 -0.1683
 2850TIP3    H1 8507   3.679   1.392   6.476  0.1335 -2.3093 -1.6824
 2850TIP3    H2 8508   3.830   1.410   6.482 -0.1717  0.2242  0.5975
 2851TIP3   OH2 8509   5.360   3.074   2.359  0.1713  0.2818 -0.0953
 2851TIP3    H1 8510   5.324   3.154   2.397  2.8182  0.9469  1.3071
 2851TIP3    H2 8511   5.325   3.004   2.414 -0.5423  0.6797 -0.0327
 2852TIP3   OH2 8512   0.316   6.961   3.327  0.4807  0.4203  0.1060
 2852TIP3    H1 8513   0.268   7.044   3.322 -1.1554 -0.3896  1.4404
 2852TIP3    H2 8514   0.251   6.898   3.359  1.9445 -1.1693  0.0541
 2853TIP3   OH2 8515   2.305   3.225   0.512  0.3020  0.0891 -0.3426
 2853TIP3    H1 8516   2.367   3.153   0.524  1.3418  1.0950  0.4947
 2853TIP3    H2 8517   2.310   3.246   0.418  1.6048  0.4775 -0.2009
 2854TIP3   OH2 8518   7.663   1.685   0.151 -0.2224 -0.0914 -0.5052
 2854TIP3    H1 8519   7.635   1.744   0.081 -0.8560 -1.5885 -1.5587
 2854TIP3    H2 8520   7.632   1.727   0.232 -0.8495  0.9022 -1.2386
 2855TIP3   OH2 8521   8.272   6.090   4.606  0.6730  0.3324 -0.5511
 2855TIP3    H1 8522   8.212   6.141   4.551 -0.1759  0.2614  0.2978
 2855TIP3    H2 8523   8.271   6.135   4.690  2.1335  0.5676 -0.6379
 2856TIP3   OH2 8524   7.107   5.665   4.531 -0.0084 -0.1273 -1.4221
 2856TIP3    H1 8525   7.202   5.678   4.530  0.2845 -1.3881  1.3445
 2856TIP3    H2 8526   7.095   5.570   4.537 -1.4055  0.0671 -0.6679
 2857TIP3   OH2 8527   3.345   2.282   4.088 -0.0652  0.5357  0.5596
 2857TIP3    H1 8528   3.280   2.212   4.083  0.5125  0.0953 -1.7343
 2857TIP3    H2 8529   3.374   2.281   4.180 -2.3599 -0.0598  1.3528
 2858TIP3   OH2 8530   8.116   3.917   1.840  0.0609  0.0350  0.5825
 2858TIP3    H1 8531   8.164   3.894   1.760  0.2919  0.7371  0.5188
 2858TIP3    H2 8532   8.068   3.837   1.863  1.4520 -0.7716  0.7883
 2859TIP3   OH2 8533   6.791   7.609   3.399  0.4002 -0.2562 -0.4158
 2859TIP3    H1 8534   6.802   7.702   3.383  0.9672 -0.2666 -0.1293
 2859TIP3    H2 8535   6.846   7.566   3.333  0.0594 -0.3905 -0.6139
 2860TIP3   OH2 8536   1.664   0.833   3.721  0.0207 -0.3591  0.0905
 2860TIP3    H1 8537   1.704   0.890   3.655 -0.2611  0.4042  0.5684
 2860TIP3    H2 8538   1.571   0.831   3.698  0.1895 -1.6011 -0.6232
 2861TIP3   OH2 8539   4.622   4.153   5.815  0.2662  0.0443  0.0511
 2861TIP3    H1 8540   4.637   4.195   5.900 -1.5347  0.5622  0.1505
 2861TIP3    H2 8541   4.710   4.132   5.783  1.0146  0.4848  1.7099
 2862TIP3   OH2 8542   1.751   0.319   5.001 -0.2405  0.4239  1.1051
 2862TIP3    H1 8543   1.743   0.226   5.023  1.1967 -0.0133 -0.0651
 2862TIP3    H2 8544   1.665   0.343   4.968 -0.0396 -1.1179 -0.6975
 2863TIP3   OH2 8545   5.732   1.881   2.482 -0.0370  0.1415  0.4880
 2863TIP3    H1 8546   5.783   1.800   2.473 -1.2303 -0.8034  1.7015
 2863TIP3    H2 8547   5.649   1.861   2.440  0.2888  1.4121 -0.8310
 2864TIP3   OH2 8548   2.300   7.048   2.922  0.0445  0.5846  0.1835
 2864TIP3    H1 8549   2.209   7.046   2.951  0.1895  0.8614  0.6693
 2864TIP3    H2 8550   2.298   7.015   2.832 -0.7242  1.8342 -0.2812
 2865TIP3   OH2 8551   4.128   4.136   2.323  0.0078 -0.3233  0.2907
 2865TIP3    H1 8552   4.038   4.155   2.296  0.1988  0.6317  0.2765
 2865TIP3    H2 8553   4.119   4.094   2.409 -0.4257  0.5285  0.6742
 2866TIP3   OH2 8554   0.421   3.727   0.746  0.0357  0.0251 -1.1731
 2866TIP3    H1 8555   0.339   3.701   0.789  0.7940 -0.5734 -0.0567
 2866TIP3    H2 8556   0.432   3.663   0.676  0.1544 -0.6307 -0.5687
 2867TIP3   OH2 8557   1.210   3.761   1.114 -0.1126  0.0045 -0.2482
 2867TIP3    H1 8558   1.138   3.709   1.078  0.6855  0.0255 -2.0035
 2867TIP3    H2 8559   1.173   3.805   1.190 -2.5937  1.6586 -2.2514
 2868TIP3   OH2 8560   6.660   2.699   0.188  0.2145  0.3087  0.2637
 2868TIP3    H1 8561   6.732   2.721   0.129  0.4590  0.3354  0.5700
 2868TIP3    H2 8562   6.700   2.642   0.254 -0.0244  0.4011  0.4872
 2869TIP3   OH2 8563   8.123   6.081   3.516 -0.7082  0.3047 -0.1075
 2869TIP3    H1 8564   8.108   6.021   3.588 -1.3848  0.5830 -0.0066
 2869TIP3    H2 8565   8.048   6.140   3.517 -1.2424 -0.2947 -1.6600
 2870TIP3   OH2 8566   3.616   4.244   3.699 -0.2116 -0.3114  0.2767
 2870TIP3    H1 8567   3.553   4.253   3.771  0.3619 -0.9048  0.8604
 2870TIP3    H2 8568   3.562   4.251   3.619 -0.8193  0.5787  0.7500
 2871TIP3   OH2 8569   1.456   6.827   0.605 -0.7991 -0.2320 -0.0065
 2871TIP3    H1 8570   1.526   6.805   0.543 -2.0884 -3.6944 -0.4815
 2871TIP3    H2 8571   1.380   6.845   0.550 -1.0513  0.4245  0.5432
 2872TIP3   OH2 8572   0.024   5.940   5.949 -0.3046 -0.0492  0.5118
 2872TIP3    H1 8573  -0.028   6.017   5.927  0.7252  1.0867  1.8125
 2872TIP3    H2 8574   0.109   5.956   5.907 -0.0573 -0.4223  0.8629
 2873TIP3   OH2 8575   5.332   2.747   2.222 -0.2051 -0.6937  0.0191
 2873TIP3    H1 8576   5.244   2.772   2.248 -1.3703 -3.4261 -0.9439
 2873TIP3    H2 8577   5.343   2.658   2.255  2.2170 -0.4375  0.1018
 2874TIP3   OH2 8578   4.018   2.728   4.203  0.2013  0.4043 -0.3726
 2874TIP3    H1 8579   4.087   2.664   4.219  1.7663  1.8350 -1.1965
 2874TIP3    H2 8580   4.063   2.807   4.175 -1.7313  1.6331 -0.2335
 2875TIP3   OH2 8581   1.876   3.187   0.501 -0.3049  0.0089  0.5465
 2875TIP3    H1 8582   1.821   3.263   0.484 -0.1386 -0.0088 -0.0641
 2875TIP3    H2 8583   1.964   3.214   0.473 -0.7816 -1.5112 -2.9329
 2876TIP3   OH2 8584   2.487   5.034   6.741  0.2629  0.7470  0.1996
 2876TIP3    H1 8585   2.416   5.070   6.793  0.8400  1.6009  0.4042
 2876TIP3    H2 8586   2.494   5.092   6.665 -0.2844 -0.2334 -0.6422
 2877TIP3   OH2 8587   1.484   7.770   0.975  0.2540  0.0470  0.7073
 2877TIP3    H1 8588   1.508   7.844   0.919  3.5068 -2.6283 -1.8557
 2877TIP3    H2 8589   1.400   7.740   0.940  1.0451 -0.0596 -1.2216
 2878TIP3   OH2 8590   5.589   3.170   2.596  0.1306  0.0859 -0.0460
 2878TIP3    H1 8591   5.638   3.140   2.520  0.6324 -0.4851  0.4984
 2878TIP3    H2 8592   5.519   3.225   2.559  1.8301  1.8630 -0.7838
 2879TIP3   OH2 8593   7.475   2.946   4.648 -0.1990 -0.4105 -0.1656
 2879TIP3    H1 8594   7.496   2.867   4.598 -0.7092 -1.2761  0.9453
 2879TIP3    H2 8595   7.407   2.989   4.596 -1.3475 -1.7412  0.1640
 2880TIP3   OH2 8596   8.071   6.499   6.459  0.5081  0.1041  0.3383
 2880TIP3    H1 8597   8.080   6.490   6.364  1.0107 -0.6486  0.4458
 2880TIP3    H2 8598   8.074   6.593   6.474 -0.6603  0.3012 -0.4889
 2881TIP3   OH2 8599   2.010   6.223   2.152  0.5557  0.6097 -0.4302
 2881TIP3    H1 8600   1.926   6.186   2.179  1.5747  0.4342  2.8534
 2881TIP3    H2 8601   2.055   6.150   2.109 -0.3597  0.3025 -0.9103
 2882TIP3   OH2 8602   3.322   2.085   0.965 -0.7514 -0.0664  0.3038
 2882TIP3    H1 8603   3.415   2.062   0.953 -1.0805 -0.0352 -3.7076
 2882TIP3    H2 8604   3.285   2.010   1.012  0.9881 -0.8063  0.5886
 2883TIP3   OH2 8605   4.881   7.208   3.364  0.2540  0.1246 -0.7165
 2883TIP3    H1 8606   4.938   7.144   3.407 -2.0956 -0.8343  1.1976
 2883TIP3    H2 8607   4.829   7.244   3.435 -0.0174  2.6221 -2.0787
 2884TIP3   OH2 8608   4.920   0.513   5.005 -0.0317  0.1660 -0.1151
 2884TIP3    H1 8609   4.989   0.471   5.056  0.0846 -0.5194 -0.8154
 2884TIP3    H2 8610   4.868   0.561   5.070  0.6201  0.0317  0.5237
 2885TIP3   OH2 8611   5.531   6.112   2.499 -0.0396  0.0011  0.1160
 2885TIP3    H1 8612   5.564   6.033   2.541  0.3019 -0.4436 -0.9728
 2885TIP3    H2 8613   5.436   6.105   2.509 -0.0144 -0.5560  0.0014
 2886TIP3   OH2 8614   7.088   1.530   3.028  0.1561 -0.5616 -0.1480
 2886TIP3    H1 8615   7.003   1.549   2.987  1.1453 -0.3962 -2.2747
 2886TIP3    H2 8616   7.148   1.593   2.988  1.2176 -0.3939  1.6311
 2887TIP3   OH2 8617   2.803   7.512   4.243 -0.3476 -0.3682  0.3990
 2887TIP3    H1 8618   2.834   7.601   4.222 -1.6476  0.1663  0.6490
 2887TIP3    H2 8619   2.860   7.483   4.314 -1.0566  1.0057  1.5831
 2888TIP3   OH2 8620   6.767   7.337   5.837 -0.0573 -0.2630 -0.2192
 2888TIP3    H1 8621   6.768   7.242   5.844  0.3613 -0.2889 -0.5742
 2888TIP3    H2 8622   6.833   7.357   5.770 -0.0323  0.2843 -0.0385
 2889TIP3   OH2 8623   2.665   3.571   1.762 -0.1746 -0.0846  0.0396
 2889TIP3    H1 8624   2.721   3.551   1.837  0.6411 -0.2165 -0.5857
 2889TIP3    H2 8625   2.702   3.518   1.691 -1.8220 -1.1029 -0.1165
 2890TIP3   OH2 8626   4.377   6.686   5.620  0.0703  0.0475  0.0025
 2890TIP3    H1 8627   4.382   6.665   5.527  0.7447 -0.8134  0.2170
 2890TIP3    H2 8628   4.399   6.779   5.625 -2.6639  0.8292 -0.9465
 2891TIP3   OH2 8629   2.625   2.540   5.752  0.0530 -0.2793 -0.0418
 2891TIP3    H1 8630   2.549   2.482   5.741 -0.9122  1.0735 -0.7167
 2891TIP3    H2 8631   2.611   2.582   5.836  0.7780 -1.0211  0.4664
 2892TIP3   OH2 8632   2.820   1.196   2.090 -0.1566 -0.0967 -0.0676
 2892TIP3    H1 8633   2.847   1.208   1.999  0.7337 -0.1864  0.1778
 2892TIP3    H2 8634   2.885   1.244   2.142 -0.2447 -0.6282  0.5570
 2893TIP3   OH2 8635   7.141   0.200   3.040  0.5419 -0.3064  0.3114
 2893TIP3    H1 8636   7.114   0.283   3.001  0.5596 -0.1005  0.7301
 2893TIP3    H2 8637   7.197   0.160   2.973  0.6917  0.1085  0.1832
 2894TIP3   OH2 8638   8.149   3.332   1.721  0.4948 -0.5418  0.0633
 2894TIP3    H1 8639   8.078   3.312   1.782  0.0483 -0.3233 -0.3842
 2894TIP3    H2 8640   8.120   3.295   1.637  0.4431  0.4190 -0.3626
 2895TIP3   OH2 8641   1.837   5.031   2.501 -0.2979  0.5073 -0.1995
 2895TIP3    H1 8642   1.813   5.076   2.582 -0.0367  0.1058  0.1027
 2895TIP3    H2 8643   1.829   4.938   2.521  0.8481  0.3743 -0.2884
 2896TIP3   OH2 8644   1.176   0.650   6.206 -0.3529 -0.3761 -0.1113
 2896TIP3    H1 8645   1.262   0.615   6.226 -0.2432 -0.8105 -1.2411
 2896TIP3    H2 8646   1.141   0.679   6.290  0.4553 -1.1863  0.5220
 2897TIP3   OH2 8647   5.032   6.405   2.748  0.5518 -0.0759 -0.3263
 2897TIP3    H1 8648   5.098   6.450   2.695  1.1100 -0.8403 -0.2987
 2897TIP3    H2 8649   5.076   6.325   2.778 -0.4493 -0.7069 -0.4875
 2898TIP3   OH2 8650   5.307   4.151   6.308 -0.3879 -0.4426 -0.1849
 2898TIP3    H1 8651   5.352   4.066   6.304  0.5443 -0.0360  1.0840
 2898TIP3    H2 8652   5.225   4.132   6.354  0.5643 -0.4100  1.6363
 2899TIP3   OH2 8653   1.534   4.663   4.051  0.6414 -0.1431 -0.0636
 2899TIP3    H1 8654   1.616   4.707   4.030 -1.2735  2.7422 -2.3523
 2899TIP3    H2 8655   1.519   4.604   3.977  0.5713 -0.5696  0.2859
 2900TIP3   OH2 8656   2.760   5.046   5.043 -0.1300 -0.3375  0.0574
 2900TIP3    H1 8657   2.679   5.051   4.992  0.4685 -0.2069 -0.9159
 2900TIP3    H2 8658   2.829   5.053   4.977  0.6831 -1.9939  0.6885
 2901TIP3   OH2 8659   5.390   2.031   5.744 -0.2529 -0.8035  0.9464
 2901TIP3    H1 8660   5.364   2.096   5.810  0.0971 -1.2185  1.4972
 2901TIP3    H2 8661   5.485   2.038   5.740 -0.3055 -0.4336  0.1149
 2902TIP3   OH2 8662   3.286   5.826   3.255 -0.0744 -0.0731 -0.2371
 2902TIP3    H1 8663   3.199   5.795   3.282 -0.6861  2.4524  1.0487
 2902TIP3    H2 8664   3.278   5.841   3.161 -0.7066 -0.8451 -0.3125
 2903TIP3   OH2 8665   1.220   6.829   1.893 -0.1999 -0.2927 -0.3426
 2903TIP3    H1 8666   1.138   6.861   1.930  0.0087  0.9210 -0.9031
 2903TIP3    H2 8667   1.224   6.867   1.805  1.6555  0.8718  0.1994
 2904TIP3   OH2 8668   3.676   0.390   0.753 -0.6062 -0.0045  0.3971
 2904TIP3    H1 8669   3.755   0.359   0.799 -1.3010 -1.6517  0.5388
 2904TIP3    H2 8670   3.643   0.461   0.808 -1.0341 -1.4700  2.1635
 2905TIP3   OH2 8671   3.642   4.711   5.606  0.8382  0.2345  0.5339
 2905TIP3    H1 8672   3.733   4.741   5.616  0.7259  0.6706  0.2856
 2905TIP3    H2 8673   3.617   4.741   5.519 -0.4658  2.6499  1.6426
 2906TIP3   OH2 8674   5.935   3.361   0.015  1.0897  0.1819  0.4199
 2906TIP3    H1 8675   5.947   3.383   0.107  1.4472 -0.5342  0.5521
 2906TIP3    H2 8676   5.840   3.361   0.002  1.0406  0.2552  0.7929
 2907TIP3   OH2 8677   3.777   7.261   2.831  0.3929 -0.2190  0.1444
 2907TIP3    H1 8678   3.728   7.336   2.863  1.0870 -0.3908  1.7024
 2907TIP3    H2 8679   3.867   7.293   2.821  0.0971  0.0416 -2.4984
 2908TIP3   OH2 8680   6.675   4.858   5.356 -0.2124  0.5447  0.4489
 2908TIP3    H1 8681   6.668   4.832   5.448  1.8904 -3.9024 -0.3777
 2908TIP3    H2 8682   6.605   4.810   5.312 -0.9164  2.2874 -0.4489
 2909TIP3   OH2 8683   1.892   4.701   5.146  0.1737 -0.1919  0.2749
 2909TIP3    H1 8684   1.841   4.768   5.101 -0.8043 -0.1372  1.4284
 2909TIP3    H2 8685   1.884   4.623   5.091 -4.5385 -1.4310  2.2369
 2910TIP3   OH2 8686   2.078   5.148   4.643  0.1167 -0.8752 -0.1363
 2910TIP3    H1 8687   2.138   5.153   4.717 -0.5695 -1.1590  0.4566
 2910TIP3    H2 8688   1.993   5.127   4.683 -0.0489 -2.1246 -1.0959
 2911TIP3   OH2 8689   2.565   5.649   1.200  0.4773 -0.5630  0.0642
 2911TIP3    H1 8690   2.494   5.662   1.263  0.4167 -1.8044  0.2770
 2911TIP3    H2 8691   2.645   5.655   1.252  0.4434 -1.2099  0.1888
 2912TIP3   OH2 8692   6.588   1.356   5.452  0.2638 -0.1633  0.3089
 2912TIP3    H1 8693   6.595   1.325   5.362 -0.1834  1.0634 -0.1734
 2912TIP3    H2 8694   6.512   1.414   5.451  0.3457 -0.0209  1.4457
 2913TIP3   OH2 8695   8.201   2.221   4.755  0.2889  0.0411 -0.2989
 2913TIP3    H1 8696   8.274   2.218   4.694 -0.0254  0.1545 -0.6832
 2913TIP3    H2 8697   8.123   2.229   4.700 -0.0909 -1.0519  0.0586
 2914TIP3   OH2 8698   0.638   2.548   0.664 -0.2231  0.0394  0.0954
 2914TIP3    H1 8699   0.605   2.458   0.674  0.3739 -0.4985 -2.1316
 2914TIP3    H2 8700   0.701   2.542   0.592  0.1326  2.1942  0.1739
 2915TIP3   OH2 8701   5.515   7.801   3.051 -0.1628  0.3330 -0.1408
 2915TIP3    H1 8702   5.468   7.815   3.133 -1.0424 -1.2702 -0.3348
 2915TIP3    H2 8703   5.502   7.708   3.031  1.0283  0.4216 -1.4867
 2916TIP3   OH2 8704   4.693   3.227   3.348 -0.2342 -0.2402 -0.2267
 2916TIP3    H1 8705   4.773   3.187   3.314 -0.2957 -0.5622  0.0021
 2916TIP3    H2 8706   4.674   3.299   3.287  0.2258 -0.1659 -0.2825
 2917TIP3   OH2 8707   5.472   6.359   2.732 -0.1400  0.1285  0.4237
 2917TIP3    H1 8708   5.463   6.452   2.713  0.0938  0.2486  0.8794
 2917TIP3    H2 8709   5.540   6.328   2.671 -1.0511 -0.0098 -0.5469
 2918TIP3   OH2 8710   3.512   5.490   6.526  0.0913 -0.1456  0.1003
 2918TIP3    H1 8711   3.475   5.483   6.438 -0.3306 -2.0345  0.3899
 2918TIP3    H2 8712   3.604   5.468   6.514  0.1799  0.2478  0.0428
 2919TIP3   OH2 8713   7.620   4.966   3.631  0.7850 -0.0671  0.0032
 2919TIP3    H1 8714   7.611   5.062   3.632 -0.6177 -0.1724  0.9471
 2919TIP3    H2 8715   7.711   4.950   3.654  1.0412  1.0443 -0.1913
 2920TIP3   OH2 8716   2.413   5.014   6.111 -0.2540 -0.8123  0.3596
 2920TIP3    H1 8717   2.485   4.986   6.168 -0.4223  0.2708  1.1239
 2920TIP3    H2 8718   2.341   4.955   6.132 -0.2806 -0.4937  1.2034
 2921TIP3   OH2 8719   0.669   2.801   2.694 -0.0338  0.3054 -0.2336
 2921TIP3    H1 8720   0.632   2.722   2.654  1.0093  0.0043 -0.6486
 2921TIP3    H2 8721   0.739   2.769   2.750 -1.4566  0.7172  1.9176
 2922TIP3   OH2 8722   0.181   2.865   6.661  0.3688 -0.4692 -1.0329
 2922TIP3    H1 8723   0.195   2.773   6.681  0.0544 -0.4142 -0.5428
 2922TIP3    H2 8724   0.261   2.909   6.689  1.0863 -0.7624 -2.5205
 2923TIP3   OH2 8725   4.851   1.204   3.363  0.0665  0.1339  0.3833
 2923TIP3    H1 8726   4.944   1.188   3.377 -0.4143 -1.2729  2.5231
 2923TIP3    H2 8727   4.833   1.168   3.277  1.3799 -0.1638  0.2118
 2924TIP3   OH2 8728   5.319   2.462   0.067 -0.3206  0.3591  0.1277
 2924TIP3    H1 8729   5.308   2.425  -0.020  1.6545  2.3086 -1.0350
 2924TIP3    H2 8730   5.284   2.551   0.060  0.2058  0.6642  1.2180
 2925TIP3   OH2 8731   1.167   0.710   2.743 -0.2356  0.1783  0.2301
 2925TIP3    H1 8732   1.173   0.798   2.706  0.7422 -0.3832 -1.0166
 2925TIP3    H2 8733   1.162   0.652   2.667  1.7636 -1.0137  0.9217
 2926TIP3   OH2 8734   4.927   4.199   5.182  0.5529  0.2952 -0.1769
 2926TIP3    H1 8735   4.852   4.176   5.127 -1.4058  1.0896  1.9991
 2926TIP3    H2 8736   4.935   4.294   5.174 -0.3229  0.5431  1.5010
 2927TIP3   OH2 8737   3.728   2.439   0.131  0.0555 -0.4439  0.0640
 2927TIP3    H1 8738   3.797   2.453   0.196  0.3508 -1.0462 -0.1111
 2927TIP3    H2 8739   3.649   2.424   0.182 -0.2201  1.4718  0.2679
 2928TIP3   OH2 8740   3.059   1.790   0.404  0.8981  0.0101  0.7273
 2928TIP3    H1 8741   3.020   1.723   0.349 -0.4849  0.7464  0.7682
 2928TIP3    H2 8742   3.153   1.771   0.403  0.7672 -0.6855 -0.9259
 2929TIP3   OH2 8743   6.926   6.414   0.172 -0.1780  0.0723  0.0487
 2929TIP3    H1 8744   7.004   6.454   0.210 -0.9888  1.9610 -0.1464
 2929TIP3    H2 8745   6.859   6.424   0.240  0.1178 -3.1676  0.9578
 2930TIP3   OH2 8746   1.303   6.841   4.257 -0.2356 -0.2154 -0.0656
 2930TIP3    H1 8747   1.355   6.921   4.248 -1.7724  1.1248  1.9278
 2930TIP3    H2 8748   1.333   6.784   4.186  1.3246  1.8948 -1.2088
 2931TIP3   OH2 8749   1.725   1.924   5.496  0.2200  0.0527  0.4168
 2931TIP3    H1 8750   1.662   1.937   5.425  0.3047  0.8820  0.4836
 2931TIP3    H2 8751   1.805   1.896   5.452  0.0730 -0.0917  0.2424
 2932TIP3   OH2 8752   4.320   7.609   5.213  0.1647  0.1048  0.0945
 2932TIP3    H1 8753   4.253   7.632   5.149 -1.9801 -0.3239  2.0386
 2932TIP3    H2 8754   4.324   7.685   5.272  1.4140  0.1164  0.0324
 2933TIP3   OH2 8755   2.363   5.503   3.067 -0.4490 -0.1977 -0.8806
 2933TIP3    H1 8756   2.309   5.502   3.146  1.1524  0.4727  0.2755
 2933TIP3    H2 8757   2.452   5.515   3.099  0.2630  0.0050 -2.8056
 2934TIP3   OH2 8758   2.441   7.577   6.544  0.4825 -0.1147 -0.1435
 2934TIP3    H1 8759   2.359   7.530   6.532  0.4369 -0.8677  2.4735
 2934TIP3    H2 8760   2.509   7.512   6.525  0.4381 -0.4019  0.6605
 2935TIP3   OH2 8761   7.469   4.925   2.014  0.1564 -0.4338 -0.2665
 2935TIP3    H1 8762   7.481   4.898   2.105 -2.6807  0.1754  0.3764
 2935TIP3    H2 8763   7.505   5.014   2.009  2.3406 -1.2586 -0.3904
 2936TIP3   OH2 8764   4.530   4.379   3.354 -0.2024 -0.2424  0.3154
 2936TIP3    H1 8765   4.504   4.469   3.334  0.7129  0.6436  2.6346
 2936TIP3    H2 8766   4.612   4.389   3.403  0.5694 -2.4366 -0.4234
 2937TIP3   OH2 8767   8.184   4.364   1.943 -0.1047  0.3716 -0.0743
 2937TIP3    H1 8768   8.244   4.415   1.998 -0.9117  0.9586  0.2790
 2937TIP3    H2 8769   8.229   4.280   1.930  1.2607  1.1836 -0.7207
 2938TIP3   OH2 8770   7.492   3.706   6.086 -0.7239  0.0979 -0.1600
 2938TIP3    H1 8771   7.482   3.771   6.155 -2.7103 -1.6412  1.3159
 2938TIP3    H2 8772   7.584   3.678   6.092 -0.2268  1.7046  0.0962
 2939TIP3   OH2 8773   7.817   6.035   3.360 -0.8018  0.3162 -0.4584
 2939TIP3    H1 8774   7.862   6.100   3.415  0.4470  0.7913 -1.9648
 2939TIP3    H2 8775   7.746   6.084   3.318 -1.1576  0.1893 -0.0078
 2940TIP3   OH2 8776   3.462   1.121   1.401 -0.0707 -0.2435  0.1365
 2940TIP3    H1 8777   3.392   1.171   1.360 -1.0731 -1.4269  0.3723
 2940TIP3    H2 8778   3.466   1.154   1.491  0.7746  0.9351 -0.3072
 2941TIP3   OH2 8779   0.618   3.160   1.382 -0.3847  0.2442  0.6251
 2941TIP3    H1 8780   0.651   3.132   1.468 -2.6191 -0.5317  1.2844
 2941TIP3    H2 8781   0.549   3.097   1.361 -0.3033  0.7783 -1.5009
 2942TIP3   OH2 8782   2.034   3.415   1.004 -0.0210 -0.1421 -0.0876
 2942TIP3    H1 8783   1.962   3.438   1.064 -0.1210  0.7969 -0.5473
 2942TIP3    H2 8784   2.022   3.321   0.987 -0.1397 -0.3663  1.1506
 2943TIP3   OH2 8785   2.793   5.945   6.512  0.6957 -0.3200  0.1947
 2943TIP3    H1 8786   2.824   5.862   6.548 -1.1330 -0.7545  0.8792
 2943TIP3    H2 8787   2.780   6.001   6.589  0.8509  0.2200 -0.1682
 2944TIP3   OH2 8788   4.252   4.457   3.728  0.5888 -0.4549  0.2935
 2944TIP3    H1 8789   4.280   4.418   3.811 -0.5294 -1.3868  0.2674
 2944TIP3    H2 8790   4.300   4.409   3.661  2.8403  1.4682  0.4061
 2945TIP3   OH2 8791   4.192   6.857   5.018  0.0969  0.5957 -0.2738
 2945TIP3    H1 8792   4.109   6.811   5.034 -0.5288  1.1133 -1.7803
 2945TIP3    H2 8793   4.252   6.788   4.989 -0.5812  0.5623 -1.6693
 2946TIP3   OH2 8794   2.447   3.141   5.927 -0.1492 -0.5117 -0.3100
 2946TIP3    H1 8795   2.465   3.094   6.009  1.5589 -0.1621 -0.4423
 2946TIP3    H2 8796   2.447   3.233   5.952  0.5611 -0.3919 -0.7085
 2947TIP3   OH2 8797   2.334   3.700   2.885 -0.2891 -0.2215  0.1739
 2947TIP3    H1 8798   2.258   3.720   2.940  1.8365  0.4478  3.0970
 2947TIP3    H2 8799   2.403   3.758   2.917  1.4308 -0.5408 -2.5909
 2948TIP3   OH2 8800   5.724   0.522   4.536 -0.3330 -0.1523 -0.4215
 2948TIP3    H1 8801   5.656   0.505   4.471 -0.6652  0.8149 -0.3553
 2948TIP3    H2 8802   5.788   0.452   4.524  0.1457  0.5654 -2.5030
 2949TIP3   OH2 8803   2.849   3.802   4.662 -0.0374 -0.2589 -0.1374
 2949TIP3    H1 8804   2.859   3.707   4.651 -0.8072 -0.2329 -1.2310
 2949TIP3    H2 8805   2.777   3.810   4.725  2.6830 -0.3813  3.2980
 2950TIP3   OH2 8806   1.737   2.199   3.704 -0.1680 -0.0008 -0.1475
 2950TIP3    H1 8807   1.820   2.218   3.748 -0.4421  1.5989 -0.2512
 2950TIP3    H2 8808   1.762   2.159   3.621  0.4062 -1.6293  0.7711
 2951TIP3   OH2 8809   3.596   4.777   5.354  0.1752 -0.2236 -0.4685
 2951TIP3    H1 8810   3.507   4.775   5.319 -0.1601  0.8948  0.2484
 2951TIP3    H2 8811   3.647   4.721   5.296 -1.3716 -2.4208  0.1906
 2952TIP3   OH2 8812   2.527   1.687   1.112  0.2291  0.0089  0.2950
 2952TIP3    H1 8813   2.470   1.748   1.065 -1.2114 -0.9287  0.7828
 2952TIP3    H2 8814   2.554   1.736   1.190  1.2758  0.9584 -0.6145
 2953TIP3   OH2 8815   2.160   4.879   5.935 -0.5940 -0.2989  0.5297
 2953TIP3    H1 8816   2.165   4.973   5.949 -0.8821 -0.3160  0.7730
 2953TIP3    H2 8817   2.066   4.859   5.942 -0.8531 -0.2383 -1.9261
 2954TIP3   OH2 8818   2.081   0.195   4.874  0.0257 -0.1747 -0.1207
 2954TIP3    H1 8819   2.159   0.217   4.923 -0.5237  0.9849  0.2725
 2954TIP3    H2 8820   2.113   0.144   4.799  1.2509  1.0517 -0.4661
 2955TIP3   OH2 8821   1.194   1.898   3.650 -0.1158 -0.1048  0.6957
 2955TIP3    H1 8822   1.148   1.978   3.622  0.0307  0.7736  2.7719
 2955TIP3    H2 8823   1.162   1.830   3.591 -1.0305  1.2858 -0.4843
 2956TIP3   OH2 8824   2.870   2.932   2.352  0.2191 -0.1545 -0.7420
 2956TIP3    H1 8825   2.876   3.027   2.352 -0.2613 -0.1258 -0.7867
 2956TIP3    H2 8826   2.777   2.913   2.365  0.1477 -0.6088 -1.7955
 2957TIP3   OH2 8827   2.710   2.234   6.584 -0.5904  0.0744  0.8553
 2957TIP3    H1 8828   2.664   2.151   6.576 -0.1380 -0.2253  1.3074
 2957TIP3    H2 8829   2.800   2.210   6.605 -0.0000  0.6298 -0.9210
 2958TIP3   OH2 8830   3.541   4.838   1.524 -0.6431 -0.3998 -0.2709
 2958TIP3    H1 8831   3.607   4.788   1.476  0.1540 -0.1192  0.5001
 2958TIP3    H2 8832   3.491   4.883   1.456 -1.1798 -1.9873 -0.9594
 2959TIP3   OH2 8833   8.052   5.876   6.146  0.0222  0.2583  0.1979
 2959TIP3    H1 8834   8.105   5.890   6.224 -1.3052  1.5857  0.9182
 2959TIP3    H2 8835   7.974   5.832   6.179  0.2966 -0.9546 -0.7182
 2960TIP3   OH2 8836   2.510   7.165   2.074  0.1333  0.9820  0.1656
 2960TIP3    H1 8837   2.533   7.256   2.096 -0.1300  0.7121  1.7049
 2960TIP3    H2 8838   2.567   7.143   2.001  1.1361  1.9761  0.6126
 2961TIP3   OH2 8839   3.428   1.510   3.735 -0.2195  0.4368 -0.0612
 2961TIP3    H1 8840   3.461   1.508   3.645  0.3092  0.3381  0.1329
 2961TIP3    H2 8841   3.343   1.554   3.728 -0.2278  0.3427 -0.6220
 2962TIP3   OH2 8842   2.099   0.640   5.356  0.5129  0.1558  0.0817
 2962TIP3    H1 8843   2.145   0.650   5.273 -0.0041 -0.3430 -0.2682
 2962TIP3    H2 8844   2.015   0.684   5.342 -0.3563 -1.5670 -0.3104
 2963TIP3   OH2 8845   3.621   1.361   0.419  0.4636  0.4193  0.2195
 2963TIP3    H1 8846   3.582   1.359   0.506  1.3374  2.2914  0.7247
 2963TIP3    H2 8847   3.563   1.308   0.365  1.0625 -2.6563  2.3323
 2964TIP3   OH2 8848   1.744   3.821   6.109  0.5786 -0.0375 -0.0886
 2964TIP3    H1 8849   1.741   3.906   6.152  0.4919  0.4681 -1.0685
 2964TIP3    H2 8850   1.765   3.759   6.180 -1.4471  0.4936  1.0649
 2965TIP3   OH2 8851   4.611   0.323   2.878  0.1452 -0.1521 -0.8067
 2965TIP3    H1 8852   4.631   0.319   2.971 -0.9916 -1.1789 -0.5951
 2965TIP3    H2 8853   4.697   0.321   2.835  0.7795  1.9940  0.2241
 2966TIP3   OH2 8854   5.806   0.279   6.589  0.4845  0.0839 -0.3237
 2966TIP3    H1 8855   5.894   0.301   6.618 -0.2474  0.9242  1.3800
 2966TIP3    H2 8856   5.767   0.362   6.562  0.5184 -0.4217 -2.0810
 2967TIP3   OH2 8857   4.955   6.686   2.841  0.6844 -0.0527  0.2141
 2967TIP3    H1 8858   4.969   6.744   2.766 -0.8792  0.4102  0.2548
 2967TIP3    H2 8859   4.995   6.603   2.815  2.6467  0.8931  0.0102
 2968TIP3   OH2 8860   2.704   3.529   4.165 -0.8496  0.4501  0.5515
 2968TIP3    H1 8861   2.617   3.527   4.205 -1.3562  2.3831 -0.3566
 2968TIP3    H2 8862   2.761   3.561   4.235 -0.6919 -1.4468  1.3568
 2969TIP3   OH2 8863   0.427   5.303   4.168  0.7855  0.4393  0.2894
 2969TIP3    H1 8864   0.428   5.211   4.194 -0.0147  0.5053  0.5934
 2969TIP3    H2 8865   0.334   5.322   4.152  0.9957  1.0570 -0.2555
 2970TIP3   OH2 8866   0.701   2.888   4.656 -0.6261 -0.0274 -0.3048
 2970TIP3    H1 8867   0.760   2.833   4.604  0.8132  1.7846 -0.6850
 2970TIP3    H2 8868   0.626   2.903   4.599  0.7013  1.5159 -1.7406
 2971TIP3   OH2 8869   3.694   6.705   0.995 -0.3882 -0.0649  0.1703
 2971TIP3    H1 8870   3.786   6.682   0.984 -0.6814 -0.5252 -1.8492
 2971TIP3    H2 8871   3.648   6.621   0.997 -0.7707  0.1601  1.1969
 2972TIP3   OH2 8872   6.573   2.632   2.839  0.3939  0.2597 -0.2072
 2972TIP3    H1 8873   6.592   2.538   2.850 -0.3403 -0.0317 -1.2265
 2972TIP3    H2 8874   6.657   2.671   2.817  0.4036 -0.5075 -1.6918
 2973TIP3   OH2 8875   4.047   7.782   6.437  0.2027 -0.4596  0.6218
 2973TIP3    H1 8876   4.059   7.846   6.367  2.2789 -2.1442 -0.6921
 2973TIP3    H2 8877   3.975   7.817   6.490 -0.8188  1.3604 -1.7913
 2974TIP3   OH2 8878   3.941   6.011   4.779  0.1656  0.2759 -0.3176
 2974TIP3    H1 8879   3.996   6.067   4.833 -1.0477  2.4583 -1.2104
 2974TIP3    H2 8880   3.922   5.935   4.834 -0.5641  2.1251  2.1523
 2975TIP3   OH2 8881   7.685   1.292   4.478 -0.3574  0.1464  0.6886
 2975TIP3    H1 8882   7.728   1.221   4.430  1.4287 -0.4604  2.9969
 2975TIP3    H2 8883   7.592   1.281   4.459  0.1571 -0.8849 -1.4669
 2976TIP3   OH2 8884   4.543   1.911   3.729  0.5453  0.1932  0.0875
 2976TIP3    H1 8885   4.546   1.816   3.740  0.5221  0.3402  1.5514
 2976TIP3    H2 8886   4.613   1.930   3.666 -1.3157 -1.0403 -2.5207
 2977TIP3   OH2 8887   1.824   4.015   3.242  0.3828 -0.1316 -0.2414
 2977TIP3    H1 8888   1.748   3.994   3.187 -1.1523 -0.5993  1.9288
 2977TIP3    H2 8889   1.881   4.066   3.185 -1.6691  0.4591 -1.9153
 2978TIP3   OH2 8890   7.390   0.318   2.236 -0.1553  0.0603  0.0575
 2978TIP3    H1 8891   7.392   0.281   2.325  1.2783  0.7484  0.3335
 2978TIP3    H2 8892   7.354   0.248   2.182 -1.7310 -0.1265  1.2773
 2979TIP3   OH2 8893   3.873   3.654   4.140 -0.7259  0.8146  0.2437
 2979TIP3    H1 8894   3.914   3.692   4.063  0.6946 -0.4711  0.3281
 2979TIP3    H2 8895   3.828   3.576   4.107 -3.4366  2.2960  0.1044
 2980TIP3   OH2 8896   2.206   4.880   3.814 -0.4542 -0.4405 -0.3661
 2980TIP3    H1 8897   2.184   4.838   3.731 -1.4491  0.7241 -0.7200
 2980TIP3    H2 8898   2.299   4.900   3.807 -0.8445  1.0460 -1.8793
 2981TIP3   OH2 8899   4.227   1.173   4.746 -0.4274  0.0383 -0.4564
 2981TIP3    H1 8900   4.194   1.254   4.783 -1.9147 -0.5648 -0.4212
 2981TIP3    H2 8901   4.201   1.176   4.654 -0.5773 -0.4537 -0.4311
 2982TIP3   OH2 8902   6.050   3.460   6.062 -0.1618 -0.3501  0.3123
 2982TIP3    H1 8903   6.037   3.549   6.029 -1.2169 -0.1688  1.1476
 2982TIP3    H2 8904   5.999   3.457   6.143 -0.3867 -1.8105  0.1453
 2983TIP3   OH2 8905   7.807   2.148   0.447  0.5002  0.2547 -0.6378
 2983TIP3    H1 8906   7.767   2.176   0.529 -0.8441  0.2993 -1.2871
 2983TIP3    H2 8907   7.901   2.149   0.465  0.2511  0.6832  0.7615
 2984TIP3   OH2 8908   7.426   1.685   2.750 -0.2604 -0.3387 -0.0378
 2984TIP3    H1 8909   7.461   1.601   2.779  1.2966 -0.6441 -2.5662
 2984TIP3    H2 8910   7.375   1.664   2.671  1.6958  1.2207 -1.8289
 2985TIP3   OH2 8911   7.014   0.080   5.115  0.0303  0.2322  0.1006
 2985TIP3    H1 8912   6.961   0.024   5.172  0.4130  0.8581  1.1046
 2985TIP3    H2 8913   6.965   0.163   5.112  0.5648  0.5633  0.4209
 2986TIP3   OH2 8914   7.345   3.230   6.107  0.0883  0.3435  0.0540
 2986TIP3    H1 8915   7.290   3.235   6.185  1.2857 -1.8480  1.1602
 2986TIP3    H2 8916   7.409   3.300   6.118  0.9429 -0.6278  1.6965
 2987TIP3   OH2 8917   8.252   4.218   0.964 -0.0608  0.0791 -0.2577
 2987TIP3    H1 8918   8.294   4.137   0.994  0.7649  0.5214 -0.2019
 2987TIP3    H2 8919   8.306   4.288   1.001  0.4345  0.6520 -1.9567
 2988TIP3   OH2 8920   1.552   0.762   2.036 -0.1920 -0.0455 -0.4161
 2988TIP3    H1 8921   1.578   0.756   2.128 -4.0393  1.2138  0.9457
 2988TIP3    H2 8922   1.549   0.671   2.006  0.5956 -0.5272  0.8786
 2989TIP3   OH2 8923   7.083   6.983   1.795 -0.6588 -0.7320  0.3161
 2989TIP3    H1 8924   7.008   7.040   1.810  0.4988  0.7108  0.8251
 2989TIP3    H2 8925   7.087   6.973   1.700  0.0712  1.4319  0.0644
 2990TIP3   OH2 8926   4.637   3.610   3.831 -0.3393 -0.0403 -0.1010
 2990TIP3    H1 8927   4.689   3.678   3.875 -2.1245  0.9899  0.5485
 2990TIP3    H2 8928   4.562   3.657   3.796 -0.1954 -1.2651 -2.1948
 2991TIP3   OH2 8929   7.913   5.725   0.264 -0.3343 -0.2858 -0.8225
 2991TIP3    H1 8930   7.895   5.648   0.210  0.7832 -0.7204 -0.6120
 2991TIP3    H2 8931   7.893   5.800   0.207  1.3002 -0.7298 -2.0625
 2992TIP3   OH2 8932   1.388   1.306   6.144  0.1301  0.0041 -0.4493
 2992TIP3    H1 8933   1.317   1.250   6.112  0.7496 -1.5940  0.8351
 2992TIP3    H2 8934   1.431   1.338   6.064 -0.0768 -1.5897 -1.2375
 2993TIP3   OH2 8935   5.085   0.126   4.017 -0.3855  0.2202  0.2213
 2993TIP3    H1 8936   5.078   0.175   3.935 -2.3467 -1.9944 -1.0810
 2993TIP3    H2 8937   5.106   0.037   3.990 -1.8232 -0.7377  2.0290
 2994TIP3   OH2 8938   1.626   2.120   4.041  0.5313  0.8026 -0.2459
 2994TIP3    H1 8939   1.618   2.215   4.033  0.5626  0.9691  1.4144
 2994TIP3    H2 8940   1.540   2.086   4.016  1.0013  1.1050 -2.4923
 2995TIP3   OH2 8941   5.172   4.818   3.778 -0.5135  0.3865 -0.0201
 2995TIP3    H1 8942   5.136   4.747   3.725 -1.2633  0.6370  0.1496
 2995TIP3    H2 8943   5.248   4.849   3.728 -1.2324  0.6511 -0.9705
 2996TIP3   OH2 8944   7.608   4.733   6.293  0.5055  0.5499  0.6377
 2996TIP3    H1 8945   7.625   4.821   6.259  0.2494  1.0444  1.7411
 2996TIP3    H2 8946   7.672   4.722   6.363 -0.7167  0.6652  1.8295
 2997TIP3   OH2 8947   1.237   3.709   5.186  0.0599 -0.1193  0.0481
 2997TIP3    H1 8948   1.330   3.715   5.208 -0.3513  0.6522  1.7895
 2997TIP3    H2 8949   1.199   3.655   5.256 -0.9723  0.5246  0.0176
 2998TIP3   OH2 8950   0.085   3.991   0.476  0.4184 -0.0747 -0.0375
 2998TIP3    H1 8951   0.036   3.922   0.520 -0.6762  0.7797  0.1327
 2998TIP3    H2 8952   0.155   3.946   0.431  0.0799 -1.2324  0.5595
 2999TIP3   OH2 8953   0.001   2.348   5.799  0.6174  0.2266 -0.0498
 2999TIP3    H1 8954   0.057   2.418   5.831  0.6498 -0.1131  0.6413
 2999TIP3    H2 8955   0.058   2.271   5.793  0.2545 -0.1001  0.5807
 3000TIP3   OH2 8956   4.059   5.190   5.442  0.2196 -0.0361  0.6720
 3000TIP3    H1 8957   4.095   5.122   5.499 -0.2033  2.3365  4.0808
 3000TIP3    H2 8958   4.075   5.272   5.489 -1.2390  2.0635 -2.1510
 3001TIP3   OH2 8959   1.356   0.364   6.254 -0.0659  0.3139 -0.5046
 3001TIP3    H1 8960   1.426   0.349   6.317  0.3646 -0.0632 -1.0606
 3001TIP3    H2 8961   1.303   0.284   6.258 -0.1235  0.3508 -0.5205
 3002TIP3   OH2 8962   6.406   0.779   4.381 -0.1075  0.2068  0.3108
 3002TIP3    H1 8963   6.469   0.749   4.447 -0.3798 -0.4536  0.2857
 3002TIP3    H2 8964   6.442   0.746   4.298 -1.0277 -1.1444  0.4123
 3003TIP3   OH2 8965   2.250   2.215   4.661 -0.1652 -0.2188 -0.1059
 3003TIP3    H1 8966   2.197   2.144   4.624  0.3280 -0.6328 -0.0271
 3003TIP3    H2 8967   2.333   2.210   4.614  0.8064 -1.3057  1.6312
 3004TIP3   OH2 8968   6.935   7.235   4.220 -0.0094 -0.0060  0.2462
 3004TIP3    H1 8969   6.970   7.260   4.135 -0.6818  0.5619  0.1247
 3004TIP3    H2 8970   6.976   7.295   4.282 -0.3585  0.3066  0.1753
 3005TIP3   OH2 8971   1.228   1.942   3.269  0.0913  0.3394 -0.3160
 3005TIP3    H1 8972   1.304   1.927   3.213 -0.8148  0.3067 -1.5603
 3005TIP3    H2 8973   1.263   1.935   3.358  1.6208  0.7147 -0.8488
 3006TIP3   OH2 8974   1.666   2.996   5.323 -0.2077  0.1722  0.0889
 3006TIP3    H1 8975   1.627   2.909   5.331 -1.4733  0.7251  0.3562
 3006TIP3    H2 8976   1.660   3.017   5.230 -1.1883  0.4971  0.2034
 3007TIP3   OH2 8977   5.223   2.075   6.394 -0.1195 -0.1270 -0.3590
 3007TIP3    H1 8978   5.236   2.038   6.307  0.0230  1.4962 -1.0708
 3007TIP3    H2 8979   5.128   2.086   6.402  0.0030  2.4184 -1.5555
 3008TIP3   OH2 8980   6.629   7.267   4.330 -0.0500  0.0588 -0.0393
 3008TIP3    H1 8981   6.611   7.351   4.288 -1.4473  0.2173  0.8347
 3008TIP3    H2 8982   6.698   7.228   4.275 -1.8911  0.1614 -2.6413
 3009TIP3   OH2 8983   4.536   7.548   3.367 -0.5692  0.4461 -0.3887
 3009TIP3    H1 8984   4.466   7.594   3.319 -0.8960  0.8866  0.4869
 3009TIP3    H2 8985   4.544   7.464   3.322  0.7810  1.7174 -2.7213
 3010TIP3   OH2 8986   6.777   2.707   4.592 -0.1919  0.8229  0.7395
 3010TIP3    H1 8987   6.816   2.636   4.643  0.3535  0.4293 -0.1959
 3010TIP3    H2 8988   6.689   2.718   4.629  0.2346  0.6536  1.8485
 3011TIP3   OH2 8989   2.297   5.350   2.297 -0.6025  0.2081 -0.9778
 3011TIP3    H1 8990   2.230   5.349   2.365  0.7174  0.4053  0.3774
 3011TIP3    H2 8991   2.314   5.442   2.280 -1.2273  0.1664 -1.9194
 3012TIP3   OH2 8992   2.003   7.306   0.328  0.2441  0.6099 -0.3698
 3012TIP3    H1 8993   1.922   7.271   0.363  1.4027 -0.2925  1.5946
 3012TIP3    H2 8994   2.010   7.268   0.240  0.5657 -2.8895  0.9979
 3013TIP3   OH2 8995   6.797   1.939   3.305  0.0179 -0.1899 -0.0072
 3013TIP3    H1 8996   6.714   1.986   3.317  0.7304  0.9466  0.6550
 3013TIP3    H2 8997   6.847   1.959   3.384  0.7975 -1.1470 -0.2439
 3014TIP3   OH2 8998   3.368   6.792   2.193  0.4087  0.3080  0.5656
 3014TIP3    H1 8999   3.339   6.856   2.129  3.4198  0.3040 -0.9897
 3014TIP3    H2 9000   3.432   6.839   2.247  1.4357 -0.8985  0.4673
 3015TIP3   OH2 9001   0.789   1.521   1.431 -0.2904  0.3021  0.1912
 3015TIP3    H1 9002   0.796   1.617   1.432  0.5554  0.3148 -1.7234
 3015TIP3    H2 9003   0.799   1.495   1.522  5.1862  1.7898  0.3817
 3016TIP3   OH2 9004   3.603   5.705   6.689 -0.0567 -0.0357  0.2468
 3016TIP3    H1 9005   3.681   5.759   6.676 -0.7166  0.9270  0.2521
 3016TIP3    H2 9006   3.584   5.670   6.602 -0.8892  1.4918 -0.2104
 3017TIP3   OH2 9007   6.751   5.757   6.173 -0.5333  0.2682  0.4237
 3017TIP3    H1 9008   6.794   5.788   6.093  1.0262 -0.3488  0.9852
 3017TIP3    H2 9009   6.682   5.699   6.143 -0.5571  0.7672 -0.5001
 3018TIP3   OH2 9010   3.401   3.137   1.016 -0.0748 -0.5511  1.0400
 3018TIP3    H1 9011   3.372   3.047   1.031 -1.1118 -0.7327 -1.6597
 3018TIP3    H2 9012   3.331   3.192   1.052 -0.5731 -0.8806  0.5854
 3019TIP3   OH2 9013   5.271   1.815   1.870 -0.0010 -0.0328 -0.0419
 3019TIP3    H1 9014   5.213   1.821   1.794  0.4854  0.1177 -0.4044
 3019TIP3    H2 9015   5.290   1.906   1.892  1.1190 -0.0886 -0.7184
 3020TIP3   OH2 9016   0.658   2.242   1.277  0.0312 -0.4183  0.1115
 3020TIP3    H1 9017   0.605   2.164   1.258 -0.8507  0.2456 -0.1704
 3020TIP3    H2 9018   0.615   2.313   1.230  0.2636  0.4415  1.1473
 3021TIP3   OH2 9019   0.694  -0.011   5.451  0.0434  0.2032  0.3069
 3021TIP3    H1 9020   0.758  -0.043   5.515 -0.3877 -0.3004  0.4919
 3021TIP3    H2 9021   0.663   0.072   5.487  1.2224  0.8957 -0.2120
 3022TIP3   OH2 9022   2.961   6.476   2.778  0.8659 -0.3308  0.2033
 3022TIP3    H1 9023   3.053   6.450   2.784  0.8624 -1.2137 -2.2353
 3022TIP3    H2 9024   2.921   6.408   2.723 -0.9342  0.7761  0.0682
 3023TIP3   OH2 9025   1.023   1.358   5.101 -0.1614  0.6198 -0.1180
 3023TIP3    H1 9026   1.017   1.263   5.094 -2.4994  0.8148 -1.9977
 3023TIP3    H2 9027   1.109   1.380   5.066  0.4688 -0.7795  0.4825
 3024TIP3   OH2 9028   5.712   0.668   1.685  0.4176 -0.7895  0.0608
 3024TIP3    H1 9029   5.767   0.738   1.719  0.4223 -0.9356  0.3519
 3024TIP3    H2 9030   5.712   0.682   1.590 -0.5301  0.3139  0.1955
 3025TIP3   OH2 9031   7.738   1.275   6.679 -0.5773 -0.0810  0.1007
 3025TIP3    H1 9032   7.689   1.236   6.752  1.1040 -2.6682 -0.0294
 3025TIP3    H2 9033   7.768   1.200   6.628  1.0612  1.5299 -1.4189
 3026TIP3   OH2 9034   4.843   7.386   5.429  0.0179 -0.0054  0.5475
 3026TIP3    H1 9035   4.888   7.445   5.489  3.1271 -0.6314 -0.9366
 3026TIP3    H2 9036   4.765   7.433   5.402  2.1370  3.3902 -0.2983
 3027TIP3   OH2 9037   5.093   4.895   3.484  0.3780 -0.0381 -0.1175
 3027TIP3    H1 9038   5.181   4.912   3.517  0.0839 -1.0461  1.2590
 3027TIP3    H2 9039   5.074   4.805   3.511  0.2796 -1.1655 -3.4929
 3028TIP3   OH2 9040   3.141   5.608   0.406  0.0502  0.2194 -0.2726
 3028TIP3    H1 9041   3.123   5.693   0.366 -1.7725 -0.9264 -2.0924
 3028TIP3    H2 9042   3.169   5.552   0.334 -0.3767 -1.1535  0.5643
 3029TIP3   OH2 9043   4.097   2.255   1.633  0.1644  0.0728  0.2816
 3029TIP3    H1 9044   4.106   2.260   1.538 -1.0935 -1.2421  0.0540
 3029TIP3    H2 9045   4.187   2.252   1.666  0.6595 -2.2235 -1.0803
 3030TIP3   OH2 9046   3.525   6.992   2.736  0.1920 -0.1227  0.2279
 3030TIP3    H1 9047   3.541   7.035   2.820 -0.1342 -0.4726  0.4682
 3030TIP3    H2 9048   3.483   6.909   2.758  0.3037 -0.3155 -0.2693
 3031TIP3   OH2 9049   5.447   4.111   0.978  0.7747 -0.2651  0.3366
 3031TIP3    H1 9050   5.386   4.150   0.916  0.8059  2.5925  1.9070
 3031TIP3    H2 9051   5.411   4.025   0.997 -1.3086  0.2968 -0.7775
 3032TIP3   OH2 9052   1.010   7.133   4.653  0.0154  0.3581  0.3658
 3032TIP3    H1 9053   1.035   7.083   4.575  1.2291  0.0515  0.9151
 3032TIP3    H2 9054   1.069   7.209   4.653 -0.5585  0.8086  0.5269
 3033TIP3   OH2 9055   3.237   0.934   5.608 -0.1163 -0.0788 -0.7256
 3033TIP3    H1 9056   3.195   0.861   5.563  0.6629 -0.2238 -1.2225
 3033TIP3    H2 9057   3.232   0.911   5.701 -1.6941  0.2073 -0.7109
 3034TIP3   OH2 9058   1.993   3.059   4.240 -0.2652 -0.1285 -0.4539
 3034TIP3    H1 9059   2.044   3.136   4.212  0.7940 -0.5151  0.3628
 3034TIP3    H2 9060   2.027   2.987   4.186  1.6746 -0.8467  1.5744
 3035TIP3   OH2 9061   2.780   5.342   6.221  0.3530 -0.3544  0.1457
 3035TIP3    H1 9062   2.702   5.349   6.167 -0.8536 -0.4998  1.7873
 3035TIP3    H2 9063   2.780   5.252   6.253  0.7090 -0.1186  0.8434
 3036TIP3   OH2 9064   7.088   7.417   5.970  0.2585 -0.3607  0.1755
 3036TIP3    H1 9065   7.173   7.452   5.999 -0.1925 -0.4020  1.6283
 3036TIP3    H2 9066   7.025   7.484   5.996 -0.1311 -0.1057 -1.3430
 3037TIP3   OH2 9067   7.688   1.451   0.402  0.1022  0.2333  0.1949
 3037TIP3    H1 9068   7.654   1.500   0.477  0.5580 -1.0211  1.2712
 3037TIP3    H2 9069   7.610   1.423   0.354 -0.4308 -1.8004  2.1060
 3038TIP3   OH2 9070   6.859   1.250   3.344 -0.3618 -0.1198  0.1033
 3038TIP3    H1 9071   6.921   1.218   3.410 -1.0061  1.2310  1.4201
 3038TIP3    H2 9072   6.773   1.239   3.385 -0.8329  0.0537 -0.8185
 3039TIP3   OH2 9073   8.113   0.940   4.457 -0.0517 -0.0541 -1.0168
 3039TIP3    H1 9074   8.056   0.871   4.492  0.5193  0.6704  1.5359
 3039TIP3    H2 9075   8.200   0.901   4.457  0.2003  0.4895 -0.0136
 3040TIP3   OH2 9076   8.038   3.767   3.451  0.8785 -0.2228 -0.1144
 3040TIP3    H1 9077   7.993   3.838   3.406  1.0159 -0.8990 -1.3506
 3040TIP3    H2 9078   8.004   3.687   3.410  3.1286 -0.7626 -1.0496
 3041TIP3   OH2 9079   6.326   4.074   1.525  0.0517 -0.0930  0.0512
 3041TIP3    H1 9080   6.337   4.007   1.593  0.4633 -0.5364 -0.4420
 3041TIP3    H2 9081   6.278   4.144   1.568  1.4922  0.2422  1.2033
 3042TIP3   OH2 9082   7.584   3.680   4.179 -0.0630  0.6339  0.2369
 3042TIP3    H1 9083   7.673   3.681   4.144  0.1796 -0.3973  0.7809
 3042TIP3    H2 9084   7.549   3.594   4.156 -0.5465  0.6287  0.9253
 3043TIP3   OH2 9085   8.218   0.005   6.290 -0.5982  0.1898  0.1629
 3043TIP3    H1 9086   8.205   0.099   6.306  0.2721  0.3322  0.0938
 3043TIP3    H2 9087   8.134  -0.025   6.253 -1.1458  0.7707  0.9078
 3044TIP3   OH2 9088   1.936   4.325   5.798 -0.1473  0.0651  0.2888
 3044TIP3    H1 9089   1.964   4.414   5.773  3.9989 -1.6854 -2.3707
 3044TIP3    H2 9090   1.967   4.316   5.889  0.3154  1.0123  0.2495
 3045TIP3   OH2 9091   4.290   3.458   1.547 -0.1059 -0.7829 -0.1358
 3045TIP3    H1 9092   4.239   3.435   1.470 -2.5995 -0.6273  1.3531
 3045TIP3    H2 9093   4.323   3.374   1.580  0.0836 -0.9606 -0.7759
 3046TIP3   OH2 9094   3.056   5.064   2.789  0.6937 -0.4728 -0.3807
 3046TIP3    H1 9095   3.136   5.077   2.839 -0.8378 -0.2345  2.1778
 3046TIP3    H2 9096   2.991   5.120   2.831 -0.9831 -1.0432 -2.0238
 3047TIP3   OH2 9097   2.902   2.157   4.315 -0.7137  0.5025 -0.1388
 3047TIP3    H1 9098   2.921   2.095   4.386 -0.7401  0.2257 -0.3754
 3047TIP3    H2 9099   2.946   2.120   4.239  0.4341  1.4693  0.0246
 3048TIP3   OH2 9100   4.307   1.256   2.902 -0.0653 -0.2065 -0.2822
 3048TIP3    H1 9101   4.234   1.194   2.906 -1.1780  1.0369 -0.2599
 3048TIP3    H2 9102   4.276   1.332   2.952  1.1144  0.4924 -0.5744
 3049TIP3   OH2 9103   1.021   5.236   4.812  0.3474  0.1715  0.0407
 3049TIP3    H1 9104   1.079   5.311   4.800  0.1326  0.4618  0.7801
 3049TIP3    H2 9105   1.079   5.166   4.842  0.3954  0.3179  0.2905
 3050TIP3   OH2 9106   7.795   6.303   5.710 -0.9545 -0.2562  0.1625
 3050TIP3    H1 9107   7.891   6.297   5.718 -0.9598 -0.0495  0.4019
 3050TIP3    H2 9108   7.762   6.222   5.749 -0.8286 -0.9430 -1.0942
 3051TIP3   OH2 9109   2.876   6.759   1.141  0.1101  0.0616  0.3224
 3051TIP3    H1 9110   2.849   6.851   1.144 -1.9030 -0.5085  0.9935
 3051TIP3    H2 9111   2.875   6.737   1.048 -0.6523  0.3802  0.2508
 3052TIP3   OH2 9112   5.319   0.558   2.481  0.2497 -0.2807  0.3886
 3052TIP3    H1 9113   5.245   0.506   2.512  0.6862 -1.0930  0.1212
 3052TIP3    H2 9114   5.306   0.565   2.386  1.2428 -1.6773  0.1153
 3053TIP3   OH2 9115   0.843   5.565   2.349 -0.2489  0.5727 -0.2211
 3053TIP3    H1 9116   0.780   5.637   2.350 -1.3388 -0.3562 -0.0718
 3053TIP3    H2 9117   0.851   5.541   2.257 -1.9856 -0.8684 -0.0410
 3054TIP3   OH2 9118   3.882   1.676   2.865  0.2869  0.0481 -0.4225
 3054TIP3    H1 9119   3.915   1.597   2.906  1.3332  0.6940  0.0150
 3054TIP3    H2 9120   3.948   1.743   2.885 -1.3571  1.4351  0.6230
 3055TIP3   OH2 9121   4.761   1.972   4.667 -0.0844 -0.8651 -0.4100
 3055TIP3    H1 9122   4.855   1.963   4.651  0.1473  1.0085 -0.3357
 3055TIP3    H2 9123   4.731   2.030   4.597 -0.4456  1.5370  1.5870
 3056TIP3   OH2 9124   0.600   4.266   0.832  0.7516  0.2640  0.5144
 3056TIP3    H1 9125   0.644   4.183   0.817  0.3289 -0.1524  1.5104
 3056TIP3    H2 9126   0.511   4.252   0.799  0.9740  0.6683 -0.2742
 3057TIP3   OH2 9127   4.497   0.731   3.786 -0.2145  0.2833 -0.7361
 3057TIP3    H1 9128   4.447   0.813   3.792 -1.7574 -0.6940  0.5617
 3057TIP3    H2 9129   4.519   0.710   3.877 -0.4999 -1.1236 -0.9702
 3058TIP3   OH2 9130   4.622   5.071   0.419 -0.3134  0.3281 -0.0708
 3058TIP3    H1 9131   4.553   5.132   0.444  0.7969  1.1014  1.2462
 3058TIP3    H2 9132   4.637   5.088   0.326 -0.5594  1.5230  0.0967
 3059TIP3   OH2 9133   1.487   4.627   6.797  0.5691 -0.0452 -0.7047
 3059TIP3    H1 9134   1.456   4.699   6.741  0.9351  0.7089  0.0515
 3059TIP3    H2 9135   1.582   4.635   6.797  0.5661  0.1318  0.2309
 3060TIP3   OH2 9136   3.928   7.712   4.278 -0.1553  0.3554  0.0577
 3060TIP3    H1 9137   3.833   7.712   4.271 -0.0536 -0.5780 -1.8999
 3060TIP3    H2 9138   3.949   7.628   4.321 -0.1839  0.1520 -0.3212
 3061TIP3   OH2 9139   3.839   6.711   4.056 -0.4574 -0.3313 -0.5993
 3061TIP3    H1 9140   3.878   6.689   4.141 -0.2409 -0.3499 -0.7013
 3061TIP3    H2 9141   3.765   6.766   4.077 -0.6573 -0.6810 -0.3698
 3062TIP3   OH2 9142   2.447   0.143   1.633  0.8198  0.2293 -0.8547
 3062TIP3    H1 9143   2.422   0.220   1.583  1.5989  0.9158 -0.2161
 3062TIP3    H2 9144   2.473   0.177   1.719  1.2084 -0.7356 -0.5713
 3063TIP3   OH2 9145   4.904   2.824   6.230  0.1211  0.1718  0.5650
 3063TIP3    H1 9146   4.832   2.764   6.252 -0.5930  0.4585 -0.8971
 3063TIP3    H2 9147   4.975   2.767   6.202 -0.9487 -0.0180 -1.9705
 3064TIP3   OH2 9148   1.501   6.904   5.693 -0.7003  0.4452 -0.1214
 3064TIP3    H1 9149   1.455   6.833   5.647 -0.4584  0.2500 -0.0679
 3064TIP3    H2 9150   1.586   6.865   5.716 -1.2469  0.1552  1.5127
 3065TIP3   OH2 9151   3.461   3.756   3.968  0.7355  0.1567  0.6134
 3065TIP3    H1 9152   3.523   3.758   4.041 -0.0278  2.0837  1.2872
 3065TIP3    H2 9153   3.407   3.680   3.985  1.5849 -0.3401  1.1774
 3066TIP3   OH2 9154   4.712   7.147   5.634  0.2303 -0.2001  0.1609
 3066TIP3    H1 9155   4.758   7.225   5.602 -0.7769  0.6056  0.6255
 3066TIP3    H2 9156   4.632   7.144   5.582 -0.9534  0.5579  1.8411
 3067TIP3   OH2 9157   2.320   4.117   3.646  0.1677  0.0730  0.4206
 3067TIP3    H1 9158   2.342   4.026   3.623  0.7545  0.1351  0.7126
 3067TIP3    H2 9159   2.229   4.127   3.619 -0.2561 -0.9465  1.4073
 3068TIP3   OH2 9160   4.279   6.687   0.737  0.4465  0.0470  0.5521
 3068TIP3    H1 9161   4.242   6.600   0.720  0.7559 -0.1009  0.6244
 3068TIP3    H2 9162   4.208   6.747   0.718  0.3932 -0.1936 -0.0193
 3069TIP3   OH2 9163   5.511   3.812   6.215 -0.1890  0.0005  0.6426
 3069TIP3    H1 9164   5.440   3.751   6.231  0.5577 -1.2576 -0.5884
 3069TIP3    H2 9165   5.543   3.835   6.302 -1.4423 -0.1828  1.1721
 3070TIP3   OH2 9166   2.322   5.637   4.614 -0.0547  0.2500  0.0497
 3070TIP3    H1 9167   2.329   5.634   4.709 -0.4460 -0.1415  0.0732
 3070TIP3    H2 9168   2.246   5.581   4.594  1.5174 -1.7503 -0.6688
 3071TIP3   OH2 9169   3.709   3.772   3.862  0.1463 -0.6707  0.3225
 3071TIP3    H1 9170   3.731   3.864   3.872  0.1247 -0.6321 -0.0076
 3071TIP3    H2 9171   3.624   3.763   3.904 -0.4644 -0.2742 -0.8074
 3072TIP3   OH2 9172   1.750   0.688   4.877 -0.2454 -0.4225 -0.5453
 3072TIP3    H1 9173   1.794   0.748   4.817  0.9859  0.0332  0.7526
 3072TIP3    H2 9174   1.662   0.679   4.842  0.6744 -0.8993 -2.9151
 3073TIP3   OH2 9175   4.768   4.411   0.192  0.3074 -0.8077  0.3508
 3073TIP3    H1 9176   4.757   4.374   0.105 -0.4054  0.5876 -0.1790
 3073TIP3    H2 9177   4.777   4.505   0.178 -1.7857 -0.2872  1.8650
 3074TIP3   OH2 9178   6.920   2.535   4.753  0.0842  0.3861  0.0419
 3074TIP3    H1 9179   6.917   2.440   4.756  0.8825  0.3641  1.7607
 3074TIP3    H2 9180   7.009   2.556   4.726 -0.2918  0.6705 -1.0266
 3075TIP3   OH2 9181   6.414   7.022   2.646  0.1596  0.0658 -0.1347
 3075TIP3    H1 9182   6.458   7.044   2.563  1.7186  0.4477  0.7476
 3075TIP3    H2 9183   6.353   7.095   2.660  1.4244  1.1271  0.0831
 3076TIP3   OH2 9184   6.953   4.334   1.609 -0.4181  0.0568  0.0885
 3076TIP3    H1 9185   6.971   4.252   1.563  2.8966  1.5093 -1.5085
 3076TIP3    H2 9186   6.858   4.333   1.623 -0.7607 -3.1487 -1.5483
 3077TIP3   OH2 9187   3.710   6.279   2.528  0.2189 -0.0039 -0.3010
 3077TIP3    H1 9188   3.732   6.242   2.613 -1.5094 -2.4110 -0.7643
 3077TIP3    H2 9189   3.619   6.307   2.536  0.2065  0.2627 -1.1979
 3078TIP3   OH2 9190   0.084   5.948   5.354 -0.0955  0.4528  0.1732
 3078TIP3    H1 9191   0.023   5.931   5.283  0.1840 -1.0618  0.2777
 3078TIP3    H2 9192   0.156   5.996   5.313 -0.5844  0.8219 -0.2647
 3079TIP3   OH2 9193   0.671   1.874   3.070 -0.3988 -0.0373 -0.1749
 3079TIP3    H1 9194   0.589   1.917   3.048 -0.0625  0.6105 -0.1674
 3079TIP3    H2 9195   0.734   1.909   3.008  0.3050  0.9653  1.0564
 3080TIP3   OH2 9196   3.669   1.386   3.272 -0.3633 -0.5308 -0.2932
 3080TIP3    H1 9197   3.667   1.445   3.196 -0.4135 -0.0998  0.0416
 3080TIP3    H2 9198   3.758   1.350   3.272  0.5160  1.4716  0.9512
 3081TIP3   OH2 9199   7.160   0.450   2.323 -0.3730  0.2482 -0.3710
 3081TIP3    H1 9200   7.084   0.393   2.313 -0.3114  0.3611 -1.6454
 3081TIP3    H2 9201   7.227   0.410   2.268  0.0742  0.8739 -0.2877
 3082TIP3   OH2 9202   2.678   5.231   3.361 -0.4076 -0.2547 -0.4388
 3082TIP3    H1 9203   2.768   5.260   3.374 -0.2140 -2.0343  3.2120
 3082TIP3    H2 9204   2.625   5.303   3.395 -0.2988 -0.2081 -0.3688
 3083TIP3   OH2 9205   4.261   5.493   5.986 -0.5919  0.5221 -0.1954
 3083TIP3    H1 9206   4.297   5.405   6.002 -0.4729  0.5401 -0.3668
 3083TIP3    H2 9207   4.298   5.519   5.903  1.0120  1.5900  0.8197
 3084TIP3   OH2 9208   6.613   4.298   3.284 -0.4437 -0.3586 -0.6190
 3084TIP3    H1 9209   6.619   4.233   3.354 -0.4283  0.1566 -0.1308
 3084TIP3    H2 9210   6.650   4.255   3.207  1.2294 -0.3177  0.1300
 3085TIP3   OH2 9211   1.546   0.115   5.395 -0.4382  0.0611 -0.5060
 3085TIP3    H1 9212   1.531   0.189   5.337 -1.0383 -0.4787 -1.0655
 3085TIP3    H2 9213   1.461   0.069   5.397  0.2247 -1.2290 -1.0602
 3086TIP3   OH2 9214   0.675   0.261   3.953 -0.3408  0.1672  0.4513
 3086TIP3    H1 9215   0.765   0.247   3.983  1.6748  0.7267 -4.3683
 3086TIP3    H2 9216   0.666   0.356   3.946 -0.9471  0.0774 -0.0413
 3087TIP3   OH2 9217   2.986   2.278   2.622 -0.2330 -0.3826  0.4293
 3087TIP3    H1 9218   2.984   2.192   2.665  0.7396 -1.1685 -1.0057
 3087TIP3    H2 9219   2.910   2.324   2.658 -0.5788 -1.7083  1.4987
 3088TIP3   OH2 9220   7.995   0.949   4.049 -0.0790  0.3330 -0.0755
 3088TIP3    H1 9221   8.072   0.983   4.095  1.2386  0.2833 -2.1272
 3088TIP3    H2 9222   7.977   1.013   3.981 -2.0028  0.4151  0.4585
 3089TIP3   OH2 9223   5.072   0.664   6.078  0.3854 -0.7960  0.0468
 3089TIP3    H1 9224   4.998   0.698   6.129 -0.6353 -0.9640 -1.2759
 3089TIP3    H2 9225   5.144   0.723   6.100 -0.4165  0.0337  0.5459
 3090TIP3   OH2 9226   6.294   5.095   0.994 -0.1482  0.5708  0.0892
 3090TIP3    H1 9227   6.288   5.179   1.040  3.0839  0.6980  0.5268
 3090TIP3    H2 9228   6.274   5.029   1.060 -0.6108  0.9146  0.2978
 3091TIP3   OH2 9229   1.559   2.802   1.582 -0.0431 -0.2960  0.4750
 3091TIP3    H1 9230   1.576   2.866   1.652 -0.4148 -2.4475  2.6535
 3091TIP3    H2 9231   1.468   2.817   1.557  0.5386  1.5427 -0.7900
 3092TIP3   OH2 9232   5.233   0.494   2.859 -0.0588 -0.0450  0.4331
 3092TIP3    H1 9233   5.210   0.452   2.942 -0.9205 -0.4378  0.0050
 3092TIP3    H2 9234   5.159   0.552   2.841  1.4805  2.3952  1.4524
 3093TIP3   OH2 9235   6.793   2.178   2.061  0.2156 -0.4211 -0.1103
 3093TIP3    H1 9236   6.745   2.097   2.043  0.8375 -0.9578  0.5671
 3093TIP3    H2 9237   6.726   2.243   2.079 -0.2606 -1.1904  0.9528
 3094TIP3   OH2 9238   2.242   4.797   0.558  0.0706 -0.1527  0.1240
 3094TIP3    H1 9239   2.197   4.868   0.513  1.4532 -1.7416 -4.2844
 3094TIP3    H2 9240   2.171   4.737   0.583 -0.7315  0.1503 -1.2994
 3095TIP3   OH2 9241   0.813   1.538   4.060 -0.3234 -0.5052 -0.5619
 3095TIP3    H1 9242   0.877   1.539   3.990  0.9290  0.4748  0.5507
 3095TIP3    H2 9243   0.795   1.630   4.078 -0.8768 -0.7410  0.1843
 3096TIP3   OH2 9244   2.414   5.533   5.624  0.2997  0.0557 -0.0549
 3096TIP3    H1 9245   2.501   5.535   5.663  0.1953  2.4839  0.1924
 3096TIP3    H2 9246   2.354   5.542   5.698 -0.1204 -0.3501 -0.3371
 3097TIP3   OH2 9247   0.853   3.630   3.652 -0.3010  0.1648  0.6914
 3097TIP3    H1 9248   0.913   3.701   3.631  0.1062  0.0367  1.3770
 3097TIP3    H2 9249   0.774   3.673   3.686 -0.7656  0.3488 -0.5834
 3098TIP3   OH2 9250   0.554   4.289   5.150  0.1543  0.4393  0.9593
 3098TIP3    H1 9251   0.541   4.271   5.243  1.4506  0.5912  1.1913
 3098TIP3    H2 9252   0.565   4.202   5.111 -1.0739  0.3282  0.8086
 3099TIP3   OH2 9253   1.831   3.545   5.746 -0.5459 -0.0555  0.2852
 3099TIP3    H1 9254   1.830   3.519   5.839 -0.9187 -0.6343  0.1266
 3099TIP3    H2 9255   1.900   3.492   5.707 -0.5168  0.0493  0.1942
 3100TIP3   OH2 9256   3.875   2.232   4.347 -0.2784 -0.0958 -0.0141
 3100TIP3    H1 9257   3.964   2.200   4.332 -0.1087  0.0665  0.5982
 3100TIP3    H2 9258   3.830   2.217   4.264  0.6567  0.9692 -0.7414
 3101TIP3   OH2 9259   5.421   2.552   2.573  0.0293  0.5607  0.9037
 3101TIP3    H1 9260   5.416   2.640   2.610 -0.2014  1.5781 -1.3356
 3101TIP3    H2 9261   5.330   2.529   2.554  0.2101  0.6649 -0.1969
 3102TIP3   OH2 9262   6.899   1.373   6.804 -0.0065 -0.0848 -0.5846
 3102TIP3    H1 9263   6.921   1.323   6.725 -0.5713 -0.4176 -0.5386
 3102TIP3    H2 9264   6.834   1.437   6.775  1.2266  1.1165 -0.7896
 3103TIP3   OH2 9265   6.009   1.196   3.246 -0.2321 -0.4646 -0.5543
 3103TIP3    H1 9266   6.073   1.206   3.316  0.3565 -1.8038 -0.8824
 3103TIP3    H2 9267   6.005   1.283   3.205 -0.1787  0.1808  0.7717
 3104TIP3   OH2 9268   3.348   1.804   0.868 -0.1220 -0.4313  0.2606
 3104TIP3    H1 9269   3.428   1.826   0.820  0.2241  0.3946  1.1964
 3104TIP3    H2 9270   3.305   1.738   0.813  0.4807  0.1611 -0.9547
 3105TIP3   OH2 9271   6.980   0.169   3.257  0.2127 -0.3164 -0.0879
 3105TIP3    H1 9272   6.898   0.217   3.252  0.9588  1.1516  0.8525
 3105TIP3    H2 9273   7.019   0.178   3.170 -0.3953 -0.6134 -0.3957
 3106TIP3   OH2 9274   2.208   7.091   3.483 -0.2207  0.3902  0.1033
 3106TIP3    H1 9275   2.218   7.142   3.403 -0.3806  0.3258  0.0413
 3106TIP3    H2 9276   2.291   7.103   3.530 -0.5765  1.3749  0.4853
 3107TIP3   OH2 9277   2.966   6.397   6.188  0.1638  0.5806 -0.0684
 3107TIP3    H1 9278   2.874   6.373   6.191 -0.2016  1.9661  0.9693
 3107TIP3    H2 9279   3.011   6.318   6.159 -1.5120  0.4704 -2.6611
 3108TIP3   OH2 9280   7.530   6.942   1.234  0.2327 -0.1368  0.8383
 3108TIP3    H1 9281   7.472   6.902   1.299 -0.9519  0.7735  0.3818
 3108TIP3    H2 9282   7.483   6.933   1.151  2.1192 -2.1100 -0.1206
 3109TIP3   OH2 9283   0.145   7.084   0.625  1.6431 -0.1720  0.4882
 3109TIP3    H1 9284   0.212   7.149   0.646 -1.1856  2.6428  1.6624
 3109TIP3    H2 9285   0.081   7.091   0.696 -0.7143 -1.5098 -1.3369
 3110TIP3   OH2 9286   0.227   6.731   2.947  0.4816  0.0859 -0.7229
 3110TIP3    H1 9287   0.199   6.820   2.969  0.6808  0.5281 -2.1324
 3110TIP3    H2 9288   0.154   6.675   2.974  1.4019  0.2996  2.6403
 3111TIP3   OH2 9289   3.299   5.294   1.556  0.4790 -0.5428  0.0327
 3111TIP3    H1 9290   3.303   5.279   1.462 -0.3173 -2.4625  0.2452
 3111TIP3    H2 9291   3.334   5.382   1.569  3.2526 -1.2721 -1.7656
 3112TIP3   OH2 9292   6.418   5.818   6.394  0.1082  0.2805 -0.2623
 3112TIP3    H1 9293   6.329   5.853   6.406  0.5431  1.2098  0.3172
 3112TIP3    H2 9294   6.471   5.895   6.374  0.9872 -0.1255  0.4882
 3113TIP3   OH2 9295   1.433   3.605   5.510 -0.1841  0.3944 -0.2919
 3113TIP3    H1 9296   1.510   3.548   5.502  0.0396  0.5825  0.4543
 3113TIP3    H2 9297   1.375   3.557   5.570 -0.1804  0.7492 -0.0032
 3114TIP3   OH2 9298   2.576   1.375   1.809 -0.3789 -0.1518 -0.1460
 3114TIP3    H1 9299   2.567   1.414   1.722  0.7723 -0.4122 -0.4010
 3114TIP3    H2 9300   2.490   1.335   1.826 -1.3025  1.7157 -0.2333
 3115TIP3   OH2 9301   5.263   4.500   1.937  0.6732 -0.3166 -0.2481
 3115TIP3    H1 9302   5.331   4.510   1.871  2.8823 -0.0433  1.9413
 3115TIP3    H2 9303   5.277   4.413   1.974  0.4488  0.0938  0.8538
 3116TIP3   OH2 9304   1.513   6.420   5.039  0.0402 -0.5833 -0.9978
 3116TIP3    H1 9305   1.509   6.428   4.943  1.0150 -1.4452 -1.1254
 3116TIP3    H2 9306   1.533   6.509   5.069 -3.1622  0.3809 -1.3388
 3117TIP3   OH2 9307   1.952   2.986   5.094 -0.3539  0.3363  0.2472
 3117TIP3    H1 9308   1.944   2.999   5.188 -0.9726  1.4031  0.0680
 3117TIP3    H2 9309   2.045   2.970   5.080  0.0641  1.9938  0.8628
 3118TIP3   OH2 9310   4.034   4.232   4.930  0.5492 -0.2670 -0.0761
 3118TIP3    H1 9311   3.998   4.228   5.019 -0.2325  0.5444 -0.3374
 3118TIP3    H2 9312   4.111   4.289   4.938 -0.0901  0.6151 -0.0893
 3119TIP3   OH2 9313   0.276   3.158   5.617  0.0532 -0.3833 -0.2231
 3119TIP3    H1 9314   0.207   3.194   5.560 -0.3304  0.4418  0.7389
 3119TIP3    H2 9315   0.355   3.204   5.589  0.4252 -1.8883 -1.8609
 3120TIP3   OH2 9316   7.842   3.666   4.107  0.4905  0.2665  0.5485
 3120TIP3    H1 9317   7.900   3.709   4.169  0.7102  1.3890 -0.3906
 3120TIP3    H2 9318   7.872   3.696   4.021  0.1828 -1.2218 -0.1087
 3121TIP3   OH2 9319   3.087   0.401   2.180 -0.4779  0.7107 -0.2513
 3121TIP3    H1 9320   3.145   0.341   2.134 -1.1947 -0.0193 -0.2152
 3121TIP3    H2 9321   3.076   0.362   2.267 -0.2321  1.3614  0.0772
 3122TIP3   OH2 9322   5.408   1.143   1.588  0.2894 -0.2489  0.3869
 3122TIP3    H1 9323   5.372   1.063   1.550  1.1225 -0.2152 -0.5059
 3122TIP3    H2 9324   5.398   1.210   1.520  0.8463  0.0685  0.6002
 3123TIP3   OH2 9325   1.529   4.214   2.252 -0.1112  0.9464  0.1028
 3123TIP3    H1 9326   1.515   4.146   2.186 -0.4193  2.1263 -1.0781
 3123TIP3    H2 9327   1.441   4.243   2.275  0.0174  0.9374  0.6173
 3124TIP3   OH2 9328   3.211   4.586   4.944 -0.3293  0.3863  0.1857
 3124TIP3    H1 9329   3.126   4.542   4.945  0.3826 -1.0681 -0.2931
 3124TIP3    H2 9330   3.241   4.579   4.853  0.5581  0.3604  0.4669
 3125TIP3   OH2 9331   5.359   0.483   3.289 -0.1415 -0.1318 -0.4278
 3125TIP3    H1 9332   5.451   0.505   3.304 -0.0058  0.0562 -1.4612
 3125TIP3    H2 9333   5.315   0.567   3.277 -0.7556 -0.1184  1.5098
 3126TIP3   OH2 9334   5.541   7.199   0.443  0.2241  0.1467  0.2590
 3126TIP3    H1 9335   5.515   7.112   0.412  0.7233  0.5280 -1.3236
 3126TIP3    H2 9336   5.467   7.256   0.421  0.4650  0.3697  0.0177
 3127TIP3   OH2 9337   6.678   7.669   5.700  0.0171 -0.1062  0.1269
 3127TIP3    H1 9338   6.671   7.607   5.628 -0.3247  1.3541 -1.1568
 3127TIP3    H2 9339   6.719   7.619   5.771 -0.1586 -1.7429 -0.8712
 3128TIP3   OH2 9340   7.621   5.684   4.068 -0.0293  0.5263 -0.4230
 3128TIP3    H1 9341   7.646   5.609   4.122 -0.4467  0.2917 -0.5534
 3128TIP3    H2 9342   7.665   5.671   3.985 -1.8929 -0.7909 -1.2752
 3129TIP3   OH2 9343   1.980   4.245   0.169 -0.4369  0.0051 -0.0900
 3129TIP3    H1 9344   1.907   4.225   0.228 -1.0750  2.8758  0.2409
 3129TIP3    H2 9345   1.938   4.268   0.086  0.3705 -2.1764 -1.1799
 3130TIP3   OH2 9346   4.498   6.263   0.855  0.6006 -0.0357  0.3490
 3130TIP3    H1 9347   4.503   6.334   0.918  1.2953  0.4892 -0.2724
 3130TIP3    H2 9348   4.405   6.251   0.839  0.4823  1.2282 -0.0564
 3131TIP3   OH2 9349   2.199   2.500   2.680 -0.1259 -0.0503 -0.0549
 3131TIP3    H1 9350   2.170   2.565   2.744  0.5594  0.9867 -0.7724
 3131TIP3    H2 9351   2.133   2.503   2.611  0.2040  0.2987 -0.3581
 3132TIP3   OH2 9352   6.753   2.604   1.707  0.4146  0.3871 -0.0642
 3132TIP3    H1 9353   6.834   2.596   1.758  0.5551  0.9532 -0.1967
 3132TIP3    H2 9354   6.778   2.582   1.617  0.0098 -1.3763  0.2115
 3133TIP3   OH2 9355   2.968   1.966   2.012 -0.3457 -0.1644  0.1823
 3133TIP3    H1 9356   2.896   1.926   2.061 -1.0487  0.1481 -0.5823
 3133TIP3    H2 9357   2.931   1.984   1.925  0.7353 -0.2604 -0.3113
 3134TIP3   OH2 9358   6.463   1.463   2.879  0.4206 -0.4065 -0.2246
 3134TIP3    H1 9359   6.495   1.377   2.851 -0.1610 -0.3231 -1.2069
 3134TIP3    H2 9360   6.370   1.449   2.897 -0.1510  0.3940 -2.2732
 3135TIP3   OH2 9361   4.729   5.063   1.159 -0.0072 -0.0676 -0.3808
 3135TIP3    H1 9362   4.745   5.003   1.086 -1.6611 -1.1019  0.0382
 3135TIP3    H2 9363   4.722   5.006   1.236  1.0756  0.9378  0.4961
 3136TIP3   OH2 9364   4.849   3.816   0.995  0.0806  0.0123 -0.3173
 3136TIP3    H1 9365   4.911   3.749   0.967 -0.0054  0.1188 -0.7592
 3136TIP3    H2 9366   4.801   3.840   0.916  0.3574  0.8599 -0.2415
 3137TIP3   OH2 9367   5.569   1.221   2.807  0.2996 -0.4225 -0.0541
 3137TIP3    H1 9368   5.499   1.195   2.868 -0.4254 -0.6983 -0.9793
 3137TIP3    H2 9369   5.650   1.201   2.854 -0.2383 -0.2379  0.9838
 3138TIP3   OH2 9370   0.045   3.967   6.601 -0.2069 -0.9387  0.0673
 3138TIP3    H1 9371  -0.035   4.014   6.579 -0.2873 -1.1533 -0.1052
 3138TIP3    H2 9372   0.098   3.972   6.522  0.2443 -0.2097  0.3995
 3139TIP3   OH2 9373   1.553   4.464   5.079  0.1340  0.3162 -0.2158
 3139TIP3    H1 9374   1.568   4.556   5.057 -1.0476  0.5751 -0.0141
 3139TIP3    H2 9375   1.598   4.452   5.162  0.0760  0.7937 -0.1111
 3140TIP3   OH2 9376   5.774   2.485   5.422 -0.3237  0.1236 -0.7260
 3140TIP3    H1 9377   5.825   2.505   5.500  1.5937  2.4723 -2.4475
 3140TIP3    H2 9378   5.686   2.519   5.441 -0.2328 -0.4240  0.8000
 3141TIP3   OH2 9379   4.122   5.155   1.386 -0.2890 -0.0560  0.1687
 3141TIP3    H1 9380   4.160   5.229   1.434  2.1238 -0.8076 -0.4451
 3141TIP3    H2 9381   4.122   5.084   1.449  0.9493 -0.4866 -0.2728
 3142TIP3   OH2 9382   0.126   1.380   4.088  0.2756  0.6170  0.2513
 3142TIP3    H1 9383   0.166   1.305   4.133 -2.3782 -0.1497  1.5248
 3142TIP3    H2 9384   0.115   1.350   3.998  0.6263  0.0603  0.3836
 3143TIP3   OH2 9385   7.566   5.598   2.226 -0.3771  0.0071  0.5831
 3143TIP3    H1 9386   7.613   5.636   2.152 -0.0569 -1.1246  0.1951
 3143TIP3    H2 9387   7.517   5.525   2.188 -0.4112 -0.4237  1.4393
 3144TIP3   OH2 9388   7.393   6.796   5.374 -0.1345  0.1300 -0.2618
 3144TIP3    H1 9389   7.453   6.763   5.440  0.8732  0.3548 -1.0487
 3144TIP3    H2 9390   7.434   6.774   5.291 -0.4797  1.4730 -0.8072
 3145TIP3   OH2 9391   1.294   3.107   5.172  0.1487  0.4905  0.1025
 3145TIP3    H1 9392   1.297   3.029   5.117  1.3403  0.0515  0.7582
 3145TIP3    H2 9393   1.381   3.146   5.164  0.4453  0.2774  1.8285
 3146TIP3   OH2 9394   3.940   2.819   4.513  0.4878 -0.2791  0.5548
 3146TIP3    H1 9395   3.889   2.889   4.472 -0.4669 -0.6502  1.0866
 3146TIP3    H2 9396   3.956   2.850   4.602  1.8800  0.1751  0.1715
 3147TIP3   OH2 9397   6.930   2.483   5.462 -0.3782  0.4867 -0.0340
 3147TIP3    H1 9398   6.843   2.459   5.431 -0.8454  1.3045  0.6035
 3147TIP3    H2 9399   6.917   2.507   5.554  0.4580  0.9667 -0.0301
 3148TIP3   OH2 9400   6.659   4.524   0.643 -0.3285 -0.2491  0.2115
 3148TIP3    H1 9401   6.707   4.491   0.719  0.1767  1.1742  0.5568
 3148TIP3    H2 9402   6.602   4.592   0.680 -2.2140 -1.5238 -0.2778
 3149TIP3   OH2 9403   3.702   0.137   5.126 -0.1263  0.0428 -0.0756
 3149TIP3    H1 9404   3.753   0.107   5.051  0.9013  1.2601  0.1008
 3149TIP3    H2 9405   3.706   0.064   5.188 -1.0247 -0.9922 -1.1840
 3150TIP3   OH2 9406   7.240   3.010   4.116 -0.3153 -0.0704 -0.0701
 3150TIP3    H1 9407   7.172   2.950   4.146 -0.3363  0.1192  0.2643
 3150TIP3    H2 9408   7.281   2.965   4.042 -0.4047 -0.4473  0.1080
 3151TIP3   OH2 9409   7.137   4.550   0.825 -0.0355  0.0257  0.1013
 3151TIP3    H1 9410   7.151   4.533   0.732 -2.6778  1.1591 -0.5980
 3151TIP3    H2 9411   7.156   4.467   0.868 -0.9087 -1.1746 -1.7204
 3152TIP3   OH2 9412   5.200   7.450   2.672  0.3302  0.1294  0.2092
 3152TIP3    H1 9413   5.247   7.525   2.706  0.6176 -0.2280  0.6145
 3152TIP3    H2 9414   5.254   7.374   2.696  0.9686 -0.0958 -1.7275
 3153TIP3   OH2 9415   7.591   1.255   2.494 -0.4815  0.2609  0.0596
 3153TIP3    H1 9416   7.579   1.265   2.399 -0.8388  2.9310  0.3166
 3153TIP3    H2 9417   7.670   1.305   2.514  0.3205 -1.3110  1.0564
 3154TIP3   OH2 9418   3.349   1.018   3.893 -0.3961 -0.1830  0.3781
 3154TIP3    H1 9419   3.441   1.009   3.920 -0.2370 -0.6005 -0.2744
 3154TIP3    H2 9420   3.337   1.113   3.883 -0.5452  0.0165  2.1238
 3155TIP3   OH2 9421   7.446   7.170   0.848 -0.4272 -0.6175 -0.5532
 3155TIP3    H1 9422   7.407   7.128   0.771 -0.1349 -0.9961 -0.4931
 3155TIP3    H2 9423   7.451   7.101   0.914  1.9466 -1.0450 -1.1038
 3156TIP3   OH2 9424   8.325   6.198   5.072 -0.2337  0.1912  0.3626
 3156TIP3    H1 9425   8.248   6.223   5.122 -0.1323  1.4564 -0.0733
 3156TIP3    H2 9426   8.329   6.103   5.080 -1.7946  0.1021  0.4633
 3157TIP3   OH2 9427   5.732   3.560   1.788 -0.2053 -0.3488  0.0987
 3157TIP3    H1 9428   5.792   3.613   1.735  0.5718 -0.6989  0.6206
 3157TIP3    H2 9429   5.727   3.476   1.743 -0.1549 -0.3849  0.1604
 3158TIP3   OH2 9430   6.371   4.160   0.084  0.0373  0.4503  0.3606
 3158TIP3    H1 9431   6.288   4.207   0.081  0.5207  1.4544  1.6170
 3158TIP3    H2 9432   6.375   4.123   0.172  0.4371 -0.5335 -0.0540
 3159TIP3   OH2 9433   7.841   6.796   3.842  0.5515 -0.2665 -0.3820
 3159TIP3    H1 9434   7.826   6.837   3.926  1.2221 -0.1667 -0.2995
 3159TIP3    H2 9435   7.928   6.827   3.815  0.6137 -0.7840 -0.8153
 3160TIP3   OH2 9436   6.037   5.315   3.681  0.4231  0.1131  0.6127
 3160TIP3    H1 9437   6.042   5.352   3.769 -0.0509  0.7971  0.3518
 3160TIP3    H2 9438   6.015   5.222   3.696 -0.4838  0.4059  1.1891
 3161TIP3   OH2 9439   0.535   3.142   0.119 -0.7628 -0.9333  0.2921
 3161TIP3    H1 9440   0.614   3.188   0.092 -0.2759 -2.1065 -0.3157
 3161TIP3    H2 9441   0.566   3.068   0.171 -1.4543 -1.3933  0.0685
 3162TIP3   OH2 9442   6.864   5.833   0.208  0.1530  0.2340 -0.1482
 3162TIP3    H1 9443   6.918   5.758   0.181 -0.0697 -0.5532  1.4034
 3162TIP3    H2 9444   6.893   5.851   0.298 -1.2792  0.6074  0.2655
 3163TIP3   OH2 9445   7.824   2.325   4.234 -0.7367 -0.0625  0.0988
 3163TIP3    H1 9446   7.849   2.401   4.183 -1.4346  0.6682  0.8069
 3163TIP3    H2 9447   7.812   2.359   4.323  1.1754 -1.4187  0.9539
 3164TIP3   OH2 9448   4.017   1.679   4.835 -0.4329  0.3854  0.0430
 3164TIP3    H1 9449   4.110   1.680   4.857 -0.2892  0.8311 -0.5325
 3164TIP3    H2 9450   3.998   1.769   4.810 -1.0784  0.3469  0.3799
 3165TIP3   OH2 9451   4.680   2.471   3.311 -0.3195  0.1352  0.2088
 3165TIP3    H1 9452   4.772   2.467   3.339  0.1370  2.3030 -0.7712
 3165TIP3    H2 9453   4.647   2.552   3.350 -1.0777  0.6646 -1.4520
 3166TIP3   OH2 9454   1.529   4.903   2.090 -0.0515  0.1619  0.3697
 3166TIP3    H1 9455   1.455   4.850   2.119  0.2297 -0.8167 -0.6246
 3166TIP3    H2 9456   1.606   4.848   2.106  0.1675 -0.1404 -1.5192
 3167TIP3   OH2 9457   6.821   6.124   0.950 -0.1383  0.6154  0.1776
 3167TIP3    H1 9458   6.863   6.144   1.033  0.0079 -0.6653  0.4305
 3167TIP3    H2 9459   6.887   6.076   0.900 -0.3954  0.9393 -0.4906
 3168TIP3   OH2 9460   6.832   5.394   0.511  0.7213 -0.5090  0.5124
 3168TIP3    H1 9461   6.842   5.427   0.422  1.3883 -2.6509 -0.2531
 3168TIP3    H2 9462   6.878   5.311   0.512  0.0589 -0.9228  2.6543
 3169TIP3   OH2 9463   0.608   4.683   6.331 -0.6438 -0.2750  0.0509
 3169TIP3    H1 9464   0.690   4.634   6.332 -0.8553 -0.6353 -0.1154
 3169TIP3    H2 9465   0.560   4.648   6.256 -0.6566  0.4263 -0.2831
 3170TIP3   OH2 9466   2.438   5.512   0.812 -0.8192 -0.4337  0.5956
 3170TIP3    H1 9467   2.444   5.514   0.716  2.3812 -0.6650  0.7054
 3170TIP3    H2 9468   2.347   5.536   0.830 -0.9635  1.8724 -2.4044
 3171TIP3   OH2 9469   1.915   2.286   1.878 -0.8967 -0.6584 -0.0249
 3171TIP3    H1 9470   1.995   2.304   1.830 -0.9250 -0.6518 -0.0703
 3171TIP3    H2 9471   1.897   2.367   1.927  0.1224 -1.2877  1.4437
 3172TIP3   OH2 9472   7.891   3.209   0.977 -0.0884  0.1007 -0.3368
 3172TIP3    H1 9473   7.904   3.163   1.060  0.2141  0.5040 -0.1566
 3172TIP3    H2 9474   7.974   3.253   0.960 -0.1115 -0.0654 -0.9112
 3173TIP3   OH2 9475   2.519   6.078   3.248  0.1163 -0.2442  0.1815
 3173TIP3    H1 9476   2.442   6.062   3.194 -0.9799  0.2024  1.5462
 3173TIP3    H2 9477   2.537   6.172   3.238  0.8893 -0.4636 -0.6195
 3174TIP3   OH2 9478   6.925   2.089   2.350 -0.6364 -0.1380 -0.1802
 3174TIP3    H1 9479   6.884   2.113   2.267 -1.8819  1.0312  0.7329
 3174TIP3    H2 9480   6.900   1.997   2.363  0.1119 -0.5319 -1.3806
 3175TIP3   OH2 9481   5.725   4.775   1.283 -0.0272 -0.4136  0.1032
 3175TIP3    H1 9482   5.796   4.798   1.343 -0.7253  0.2199  0.7222
 3175TIP3    H2 9483   5.667   4.719   1.335 -0.5603  0.0217 -0.0087
 3176TIP3   OH2 9484   7.449   1.922   0.522 -0.2859 -0.2955  0.2179
 3176TIP3    H1 9485   7.509   1.910   0.595  0.6146  2.8420  0.1681
 3176TIP3    H2 9486   7.496   1.890   0.446  0.4125  0.0294  0.5050
 3177TIP3   OH2 9487   4.426   1.811   0.550 -0.3018  0.1158  0.3794
 3177TIP3    H1 9488   4.485   1.880   0.581  1.2805 -1.5072  1.1710
 3177TIP3    H2 9489   4.446   1.803   0.456  0.6370 -0.2989  0.6052
 3178TIP3   OH2 9490   1.653   4.174   6.041  0.0218 -0.6389 -0.0551
 3178TIP3    H1 9491   1.698   4.131   6.114  1.9324 -0.5711 -1.1331
 3178TIP3    H2 9492   1.629   4.260   6.076 -1.1788 -1.4321  1.1832
 3179TIP3   OH2 9493   8.194   5.762   0.968  0.4039 -0.4182 -0.6756
 3179TIP3    H1 9494   8.271   5.745   0.913 -0.2249 -1.7760 -1.1662
 3179TIP3    H2 9495   8.230   5.770   1.057  1.1120 -1.0863 -0.8899
 3180TIP3   OH2 9496   4.098   6.446   4.211  0.1256 -0.3483  0.5208
 3180TIP3    H1 9497   4.086   6.453   4.117  0.2516 -1.6912  0.3769
 3180TIP3    H2 9498   4.135   6.358   4.224  2.3862  0.6542  1.6044
 3181TIP3   OH2 9499   3.283   2.251   0.180  0.0663 -0.2335  0.4549
 3181TIP3    H1 9500   3.287   2.341   0.147 -0.9173 -0.4521 -0.2870
 3181TIP3    H2 9501   3.287   2.261   0.275  0.5949  0.5501  0.3658
 3182TIP3   OH2 9502   0.980   7.327   1.853  0.0378 -0.3793  0.2015
 3182TIP3    H1 9503   1.028   7.380   1.789 -0.5684 -0.3373 -0.2322
 3182TIP3    H2 9504   1.046   7.300   1.916  1.3044 -2.8776 -1.9827
 3183TIP3   OH2 9505   6.934   3.468   5.938 -0.1971  0.0846  0.0132
 3183TIP3    H1 9506   6.891   3.496   5.857  2.1335 -3.5726 -2.8608
 3183TIP3    H2 9507   6.865   3.425   5.988 -1.5617  1.8417 -0.2626
 3184TIP3   OH2 9508   3.620   6.941   6.435 -0.1982 -0.5903  0.2426
 3184TIP3    H1 9509   3.593   7.027   6.468 -0.2772 -0.2434 -0.7109
 3184TIP3    H2 9510   3.546   6.884   6.457  0.2490 -0.6504  1.7371
 3185TIP3   OH2 9511   1.770   5.847   2.103 -0.6931  0.3037 -0.8724
 3185TIP3    H1 9512   1.698   5.785   2.087 -1.7580  1.3111 -0.1938
 3185TIP3    H2 9513   1.788   5.839   2.197 -0.1554  0.3107 -0.9743
 3186TIP3   OH2 9514   3.725   7.458   6.586 -0.0599  0.8930 -0.1953
 3186TIP3    H1 9515   3.779   7.478   6.509  1.4968 -1.1510  0.2641
 3186TIP3    H2 9516   3.782   7.474   6.661 -0.7247  0.5051  0.4137
 3187TIP3   OH2 9517   8.191   4.356   6.715  0.5990 -0.2166 -0.3280
 3187TIP3    H1 9518   8.196   4.265   6.684  1.4040 -0.4644  0.4969
 3187TIP3    H2 9519   8.114   4.392   6.670  0.2101 -1.3304 -0.5983
 3188TIP3   OH2 9520   7.560   7.437   5.602 -0.3419 -0.1531  0.1384
 3188TIP3    H1 9521   7.639   7.398   5.565 -0.6111 -1.1228  0.5552
 3188TIP3    H2 9522   7.489   7.382   5.568 -0.7861  0.3606  0.2327
 3189TIP3   OH2 9523   6.414   6.416   0.962  0.1699 -0.2287  0.0354
 3189TIP3    H1 9524   6.330   6.383   0.992 -0.3937 -0.3294 -1.5809
 3189TIP3    H2 9525   6.465   6.337   0.942  0.4395 -0.1599  0.4381
 3190TIP3   OH2 9526   5.398   6.296   0.537 -0.0573 -0.2938 -0.5352
 3190TIP3    H1 9527   5.399   6.207   0.570  0.7013 -0.1491 -0.1615
 3190TIP3    H2 9528   5.410   6.351   0.615  1.5759  0.0573 -1.0025
 3191TIP3   OH2 9529   1.934   4.612   3.475 -0.1706 -0.0712 -0.1553
 3191TIP3    H1 9530   1.864   4.556   3.507  1.4557 -0.8936  2.2660
 3191TIP3    H2 9531   2.012   4.557   3.478  0.9043  1.3135 -1.0784
 3192TIP3   OH2 9532   1.551   4.315   2.511 -0.0337 -0.0055 -0.4918
 3192TIP3    H1 9533   1.470   4.301   2.561  0.1741  1.5535  0.3426
 3192TIP3    H2 9534   1.540   4.262   2.432 -1.0389 -1.3169  0.4856
 3193TIP3   OH2 9535   5.705   0.376   1.985  0.5325 -0.5275  0.3449
 3193TIP3    H1 9536   5.681   0.352   2.074 -0.9406  0.0998  0.1333
 3193TIP3    H2 9537   5.747   0.461   1.993  1.3437 -0.9335  0.5378
 3194TIP3   OH2 9538   1.051   5.397   3.339  0.0222 -0.2522 -0.1944
 3194TIP3    H1 9539   0.966   5.408   3.297 -1.0661 -0.4775  1.8277
 3194TIP3    H2 9540   1.063   5.476   3.391  0.0022 -1.1272  1.2154
 3195TIP3   OH2 9541   2.330   4.261   6.078  0.2867  0.0785 -0.0185
 3195TIP3    H1 9542   2.316   4.167   6.085 -0.7841  0.0710 -1.6383
 3195TIP3    H2 9543   2.325   4.278   5.984 -0.0514  1.8393  0.2929
 3196TIP3   OH2 9544   6.835   1.286   2.919  0.0003 -0.7728 -0.6990
 3196TIP3    H1 9545   6.788   1.318   2.997 -0.0154  0.7152 -1.2724
 3196TIP3    H2 9546   6.909   1.236   2.954 -1.5218 -2.5010  0.2352
 3197TIP3   OH2 9547   4.821   2.393   2.977  0.2741 -0.0858  0.0622
 3197TIP3    H1 9548   4.814   2.326   3.045  0.6264 -1.3893 -1.1429
 3197TIP3    H2 9549   4.763   2.464   3.007  0.0522 -0.8230  1.4654
 3198TIP3   OH2 9550   7.857   3.931   3.294 -0.5365 -0.4585  0.0714
 3198TIP3    H1 9551   7.831   3.868   3.227 -1.2856  0.3983 -0.4631
 3198TIP3    H2 9552   7.774   3.968   3.326 -0.0926  0.8889 -0.2540
 3199TIP3   OH2 9553   4.348   1.392   5.222 -0.5014  0.1217  0.6750
 3199TIP3    H1 9554   4.376   1.417   5.135 -1.5729 -1.2099 -0.0920
 3199TIP3    H2 9555   4.277   1.453   5.243 -0.1487  0.5322  0.6974
 3200TIP3   OH2 9556   0.183   2.982   3.825 -0.4354  0.0571  0.0022
 3200TIP3    H1 9557   0.200   2.930   3.904 -0.2564 -0.5679 -0.4351
 3200TIP3    H2 9558   0.114   2.933   3.779 -0.0430  0.0284 -0.5732
 3201TIP3   OH2 9559   4.339   7.350   1.041  0.7398  0.2637 -0.0861
 3201TIP3    H1 9560   4.392   7.422   1.006 -0.1250  0.0865 -1.8708
 3201TIP3    H2 9561   4.273   7.334   0.974 -0.5162 -0.6833  1.3106
 3202TIP3   OH2 9562   4.754   7.224   2.706  0.0187 -0.5575 -0.0968
 3202TIP3    H1 9563   4.678   7.277   2.685  0.9384  0.7028 -0.3285
 3202TIP3    H2 9564   4.825   7.261   2.654  1.0109 -1.0727  0.8399
 3203TIP3   OH2 9565   7.416   4.266   5.940 -0.2984  0.4115 -0.0578
 3203TIP3    H1 9566   7.323   4.273   5.916 -0.6929  0.5526  1.4595
 3203TIP3    H2 9567   7.441   4.178   5.909 -1.3211 -0.1942  0.7698
 3204TIP3   OH2 9568   0.005   7.292   5.264 -0.1957 -0.0926  0.0977
 3204TIP3    H1 9569  -0.063   7.287   5.198  0.6053 -2.2009 -0.6606
 3204TIP3    H2 9570   0.087   7.296   5.214  0.2969  2.4931  0.9829
 3205TIP3   OH2 9571   3.021   4.019   4.744  0.3439 -0.2196  0.7470
 3205TIP3    H1 9572   3.104   3.997   4.787  0.8212  1.2982  0.6619
 3205TIP3    H2 9573   2.990   3.936   4.708  0.1852 -1.4801  3.5234
 3206TIP3   OH2 9574   4.210   2.019   4.693  0.1108  0.1230  0.2404
 3206TIP3    H1 9575   4.262   2.099   4.683  1.0236 -0.3723  0.8676
 3206TIP3    H2 9576   4.160   2.033   4.773 -1.8478  1.1855 -1.1055
 3207TIP3   OH2 9577   7.255   5.658   1.507 -0.5509 -0.3299 -0.6305
 3207TIP3    H1 9578   7.250   5.643   1.413  0.2124  1.8271 -1.0657
 3207TIP3    H2 9579   7.346   5.682   1.523 -0.2429 -2.2353  0.9732
 3208TIP3   OH2 9580   1.222   5.191   3.358  0.0786  0.6198  0.1054
 3208TIP3    H1 9581   1.157   5.250   3.320 -2.9515 -1.4683  1.6640
 3208TIP3    H2 9582   1.248   5.234   3.440 -0.6476  0.7029  0.2985
 3209TIP3   OH2 9583   3.233   4.657   3.550 -0.3334 -0.3504  0.2541
 3209TIP3    H1 9584   3.286   4.614   3.618  0.4445  1.7845  1.0891
 3209TIP3    H2 9585   3.143   4.641   3.577 -0.0830  2.2308  3.1535
 3210TIP3   OH2 9586   4.109   3.710   6.065 -0.0611 -0.0308  0.3007
 3210TIP3    H1 9587   4.109   3.767   6.142 -0.4071 -1.0621  1.0952
 3210TIP3    H2 9588   4.016   3.696   6.045 -0.0042 -0.9211  0.5999
 3211TIP3   OH2 9589   0.386   6.553   2.579 -0.0707  0.1952 -0.5949
 3211TIP3    H1 9590   0.362   6.580   2.490  2.1912  0.8189 -1.0761
 3211TIP3    H2 9591   0.456   6.489   2.567  0.1546  0.1679  0.7224
 3212TIP3   OH2 9592   0.083   4.576   4.347  0.1160  0.1018  0.1921
 3212TIP3    H1 9593   0.004   4.525   4.366  1.2391 -0.2965  4.7805
 3212TIP3    H2 9594   0.055   4.668   4.353 -0.5665  0.0538 -1.5793
 3213TIP3   OH2 9595   7.257   6.144   4.546  0.4302  0.1509 -0.1770
 3213TIP3    H1 9596   7.228   6.234   4.565  2.8028  0.6432  1.5018
 3213TIP3    H2 9597   7.329   6.156   4.484 -0.6758 -0.8134 -1.7224
 3214TIP3   OH2 9598   6.798   5.912   5.929 -0.0357  0.1357 -0.1721
 3214TIP3    H1 9599   6.712   5.877   5.907 -0.2073  1.0796 -1.0691
 3214TIP3    H2 9600   6.838   5.933   5.845  1.6603 -1.5787  0.1488
 3215TIP3   OH2 9601   7.401   2.885   3.505  0.4324  0.3845  0.1720
 3215TIP3    H1 9602   7.341   2.833   3.451 -0.5189 -0.5469  1.9895
 3215TIP3    H2 9603   7.467   2.822   3.534 -0.0273  0.4315  1.3994
 3216TIP3   OH2 9604   3.393   1.803   1.190 -0.1397  0.4801  0.3439
 3216TIP3    H1 9605   3.314   1.855   1.200 -0.6068 -0.0262 -0.6056
 3216TIP3    H2 9606   3.398   1.783   1.097  0.1869 -0.9093  0.6215
 3217TIP3   OH2 9607   7.446   4.577   2.804 -0.5407  0.1708  0.7352
 3217TIP3    H1 9608   7.367   4.612   2.843  0.3368  0.9137  1.9173
 3217TIP3    H2 9609   7.472   4.505   2.861  0.8492  1.3744  1.7043
 3218TIP3   OH2 9610   7.597   0.640   6.174  0.0349  0.0084  0.9885
 3218TIP3    H1 9611   7.626   0.656   6.264  2.4809 -1.6922  0.5744
 3218TIP3    H2 9612   7.632   0.714   6.124 -0.9695  0.7344  1.3288
 3219TIP3   OH2 9613   1.918   1.451   1.339 -0.1128 -0.1159 -0.4768
 3219TIP3    H1 9614   1.998   1.440   1.287  1.2115  0.9240  1.1962
 3219TIP3    H2 9615   1.853   1.397   1.296  1.6610 -1.4702 -1.5922
 3220TIP3   OH2 9616   7.328   6.389   0.830 -0.2506  0.1934 -0.4241
 3220TIP3    H1 9617   7.309   6.450   0.901 -0.5279  0.3189 -0.6046
 3220TIP3    H2 9618   7.281   6.309   0.854  0.6794 -0.1953  0.1663
 3221TIP3   OH2 9619   0.788   0.968   4.171  0.3373  0.1325  0.2735
 3221TIP3    H1 9620   0.856   0.923   4.220  1.6945  0.1626 -1.4675
 3221TIP3    H2 9621   0.798   0.936   4.081 -1.6328  0.5322 -0.1457
 3222TIP3   OH2 9622   7.482   2.640   6.214 -0.7072  0.1098 -0.2869
 3222TIP3    H1 9623   7.471   2.608   6.304  1.8166 -1.1236 -0.3287
 3222TIP3    H2 9624   7.454   2.567   6.159 -0.5560  0.1858 -0.4674
 3223TIP3   OH2 9625   6.036   3.879   5.060  0.4171 -0.4283  0.0813
 3223TIP3    H1 9626   6.035   3.869   4.965  1.0291  0.0719  0.0148
 3223TIP3    H2 9627   6.118   3.925   5.078  0.8554 -1.5324  0.9610
 3224TIP3   OH2 9628   8.169   7.023   5.959 -0.0352  0.4392  0.1611
 3224TIP3    H1 9629   8.138   7.112   5.980  0.2416  0.5434  0.1310
 3224TIP3    H2 9630   8.139   6.970   6.033 -0.1710  0.5637  0.1984
 3225TIP3   OH2 9631   3.481   6.095   2.629  0.2899  0.0090 -0.1137
 3225TIP3    H1 9632   3.474   6.151   2.707  0.9732  1.3907 -0.9931
 3225TIP3    H2 9633   3.400   6.045   2.628  0.4155 -0.2801  1.6585
 3226TIP3   OH2 9634   1.050   3.632   3.121 -0.6591  0.5412 -0.1874
 3226TIP3    H1 9635   1.047   3.710   3.176  0.1490  0.6767 -0.3246
 3226TIP3    H2 9636   0.990   3.570   3.163  0.7775  0.2146  1.5109
 3227TIP3   OH2 9637   0.379   3.578   4.271  0.6850  0.0535  0.3861
 3227TIP3    H1 9638   0.304   3.593   4.213  1.9819 -0.1689 -1.4153
 3227TIP3    H2 9639   0.355   3.499   4.320 -0.0015 -0.4115 -0.6506
 3228TIP3   OH2 9640   2.816   3.829   0.437  0.2810  0.1637 -0.2824
 3228TIP3    H1 9641   2.800   3.889   0.510  1.9851  1.4703 -0.9212
 3228TIP3    H2 9642   2.752   3.854   0.371 -0.8938 -0.6544  0.4936
 3229TIP3   OH2 9643   7.554   0.418   5.108  0.1925  0.2860 -0.0670
 3229TIP3    H1 9644   7.491   0.491   5.114  0.4110  0.3834  1.2822
 3229TIP3    H2 9645   7.545   0.372   5.192 -0.0069 -1.3161 -0.9312
 3230TIP3   OH2 9646   3.264   4.562   5.222 -0.7885  0.0950  0.3999
 3230TIP3    H1 9647   3.228   4.539   5.137 -1.4831  2.1647  0.0899
 3230TIP3    H2 9648   3.265   4.479   5.271 -2.3923 -0.7148 -0.8666
 3231TIP3   OH2 9649   1.662   3.468   6.551 -0.3264  0.5085 -0.4813
 3231TIP3    H1 9650   1.709   3.387   6.534 -1.4889 -0.5251  0.8697
 3231TIP3    H2 9651   1.729   3.529   6.583  0.5506  0.0829 -1.4509
 3232TIP3   OH2 9652   4.288   3.184   3.524  0.0416  0.1482 -0.2647
 3232TIP3    H1 9653   4.291   3.193   3.428 -3.6135  1.2928 -0.4588
 3232TIP3    H2 9654   4.253   3.096   3.538 -1.5229  0.7598 -0.1468
 3233TIP3   OH2 9655   7.651   0.759   3.164 -0.1848  0.3150  0.3077
 3233TIP3    H1 9656   7.568   0.797   3.136 -0.4056 -2.0967 -2.7168
 3233TIP3    H2 9657   7.657   0.677   3.117  3.2336 -0.3575  1.6644
 3234TIP3   OH2 9658   1.685   6.840   2.342  0.0573  0.4150  0.5070
 3234TIP3    H1 9659   1.607   6.896   2.341 -1.1418 -1.1592  1.3188
 3234TIP3    H2 9660   1.705   6.829   2.435  0.6295 -0.0128  0.3381
 3235TIP3   OH2 9661   5.597   6.994   6.148  0.3576 -0.0210 -0.4475
 3235TIP3    H1 9662   5.620   7.086   6.150 -0.9783  0.3244  1.1481
 3235TIP3    H2 9663   5.604   6.970   6.055  3.5053  0.8718 -0.5482
 3236TIP3   OH2 9664   3.752   3.405   4.046  0.2584  0.0923 -0.2063
 3236TIP3    H1 9665   3.835   3.357   4.041 -0.3478 -1.0101 -0.0820
 3236TIP3    H2 9666   3.729   3.422   3.955  0.0952 -0.5456 -0.2863
 3237TIP3   OH2 9667   5.932   7.693   3.619 -0.5151 -0.4927  1.0999
 3237TIP3    H1 9668   5.865   7.684   3.687 -1.2257  1.1924  0.6804
 3237TIP3    H2 9669   6.006   7.733   3.663 -0.6817 -0.1434  1.0685
 3238TIP3   OH2 9670   5.380   5.226   5.089  0.0393 -0.1469  0.7483
 3238TIP3    H1 9671   5.346   5.251   5.003 -1.4221  0.5488  1.5042
 3238TIP3    H2 9672   5.453   5.286   5.105  0.0278  0.0168  0.2143
 3239TIP3   OH2 9673   6.165   1.049   1.749  0.0999  0.3854 -0.4214
 3239TIP3    H1 9674   6.250   1.032   1.709  1.2484  1.0355  1.5542
 3239TIP3    H2 9675   6.181   1.125   1.806 -1.1357 -1.0179  1.9345
 3240TIP3   OH2 9676   1.733   4.001   2.576 -0.5416 -0.0272 -0.3100
 3240TIP3    H1 9677   1.714   3.961   2.661  0.1607 -1.0306 -0.6126
 3240TIP3    H2 9678   1.718   3.932   2.512  0.3634  0.2789 -0.8794
 3241TIP3   OH2 9679   1.673   2.985   3.475 -0.3119  0.9909 -0.1299
 3241TIP3    H1 9680   1.612   3.049   3.512 -2.5007 -0.7750 -0.4693
 3241TIP3    H2 9681   1.633   2.957   3.394 -0.0766 -1.6690  0.5851
 3242TIP3   OH2 9682   1.725   6.441   4.149  0.3634  0.2025 -0.2214
 3242TIP3    H1 9683   1.759   6.355   4.124 -0.4728  0.0327 -0.7782
 3242TIP3    H2 9684   1.784   6.470   4.219  0.4619 -0.9538  0.1886
 3243TIP3   OH2 9685   6.759   0.839   0.356 -0.0562 -0.0294  0.0095
 3243TIP3    H1 9686   6.702   0.915   0.352  0.6378  0.5062  0.1889
 3243TIP3    H2 9687   6.815   0.854   0.432  1.2476  0.1322 -0.9251
 3244TIP3   OH2 9688   1.955   4.994   3.869  0.3090 -0.3810 -0.3692
 3244TIP3    H1 9689   2.036   4.943   3.863  0.2486 -1.0018  2.5374
 3244TIP3    H2 9690   1.984   5.080   3.898 -0.0160 -0.4991  0.3266
 3245TIP3   OH2 9691   5.279   0.144   4.608  0.2678 -0.7198  0.2830
 3245TIP3    H1 9692   5.206   0.142   4.670  0.3998 -0.1909  0.4649
 3245TIP3    H2 9693   5.274   0.231   4.568  0.1524 -1.0793 -0.4925
 3246TIP3   OH2 9694   4.828   5.096   4.137 -0.4359 -0.0740  0.0884
 3246TIP3    H1 9695   4.775   5.032   4.185  1.4502 -1.9481 -0.1614
 3246TIP3    H2 9696   4.811   5.179   4.182 -3.4090 -0.5645  0.0828
 3247TIP3   OH2 9697   1.455   5.140   1.346  0.0232 -0.6511  0.2487
 3247TIP3    H1 9698   1.430   5.150   1.438 -2.6388  1.0800 -0.5397
 3247TIP3    H2 9699   1.548   5.117   1.348  0.1360 -0.3088  3.3294
 3248TIP3   OH2 9700   3.341   1.103   1.879  0.0801  0.4743 -0.4157
 3248TIP3    H1 9701   3.346   1.143   1.792  1.7252  0.9415 -0.1480
 3248TIP3    H2 9702   3.300   1.170   1.934 -0.0424  0.5669 -0.6184
 3249TIP3   OH2 9703   5.934   5.354   3.071  0.6527  0.0061 -0.3518
 3249TIP3    H1 9704   5.916   5.264   3.098  1.1350  0.3926  1.4067
 3249TIP3    H2 9705   5.848   5.396   3.070  0.5875 -0.0922  0.3930
 3250TIP3   OH2 9706   3.220   1.821   3.650 -0.8602 -0.0674 -0.1495
 3250TIP3    H1 9707   3.161   1.891   3.624 -0.0008  0.4935 -0.6430
 3250TIP3    H2 9708   3.163   1.752   3.683 -1.6811  1.2397  1.2850
 3251TIP3   OH2 9709   5.992   7.619   5.255  0.4547 -0.2562 -0.0813
 3251TIP3    H1 9710   6.068   7.593   5.308  0.4890  1.4621  0.7721
 3251TIP3    H2 9711   6.028   7.679   5.190 -0.0387 -0.0900 -0.2022
 3252TIP3   OH2 9712   3.965   7.630   0.524 -0.1912  0.4730  0.4292
 3252TIP3    H1 9713   3.923   7.709   0.558 -1.3747 -0.5774  1.4985
 3252TIP3    H2 9714   3.932   7.622   0.434  0.2469  1.3932  0.1768
 3253TIP3   OH2 9715   2.740   4.746   1.260 -0.3782  0.2302 -0.5411
 3253TIP3    H1 9716   2.822   4.721   1.218 -0.0283  0.0810  0.2295
 3253TIP3    H2 9717   2.726   4.837   1.233  0.0966  0.2929 -0.5787
 3254TIP3   OH2 9718   3.331   7.501   2.123 -0.5917  0.3991 -0.3815
 3254TIP3    H1 9719   3.252   7.454   2.097 -0.1108 -0.4121 -0.4309
 3254TIP3    H2 9720   3.352   7.466   2.210 -0.5300  0.9241 -0.1822
 3255TIP3   OH2 9721   0.620   1.346   4.121 -0.5462 -0.0314  0.3969
 3255TIP3    H1 9722   0.688   1.409   4.097 -0.1183  0.0010  1.6041
 3255TIP3    H2 9723   0.649   1.264   4.082  0.0954  0.0306  0.7164
 3256TIP3   OH2 9724   7.770   7.504   4.147 -0.0278  0.4084  0.5721
 3256TIP3    H1 9725   7.819   7.507   4.065 -1.4312  3.6148 -0.2703
 3256TIP3    H2 9726   7.689   7.458   4.125 -0.2034  0.8582  0.2741
 3257TIP3   OH2 9727   5.894   6.167   1.945 -0.0041  0.5342  0.1593
 3257TIP3    H1 9728   5.922   6.152   2.035 -1.0239 -1.4249  0.1973
 3257TIP3    H2 9729   5.966   6.216   1.906  1.1222  0.1364  1.6323
 3258TIP3   OH2 9730   7.434   7.810   0.843 -0.6425 -0.5308  0.6452
 3258TIP3    H1 9731   7.392   7.791   0.759  0.2036 -0.0059  0.0862
 3258TIP3    H2 9732   7.378   7.876   0.884 -0.8905 -0.5632  0.3538
 3259TIP3   OH2 9733   2.165   0.337   0.333  0.2004  0.0429  0.4335
 3259TIP3    H1 9734   2.073   0.360   0.347 -0.5706 -1.2203 -2.0326
 3259TIP3    H2 9735   2.190   0.385   0.254  1.4418 -0.2172  0.6475
 3260TIP3   OH2 9736   6.016   0.982   5.706  0.0640  0.2764  0.4710
 3260TIP3    H1 9737   6.089   0.989   5.646 -0.6588 -0.0131 -0.4626
 3260TIP3    H2 9738   6.056   0.987   5.793  1.1934  0.0065 -0.0142
 3261TIP3   OH2 9739   0.373   5.349   3.073 -0.5604  0.3165 -0.2805
 3261TIP3    H1 9740   0.390   5.358   2.980  0.9372  0.6399  0.0033
 3261TIP3    H2 9741   0.399   5.259   3.093 -0.1356  0.4894 -0.0379
 3262TIP3   OH2 9742   8.070   1.166   2.817 -0.0569  0.1655 -0.3057
 3262TIP3    H1 9743   8.113   1.244   2.782 -0.5892  0.2858 -0.6941
 3262TIP3    H2 9744   8.139   1.122   2.868 -0.2038  1.8230  1.4574
 3263TIP3   OH2 9745   3.292   4.957   2.231  0.2838  0.2478 -1.0718
 3263TIP3    H1 9746   3.329   4.873   2.204 -0.0178 -0.1403 -0.2970
 3263TIP3    H2 9747   3.340   4.980   2.311 -1.4550 -0.5367  0.2783
 3264TIP3   OH2 9748   5.193   0.944   5.228  0.0603  0.5379 -0.3250
 3264TIP3    H1 9749   5.183   0.990   5.144 -1.5233 -1.4537 -1.3074
 3264TIP3    H2 9750   5.112   0.962   5.276 -0.1410 -0.3736 -0.3046
 3265TIP3   OH2 9751   6.577   1.550   4.712 -0.1610  0.1560 -0.6730
 3265TIP3    H1 9752   6.490   1.574   4.680 -0.5030 -0.6157 -0.3302
 3265TIP3    H2 9753   6.589   1.603   4.791 -0.4682 -0.0021 -0.5192
 3266TIP3   OH2 9754   1.637   0.074   6.016 -0.2331 -0.1768 -0.4572
 3266TIP3    H1 9755   1.651  -0.001   5.959  0.9990  0.2309 -0.7343
 3266TIP3    H2 9756   1.695   0.059   6.091  1.0236  1.0675 -1.1167
 3267TIP3   OH2 9757   7.402   3.382   6.764  0.6280 -0.1118 -0.5340
 3267TIP3    H1 9758   7.411   3.318   6.694  0.8728 -0.7068  0.0280
 3267TIP3    H2 9759   7.491   3.398   6.795  0.4078 -0.9621  0.6015
 3268TIP3   OH2 9760   2.405   3.974   3.347  0.0386  0.6051  0.4004
 3268TIP3    H1 9761   2.462   4.007   3.417  0.5863  0.2052  0.1463
 3268TIP3    H2 9762   2.317   3.984   3.382  0.3603 -1.0908  1.8256
 3269TIP3   OH2 9763   0.961   7.423   4.442 -0.3426  0.0445 -0.3702
 3269TIP3    H1 9764   0.955   7.340   4.395  0.0908  0.0277 -0.3924
 3269TIP3    H2 9765   1.052   7.429   4.470 -0.7036 -0.2131  0.9456
 3270TIP3   OH2 9766   6.627   4.127   0.558  0.0772  0.3805 -0.1359
 3270TIP3    H1 9767   6.688   4.200   0.549  0.8652 -0.1368  0.8902
 3270TIP3    H2 9768   6.575   4.149   0.635 -0.0662  0.1206 -0.1566
 3271TIP3   OH2 9769   1.503   6.887   5.381 -0.1159 -0.1781 -0.2938
 3271TIP3    H1 9770   1.413   6.900   5.351  0.0242 -0.3667 -0.7947
 3271TIP3    H2 9771   1.554   6.951   5.333 -0.5634  3.2269  3.2709
 3272TIP3   OH2 9772   5.856   7.452   0.358  0.5314 -0.4587  0.3702
 3272TIP3    H1 9773   5.795   7.443   0.431  1.6347 -0.0435  1.3887
 3272TIP3    H2 9774   5.938   7.415   0.391  0.8251 -1.0871 -0.9895
 3273TIP3   OH2 9775   1.694   4.170   6.506  0.6029  0.0817 -0.3075
 3273TIP3    H1 9776   1.610   4.137   6.476  1.0301 -0.4100 -1.0116
 3273TIP3    H2 9777   1.694   4.263   6.484  0.9335 -0.2813 -1.9469
 3274TIP3   OH2 9778   6.115   6.304   5.821 -0.1780 -0.3475 -0.1323
 3274TIP3    H1 9779   6.197   6.346   5.795  0.4572 -2.2818 -1.4884
 3274TIP3    H2 9780   6.115   6.309   5.916  0.2795  1.8486 -0.1981
 3275TIP3   OH2 9781   2.851   5.694   2.665  0.5364 -0.3254 -0.5723
 3275TIP3    H1 9782   2.945   5.696   2.648  0.5269  0.1376 -0.5898
 3275TIP3    H2 9783   2.810   5.707   2.580  0.4881  1.9318 -0.2760
 3276TIP3   OH2 9784   5.106   0.934   1.289  0.0947 -0.1623  0.2901
 3276TIP3    H1 9785   5.036   0.870   1.301  0.3860 -0.3645  0.9509
 3276TIP3    H2 9786   5.091   0.999   1.358 -0.2874  0.5702 -0.4630
 3277TIP3   OH2 9787   6.770   0.601   3.644 -0.1482 -0.3249 -0.4054
 3277TIP3    H1 9788   6.716   0.522   3.648  0.2220 -0.5406  0.4747
 3277TIP3    H2 9789   6.742   0.645   3.563 -0.8101 -1.0234 -0.5669
 3278TIP3   OH2 9790   7.429   2.595   2.097  0.3654  0.1849 -0.2840
 3278TIP3    H1 9791   7.343   2.595   2.139 -0.0920  2.4004 -1.0899
 3278TIP3    H2 9792   7.416   2.549   2.015  0.3013 -0.6678  0.1929
 3279TIP3   OH2 9793   0.022   3.148   2.068 -0.0005  0.5017 -0.0386
 3279TIP3    H1 9794   0.006   3.216   2.003  0.2543  0.4785 -0.1276
 3279TIP3    H2 9795   0.110   3.116   2.048 -0.9357 -1.4244 -1.4224
 3280TIP3   OH2 9796   3.784   4.163   6.094  0.0594 -0.0004  0.0071
 3280TIP3    H1 9797   3.717   4.140   6.029 -0.2382  2.7755 -0.8013
 3280TIP3    H2 9798   3.748   4.239   6.139  0.9511 -0.9232  2.4365
 3281TIP3   OH2 9799   7.093   1.106   2.233 -0.7466 -0.3296  0.5465
 3281TIP3    H1 9800   6.999   1.090   2.227 -0.5873 -0.8844 -0.6492
 3281TIP3    H2 9801   7.118   1.069   2.318 -1.4793 -0.8122  0.5608
 3282TIP3   OH2 9802   0.840   3.694   6.415 -0.1210  0.0811 -0.4206
 3282TIP3    H1 9803   0.857   3.662   6.503  0.9203  1.0528 -0.2524
 3282TIP3    H2 9804   0.746   3.714   6.415  0.0177  0.8114  0.7133
 3283TIP3   OH2 9805   1.974   0.702   0.233 -0.0519 -0.2536 -0.1340
 3283TIP3    H1 9806   1.909   0.772   0.235  0.4675  0.2301  1.3245
 3283TIP3    H2 9807   2.036   0.725   0.302  1.3975 -0.9684 -1.1451
 3284TIP3   OH2 9808   8.220   7.518   5.847 -0.4765  0.5373 -0.2634
 3284TIP3    H1 9809   8.283   7.500   5.917  1.7742  1.2600 -1.9642
 3284TIP3    H2 9810   8.202   7.433   5.809  1.1619  0.5021 -1.0546
 3285TIP3   OH2 9811   2.805  -0.018   4.202  0.0980  0.6478  0.3315
 3285TIP3    H1 9812   2.874  -0.018   4.269  0.9660  0.3507 -0.5484
 3285TIP3    H2 9813   2.808   0.070   4.165 -0.5379  0.8841  0.8290
 3286TIP3   OH2 9814   1.029   7.028   0.341 -0.0524 -0.1006  0.2152
 3286TIP3    H1 9815   1.008   7.041   0.248  0.2324 -0.0186  0.1621
 3286TIP3    H2 9816   0.946   7.042   0.386  0.1545  1.5374  0.1270
 3287TIP3   OH2 9817   6.754   4.924   3.154  0.0504  0.1583 -0.1504
 3287TIP3    H1 9818   6.756   4.848   3.213 -3.0721  0.4396  0.4912
 3287TIP3    H2 9819   6.800   4.993   3.202 -0.3868 -0.2798  0.9299
 3288TIP3   OH2 9820   1.124   4.571   1.538  0.1258  0.0695 -0.1905
 3288TIP3    H1 9821   1.103   4.483   1.507 -0.9607 -0.3196  1.4838
 3288TIP3    H2 9822   1.039   4.613   1.548  0.4914  0.5644  1.0173
 3289TIP3   OH2 9823   3.462   6.407   0.081  0.0211  0.0857 -0.2194
 3289TIP3    H1 9824   3.483   6.453   0.162  1.7256  0.6142 -0.9188
 3289TIP3    H2 9825   3.532   6.430   0.021 -1.0099 -0.5736 -1.7554
 3290TIP3   OH2 9826   6.671   4.352   1.644  0.1052  0.0022 -0.2955
 3290TIP3    H1 9827   6.619   4.321   1.570 -1.0357  1.9963 -0.4223
 3290TIP3    H2 9828   6.610   4.350   1.718  0.0009  1.7147 -0.2972
 3291TIP3   OH2 9829   2.189   0.603   3.427  0.5526 -0.0633 -0.0810
 3291TIP3    H1 9830   2.211   0.587   3.335 -0.3029  0.1717 -0.3344
 3291TIP3    H2 9831   2.184   0.516   3.466  0.2024 -0.2042 -0.4332
 3292TIP3   OH2 9832   6.076   4.553   3.740  0.1175 -0.2539  0.4773
 3292TIP3    H1 9833   6.149   4.578   3.797 -0.8106  1.5493  0.9434
 3292TIP3    H2 9834   6.034   4.480   3.785  1.3931 -1.0916  0.3738
 3293TIP3   OH2 9835   0.700   5.720   2.936 -0.0818 -1.2881 -0.3418
 3293TIP3    H1 9836   0.747   5.766   2.867  1.8244 -0.9999  1.0545
 3293TIP3    H2 9837   0.722   5.628   2.924  0.6121 -1.1904  0.1050
 3294TIP3   OH2 9838   5.078   4.980   1.280 -0.1737  0.1715  0.2152
 3294TIP3    H1 9839   5.165   4.977   1.241 -0.3583  2.0171 -0.4345
 3294TIP3    H2 9840   5.030   4.909   1.236  0.9931 -0.9362  0.6604
 3295TIP3   OH2 9841   7.700   1.452   4.708  0.1715  0.0528  0.0197
 3295TIP3    H1 9842   7.684   1.545   4.726  0.8959 -0.2005  2.1685
 3295TIP3    H2 9843   7.626   1.426   4.653 -0.2654  1.7904 -0.2755
 3296TIP3   OH2 9844   3.281   4.300   3.844 -0.3465 -0.3159  0.3605
 3296TIP3    H1 9845   3.265   4.383   3.799 -0.1400  0.0988  1.0277
 3296TIP3    H2 9846   3.202   4.249   3.830  0.0496 -0.5423 -1.1983
 3297TIP3   OH2 9847   4.945   6.794   1.205  0.2064 -0.1891 -0.1396
 3297TIP3    H1 9848   4.931   6.875   1.253  0.2470 -1.4302  2.0781
 3297TIP3    H2 9849   5.040   6.781   1.208  0.1652 -0.5019 -0.1834
 3298TIP3   OH2 9850   2.534   1.936   3.465 -0.6415  0.2130 -0.1698
 3298TIP3    H1 9851   2.529   1.947   3.559  0.5516  1.6180 -0.2306
 3298TIP3    H2 9852   2.451   1.970   3.432 -0.4485  1.1767  0.2939
 3299TIP3   OH2 9853   4.247   1.761   4.570  0.6868 -0.9926 -0.3565
 3299TIP3    H1 9854   4.155   1.763   4.543  0.6316 -2.7635 -0.3791
 3299TIP3    H2 9855   4.265   1.850   4.600 -1.1914 -0.7458  0.1473
 3300TIP3   OH2 9856   6.719   3.975   0.347 -0.1056 -0.1645  0.4582
 3300TIP3    H1 9857   6.814   3.975   0.347 -0.0520  1.7112 -0.3793
 3300TIP3    H2 9858   6.694   4.001   0.436  0.3169  2.4819 -0.0957
 3301TIP3   OH2 9859   0.410   4.183   2.718  0.1610  0.3949  0.3350
 3301TIP3    H1 9860   0.351   4.194   2.643 -3.9595  0.1041  3.1742
 3301TIP3    H2 9861   0.429   4.272   2.747 -0.7048  0.5040  0.6083
 3302TIP3   OH2 9862   3.266   3.473   1.752  0.0799  0.0080 -0.1724
 3302TIP3    H1 9863   3.196   3.531   1.723 -0.8857  0.0538  2.1120
 3302TIP3    H2 9864   3.233   3.432   1.831  1.5206 -2.2108 -0.6289
 3303TIP3   OH2 9865   0.870   4.068   5.913 -0.2482 -0.0873  0.5771
 3303TIP3    H1 9866   0.955   4.068   5.870 -0.8041  3.2203 -0.7852
 3303TIP3    H2 9867   0.888   4.095   6.003  0.2118 -0.4979  0.6136
 3304TIP3   OH2 9868   0.782   5.231   5.521  0.4615  0.2787  0.4096
 3304TIP3    H1 9869   0.860   5.258   5.569 -0.2485  1.4193  0.9705
 3304TIP3    H2 9870   0.717   5.298   5.541 -1.4119 -1.8320  1.8539
 3305TIP3   OH2 9871   7.510   6.365   5.319  0.0520  0.4476  0.5348
 3305TIP3    H1 9872   7.449   6.418   5.267 -0.1139 -0.7576 -0.5583
 3305TIP3    H2 9873   7.550   6.305   5.255  0.2798 -0.6850  1.7024
 3306TIP3   OH2 9874   6.938   2.709   2.845  0.1985  0.3703 -0.0265
 3306TIP3    H1 9875   6.964   2.678   2.758  0.4513  1.7146 -0.4565
 3306TIP3    H2 9876   6.922   2.629   2.895 -2.8384 -0.5108 -2.1185
 3307TIP3   OH2 9877   2.020   6.068   0.231  0.0685  0.3429 -0.1701
 3307TIP3    H1 9878   1.996   6.052   0.323  1.1244  1.2061  0.2857
 3307TIP3    H2 9879   2.109   6.033   0.223 -0.0431  0.2190 -0.8837
 3308TIP3   OH2 9880   3.824   5.019   1.657  0.0702 -0.4852  0.3823
 3308TIP3    H1 9881   3.762   5.069   1.603  1.6671 -0.0453 -1.1413
 3308TIP3    H2 9882   3.818   5.059   1.744  0.9644  2.1689 -0.6570
 3309TIP3   OH2 9883   3.945   3.141   2.903  0.5661 -0.1912 -0.5219
 3309TIP3    H1 9884   3.866   3.115   2.857  0.8560 -0.5422 -0.8263
 3309TIP3    H2 9885   3.955   3.076   2.973 -0.9092  1.3773  1.2837
 3310TIP3   OH2 9886   0.191   6.351   3.810 -0.1859 -0.0703 -0.1814
 3310TIP3    H1 9887   0.283   6.375   3.827 -0.5779  0.6889  1.0250
 3310TIP3    H2 9888   0.191   6.320   3.720  1.6506 -2.0882  0.4163
 3311TIP3   OH2 9889   8.059   0.847   5.494  0.2411  0.0834 -0.0160
 3311TIP3    H1 9890   7.990   0.857   5.560 -0.4498 -1.1227 -0.5073
 3311TIP3    H2 9891   8.014   0.806   5.420  1.6003 -1.2086 -0.1612
 3312TIP3   OH2 9892   3.774   7.458   4.925 -0.4118 -0.4507 -0.4024
 3312TIP3    H1 9893   3.732   7.515   4.861  0.1938  0.4786  0.0099
 3312TIP3    H2 9894   3.784   7.512   5.003 -1.1414 -1.5636  0.5043
 3313TIP3   OH2 9895   1.723   6.779   2.613  0.0603 -0.1325 -0.3730
 3313TIP3    H1 9896   1.813   6.786   2.644  0.4034 -1.8259 -0.8946
 3313TIP3    H2 9897   1.680   6.722   2.677 -0.9129  1.3014  0.3340
 3314TIP3   OH2 9898   8.025   0.901   4.947 -0.6252 -0.1050 -0.0676
 3314TIP3    H1 9899   8.087   0.899   4.874 -1.6333 -0.8166 -0.9521
 3314TIP3    H2 9900   7.969   0.977   4.930  0.6659  1.2302  1.3497
 3315TIP3   OH2 9901   7.150   4.837   0.758 -0.2682 -0.0914 -0.1993
 3315TIP3    H1 9902   7.245   4.838   0.745 -0.2254 -0.2578  0.0779
 3315TIP3    H2 9903   7.125   4.745   0.744 -0.2083 -0.2980  0.9064
 3316TIP3   OH2 9904   4.595   5.306   3.021 -0.4733  0.6142 -0.1212
 3316TIP3    H1 9905   4.556   5.273   3.102 -0.8640  0.3894 -0.3920
 3316TIP3    H2 9906   4.539   5.271   2.952  0.8000 -0.6000 -0.5962
 3317TIP3   OH2 9907   1.654   4.427   5.676 -0.0950 -0.3638  0.3109
 3317TIP3    H1 9908   1.734   4.386   5.643 -0.2768  0.0915 -0.7554
 3317TIP3    H2 9909   1.584   4.369   5.649 -0.6086  1.6136 -3.3096
 3318TIP3   OH2 9910   3.545   5.082   4.922 -0.0996  0.0402 -1.0298
 3318TIP3    H1 9911   3.485   5.155   4.940  0.7268  0.7395 -1.0707
 3318TIP3    H2 9912   3.586   5.064   5.006  0.7648  0.5940 -1.3267
 3319TIP3   OH2 9913   3.547   5.378   2.185 -0.1790 -0.1786 -0.5941
 3319TIP3    H1 9914   3.516   5.361   2.274  1.6588  0.4488  0.2208
 3319TIP3    H2 9915   3.613   5.310   2.170  2.6074  2.1579  0.2283
 3320TIP3   OH2 9916   1.745   1.593   0.059  0.1563  0.5890  0.2644
 3320TIP3    H1 9917   1.746   1.606   0.154  0.5769  1.4195  0.1642
 3320TIP3    H2 9918   1.786   1.673   0.024  0.2414  0.1796 -0.5997
 3321TIP3   OH2 9919   7.095   0.204   0.634 -0.5614  0.3350  0.2968
 3321TIP3    H1 9920   7.037   0.215   0.709  1.1871  0.2295  1.7253
 3321TIP3    H2 9921   7.149   0.283   0.634  0.9225 -0.6549  0.5005
 3322TIP3   OH2 9922   5.531   7.584   4.930  0.8325  0.0190  0.4360
 3322TIP3    H1 9923   5.492   7.503   4.962  0.1038  0.2372  0.1399
 3322TIP3    H2 9924   5.616   7.558   4.894  0.2556 -0.7557 -0.4132
 3323TIP3   OH2 9925   0.577   2.311   4.752 -0.2231 -0.2867 -0.3804
 3323TIP3    H1 9926   0.625   2.385   4.716 -0.7393  1.2069  1.8137
 3323TIP3    H2 9927   0.638   2.271   4.814 -0.0247 -1.6197 -1.3899
 3324TIP3   OH2 9928   3.592   1.988   5.923 -0.1993 -0.0508 -0.1137
 3324TIP3    H1 9929   3.500   1.985   5.948  0.2884  1.0768  2.1087
 3324TIP3    H2 9930   3.628   2.061   5.973  2.0825 -0.9915 -0.2545
 3325TIP3   OH2 9931   5.776   6.325   5.601 -0.3827  0.0995 -0.0370
 3325TIP3    H1 9932   5.840   6.346   5.670 -1.5530 -0.6318  1.3352
 3325TIP3    H2 9933   5.791   6.233   5.581  1.2622  0.7724 -2.2584
 3326TIP3   OH2 9934   7.121   1.428   1.201 -0.2439  0.4275  0.5884
 3326TIP3    H1 9935   7.031   1.426   1.168  0.8597 -1.5952 -2.7536
 3326TIP3    H2 9936   7.154   1.515   1.178 -0.6088  0.3009 -0.4287
 3327TIP3   OH2 9937   7.162   6.587   1.272  0.0899 -0.5322 -0.0450
 3327TIP3    H1 9938   7.235   6.636   1.233 -0.3456 -1.0052 -1.5315
 3327TIP3    H2 9939   7.166   6.608   1.365 -0.5161  2.9873 -0.6375
 3328TIP3   OH2 9940   0.419   6.379   1.252  0.9823  0.0673 -0.3796
 3328TIP3    H1 9941   0.456   6.400   1.167  0.6532  0.3564 -0.4525
 3328TIP3    H2 9942   0.424   6.283   1.258  2.1228  0.1282 -0.2117
 3329TIP3   OH2 9943   6.043   6.194   0.132 -0.0741 -0.3600  0.0765
 3329TIP3    H1 9944   5.961   6.228   0.169  0.6724 -0.2115  1.7075
 3329TIP3    H2 9945   6.111   6.238   0.182  0.9733 -1.7102 -0.1044
 3330TIP3   OH2 9946   7.580   4.749   3.846 -0.1882 -0.1774  0.0952
 3330TIP3    H1 9947   7.595   4.758   3.752  1.8937  1.4515  0.4953
 3330TIP3    H2 9948   7.668   4.750   3.884 -1.0160 -0.0369  2.1253
 3331TIP3   OH2 9949   7.757   6.504   1.259  0.2978 -0.0634  0.2092
 3331TIP3    H1 9950   7.786   6.429   1.209 -1.0467  0.1802 -1.0030
 3331TIP3    H2 9951   7.825   6.570   1.246  1.0191 -0.7327  0.5165
 3332TIP3   OH2 9952   4.343   1.091   0.374 -0.5431  0.0711 -0.5714
 3332TIP3    H1 9953   4.278   1.128   0.314 -2.1143 -0.4560  0.7124
 3332TIP3    H2 9954   4.411   1.157   0.380 -0.7071  0.4379 -2.3474
 3333TIP3   OH2 9955   8.177   5.131   6.637 -0.0563  0.5534 -0.3103
 3333TIP3    H1 9956   8.132   5.189   6.575 -1.3514  1.4319  1.3555
 3333TIP3    H2 9957   8.110   5.067   6.662 -0.1409  1.2219  1.3832
 3334TIP3   OH2 9958   1.662   1.130   0.320 -0.9029  0.1325 -0.0605
 3334TIP3    H1 9959   1.622   1.048   0.347  1.4121 -0.9274  0.3930
 3334TIP3    H2 9960   1.751   1.107   0.296  0.6544  2.8109  2.3957
 3335TIP3   OH2 9961   2.290   4.481   6.254 -0.2257 -0.0692  0.1253
 3335TIP3    H1 9962   2.277   4.401   6.202 -1.7462 -0.3376  0.8799
 3335TIP3    H2 9963   2.280   4.552   6.192  0.3152 -0.4290 -0.3925
 3336TIP3   OH2 9964   4.550   7.382   4.493  0.0094 -0.4109  0.2480
 3336TIP3    H1 9965   4.639   7.394   4.463  1.1532  1.1301  3.6728
 3336TIP3    H2 9966   4.503   7.460   4.462  0.2006 -0.5542 -0.4085
 3337TIP3   OH2 9967   7.704   7.007   4.473  0.4772 -0.0281  0.2811
 3337TIP3    H1 9968   7.778   7.018   4.534  0.3637 -0.1783  0.4459
 3337TIP3    H2 9969   7.681   7.097   4.448  0.6451  0.0249  0.3159
 3338TIP3   OH2 9970   1.332   0.129   0.979 -0.0401 -0.1141 -0.4750
 3338TIP3    H1 9971   1.307   0.204   1.033  0.0810 -0.5085  0.1440
 3338TIP3    H2 9972   1.367   0.167   0.899  0.0605  0.4954 -0.1448
 3339TIP3   OH2 9973   4.085   0.593   2.174 -0.2889 -0.1118  0.5590
 3339TIP3    H1 9974   4.031   0.515   2.161 -2.0097  1.1870 -0.3947
 3339TIP3    H2 9975   4.050   0.632   2.254 -1.7079  1.4101 -0.7328
 3340TIP3   OH2 9976   1.083   2.545   6.529  0.4092 -0.0902 -0.2749
 3340TIP3    H1 9977   1.164   2.540   6.580 -0.6274  0.5271  1.5090
 3340TIP3    H2 9978   1.113   2.542   6.438  2.4681  0.5835  0.3136
 3341TIP3   OH2 9979   1.461   1.020   1.449  0.4300  0.7049  0.4725
 3341TIP3    H1 9980   1.423   1.085   1.508 -2.0501  0.3561 -0.6323
 3341TIP3    H2 9981   1.546   1.056   1.425 -1.2771  4.2018 -0.9738
 3342TIP3   OH2 9982   6.500   5.704   3.017 -0.0528  0.5283  0.2518
 3342TIP3    H1 9983   6.473   5.784   3.062 -0.5481  0.7199 -0.3757
 3342TIP3    H2 9984   6.553   5.734   2.944  1.1954  0.1880  0.9922
 3343TIP3   OH2 9985   6.509   0.676   1.089  0.4906 -0.0131  0.4050
 3343TIP3    H1 9986   6.507   0.581   1.102 -1.5672  0.1783  2.0579
 3343TIP3    H2 9987   6.464   0.689   1.005 -0.4784 -0.4416  0.8432
 3344TIP3   OH2 9988   7.402   5.765   6.606 -0.3163  0.3103 -0.1217
 3344TIP3    H1 9989   7.457   5.774   6.528  0.9707 -0.6412  0.6382
 3344TIP3    H2 9990   7.320   5.728   6.573  0.8935 -1.9132 -0.8388
 3345TIP3   OH2 9991   3.754   0.807   4.624 -0.0666 -0.1962  0.0056
 3345TIP3    H1 9992   3.707   0.812   4.541 -0.1906 -0.9502  0.0198
 3345TIP3    H2 9993   3.711   0.736   4.672  2.1331 -2.1077 -0.6844
 3346TIP3   OH2 9994   1.519   5.008   5.390  0.1761  0.2781 -0.1643
 3346TIP3    H1 9995   1.424   5.009   5.381  0.2472  0.5002 -0.9530
 3346TIP3    H2 9996   1.544   4.916   5.380  0.1115  0.3212 -0.7470
 3347TIP3   OH2 9997   5.937   6.551   2.501 -0.2735  0.3368  0.2805
 3347TIP3    H1 9998   6.015   6.526   2.550  0.2801  1.9052  0.2823
 3347TIP3    H2 9999   5.892   6.613   2.559 -1.2022 -0.0740  0.0210
 3348TIP3   OH210000   0.424   2.396   0.330 -0.6389 -0.3046 -0.3876
 3348TIP3    H110001   0.409   2.485   0.298  0.0364  0.3111  0.9103
 3348TIP3    H210002   0.471   2.352   0.259 -1.9607  0.0135 -1.4894
 3349TIP3   OH210003   3.593   1.449   5.732  0.2192  0.3420  0.4730
 3349TIP3    H110004   3.539   1.385   5.779 -0.6336  0.5216 -0.2357
 3349TIP3    H210005   3.537   1.527   5.725  1.3288  1.2731  1.5273
 3350TIP3   OH210006   8.236   6.109   0.914  0.1731  0.2095 -0.2447
 3350TIP3    H110007   8.313   6.161   0.937  0.2358  0.1313 -0.2769
 3350TIP3    H210008   8.270   6.041   0.857  0.1784 -0.1899  0.2273
 3351TIP3   OH210009   6.146   3.280   6.519 -0.1398  0.2153 -0.1263
 3351TIP3    H110010   6.071   3.329   6.552  0.4299  0.2599  1.1774
 3351TIP3    H210011   6.219   3.309   6.573  0.3203 -1.6715  0.3577
 3352TIP3   OH210012   4.888   2.618   5.042  0.2216  0.1103 -0.2947
 3352TIP3    H110013   4.883   2.662   5.127 -0.0295  0.3235 -0.4191
 3352TIP3    H210014   4.980   2.595   5.032  0.4442  1.0117 -0.4334
 3353TIP3   OH210015   5.761   6.892   4.347 -0.5245 -0.4084  0.3068
 3353TIP3    H110016   5.734   6.836   4.420  0.4030  1.4407  2.1911
 3353TIP3    H210017   5.851   6.917   4.369 -0.4822  0.7975 -1.0952
 3354TIP3   OH210018   0.850   2.767   3.286  0.3735  0.3384  0.2703
 3354TIP3    H110019   0.827   2.718   3.365  3.2789 -1.2132  0.3088
 3354TIP3    H210020   0.811   2.717   3.214  0.7271 -0.2917  0.5133
 3355TIP3   OH210021   7.941   7.515   3.104  0.3432 -0.3121  0.1680
 3355TIP3    H110022   7.970   7.437   3.151 -1.4449 -1.3428 -0.3064
 3355TIP3    H210023   8.021   7.553   3.068  1.2761 -1.9857  0.3438
 3356TIP3   OH210024   4.781   1.875   0.375 -0.5818  0.0221 -0.6261
 3356TIP3    H110025   4.786   1.912   0.463  1.4091 -2.3728  0.3846
 3356TIP3    H210026   4.702   1.822   0.376  0.1411 -1.0733  0.2268
 3357TIP3   OH210027   3.907   1.086   0.095  0.2795 -0.3699  0.8428
 3357TIP3    H110028   3.876   1.164   0.141  0.5122 -0.4749  1.1812
 3357TIP3    H210029   3.943   1.030   0.164  1.1871 -0.2616  0.4647
 3358TIP3   OH210030   5.268   2.649   3.374 -0.3350  0.4328  0.1018
 3358TIP3    H110031   5.231   2.663   3.461 -0.5647  1.6838 -0.1740
 3358TIP3    H210032   5.214   2.703   3.317 -0.0930 -0.2565 -0.8011
 3359TIP3   OH210033   6.570   0.473   1.518 -0.2518 -0.5933 -0.2358
 3359TIP3    H110034   6.476   0.462   1.504 -0.8523  1.0606  2.0711
 3359TIP3    H210035   6.597   0.532   1.447 -0.5621 -2.2581 -1.8349
 3360TIP3   OH210036   2.913   5.029   3.533  0.2523 -0.0249 -0.1313
 3360TIP3    H110037   2.940   5.120   3.544 -1.7763  0.5793  0.4175
 3360TIP3    H210038   2.905   4.995   3.622 -1.7604  0.1922 -0.1829
 3361TIP3   OH210039   7.798   2.401   4.485 -0.0104 -0.1975  0.5724
 3361TIP3    H110040   7.717   2.404   4.536 -1.6467  0.2314 -1.8844
 3361TIP3    H210041   7.845   2.481   4.508 -1.9563  1.3101 -0.4386
 3362TIP3   OH210042   5.585   3.626   5.228 -0.3146  0.1660  0.3970
 3362TIP3    H110043   5.659   3.681   5.203  0.3466 -0.9625 -0.1749
 3362TIP3    H210044   5.620   3.537   5.234 -1.6505 -0.4333 -0.0873
 3363TIP3   OH210045   4.713   6.571   6.408  0.7352 -0.3338 -0.2782
 3363TIP3    H110046   4.699   6.652   6.457 -0.1785 -1.6408  1.7599
 3363TIP3    H210047   4.729   6.600   6.318 -0.5503  2.0592  0.1733
 3364TIP3   OH210048   8.058   0.474   5.826  0.2620  0.2275  0.2879
 3364TIP3    H110049   8.108   0.542   5.781  0.3307 -1.5199 -2.5584
 3364TIP3    H210050   8.122   0.428   5.880  0.6926  0.9609  0.4064
 3365TIP3   OH210051   1.682   4.091   2.876 -0.4822 -0.2931  0.2706
 3365TIP3    H110052   1.713   4.180   2.896 -0.2245 -0.4224  0.4460
 3365TIP3    H210053   1.591   4.091   2.903 -0.5859  0.0313 -0.0680
 3366TIP3   OH210054   7.622   3.274   0.930  0.3514 -0.0139 -0.3513
 3366TIP3    H110055   7.718   3.269   0.929  0.3765  0.1057  0.8016
 3366TIP3    H210056   7.602   3.339   0.997 -0.5141  0.8634 -1.4227
 3367TIP3   OH210057   6.956   6.157   2.244 -0.1270 -0.3645 -0.6535
 3367TIP3    H110058   7.044   6.120   2.249 -0.2966 -0.8319 -1.0617
 3367TIP3    H210059   6.900   6.090   2.284 -0.3201 -0.1324 -0.5316
 3368TIP3   OH210060   0.103   7.681   4.638 -0.0428 -0.2275  0.1856
 3368TIP3    H110061   0.010   7.672   4.661  0.0781 -0.6619  0.5156
 3368TIP3    H210062   0.148   7.616   4.692  0.2644 -1.2314 -1.2083
 3369TIP3   OH210063   6.377   7.045   4.379 -0.4162 -0.0721 -0.7907
 3369TIP3    H110064   6.421   7.046   4.294 -0.8839 -1.1822 -1.0632
 3369TIP3    H210065   6.447   7.056   4.443  0.4384 -2.5938 -1.1664
 3370TIP3   OH210066   0.383   2.698   4.632  0.0099  0.1462  0.2338
 3370TIP3    H110067   0.396   2.750   4.711  0.3105  1.0763 -0.4159
 3370TIP3    H210068   0.376   2.762   4.561  1.4366 -0.7172 -0.7375
 3371TIP3   OH210069   4.600   5.732   1.265 -0.6697  0.6280  0.0768
 3371TIP3    H110070   4.632   5.672   1.332  0.2753  0.6372 -0.3627
 3371TIP3    H210071   4.605   5.818   1.306 -0.3789  0.6022  0.0945
 3372TIP3   OH210072   4.639   1.082   5.866 -0.0337  0.0741  0.4630
 3372TIP3    H110073   4.565   1.087   5.805 -1.0457  3.2944  1.7441
 3372TIP3    H210074   4.716   1.072   5.809 -1.2337 -1.3331 -1.0196
 3373TIP3   OH210075   1.147   6.562   3.723  0.3223  0.2060  0.2826
 3373TIP3    H110076   1.099   6.482   3.745 -1.5281  0.0223 -3.5952
 3373TIP3    H210077   1.227   6.531   3.680 -0.3426  0.3477 -1.1213
 3374TIP3   OH210078   0.585   6.807   6.721 -0.1201 -0.1147  0.2856
 3374TIP3    H110079   0.645   6.823   6.793 -1.4301  3.6417  0.7409
 3374TIP3    H210080   0.636   6.829   6.642 -0.3212  1.3520  0.5407
 3375TIP3   OH210081   0.101   2.280   0.672  0.1846 -0.6548  0.0311
 3375TIP3    H110082   0.100   2.352   0.609  0.8438 -0.6240  0.0491
 3375TIP3    H210083   0.108   2.324   0.757 -0.1436 -0.7165  0.0911
 3376TIP3   OH210084   7.560   3.431   1.484  0.3801 -0.4818 -0.1098
 3376TIP3    H110085   7.653   3.418   1.462  0.5148 -0.3139  0.3465
 3376TIP3    H210086   7.562   3.464   1.574 -0.1138 -0.2832 -0.1732
 3377TIP3   OH210087   0.923   7.468   0.100 -0.3067  0.5012  0.4914
 3377TIP3    H110088   0.836   7.505   0.085 -0.7096 -0.1332  1.2246
 3377TIP3    H210089   0.961   7.459   0.012 -1.4413 -0.3350  0.0670
 3378TIP3   OH210090   5.613   4.797   4.546 -0.0617 -0.3566 -0.2799
 3378TIP3    H110091   5.693   4.748   4.526 -0.3768 -0.9001 -0.2340
 3378TIP3    H210092   5.584   4.831   4.461  0.1737 -0.2303 -0.3082
 3379TIP3   OH210093   7.624   3.355   1.881 -0.2524  0.0217 -0.2357
 3379TIP3    H110094   7.551   3.338   1.821  1.3847  0.2371 -2.4390
 3379TIP3    H210095   7.656   3.268   1.904 -1.6294 -0.1014  1.3927
 3380TIP3   OH210096   2.055   5.195   5.429  0.0673  0.3202  0.6179
 3380TIP3    H110097   2.097   5.181   5.514 -0.2125  1.2547  0.9130
 3380TIP3    H210098   2.059   5.289   5.416 -1.3526  0.3484  0.3367
 3381TIP3   OH210099   1.045   6.011   3.605  0.5974 -0.4588 -0.4683
 3381TIP3    H110100   0.962   5.999   3.650  1.7797 -0.6913  1.8186
 3381TIP3    H210101   1.021   6.037   3.516 -1.8957  1.0904  0.5512
 3382TIP3   OH210102   5.534   3.267   4.832  0.1145 -0.7765  0.0361
 3382TIP3    H110103   5.552   3.240   4.742 -0.4552 -1.0484 -0.0016
 3382TIP3    H210104   5.450   3.225   4.853  0.1035 -0.4811  0.5933
 3383TIP3   OH210105   5.271   3.647   4.798  0.3153 -0.6616  0.4801
 3383TIP3    H110106   5.358   3.680   4.774 -0.5384  1.1609 -0.2660
 3383TIP3    H210107   5.270   3.651   4.894  0.6116  0.5425  0.4454
 3384TIP3   OH210108   2.217   6.337   3.339 -0.0237  0.8914  0.7092
 3384TIP3    H110109   2.125   6.333   3.313  0.8273 -2.5676 -2.6710
 3384TIP3    H210110   2.225   6.272   3.409 -0.1300  1.0323  0.8512
 3385TIP3   OH210111   4.404   3.201   5.077 -0.1698  0.1130 -0.0324
 3385TIP3    H110112   4.459   3.179   5.152 -0.4717 -3.1812 -0.6037
 3385TIP3    H210113   4.446   3.156   5.003 -0.6308  2.1286 -1.5992
 3386TIP3   OH210114   2.558   0.912   3.128 -0.6930  0.1055 -0.0290
 3386TIP3    H110115   2.516   0.874   3.051 -0.2583  1.4855 -0.9915
 3386TIP3    H210116   2.646   0.935   3.099  0.5463 -2.0548  1.7520
 3387TIP3   OH210117   7.669   3.673   5.088  0.2018 -0.3000  0.1727
 3387TIP3    H110118   7.742   3.729   5.062  0.6680 -1.1154 -0.3226
 3387TIP3    H210119   7.695   3.585   5.061 -1.0736 -0.5794 -0.2510
 3388TIP3   OH210120   6.938   6.175   3.045  0.3767 -0.2489  0.3541
 3388TIP3    H110121   6.922   6.269   3.036  2.0563  0.0556  0.1918
 3388TIP3    H210122   6.952   6.162   3.139  1.1952 -0.1250  0.2604
 3389TIP3   OH210123   6.047   3.491   1.968 -0.1937 -0.2536  0.8679
 3389TIP3    H110124   6.108   3.479   2.040  1.1345 -1.8809 -0.4372
 3389TIP3    H210125   6.097   3.540   1.902 -0.8431 -0.1896  0.4140
 3390TIP3   OH210126   0.288   7.746   6.056  0.5153 -0.3213  0.0312
 3390TIP3    H110127   0.350   7.675   6.071  1.5400  0.3195 -1.0472
 3390TIP3    H210128   0.321   7.819   6.109  0.3099 -0.1681 -0.0495
 3391TIP3   OH210129   0.672   1.548   6.710 -0.2006  0.0896  0.5568
 3391TIP3    H110130   0.686   1.638   6.680  0.3386  0.3901  1.6590
 3391TIP3    H210131   0.681   1.495   6.631 -2.2170  1.1195 -0.4469
 3392TIP3   OH210132   5.559   7.170   3.114 -0.5185  0.3132  0.7786
 3392TIP3    H110133   5.467   7.180   3.088 -0.3426 -0.4825 -0.1950
 3392TIP3    H210134   5.567   7.224   3.193 -2.2503 -0.9602  1.9104
 3393TIP3   OH210135   0.631   1.474   6.180 -0.0969 -0.3640  1.0312
 3393TIP3    H110136   0.701   1.518   6.132  0.5980  0.1351  2.4318
 3393TIP3    H210137   0.555   1.531   6.170 -0.5251 -1.2284 -1.0376
 3394TIP3   OH210138   2.757   3.954   0.668 -0.1951  0.0752  0.2896
 3394TIP3    H110139   2.675   3.914   0.697 -0.2507  0.3069  0.4542
 3394TIP3    H210140   2.733   4.044   0.646 -0.5586 -0.5827 -2.3137
 3395TIP3   OH210141   1.621   4.906   1.492  0.2064 -0.0320 -0.1628
 3395TIP3    H110142   1.551   4.929   1.553 -1.2027  0.8272 -1.9992
 3395TIP3    H210143   1.695   4.883   1.548 -1.8781 -2.2136  1.9084
 3396TIP3   OH210144   8.265   1.982   1.940 -0.5174 -0.2439 -0.6468
 3396TIP3    H110145   8.330   1.977   2.010 -0.8884 -1.1835 -0.3530
 3396TIP3    H210146   8.227   2.069   1.949  0.7131  0.3336 -0.8474
 3397TIP3   OH210147   0.124   6.184   1.497  0.0730  0.2145  0.6128
 3397TIP3    H110148   0.047   6.185   1.553 -0.1279 -0.9713  0.3951
 3397TIP3    H210149   0.171   6.104   1.523  0.7009  0.3976  0.0648
 3398TIP3   OH210150   2.650   1.403   4.637  0.7838 -0.5123  0.0120
 3398TIP3    H110151   2.647   1.486   4.684 -0.8940 -0.9389  0.7023
 3398TIP3    H210152   2.722   1.355   4.679  0.6538 -0.0745  0.7502
 3399TIP3   OH210153   1.310   7.283   6.538  0.8382  0.0593 -0.7404
 3399TIP3    H110154   1.352   7.279   6.623  0.8145  1.3155 -0.6655
 3399TIP3    H210155   1.375   7.322   6.480  1.3006 -1.8730 -1.6046
 3400TIP3   OH210156   8.258   6.490   0.357  0.1388 -0.3057 -0.2805
 3400TIP3    H110157   8.343   6.535   0.352 -0.0504  0.2557  1.1475
 3400TIP3    H210158   8.260   6.444   0.441 -1.6796  1.2877  0.7237
 3401TIP3   OH210159   3.380   1.883   3.871  0.0351  0.8183 -0.1523
 3401TIP3    H110160   3.355   1.821   3.940 -2.1155  2.5046  0.6870
 3401TIP3    H210161   3.344   1.845   3.791  1.1575 -0.3413 -0.1526
 3402TIP3   OH210162   3.214   6.001   5.021 -0.1209  0.2713  0.5580
 3402TIP3    H110163   3.291   6.021   4.968  0.4669  1.2511  1.7420
 3402TIP3    H210164   3.140   6.015   4.962  0.5693 -0.5705 -0.5629
 3403TIP3   OH210165   0.216   0.279   3.731 -0.0682 -0.2859  0.2074
 3403TIP3    H110166   0.155   0.340   3.773  1.0039  1.1542 -0.2506
 3403TIP3    H210167   0.165   0.238   3.662 -0.9170 -0.2053  0.7643
 3404TIP3   OH210168   2.096   6.455   1.835 -0.1018  0.5773 -0.7363
 3404TIP3    H110169   2.057   6.519   1.776  0.4413  0.1631 -1.5771
 3404TIP3    H210170   2.097   6.498   1.921 -1.1176  1.1054 -0.9753
 3405TIP3   OH210171   0.350   6.702   5.389 -0.0165 -0.8196  0.1363
 3405TIP3    H110172   0.362   6.711   5.294 -0.7844 -0.5124  0.0630
 3405TIP3    H210173   0.397   6.776   5.426  0.2696 -0.9293  0.0009
 3406TIP3   OH210174   6.946   3.480   1.714  0.4421 -0.1633 -0.0495
 3406TIP3    H110175   6.983   3.429   1.643  0.1068 -2.0291  1.0392
 3406TIP3    H210176   6.980   3.440   1.794 -1.1856  0.2056  0.8993
 3407TIP3   OH210177   3.969   6.543   6.356  0.2973 -0.2423 -0.4311
 3407TIP3    H110178   3.969   6.488   6.434  0.7262  1.1018  0.5400
 3407TIP3    H210179   3.877   6.563   6.341  0.0359 -1.8717 -1.3095
 3408TIP3   OH210180   6.522   6.939   2.891 -0.5025  0.1234 -0.2731
 3408TIP3    H110181   6.495   6.946   2.800 -1.2442  0.7158 -0.0121
 3408TIP3    H210182   6.466   7.000   2.938 -0.2829 -0.3408  0.6173
 3409TIP3   OH210183   7.200   3.982   1.893  0.3479  0.0656 -0.5752
 3409TIP3    H110184   7.155   4.067   1.886 -0.0061 -0.0416  0.2398
 3409TIP3    H210185   7.152   3.936   1.961  0.0970 -1.0876 -1.5134
 3410TIP3   OH210186   7.357   1.413   1.759 -0.5493  0.4461  0.4472
 3410TIP3    H110187   7.263   1.431   1.760 -0.7582 -0.5607 -0.2076
 3410TIP3    H210188   7.377   1.398   1.667  0.0218 -0.5286  0.7203
 3411TIP3   OH210189   7.563   5.407   3.875 -0.1628 -0.0038  0.2233
 3411TIP3    H110190   7.608   5.489   3.855 -0.3628  0.4010  1.3575
 3411TIP3    H210191   7.509   5.427   3.952 -0.4171 -1.1278  0.3589
 3412TIP3   OH210192   2.219   4.316   0.094  0.8396 -0.1199  0.0640
 3412TIP3    H110193   2.129   4.289   0.113  0.4866  0.6694 -0.4176
 3412TIP3    H210194   2.210   4.379   0.022  1.7435  0.2829  0.2922
 3413TIP3   OH210195   3.983   5.395   5.135  0.1422 -0.4321  0.1927
 3413TIP3    H110196   3.904   5.391   5.080  0.8352 -0.4175 -0.8260
 3413TIP3    H210197   4.046   5.340   5.090  1.3958  1.2041 -0.1297
 3414TIP3   OH210198   3.082   1.483   5.097  0.5554 -0.3125  0.2594
 3414TIP3    H110199   3.059   1.506   5.007 -0.3505 -1.5014  0.1669
 3414TIP3    H210200   3.129   1.400   5.089  0.7185 -0.2830  0.8688
 3415TIP3   OH210201   4.949   0.815   4.462 -0.1960 -0.0882 -0.4354
 3415TIP3    H110202   5.032   0.831   4.507 -1.0247 -1.4066  1.7191
 3415TIP3    H210203   4.951   0.875   4.387  2.5804  0.0722 -0.3549
 3416TIP3   OH210204   1.032   0.459   0.540  0.0634  0.5071  0.7375
 3416TIP3    H110205   1.067   0.544   0.512 -1.8855  0.7733 -1.2395
 3416TIP3    H210206   1.109   0.405   0.554  1.3878  1.3263 -2.3521
 3417TIP3   OH210207   1.008   5.193   0.412 -0.6856 -0.4712  0.2966
 3417TIP3    H110208   0.937   5.252   0.437 -1.1104 -0.5414 -0.6803
 3417TIP3    H210209   0.995   5.115   0.466 -2.8107 -1.4588 -1.4893
 3418TIP3   OH210210   7.261   2.865   2.114 -0.0046  0.0509  0.4130
 3418TIP3    H110211   7.274   2.840   2.205 -1.0873  2.1040  1.1837
 3418TIP3    H210212   7.304   2.950   2.106 -1.6770  0.8748 -0.3941
 3419TIP3   OH210213   4.335   0.843   1.622 -0.0377  0.2737 -0.1434
 3419TIP3    H110214   4.320   0.753   1.651  1.0524  0.3641  0.7883
 3419TIP3    H210215   4.260   0.864   1.566 -1.2373 -0.5959  1.0816
 3420TIP3   OH210216   5.802   1.799   2.764  0.0762 -0.0449  0.3854
 3420TIP3    H110217   5.771   1.864   2.827 -1.1606 -0.6015  0.3806
 3420TIP3    H210218   5.848   1.851   2.697 -2.1402  1.0362 -0.3944
 3421TIP3   OH210219   4.998   4.730   5.033  0.3238  0.1238  0.0333
 3421TIP3    H110220   4.912   4.699   5.062 -0.0884  1.9358  0.8590
 3421TIP3    H210221   5.000   4.710   4.939 -0.4320 -1.1579  0.2629
 3422TIP3   OH210222   7.257   5.035   5.004  0.1305  0.4285 -1.0781
 3422TIP3    H110223   7.296   4.970   5.061 -0.8452 -2.2022 -3.1846
 3422TIP3    H210224   7.202   5.088   5.061  1.1013 -0.4460  0.7479
 3423TIP3   OH210225   8.221   2.081   5.610  0.4892  0.1636 -0.5878
 3423TIP3    H110226   8.189   2.071   5.520 -0.3662 -2.0813 -0.1036
 3423TIP3    H210227   8.313   2.054   5.605  1.1957  2.4819 -1.1960
 3424TIP3   OH210228   6.967   6.939   5.232  0.0688  0.4070  0.1080
 3424TIP3    H110229   7.034   6.909   5.171  1.4518 -0.0278  1.7675
 3424TIP3    H210230   6.956   7.032   5.212  0.3385  0.2314 -0.9130
 3425TIP3   OH210231   2.274   5.651   2.869  0.6191  0.2140 -0.1736
 3425TIP3    H110232   2.286   5.600   2.949  0.3302 -1.4351 -1.1453
 3425TIP3    H210233   2.200   5.709   2.888 -0.5624 -1.3621  0.1897
 3426TIP3   OH210234   1.126   5.347   0.860 -0.0384 -0.3027 -0.2683
 3426TIP3    H110235   1.196   5.283   0.845  0.5761  0.2406  0.1949
 3426TIP3    H210236   1.045   5.298   0.846  0.4278 -0.9245 -0.9167
 3427TIP3   OH210237   2.425   5.350   2.834  0.5526 -0.3472  0.9685
 3427TIP3    H110238   2.515   5.381   2.821  1.1321 -1.8755  1.0996
 3427TIP3    H210239   2.393   5.399   2.910  0.9913  0.7469  0.4745
 3428TIP3   OH210240   1.251   2.875   4.937  0.7466  0.4098 -0.8274
 3428TIP3    H110241   1.328   2.872   4.993 -0.5025  1.2781  1.0191
 3428TIP3    H210242   1.177   2.867   4.997 -0.6399  0.3521 -2.4633
 3429TIP3   OH210243   1.045   4.905   1.166 -0.0382 -0.4544  0.0809
 3429TIP3    H110244   1.125   4.933   1.210  0.1870  2.0950 -1.7217
 3429TIP3    H210245   0.977   4.912   1.234  0.6951  0.8881  0.7195
 3430TIP3   OH210246   1.410   1.743   6.203  0.2231  0.8910  0.4122
 3430TIP3    H110247   1.437   1.827   6.241  0.5561  1.1189 -0.3121
 3430TIP3    H210248   1.444   1.677   6.262 -0.2416  1.2708  1.1171
 3431TIP3   OH210249   5.894   0.658   2.302  0.2831 -0.1205  0.1753
 3431TIP3    H110250   5.891   0.605   2.381  3.4369 -0.6572  0.0597
 3431TIP3    H210251   5.979   0.701   2.305 -1.3900  3.6944 -0.5985
 3432TIP3   OH210252   4.652   2.365   0.099 -0.8667  0.2961 -0.1175
 3432TIP3    H110253   4.593   2.295   0.128 -0.3764  0.5638  1.7086
 3432TIP3    H210254   4.602   2.414   0.035 -2.1362 -0.2761  0.4081
 3433TIP3   OH210255   1.754   5.720   3.510 -0.0751 -0.5253  0.1286
 3433TIP3    H110256   1.694   5.651   3.539 -0.9883  0.0777 -0.2742
 3433TIP3    H210257   1.710   5.801   3.535  1.9008 -0.0578  2.4241
 3434TIP3   OH210258   5.252   3.989   5.518  0.0297 -0.1052  0.3071
 3434TIP3    H110259   5.321   3.924   5.510  0.7462  0.6581  0.2202
 3434TIP3    H210260   5.171   3.940   5.499  0.3870 -1.2927  1.6809
 3435TIP3   OH210261   4.976   4.216   4.006  0.2554 -0.5349  0.0092
 3435TIP3    H110262   4.911   4.159   3.965  1.7316 -2.2335 -0.1112
 3435TIP3    H210263   4.948   4.224   4.097 -0.7367 -0.2468 -0.3056
 3436TIP3   OH210264   0.176   2.934   3.421  0.3159  0.0123 -0.1414
 3436TIP3    H110265   0.245   3.000   3.418  0.8236 -0.3711  1.6837
 3436TIP3    H210266   0.095   2.983   3.407  0.9376  0.3191 -3.4413
 3437TIP3   OH210267   1.478   2.989   0.859 -0.1397 -0.2488  0.7066
 3437TIP3    H110268   1.503   2.930   0.930  0.5268 -0.0406  0.6538
 3437TIP3    H210269   1.419   3.053   0.900  2.0953  1.3188  1.6744
 3438TIP3   OH210270   0.641   0.310   0.608 -0.0772 -0.1890  0.2853
 3438TIP3    H110271   0.568   0.279   0.663 -0.8660 -0.4988 -0.8903
 3438TIP3    H210272   0.598   0.345   0.530  1.0758 -1.3694 -0.9173
 3439TIP3   OH210273   6.600   0.066   3.600 -0.1448  0.1368 -0.2265
 3439TIP3    H110274   6.547   0.059   3.521 -1.4518  1.4852  0.4768
 3439TIP3    H210275   6.545   0.032   3.670  0.8831 -0.7583  0.1821
 3440TIP3   OH210276   1.835   4.786   2.720  0.0880 -0.7792 -0.4195
 3440TIP3    H110277   1.752   4.793   2.767  0.3406  1.9205 -0.1854
 3440TIP3    H210278   1.899   4.763   2.787 -0.2081 -1.1574 -0.2664
 3441TIP3   OH210279   0.281   0.376   4.710 -0.1363  0.5362  0.3258
 3441TIP3    H110280   0.230   0.338   4.781 -1.9887  0.1122 -1.1474
 3441TIP3    H210281   0.347   0.310   4.689 -0.6464 -0.0545  0.5517
 3442TIP3   OH210282   5.773   0.540   3.827  0.5743 -0.2251 -0.3058
 3442TIP3    H110283   5.798   0.615   3.882  1.6883 -0.8957  0.1551
 3442TIP3    H210284   5.685   0.518   3.856  0.0377  1.1969 -0.7844
 3443TIP3   OH210285   1.923   1.192   3.665  0.2359 -0.4085  0.0532
 3443TIP3    H110286   1.853   1.185   3.730  0.2595 -1.7482 -0.0464
 3443TIP3    H210287   1.915   1.113   3.612  2.5013 -1.1979  0.7449
 3444TIP3   OH210288   6.069   1.984   3.754  0.0509  0.3699  0.4986
 3444TIP3    H110289   6.002   1.957   3.816 -0.8268  0.9811 -0.1733
 3444TIP3    H210290   6.041   1.949   3.670  0.8493  0.1852  0.2939
 3445TIP3   OH210291   7.745   5.036   1.793 -0.1437  0.2180 -0.0974
 3445TIP3    H110292   7.737   5.044   1.889  1.4617 -1.4177  0.2157
 3445TIP3    H210293   7.657   5.055   1.761 -0.4289  2.1065  1.5791
 3446TIP3   OH210294   7.651   5.134   0.940  0.0513 -0.2020 -0.0288
 3446TIP3    H110295   7.729   5.139   0.885 -0.6374 -1.0966 -1.1393
 3446TIP3    H210296   7.581   5.109   0.880 -1.1850  0.9342  0.8713
 3447TIP3   OH210297   4.154   1.268   1.212 -1.3786 -0.2052 -0.6576
 3447TIP3    H110298   4.065   1.299   1.228 -1.2063 -0.0613  0.0709
 3447TIP3    H210299   4.166   1.197   1.275 -0.6494  0.4265 -0.0549
 3448TIP3   OH210300   5.524   1.665   5.296 -0.4931 -0.5052  0.1244
 3448TIP3    H110301   5.500   1.704   5.212 -0.4720 -0.1606  0.2767
 3448TIP3    H210302   5.443   1.663   5.346 -0.6115 -1.1820 -0.0892
 3449TIP3   OH210303   2.153   7.392   3.332 -0.2586  0.0109 -0.4690
 3449TIP3    H110304   2.206   7.338   3.273  0.5453 -0.5390  0.7288
 3449TIP3    H210305   2.096   7.442   3.273 -0.6913 -1.7678 -1.6447
 3450TIP3   OH210306   5.888   1.698   3.701 -0.0987  0.0915  0.1880
 3450TIP3    H110307   5.909   1.749   3.624  0.8951 -0.6525 -0.0588
 3450TIP3    H210308   5.831   1.754   3.753 -0.8895  0.5473 -1.1372
 3451TIP3   OH210309   1.039   1.079   5.137  0.1231  0.1335  0.4238
 3451TIP3    H110310   1.124   1.056   5.099 -0.3259  0.9183 -1.1557
 3451TIP3    H210311   0.978   1.017   5.097 -0.2904  0.6626  0.2268
 3452TIP3   OH210312   3.510   3.081   0.768 -0.6076 -0.1574  0.4302
 3452TIP3    H110313   3.469   2.995   0.775 -2.2782  0.6736  2.2412
 3452TIP3    H210314   3.497   3.120   0.855  0.1979  1.8689 -0.2947
 3453TIP3   OH210315   5.124   3.960   6.673  0.2999  0.6317 -0.0801
 3453TIP3    H110316   5.079   3.880   6.702 -0.6214  1.1165 -0.1276
 3453TIP3    H210317   5.217   3.940   6.682  0.0702  0.2488  1.8344
 3454TIP3   OH210318   1.488   1.396   3.554  0.0225  0.3608 -0.0575
 3454TIP3    H110319   1.574   1.386   3.514  0.8049  1.0167  1.3666
 3454TIP3    H210320   1.426   1.386   3.482  1.2957  0.0988 -1.1502
 3455TIP3   OH210321   3.304   5.816   6.009  0.2147 -0.2101 -0.3042
 3455TIP3    H110322   3.274   5.866   6.085  2.6106 -0.2232  0.7372
 3455TIP3    H210323   3.353   5.880   5.957  0.1446 -0.6376 -0.9038
 3456TIP3   OH210324   7.825   0.605   6.362  0.2644  0.3976  0.8135
 3456TIP3    H110325   7.917   0.592   6.383  0.5371 -0.3265 -0.7234
 3456TIP3    H210326   7.784   0.521   6.382  0.3838 -0.0419 -0.7071
 3457TIP3   OH210327   4.062   4.726   1.279  0.2903  0.3446 -0.0676
 3457TIP3    H110328   4.056   4.695   1.370 -0.0737 -0.9780 -0.5253
 3457TIP3    H210329   4.002   4.801   1.276  1.5162  1.4353  1.1709
 3458TIP3   OH210330   4.319   4.258   0.088 -0.3335  0.7485 -0.2043
 3458TIP3    H110331   4.346   4.254   0.179 -0.6415  1.1693 -0.0915
 3458TIP3    H210332   4.341   4.172   0.052 -2.3773 -0.3048  0.8896
 3459TIP3   OH210333   1.078   3.224   4.901  0.3518 -0.2204 -0.2180
 3459TIP3    H110334   1.146   3.277   4.860  0.0715 -0.5417 -1.1209
 3459TIP3    H210335   1.108   3.212   4.992  2.8935 -2.5698 -1.2223
 3460TIP3   OH210336   4.761   3.049   0.994  0.3995  0.4437  0.0882
 3460TIP3    H110337   4.711   3.032   0.914  0.0841  2.2985 -0.1590
 3460TIP3    H210338   4.723   3.129   1.029 -0.6464 -1.2094  3.0917
 3461TIP3   OH210339   0.453   1.071   1.596  0.4121 -0.1959 -0.3876
 3461TIP3    H110340   0.417   1.020   1.523 -1.0869  0.7587 -0.3475
 3461TIP3    H210341   0.503   1.007   1.647 -1.0603 -1.5548 -0.5687
 3462TIP3   OH210342   4.922   2.297   6.632  0.1993 -0.4257 -0.7006
 3462TIP3    H110343   4.957   2.236   6.697  1.2337  0.5543 -0.3021
 3462TIP3    H210344   4.975   2.376   6.643 -0.0982  0.0168 -2.2378
 3463TIP3   OH210345   5.404   3.140   5.244  0.5502  0.2607 -0.1809
 3463TIP3    H110346   5.481   3.097   5.207  1.1902  0.9398  0.3394
 3463TIP3    H210347   5.356   3.070   5.288 -0.5921 -0.7374 -2.7778
 3464TIP3   OH210348   3.020   2.531   3.520 -0.4452 -0.1304  0.2489
 3464TIP3    H110349   2.975   2.454   3.555  0.2143 -0.6950 -0.1120
 3464TIP3    H210350   2.956   2.602   3.529  0.0288  0.0327  3.5682
 3465TIP3   OH210351   6.294   4.770   3.448 -0.6240 -0.4423 -0.0900
 3465TIP3    H110352   6.201   4.749   3.460 -0.8941  1.6218  2.2786
 3465TIP3    H210353   6.293   4.856   3.405  0.1480 -0.0369  0.6804
 3466TIP3   OH210354   2.351   0.531   1.838  0.1976 -0.5114  0.8623
 3466TIP3    H110355   2.378   0.621   1.854 -0.3266  0.1195 -1.3244
 3466TIP3    H210356   2.259   0.528   1.865 -0.9826  0.8134 -2.4806
 3467TIP3   OH210357   2.171   3.587   6.462 -0.0536 -0.1264 -0.1680
 3467TIP3    H110358   2.231   3.540   6.521  0.1280  1.2551  0.7940
 3467TIP3    H210359   2.224   3.659   6.427 -0.9632  0.7849  0.2663
 3468TIP3   OH210360   5.460   5.019   1.797 -0.0243  0.3687 -0.0449
 3468TIP3    H110361   5.368   5.043   1.799 -0.1658 -0.0029 -1.2354
 3468TIP3    H210362   5.472   4.961   1.872 -0.9351 -0.1473 -0.2869
 3469TIP3   OH210363   4.132   4.817  -0.021 -0.1688 -0.0775 -0.5101
 3469TIP3    H110364   4.183   4.807   0.059  1.2113 -0.2520 -1.3845
 3469TIP3    H210365   4.042   4.800   0.006  0.4617 -1.7902  0.6802
 3470TIP3   OH210366   1.506   4.033   1.447  0.2557 -0.1253  0.0565
 3470TIP3    H110367   1.577   3.973   1.423 -0.3059 -0.4916 -0.7189
 3470TIP3    H210368   1.464   3.991   1.522 -0.3404 -0.8945 -0.6811
 3471TIP3   OH210369   6.159   3.577   5.144  0.2408  0.4662 -0.9221
 3471TIP3    H110370   6.154   3.673   5.138  0.8044  0.4070 -3.7406
 3471TIP3    H210371   6.241   3.555   5.100  0.4639 -1.2975  0.2968
 3472TIP3   OH210372   3.626   1.478   6.190  0.5994 -0.1667  0.1808
 3472TIP3    H110373   3.704   1.464   6.244 -0.0826 -0.2932  1.1701
 3472TIP3    H210374   3.574   1.399   6.202  0.0779  0.1379 -0.0404
 3473TIP3   OH210375   2.695   6.789   6.283  0.4463 -0.5306 -0.3714
 3473TIP3    H110376   2.655   6.703   6.297  0.2894 -0.2938  0.6535
 3473TIP3    H210377   2.782   6.769   6.248  0.3522 -1.1037 -0.2849
 3474TIP3   OH210378   6.207   3.731   2.367 -0.5276 -0.4636 -0.0764
 3474TIP3    H110379   6.127   3.694   2.405  0.9288 -0.6131  3.1748
 3474TIP3    H210380   6.214   3.818   2.408  1.5597 -0.9535  0.7301
 3475TIP3   OH210381   2.503   0.740   5.432 -0.0267 -0.1264 -0.1150
 3475TIP3    H110382   2.431   0.754   5.493 -0.2230 -0.5385 -0.2488
 3475TIP3    H210383   2.485   0.654   5.393  1.3016 -0.8697  0.8759
 3476TIP3   OH210384   7.949   2.493   3.427  0.1108 -0.4038 -0.1919
 3476TIP3    H110385   7.906   2.418   3.468 -0.7506  0.4863  0.5599
 3476TIP3    H210386   7.962   2.466   3.336 -0.6620 -1.2620 -0.0579
 3477TIP3   OH210387   7.651   3.139   6.617  0.1849 -0.1768  0.1124
 3477TIP3    H110388   7.636   3.048   6.643 -0.7264  0.0480  0.4110
 3477TIP3    H210389   7.564   3.172   6.594  0.4099  0.8123  0.6416
 3478TIP3   OH210390   7.029   7.321   1.188 -0.2863  0.0857 -0.5877
 3478TIP3    H110391   7.113   7.286   1.159 -0.8705  0.0041 -2.2722
 3478TIP3    H210392   7.020   7.405   1.142  0.0264  1.4013  1.5948
 3479TIP3   OH210393   2.877   7.018   2.638  0.1974  0.0801 -0.3260
 3479TIP3    H110394   2.870   6.939   2.691  0.4022 -0.3590 -0.9336
 3479TIP3    H210395   2.961   7.008   2.592  0.2255  0.6530 -0.4021
 3480TIP3   OH210396   0.755   7.599   6.797 -0.0797  0.1090  0.7979
 3480TIP3    H110397   0.835   7.651   6.795  1.3583 -1.9884 -0.2325
 3480TIP3    H210398   0.735   7.582   6.705 -0.2389 -1.4891  1.0996
 3481TIP3   OH210399   2.067   1.004   4.548 -0.3651 -0.1115  0.0598
 3481TIP3    H110400   2.031   1.090   4.524  0.3564  0.3830  0.6821
 3481TIP3    H210401   2.148   1.025   4.595  1.2599 -1.2121 -2.0925
 3482TIP3   OH210402   1.666   4.512   3.500  0.1465  0.1700 -0.0736
 3482TIP3    H110403   1.571   4.510   3.515 -0.1945 -3.0848 -1.8145
 3482TIP3    H210404   1.675   4.514   3.405  1.8724  0.8272  0.0677
 3483TIP3   OH210405   3.500   3.631   1.064 -0.2369 -0.0068 -0.2410
 3483TIP3    H110406   3.578   3.575   1.065  0.5110  0.9000 -2.0478
 3483TIP3    H210407   3.516   3.694   1.134  0.6320  0.1080 -0.5223
 3484TIP3   OH210408   6.566   0.069   6.563  0.5422 -0.0363  0.1329
 3484TIP3    H110409   6.618   0.032   6.634  1.5512  1.0955  0.0085
 3484TIP3    H210410   6.520   0.143   6.603 -1.8634 -1.6064  0.5082
 3485TIP3   OH210411   4.648   5.901   4.021  0.4104  0.7854 -0.1625
 3485TIP3    H110412   4.688   5.988   4.020 -1.8407  1.9432 -2.8107
 3485TIP3    H210413   4.699   5.850   3.958 -0.7078  1.5291 -1.7338
 3486TIP3   OH210414   5.770   7.637   0.935 -0.3319  0.3623 -0.2060
 3486TIP3    H110415   5.767   7.671   0.845 -2.0193  0.8810  0.0146
 3486TIP3    H210416   5.834   7.566   0.931 -0.7500  0.0383 -1.9447
 3487TIP3   OH210417   4.810   4.265   1.888 -0.0335  0.6478  0.3694
 3487TIP3    H110418   4.789   4.209   1.963 -2.7558 -1.1716 -1.5656
 3487TIP3    H210419   4.809   4.354   1.923 -1.9373 -0.0863  2.3895
 3488TIP3   OH210420   0.590   6.695   6.195  0.1048  0.4829 -0.1584
 3488TIP3    H110421   0.638   6.623   6.236 -0.6058 -0.4138 -0.8730
 3488TIP3    H210422   0.638   6.774   6.221  2.0870 -0.3894 -1.0079
 3489TIP3   OH210423   8.274   2.776   6.502  0.3412  0.0941  0.3255
 3489TIP3    H110424   8.231   2.861   6.495  2.6565  1.2632 -1.3181
 3489TIP3    H210425   8.355   2.794   6.550  1.1684 -0.9966 -0.5900
 3490TIP3   OH210426   0.908   6.893   0.914  1.3283  0.4155 -1.0424
 3490TIP3    H110427   0.906   6.898   0.819 -0.2855 -2.3186 -1.2602
 3490TIP3    H210428   0.839   6.953   0.943  0.5726 -0.1095 -1.7225
 3491TIP3   OH210429   1.895   2.564   2.022  0.6297  0.5224  0.0208
 3491TIP3    H110430   1.972   2.563   2.079  0.6657 -2.0982  0.0554
 3491TIP3    H210431   1.828   2.610   2.072  0.5919 -1.8507  2.3850
 3492TIP3   OH210432   2.914   3.117   0.312 -0.1899 -0.3824  0.1120
 3492TIP3    H110433   2.910   3.064   0.232  0.1687  0.0930 -0.2238
 3492TIP3    H210434   2.873   3.062   0.379  0.4088 -1.1902 -0.1765
 3493TIP3   OH210435   4.185   7.254   1.810 -0.0659 -0.9569 -0.1060
 3493TIP3    H110436   4.170   7.211   1.727 -0.7409  1.1875 -1.1712
 3493TIP3    H210437   4.112   7.228   1.865 -0.4941 -1.1025 -0.7402
 3494TIP3   OH210438   1.870   5.448   3.897 -0.0629  1.0771 -0.7948
 3494TIP3    H110439   1.797   5.483   3.846 -2.8371 -0.5458  1.7568
 3494TIP3    H210440   1.832   5.376   3.947  3.5246 -0.3923  0.1367
 3495TIP3   OH210441   1.208   4.528   1.798 -0.3989  0.1606  0.5955
 3495TIP3    H110442   1.205   4.552   1.705  0.2001  0.8906  0.7505
 3495TIP3    H210443   1.279   4.463   1.803 -1.4647 -1.0621  0.3091
 3496TIP3   OH210444   0.258   3.620   6.686  0.1759 -0.5691  0.3816
 3496TIP3    H110445   0.249   3.630   6.591  1.2435 -1.1613  0.2040
 3496TIP3    H210446   0.316   3.545   6.697  0.1231 -0.4631  1.5099
 3497TIP3   OH210447   3.173   1.822   5.378 -0.9632 -0.6007 -0.3174
 3497TIP3    H110448   3.179   1.735   5.417 -1.5477 -0.1487  0.8262
 3497TIP3    H210449   3.202   1.881   5.447  1.9235  0.0051 -1.8474
 3498TIP3   OH210450   8.222   3.666   0.274  0.1389  0.0945  0.3951
 3498TIP3    H110451   8.313   3.648   0.298  1.4631  2.8504 -1.8531
 3498TIP3    H210452   8.216   3.643   0.181 -0.3801  2.9032 -0.3755
 3499TIP3   OH210453   4.852   5.489   4.891  0.0804  0.3051  0.2427
 3499TIP3    H110454   4.861   5.570   4.841  0.0435 -0.4205 -0.9683
 3499TIP3    H210455   4.847   5.420   4.825  1.6746 -0.8657  1.2678
 3500TIP3   OH210456   2.583   3.602   5.182 -0.1281  0.2288 -0.1320
 3500TIP3    H110457   2.512   3.540   5.164  1.1443 -1.9010  1.7330
 3500TIP3    H210458   2.658   3.567   5.136  0.0862  1.7150 -0.9582
 3501TIP3   OH210459   2.766   7.002   1.105  0.2272 -0.1403  0.2065
 3501TIP3    H110460   2.724   7.086   1.124  1.3240  0.0274  2.1209
 3501TIP3    H210461   2.821   7.019   1.029  0.4189  0.8893  0.5562
 3502TIP3   OH210462   6.733   5.813   4.399 -0.2870  0.0627 -0.1075
 3502TIP3    H110463   6.821   5.777   4.390  0.0466  1.1080 -1.3813
 3502TIP3    H210464   6.718   5.818   4.493  0.7799 -0.6671  0.1194
 3503TIP3   OH210465   4.452   2.184   0.677  0.0074 -0.0979 -0.3376
 3503TIP3    H110466   4.412   2.127   0.743  0.8520 -0.5140 -0.1669
 3503TIP3    H210467   4.520   2.232   0.725  0.3327 -0.0836 -0.8093
 3504TIP3   OH210468   0.210   3.621   6.149  0.6576 -0.3206 -0.2026
 3504TIP3    H110469   0.146   3.682   6.114  0.1525  0.0911  1.3444
 3504TIP3    H210470   0.294   3.652   6.116  0.3070  0.6143 -0.2441
 3505TIP3   OH210471   4.612   0.397   0.888  0.9028  0.0962 -0.6248
 3505TIP3    H110472   4.586   0.346   0.811  1.8336  0.6945 -1.3743
 3505TIP3    H210473   4.625   0.486   0.853  1.5550  0.3247  0.1785
 3506TIP3   OH210474   5.726   6.774   5.349  0.3496  0.8914 -0.1691
 3506TIP3    H110475   5.678   6.711   5.295  0.9876  0.1498  0.1272
 3506TIP3    H210476   5.724   6.855   5.297 -0.9318  0.7905 -0.3059
 3507TIP3   OH210477   0.245   1.975   1.836 -0.2413  0.0190  0.4651
 3507TIP3    H110478   0.318   1.938   1.886 -0.8520  0.9769  2.1525
 3507TIP3    H210479   0.197   1.899   1.804  1.3142 -0.6340 -0.4571
 3508TIP3   OH210480   8.001   1.450   0.736  0.1988 -0.0508 -0.3265
 3508TIP3    H110481   7.918   1.461   0.784  1.2722  1.2929  1.3340
 3508TIP3    H210482   8.009   1.530   0.684  0.5439 -0.0861 -0.3281
 3509TIP3   OH210483   1.430   0.542   2.591  0.1611  0.6457  0.4914
 3509TIP3    H110484   1.429   0.540   2.687 -1.5126 -0.5939  0.5126
 3509TIP3    H210485   1.339   0.561   2.567  0.7112  1.7079 -0.8667
 3510TIP3   OH210486   3.691   1.005   6.616  0.4752 -0.4587 -0.2163
 3510TIP3    H110487   3.675   1.094   6.649  0.5149 -0.2227 -0.8214
 3510TIP3    H210488   3.630   0.950   6.665  0.3116 -0.0709  0.0246
 3511TIP3   OH210489   7.152   3.237   2.106 -1.1959 -0.4125 -0.1069
 3511TIP3    H110490   7.078   3.181   2.128 -0.5985 -1.1312  0.1074
 3511TIP3    H210491   7.192   3.260   2.190 -0.9992 -0.2697 -0.2359
 3512TIP3   OH210492   7.111   3.981   0.076  0.4094 -0.0272  0.0175
 3512TIP3    H110493   7.103   4.063   0.026  3.8388 -0.0878 -0.8873
 3512TIP3    H210494   7.168   4.004   0.150  0.5918 -1.3658  0.3182
 3513TIP3   OH210495   0.150   4.168   1.238 -0.4013  0.3215  0.0934
 3513TIP3    H110496   0.231   4.118   1.248 -0.4330  0.2817  0.1526
 3513TIP3    H210497   0.160   4.242   1.297 -0.1073  0.7015 -0.4302
 3514TIP3   OH210498   1.184   2.862   2.455  0.3427 -0.6987  0.4968
 3514TIP3    H110499   1.254   2.926   2.473 -0.0881  0.3628 -1.2926
 3514TIP3    H210500   1.199   2.838   2.364 -0.7727 -1.5771  0.5420
 3515TIP3   OH210501   5.160   3.175   3.550 -0.6410 -0.2168  0.0894
 3515TIP3    H110502   5.078   3.183   3.599 -0.3748  0.7602  0.4134
 3515TIP3    H210503   5.195   3.090   3.575 -1.2171 -0.3425  0.4931
 3516TIP3   OH210504   2.244   3.916   0.557  0.3858  0.3640  0.2472
 3516TIP3    H110505   2.310   3.874   0.502 -0.3642  0.5104 -0.8097
 3516TIP3    H210506   2.193   3.844   0.593  0.6306  0.2779  0.4175
 3517TIP3   OH210507   5.510   5.917   1.532 -0.0520  0.4882  0.5355
 3517TIP3    H110508   5.507   5.998   1.584  3.0182 -0.9123  3.2800
 3517TIP3    H210509   5.601   5.911   1.502 -0.8344 -0.7249 -1.8557
 3518TIP3   OH210510   2.597   0.445   1.285 -0.3081 -0.6429  0.2812
 3518TIP3    H110511   2.530   0.462   1.218 -1.0671  0.6937  1.3253
 3518TIP3    H210512   2.680   0.461   1.240 -0.7299 -0.9468 -0.6504
 3519TIP3   OH210513   5.277   7.006   2.892  0.1624  0.3551  0.0493
 3519TIP3    H110514   5.283   6.926   2.841 -1.4646 -0.1260  0.5619
 3519TIP3    H210515   5.301   6.981   2.981 -1.8826  0.0353  0.5529
 3520TIP3   OH210516   7.456   5.037   4.708  0.6674 -0.0922  0.2105
 3520TIP3    H110517   7.372   5.001   4.738 -0.5587  1.1648 -1.4837
 3520TIP3    H210518   7.496   4.966   4.658 -1.0049  0.2408 -1.7837
 3521TIP3   OH210519   3.004   1.190   4.323  0.1297 -0.6268 -0.2986
 3521TIP3    H110520   3.073   1.244   4.285  1.4355 -0.9432  1.5085
 3521TIP3    H210521   2.938   1.183   4.254 -0.5939  4.0043 -0.4385
 3522TIP3   OH210522   2.395   6.524   3.675  0.1825  0.0563  0.2690
 3522TIP3    H110523   2.348   6.497   3.754  0.5410 -0.4828  0.3002
 3522TIP3    H210524   2.474   6.568   3.708 -1.1374  2.6334  0.2614
 3523TIP3   OH210525   5.594   2.954   5.150 -0.4604 -0.2531 -0.3857
 3523TIP3    H110526   5.662   2.889   5.129  1.4561  1.2635  0.7564
 3523TIP3    H210527   5.621   2.991   5.235 -2.3285  0.9530 -0.2483
 3524TIP3   OH210528   4.323   1.297   5.553 -0.0803  0.0623 -0.3210
 3524TIP3    H110529   4.383   1.371   5.555 -0.7399  0.5981  1.8801
 3524TIP3    H210530   4.245   1.329   5.509  0.1339  0.2637 -0.5536
 3525TIP3   OH210531   3.284   2.312   4.531  0.3196 -0.2511 -0.5302
 3525TIP3    H110532   3.333   2.234   4.505 -0.2462 -0.4332 -1.0764
 3525TIP3    H210533   3.302   2.323   4.624 -0.4008 -1.6282 -0.2059
 3526TIP3   OH210534   5.261   7.406   4.450  0.5861  0.1481 -0.1978
 3526TIP3    H110535   5.228   7.351   4.521  1.5175  0.4195  0.4696
 3526TIP3    H210536   5.356   7.410   4.465  0.4240  3.0681  0.6321
 3527TIP3   OH210537   1.831   5.530   2.135  0.4042  0.2161 -0.9514
 3527TIP3    H110538   1.776   5.606   2.119  0.1417  0.2382 -0.0062
 3527TIP3    H210539   1.882   5.553   2.212 -2.4002 -1.9161  1.8062
 3528TIP3   OH210540   6.973   1.201   5.934 -0.3578 -0.1142  0.2391
 3528TIP3    H110541   7.030   1.268   5.896  0.5155 -0.2453  1.2532
 3528TIP3    H210542   6.934   1.243   6.011  0.2444 -0.7560  0.9166
 3529TIP3   OH210543   3.008   0.519   1.754  0.3201  0.0821 -0.3513
 3529TIP3    H110544   3.031   0.452   1.689  1.2220  0.0363 -0.0020
 3529TIP3    H210545   2.914   0.509   1.767  0.6248 -1.9865  0.6386
 3530TIP3   OH210546   4.452   2.963   6.240 -0.6223 -0.7124  0.3272
 3530TIP3    H110547   4.426   2.916   6.320 -1.0363 -1.4678 -0.2386
 3530TIP3    H210548   4.547   2.973   6.248 -0.7557 -0.0823  1.2773
 3531TIP3   OH210549   0.303   4.265   2.093  0.2069  0.4346 -0.1793
 3531TIP3    H110550   0.388   4.250   2.135  0.8307  0.6065 -1.3622
 3531TIP3    H210551   0.324   4.291   2.004 -1.0988  0.4469 -0.5009
 3532TIP3   OH210552   4.270   4.616   5.193  0.3275  0.7806  0.2322
 3532TIP3    H110553   4.331   4.562   5.243  1.1212 -0.2234 -1.7442
 3532TIP3    H210554   4.303   4.705   5.202  2.8098  0.1515 -1.6656
 3533TIP3   OH210555   5.903   5.319   2.544  0.2851  0.0499  0.4221
 3533TIP3    H110556   5.935   5.385   2.481 -0.0511  0.7223  0.9423
 3533TIP3    H210557   5.959   5.243   2.529 -0.9314 -0.4648 -1.9324
 3534TIP3   OH210558   7.326   4.687   6.326  0.2358 -0.1656 -0.3929
 3534TIP3    H110559   7.417   4.704   6.305 -0.1018  0.7789 -1.1728
 3534TIP3    H210560   7.311   4.730   6.410  0.2888  0.4212 -0.6831
 3535TIP3   OH210561   3.692   4.637   6.224  0.3924  0.0182  0.1051
 3535TIP3    H110562   3.769   4.688   6.249 -0.0965  0.0745  1.5872
 3535TIP3    H210563   3.652   4.688   6.153  1.4481  0.2250 -0.3657
 3536TIP3   OH210564   6.413   0.737   0.828 -0.0671  0.3876 -0.1308
 3536TIP3    H110565   6.462   0.745   0.746 -1.8755 -0.0492 -1.3135
 3536TIP3    H210566   6.323   0.760   0.804 -0.5150  0.9365  1.9078
 3537TIP3   OH210567   3.810  -0.006   6.288 -0.1915 -0.3024  0.2240
 3537TIP3    H110568   3.887   0.041   6.322  0.6682 -1.1079 -0.5429
 3537TIP3    H210569   3.817   0.002   6.193  0.4135 -2.5710  0.0157
 3538TIP3   OH210570   0.003   1.569   2.475 -0.2497 -0.3850 -0.3977
 3538TIP3    H110571   0.012   1.513   2.399 -1.1031 -0.7903 -0.2127
 3538TIP3    H210572   0.018   1.512   2.550 -1.8400 -0.5656 -0.1786
 3539TIP3   OH210573   2.938   5.903   6.090 -0.5813  0.0632 -0.0811
 3539TIP3    H110574   2.888   5.941   6.163  1.3409  0.9492  0.8625
 3539TIP3    H210575   2.906   5.813   6.084 -1.5793  0.2962  1.1202
 3540TIP3   OH210576   8.098   1.711   1.959  0.1876 -0.5154 -0.3733
 3540TIP3    H110577   8.140   1.797   1.970 -0.8344 -0.0972  0.3324
 3540TIP3    H210578   8.074   1.708   1.866 -1.8921  0.9906  0.0448
 3541TIP3   OH210579   7.330   1.068   5.393  0.6566 -0.0336 -0.2095
 3541TIP3    H110580   7.414   1.055   5.351  1.3796  0.4251  1.0249
 3541TIP3    H210581   7.284   0.985   5.381  0.9930 -0.0597 -1.4853
 3542TIP3   OH210582   1.481   4.538   0.902  0.1294 -0.0800 -0.0319
 3542TIP3    H110583   1.442   4.577   0.981 -0.8494 -2.2804  0.6771
 3542TIP3    H210584   1.570   4.571   0.900 -0.9791  3.1769 -0.2873
 3543TIP3   OH210585   4.062   0.803   2.361 -0.4501 -0.5191  0.1560
 3543TIP3    H110586   4.158   0.808   2.360 -0.4837  1.5231 -2.1211
 3543TIP3    H210587   4.037   0.813   2.269 -2.8791 -1.1887  0.6801
 3544TIP3   OH210588   3.662   3.755   3.179 -0.3206 -0.0437 -0.5083
 3544TIP3    H110589   3.677   3.791   3.267 -0.8207  0.5677 -0.6639
 3544TIP3    H210590   3.577   3.791   3.154 -0.4192 -0.6432 -1.0312
 3545TIP3   OH210591   6.775   1.032   3.637 -0.1195  0.3023 -0.4802
 3545TIP3    H110592   6.757   1.126   3.626  2.7814  1.1325  0.9695
 3545TIP3    H210593   6.707   1.001   3.696 -0.3495  1.8250  0.0899
 3546TIP3   OH210594   1.300   1.278   2.548 -0.2852 -0.0362  0.1103
 3546TIP3    H110595   1.217   1.298   2.506 -0.6548  0.7218  1.1577
 3546TIP3    H210596   1.335   1.204   2.498 -0.0992  1.5865 -2.3104
 3547TIP3   OH210597   4.901   5.732   4.758  0.0152 -0.0893  0.1216
 3547TIP3    H110598   4.880   5.743   4.665  0.2950  2.4383  0.3021
 3547TIP3    H210599   4.994   5.752   4.764 -0.3366  1.4174  1.1449
 3548TIP3   OH210600   2.477   1.098   0.074 -0.0748  0.4466  0.4191
 3548TIP3    H110601   2.403   1.089   0.015 -0.2590  1.4242  0.4761
 3548TIP3    H210602   2.501   1.191   0.069 -0.7636  0.8252  2.6499
 3549TIP3   OH210603   6.600   5.692   2.248  0.0181 -0.0237  0.0403
 3549TIP3    H110604   6.562   5.619   2.199 -2.0060  0.2150  1.1415
 3549TIP3    H210605   6.545   5.767   2.225 -0.4460  0.2733  1.9552
 3550TIP3   OH210606   1.390   0.803   5.701 -0.4010  0.1500  0.4039
 3550TIP3    H110607   1.398   0.757   5.618 -0.6133  3.0698 -1.3626
 3550TIP3    H210608   1.395   0.733   5.767 -3.6913 -2.8096 -2.0302
 3551TIP3   OH210609   5.251   4.189   0.825  0.6559  0.2639 -0.1367
 3551TIP3    H110610   5.194   4.113   0.814  2.6232 -1.2080 -0.7491
 3551TIP3    H210611   5.195   4.264   0.807 -1.0397 -1.1085 -0.8677
 3552TIP3   OH210612   2.628   1.223   3.052  0.1121  0.1823  0.4104
 3552TIP3    H110613   2.700   1.171   3.088  0.2627  0.3582  0.3650
 3552TIP3    H210614   2.588   1.165   2.986 -0.5727 -0.3867  1.3036
 3553TIP3   OH210615   8.095   5.517   3.483 -0.1708 -0.0283 -0.0516
 3553TIP3    H110616   8.189   5.515   3.462 -0.1335  1.3054 -0.1116
 3553TIP3    H210617   8.072   5.425   3.496  1.4200 -0.3064  1.1744
 3554TIP3   OH210618   2.823   3.421   1.229  0.2056  0.5038  0.9159
 3554TIP3    H110619   2.761   3.487   1.261 -0.8733 -0.3144  0.5759
 3554TIP3    H210620   2.817   3.427   1.134 -0.9657 -1.0027  0.8548
 3555TIP3   OH210621   2.468   6.858   4.239  0.2036 -0.2438 -0.0497
 3555TIP3    H110622   2.389   6.912   4.237 -1.3182 -2.2881  1.0261
 3555TIP3    H210623   2.517   6.890   4.314  1.3104  2.0946 -1.6324
 3556TIP3   OH210624   1.432   5.934   1.925 -0.4957 -0.2347  0.1934
 3556TIP3    H110625   1.421   5.908   1.834  0.5098 -0.2828  0.0770
 3556TIP3    H210626   1.506   5.883   1.957  0.1840  0.9397  0.5663
 3557TIP3   OH210627   8.198   2.031   1.622  0.2663  0.0840 -0.5616
 3557TIP3    H110628   8.227   2.026   1.713  1.2889 -1.7435 -0.9391
 3557TIP3    H210629   8.254   2.098   1.583  1.9642 -1.2358 -0.5285
 3558TIP3   OH210630   3.203   4.280   5.826  0.5131 -0.5833  0.1021
 3558TIP3    H110631   3.294   4.310   5.820 -0.1351  1.5234 -0.3160
 3558TIP3    H210632   3.151   4.357   5.801 -1.3751 -1.9069 -0.2661
 3559TIP3   OH210633   2.404   0.453   5.925 -0.0381  0.1302 -0.4328
 3559TIP3    H110634   2.425   0.425   5.836  0.8139  0.0994 -0.2348
 3559TIP3    H210635   2.326   0.508   5.916 -1.2556 -1.6093 -0.9291
 3560TIP3   OH210636   7.585   3.721   6.423  0.5404  0.2216  0.0482
 3560TIP3    H110637   7.638   3.715   6.344  0.9452  2.2681  0.1036
 3560TIP3    H210638   7.633   3.671   6.488  0.4897 -1.0082 -0.8350
 3561TIP3   OH210639   7.633   1.655   5.985 -0.1190 -0.7088  0.1343
 3561TIP3    H110640   7.570   1.701   5.929  0.2896 -0.1927  0.0964
 3561TIP3    H210641   7.654   1.718   6.054  0.4812 -0.8172  0.0543
 3562TIP3   OH210642   2.718   5.853   6.249 -0.3051 -0.3113 -0.4452
 3562TIP3    H110643   2.741   5.859   6.342 -2.4148 -0.8790  0.1704
 3562TIP3    H210644   2.628   5.887   6.245 -0.7107 -1.4935 -2.0582
 3563TIP3   OH210645   6.302   1.300   3.244  0.3537  0.5313  0.6152
 3563TIP3    H110646   6.302   1.326   3.152 -0.4717  0.4285  0.5796
 3563TIP3    H210647   6.367   1.230   3.249 -0.7137 -0.5667 -0.2231
 3564TIP3   OH210648   2.024   1.402   6.568  0.3836 -0.1904 -0.9350
 3564TIP3    H110649   1.931   1.379   6.563  0.3779 -0.5261  0.2469
 3564TIP3    H210650   2.029   1.468   6.637  1.1489 -1.0278 -0.1530
 3565TIP3   OH210651   6.740   1.119   5.588 -0.2775 -0.4761  0.0553
 3565TIP3    H110652   6.810   1.177   5.560  0.2340 -1.0496  0.1293
 3565TIP3    H210653   6.784   1.042   5.622 -0.9450 -1.0883 -0.4179
 3566TIP3   OH210654   5.338   1.061   5.732  0.1226 -0.0027 -0.5096
 3566TIP3    H110655   5.282   1.003   5.681  0.5024  0.7131 -1.7867
 3566TIP3    H210656   5.389   1.109   5.666  0.8409  0.7403  0.5585
 3567TIP3   OH210657   2.706   1.626   3.821  0.0526  0.2923  0.0644
 3567TIP3    H110658   2.631   1.574   3.850  1.6911 -1.8235  0.8185
 3567TIP3    H210659   2.676   1.670   3.742 -1.5121 -1.6976 -0.5334
 3568TIP3   OH210660   2.668   1.406   2.771  0.5205  0.5782 -0.4653
 3568TIP3    H110661   2.618   1.348   2.829  0.9335  0.5272 -0.1551
 3568TIP3    H210662   2.693   1.479   2.827  0.5422  0.7476 -0.6952
 3569TIP3   OH210663   4.486   4.957   4.648 -0.1587 -0.6281  0.2411
 3569TIP3    H110664   4.454   4.884   4.701 -0.1796 -0.8531 -0.0771
 3569TIP3    H210665   4.557   4.995   4.698 -0.6144 -0.4235  0.7411
 3570TIP3   OH210666   1.708   0.030   1.250  0.3213 -0.9735  0.6455
 3570TIP3    H110667   1.721  -0.063   1.234  1.2998 -0.9473  1.1820
 3570TIP3    H210668   1.773   0.052   1.317  1.8338  0.5953 -1.1806
 3571TIP3   OH210669   0.224   1.468   2.979 -0.2170  0.3265  0.7210
 3571TIP3    H110670   0.314   1.445   2.957 -0.0320  0.5568  1.2067
 3571TIP3    H210671   0.175   1.455   2.898  0.6524  2.4112 -0.2416
 3572TIP3   OH210672   2.023   0.315   3.354 -0.1692 -0.3612 -0.3705
 3572TIP3    H110673   1.950   0.262   3.386  0.2439 -1.1574 -0.7138
 3572TIP3    H210674   1.981   0.388   3.308 -0.7568 -0.7862 -0.5281
 3573TIP3   OH210675   2.870   2.196   0.522  0.5107  0.3137  0.7017
 3573TIP3    H110676   2.919   2.221   0.600 -0.3076  1.6522  0.8149
 3573TIP3    H210677   2.782   2.230   0.538 -0.3485 -1.5901  0.2946
 3574TIP3   OH210678   5.300   6.851   3.945  0.0295 -0.5494 -0.2653
 3574TIP3    H110679   5.205   6.864   3.939  0.2619  1.0832 -0.9722
 3574TIP3    H210680   5.310   6.773   3.999 -1.7038 -0.2375  0.5804
 3575TIP3   OH210681   0.452   5.480   4.533  0.4376 -0.0641  0.6873
 3575TIP3    H110682   0.537   5.523   4.541 -0.1748  0.9218  2.4254
 3575TIP3    H210683   0.405   5.533   4.468  0.6187  0.3047  0.8546
 3576TIP3   OH210684   1.878   3.297   1.524  0.5694  0.1051 -0.5309
 3576TIP3    H110685   1.813   3.228   1.535  2.3162 -1.5201 -0.1137
 3576TIP3    H210686   1.826   3.378   1.523 -1.8586 -1.2568 -3.8027
 3577TIP3   OH210687   3.538   5.147   5.255 -0.4872  0.2505  0.2121
 3577TIP3    H110688   3.505   5.070   5.303  0.3985 -1.4957 -1.8071
 3577TIP3    H210689   3.625   5.162   5.292  0.2061 -1.1047 -0.7915
 3578TIP3   OH210690   0.717   0.104   6.303  0.2764 -0.2175  0.1458
 3578TIP3    H110691   0.676   0.187   6.276  1.2263  0.2909  0.2273
 3578TIP3    H210692   0.650   0.061   6.357 -0.5763  0.0588 -0.6534
 3579TIP3   OH210693   4.230   6.466   2.161 -0.3231  0.0725  1.0542
 3579TIP3    H110694   4.245   6.375   2.188 -1.8951 -1.3776 -2.3343
 3579TIP3    H210695   4.317   6.500   2.142  0.1325 -2.4014 -2.0630
 3580TIP3   OH210696   6.724   1.088   6.204  0.0178  0.2327  0.5776
 3580TIP3    H110697   6.638   1.130   6.202 -0.1824 -0.1179  1.5808
 3580TIP3    H210698   6.725   1.033   6.126 -0.5508  0.4595  0.4018
 3581TIP3   OH210699   1.083   0.292   5.384  0.1989  0.1005 -0.2366
 3581TIP3    H110700   1.011   0.351   5.406  0.7628  0.4528  0.7438
 3581TIP3    H210701   1.151   0.312   5.449  1.3992  0.1782 -1.4738
 3582TIP3   OH210702   0.064   0.844   0.296  0.1982 -0.2019 -0.1614
 3582TIP3    H110703   0.031   0.850   0.386 -0.3137 -1.1387 -0.2647
 3582TIP3    H210704  -0.011   0.867   0.241  0.4078  0.0186 -0.3563
 3583TIP3   OH210705   3.590   3.703   5.923  0.3609  0.0757  0.0063
 3583TIP3    H110706   3.511   3.650   5.916  0.3716 -0.0235  0.6209
 3583TIP3    H210707   3.579   3.753   6.004  0.8827  0.1332  0.0461
 3584TIP3   OH210708   1.465   4.208   5.027 -0.2272 -0.1282  0.0338
 3584TIP3    H110709   1.485   4.128   5.076  0.4650 -0.3962 -0.6541
 3584TIP3    H210710   1.511   4.197   4.944 -0.4564  0.8127 -0.2319
 3585TIP3   OH210711   6.120   2.555   0.013 -0.4732  0.2192  0.3202
 3585TIP3    H110712   6.199   2.581   0.061  0.6770 -1.4948 -0.5276
 3585TIP3    H210713   6.085   2.481   0.062 -0.4340 -0.2614 -0.3666
 3586TIP3   OH210714   0.149   6.529   1.626  0.0694 -0.5629  0.4016
 3586TIP3    H110715   0.205   6.451   1.621 -0.2062 -1.2476  4.6031
 3586TIP3    H210716   0.178   6.575   1.704 -2.4572  1.3948  0.3165
 3587TIP3   OH210717   0.985   0.971   2.250  0.5580 -0.3093  0.0922
 3587TIP3    H110718   0.915   1.022   2.209  1.3245  0.9454  0.2879
 3587TIP3    H210719   0.940   0.918   2.316 -0.1734  0.7575  0.4801
 3588TIP3   OH210720   1.619   0.789   1.631 -0.2540 -0.0590 -0.2675
 3588TIP3    H110721   1.612   0.884   1.623 -0.4738  0.1775  2.0484
 3588TIP3    H210722   1.704   0.775   1.673 -0.9094 -0.7432  0.8776
 3589TIP3   OH210723   1.162   7.600   0.244  0.1160 -0.7119 -0.2027
 3589TIP3    H110724   1.199   7.682   0.212  0.9477 -0.9828  0.0590
 3589TIP3    H210725   1.108   7.568   0.171 -1.9412  1.0946  0.4141
 3590TIP3   OH210726   6.007   2.813   0.831 -0.0777 -0.1160 -0.4755
 3590TIP3    H110727   5.931   2.869   0.815  0.6519  1.2320  0.5329
 3590TIP3    H210728   5.998   2.784   0.922  0.3178 -0.4269 -0.5298
 3591TIP3   OH210729   3.511   7.322   4.244  0.1261  0.5854  0.1905
 3591TIP3    H110730   3.545   7.236   4.270 -2.7665 -1.2514 -1.5341
 3591TIP3    H210731   3.534   7.330   4.152 -0.7205  1.0500  0.0065
 3592TIP3   OH210732   4.738   4.488   6.626  0.0485 -0.2623 -0.4391
 3592TIP3    H110733   4.730   4.441   6.710  0.9973  1.8575  0.9177
 3592TIP3    H210734   4.832   4.494   6.611 -0.0903  0.1997 -1.1830
 3593TIP3   OH210735   1.139   7.076   6.464  0.8578  0.0553  0.3331
 3593TIP3    H110736   1.187   7.145   6.511 -0.5703  0.2224  1.6400
 3593TIP3    H210737   1.070   7.123   6.417  0.5290 -0.3778  0.3787
 3594TIP3   OH210738   0.204   5.395   4.667 -0.1635  0.1772  0.0653
 3594TIP3    H110739   0.179   5.476   4.711 -0.8340  0.0455 -0.0631
 3594TIP3    H210740   0.257   5.423   4.592 -0.2143  0.4795  0.1432
 3595TIP3   OH210741   2.315   0.320   6.158  0.2311  0.4900 -0.1156
 3595TIP3    H110742   2.271   0.247   6.115  1.3577 -1.0358  1.2176
 3595TIP3    H210743   2.393   0.337   6.104  0.6441 -0.1556  0.2742
 3596TIP3   OH210744   6.211   6.559   4.231  0.1835  0.0109 -0.3560
 3596TIP3    H110745   6.140   6.602   4.184 -1.1292  1.1581  2.4386
 3596TIP3    H210746   6.288   6.574   4.177 -0.7359  3.5593 -0.8986
 3597TIP3   OH210747   6.724   5.697   0.604 -0.2714 -0.2552  0.2720
 3597TIP3    H110748   6.665   5.772   0.603 -0.5134 -0.3969  1.5019
 3597TIP3    H210749   6.676   5.627   0.560 -0.1621  0.2102 -0.6125
 3598TIP3   OH210750   4.754   5.651   4.250 -0.5324 -0.4653  0.4575
 3598TIP3    H110751   4.684   5.589   4.269 -0.1453 -0.5322  1.7743
 3598TIP3    H210752   4.823   5.599   4.210 -1.4729 -0.2792 -1.4937
 3599TIP3   OH210753   1.664   2.370   3.910  0.3173 -0.1423  0.4289
 3599TIP3    H110754   1.596   2.433   3.886 -1.1297 -1.8598 -0.1605
 3599TIP3    H210755   1.687   2.328   3.828  4.5232  2.5312 -0.0511
 3600TIP3   OH210756   4.535   4.727   5.753  0.3398 -0.2882 -0.6169
 3600TIP3    H110757   4.542   4.745   5.847 -0.1054  1.2738 -0.8503
 3600TIP3    H210758   4.501   4.638   5.748 -1.8155  0.3655  0.7649
 3601TIP3   OH210759   8.039   5.319   0.882  0.3534  0.4258 -0.3621
 3601TIP3    H110760   8.092   5.274   0.948  1.9635  0.8779 -1.2805
 3601TIP3    H210761   7.972   5.256   0.857  1.4290 -0.7701 -0.3015
 3602TIP3   OH210762   3.095   0.246   5.564 -0.4126 -0.1168 -0.2926
 3602TIP3    H110763   3.125   0.163   5.601 -0.6016  0.4751  1.2310
 3602TIP3    H210764   3.175   0.298   5.554 -0.6964  1.0277  2.6744
 3603TIP3   OH210765   0.999   1.318   0.280  0.5726  0.4134 -0.1975
 3603TIP3    H110766   1.025   1.403   0.245 -1.5349  1.1359 -0.1255
 3603TIP3    H210767   0.935   1.338   0.348 -0.2775 -1.2322 -0.4578
 3604TIP3   OH210768   2.465   1.766   0.719  0.1859 -0.3251  0.4616
 3604TIP3    H110769   2.548   1.720   0.706  1.0371  0.9601  1.0830
 3604TIP3    H210770   2.401   1.714   0.671  1.5220 -0.8523 -0.8422
 3605TIP3   OH210771   5.732   7.028   4.023 -0.2642  0.3753  0.5799
 3605TIP3    H110772   5.739   6.960   3.956  0.5203 -0.1303  1.1491
 3605TIP3    H210773   5.638   7.038   4.037 -0.3995 -1.0839  0.9270
 3606TIP3   OH210774   4.783   5.263   4.373  0.1583 -0.2942 -0.9243
 3606TIP3    H110775   4.704   5.213   4.391  0.1088  0.2675  0.5917
 3606TIP3    H210776   4.838   5.249   4.451  1.7841 -1.0725 -2.1479
 3607TIP3   OH210777   3.806   2.278   1.344 -0.2989  0.3666  0.0207
 3607TIP3    H110778   3.754   2.257   1.267 -2.0130  0.7139  1.0209
 3607TIP3    H210779   3.894   2.248   1.323 -1.1546 -1.4010 -1.2694
 3608TIP3   OH210780   5.491   7.634   3.855  0.0154 -0.2864  0.0221
 3608TIP3    H110781   5.404   7.671   3.841 -0.2066 -1.0287 -0.5956
 3608TIP3    H210782   5.479   7.567   3.922 -0.0430 -0.9156 -0.6027
 3609TIP3   OH210783   3.605   0.402   3.856  0.2897 -0.4403 -0.8083
 3609TIP3    H110784   3.568   0.431   3.773 -2.3478  0.2525  0.4767
 3609TIP3    H210785   3.632   0.311   3.840 -2.8879 -1.3599 -1.7768
 3610TIP3   OH210786   7.000   5.431   3.153 -0.8438  0.1746 -0.4888
 3610TIP3    H110787   6.917   5.471   3.127 -0.3229  0.6883 -1.4151
 3610TIP3    H210788   7.063   5.503   3.152 -0.4742 -0.1106  0.6887
 3611TIP3   OH210789   7.417   1.282   3.998  0.3344 -0.3797 -0.1097
 3611TIP3    H110790   7.488   1.218   4.000 -0.2852 -1.0804 -0.0407
 3611TIP3    H210791   7.418   1.322   4.085  0.8502 -0.1463 -0.2183
 3612TIP3   OH210792   2.371   2.658   4.181  0.3287 -0.3053 -0.1073
 3612TIP3    H110793   2.421   2.598   4.236  0.9609 -0.4649 -0.8425
 3612TIP3    H210794   2.432   2.730   4.162  0.6555 -0.9993 -1.8598
 3613TIP3   OH210795   1.609   3.222   5.789  0.6357 -0.2813  0.2175
 3613TIP3    H110796   1.689   3.184   5.825  2.3145  2.2111 -0.5854
 3613TIP3    H210797   1.621   3.218   5.694  0.0477  0.5074  0.0966
 3614TIP3   OH210798   6.766   3.980   5.719  0.8217 -0.2540 -0.5383
 3614TIP3    H110799   6.818   4.029   5.783 -1.0842  0.6151  0.4423
 3614TIP3    H210800   6.753   4.041   5.647  0.5360 -0.1949 -0.4385
 3615TIP3   OH210801   5.519   5.735   0.588  0.2623 -0.2539 -0.4632
 3615TIP3    H110802   5.446   5.734   0.526  0.9571  0.5756 -1.3250
 3615TIP3    H210803   5.524   5.645   0.620 -0.8634 -0.4188 -0.7184
 3616TIP3   OH210804   0.293   1.443   5.001 -0.0045  0.5182 -0.7513
 3616TIP3    H110805   0.282   1.525   4.953 -2.5283  0.8026  0.1965
 3616TIP3    H210806   0.326   1.469   5.087 -1.0394  0.5941 -0.3653
 3617TIP3   OH210807   5.096   2.557   6.516 -0.2372  0.1451  0.1783
 3617TIP3    H110808   5.189   2.576   6.525  0.0914 -0.4701 -1.5147
 3617TIP3    H210809   5.092   2.463   6.497 -1.2576  0.0387  0.8651
 3618TIP3   OH210810   4.766   3.844   1.571  0.2073  0.7883  0.0533
 3618TIP3    H110811   4.796   3.884   1.490  0.4661 -0.2646 -0.3869
 3618TIP3    H210812   4.818   3.886   1.640  1.4968  0.1940 -0.5312
 3619TIP3   OH210813   4.211   3.003   0.934 -0.0662  0.0990  0.5264
 3619TIP3    H110814   4.182   2.962   0.852  0.5629  1.0598 -0.2030
 3619TIP3    H210815   4.231   2.929   0.991 -2.1330 -0.6046  0.4451
 3620TIP3   OH210816   7.076   0.636   0.742 -0.7552  0.6514  0.0719
 3620TIP3    H110817   7.008   0.605   0.681 -0.5531  2.0107 -0.8743
 3620TIP3    H210818   7.153   0.647   0.687  0.1974 -0.6178  1.0934
 3621TIP3   OH210819   7.909   0.462   3.309 -0.0506  0.9861 -0.1450
 3621TIP3    H110820   7.814   0.463   3.321 -0.4648  0.7152 -2.7368
 3621TIP3    H210821   7.928   0.539   3.255  1.1179  0.7343 -0.1345
 3622TIP3   OH210822   3.733   6.966   5.565  0.3855 -0.7810  0.0820
 3622TIP3    H110823   3.664   6.900   5.562  0.1931 -0.8146  2.7681
 3622TIP3    H210824   3.693   7.045   5.528 -0.1762 -1.5185 -0.9138
 3623TIP3   OH210825   2.551   3.315   0.762 -0.2161 -0.7612  0.1198
 3623TIP3    H110826   2.624   3.330   0.701  1.1838 -1.5201  1.5311
 3623TIP3    H210827   2.529   3.223   0.750  0.9775 -1.2894  1.6379
 3624TIP3   OH210828   6.101   7.371   0.418 -0.3550 -0.0703 -0.1535
 3624TIP3    H110829   6.119   7.279   0.401 -0.6839 -0.9335  3.3453
 3624TIP3    H210830   6.178   7.417   0.385 -0.9581 -1.2710 -3.6298
 3625TIP3   OH210831   2.525   5.785   2.973 -0.4230  0.1335 -0.7910
 3625TIP3    H110832   2.487   5.700   2.950 -1.3618  0.7630 -1.6809
 3625TIP3    H210833   2.456   5.848   2.951 -1.3845  0.8936  3.5470
 3626TIP3   OH210834   2.005   4.422   2.500 -0.1148  0.3957  0.0928
 3626TIP3    H110835   2.032   4.331   2.509 -2.1094 -0.1075  1.5400
 3626TIP3    H210836   1.927   4.430   2.554  0.4968  3.2070  0.7542
 3627TIP3   OH210837   7.926   6.171   0.243 -0.6862  0.3847  0.2205
 3627TIP3    H110838   8.021   6.184   0.250 -0.8134  1.0135  0.8342
 3627TIP3    H210839   7.889   6.223   0.314 -1.4181 -0.8556  0.7766
 3628TIP3   OH210840   6.109   0.091   1.193 -0.0251  0.2098 -0.5498
 3628TIP3    H110841   6.166   0.048   1.130  0.6335  0.8970 -0.4301
 3628TIP3    H210842   6.074   0.019   1.246  2.2626 -0.1038  0.6543
 3629TIP3   OH210843   2.988   1.688   0.721 -0.3048  0.0223 -0.1917
 3629TIP3    H110844   3.035   1.663   0.800 -2.3126  0.7846  1.3238
 3629TIP3    H210845   3.031   1.769   0.692  4.6370 -3.2702 -3.7434
 3630TIP3   OH210846   2.402   3.760   3.186 -0.1637  0.3983 -0.2969
 3630TIP3    H110847   2.464   3.722   3.248  0.4393  1.1230 -0.4485
 3630TIP3    H210848   2.363   3.833   3.234 -2.6293 -1.3662  0.6530
 3631TIP3   OH210849   2.056   1.358   2.590 -0.0376 -0.3120 -0.1548
 3631TIP3    H110850   2.102   1.314   2.519  1.6772  1.1678 -0.0178
 3631TIP3    H210851   2.107   1.436   2.608 -1.4760  0.3381  1.4522
 3632TIP3   OH210852   6.497   3.139   1.623  0.2263  0.5274  0.5693
 3632TIP3    H110853   6.553   3.062   1.617  0.8701  0.9331  1.1961
 3632TIP3    H210854   6.425   3.111   1.680  1.4142  0.9012  2.3645
 3633TIP3   OH210855   3.582   0.452   1.379  0.0397 -0.1590  0.5912
 3633TIP3    H110856   3.619   0.506   1.309  0.5299 -0.1762  0.8328
 3633TIP3    H210857   3.527   0.513   1.429  1.0418  0.2790  1.2069
 3634TIP3   OH210858   3.054   0.672   2.737  0.1328  0.5391  0.2558
 3634TIP3    H110859   2.978   0.614   2.748 -0.1101  0.6015 -0.9402
 3634TIP3    H210860   3.017   0.751   2.696  0.5991  1.1998  1.0893
 3635TIP3   OH210861   5.894   4.875   6.439  0.1820  0.3020 -0.1731
 3635TIP3    H110862   5.982   4.909   6.425  0.1097  0.2561 -0.7692
 3635TIP3    H210863   5.849   4.890   6.355 -0.1534 -0.3380 -0.1146
 3636TIP3   OH210864   1.799   4.719   4.000 -0.0643 -0.2600 -0.2389
 3636TIP3    H110865   1.810   4.629   3.969  2.5421 -0.0544 -0.1295
 3636TIP3    H210866   1.883   4.741   4.040 -0.9705  1.9133  0.6163
 3637TIP3   OH210867   4.895   0.676   3.088 -0.4983  0.2340  0.1981
 3637TIP3    H110868   4.870   0.590   3.122  0.1648  0.0443  0.2158
 3637TIP3    H210869   4.959   0.709   3.151 -0.1479  0.3930 -0.2380
 3638TIP3   OH210870   0.168   1.847   0.346 -0.4814  0.4395 -0.1003
 3638TIP3    H110871   0.236   1.801   0.396 -0.5187 -0.8178 -1.1553
 3638TIP3    H210872   0.167   1.803   0.261 -1.7009  1.3198 -0.5682
 3639TIP3   OH210873   7.135   7.411   5.080  0.0502 -0.3117  0.3102
 3639TIP3    H110874   7.202   7.478   5.063 -0.7227  0.5276  0.5145
 3639TIP3    H210875   7.086   7.405   4.998  0.1533 -0.6769  0.2742
 3640TIP3   OH210876   6.406   1.570   4.162 -0.2980  0.0294  0.0001
 3640TIP3    H110877   6.381   1.602   4.248 -2.2124 -1.4819  0.0608
 3640TIP3    H210878   6.345   1.612   4.102 -2.1565 -2.5218 -0.0321
 3641TIP3   OH210879   5.275   5.668   4.070  0.5403 -0.2806 -0.6384
 3641TIP3    H110880   5.212   5.607   4.109  1.3170 -1.9787 -1.9070
 3641TIP3    H210881   5.236   5.691   3.985 -1.0204  3.1904  0.8010
 3642TIP3   OH210882   0.789   1.645   4.557  0.0611  0.1335  0.6904
 3642TIP3    H110883   0.727   1.608   4.621 -0.3463  1.2989  0.9986
 3642TIP3    H210884   0.734   1.698   4.499  0.7054  0.8751  0.7359
 3643TIP3   OH210885   2.433   0.839   6.072 -0.5311  0.0516  0.2465
 3643TIP3    H110886   2.402   0.929   6.062 -0.5744 -0.0328 -0.3986
 3643TIP3    H210887   2.382   0.804   6.145 -0.6494  0.4873  0.3778
 3644TIP3   OH210888   5.838   2.623   3.273  0.2309 -0.1887 -0.5829
 3644TIP3    H110889   5.813   2.552   3.214 -1.7483  0.6559 -0.8689
 3644TIP3    H210890   5.835   2.584   3.360  0.2236 -0.7119 -0.8111
 3645TIP3   OH210891   5.725   2.321   1.127 -0.2637 -0.3553  0.8202
 3645TIP3    H110892   5.690   2.373   1.199 -0.0705 -1.5644  1.8307
 3645TIP3    H210893   5.816   2.347   1.120 -0.6073  0.7359  0.0877
 3646TIP3   OH210894   1.986   3.899   6.722  0.2355 -0.2440 -0.8456
 3646TIP3    H110895   2.037   3.897   6.641 -0.3498 -2.5795 -1.2207
 3646TIP3    H210896   1.955   3.809   6.734 -1.1336  0.4030  1.0689
 3647TIP3   OH210897   5.200   2.983   4.660  0.0921 -0.2978  0.0541
 3647TIP3    H110898   5.161   2.969   4.746  3.1878  1.3002  1.8739
 3647TIP3    H210899   5.270   2.918   4.654  0.5804  0.2847 -0.8015
 3648TIP3   OH210900  -0.005   7.654   3.517  0.1181  0.3509 -0.4130
 3648TIP3    H110901  -0.044   7.740   3.530  0.3986  0.3907  0.1795
 3648TIP3    H210902   0.057   7.644   3.589  1.1060  0.2265 -1.2586
 3649TIP3   OH210903   6.908   4.138   4.440 -0.4930  0.3481 -0.3097
 3649TIP3    H110904   6.875   4.056   4.477  0.7838 -0.0422  0.0099
 3649TIP3    H210905   6.880   4.205   4.502  0.1161 -0.0957  0.4773
 3650TIP3   OH210906   2.902   4.178   2.564 -0.2931 -0.7754 -0.3024
 3650TIP3    H110907   2.983   4.228   2.565  0.5545 -2.0862 -0.1178
 3650TIP3    H210908   2.901   4.131   2.648 -2.0068  0.3542  0.3718
 3651TIP3   OH210909   2.575   5.313   2.265  0.3782  0.2387  0.7420
 3651TIP3    H110910   2.498   5.284   2.314 -1.2687  1.1338 -1.1483
 3651TIP3    H210911   2.557   5.288   2.174  2.5924  0.0116  0.3027
 3652TIP3   OH210912   7.844   2.274   3.556  0.1223  0.2344 -0.6414
 3652TIP3    H110913   7.810   2.244   3.640 -1.1265  0.7417 -0.9475
 3652TIP3    H210914   7.873   2.194   3.512 -0.3789 -0.1783 -0.2398
 3653TIP3   OH210915   5.089   0.092   5.188 -0.3108 -0.4532  0.0953
 3653TIP3    H110916   5.064   0.050   5.270 -1.4304 -2.5762 -1.2430
 3653TIP3    H210917   5.008   0.099   5.138  0.5685 -0.6983 -1.4571
 3654TIP3   OH210918   2.697   4.006   5.650 -0.1047 -0.4874  0.3958
 3654TIP3    H110919   2.614   3.974   5.615 -0.4867  1.5960 -0.7756
 3654TIP3    H210920   2.700   3.973   5.740 -1.0570 -2.5486 -0.2647
 3655TIP3   OH210921   7.098   7.566   6.544 -0.6258 -0.0068 -1.0575
 3655TIP3    H110922   7.067   7.571   6.454  0.1992 -0.1954 -1.3637
 3655TIP3    H210923   7.122   7.474   6.556  1.7102  0.4812 -1.5083
 3656TIP3   OH210924   3.423   6.158   3.411 -0.3063 -0.0550 -0.2099
 3656TIP3    H110925   3.339   6.112   3.409 -1.8454  2.5432  0.5641
 3656TIP3    H210926   3.470   6.125   3.335 -2.7701 -0.2328 -1.7596
 3657TIP3   OH210927   0.660   4.067   5.589  0.1180  0.1130  0.2030
 3657TIP3    H110928   0.712   3.995   5.623  0.8194  0.4670 -0.0913
 3657TIP3    H210929   0.669   4.137   5.654 -4.1216 -1.4053  2.8184
 3658TIP3   OH210930   3.206   0.681   4.127  0.7258 -0.0499 -0.7431
 3658TIP3    H110931   3.278   0.647   4.075 -0.6930 -2.8769 -1.0670
 3658TIP3    H210932   3.128   0.639   4.091 -0.3704 -2.5759  3.7075
 3659TIP3   OH210933   8.131   6.080   5.443 -0.3516  0.2226 -0.1381
 3659TIP3    H110934   8.219   6.045   5.434  0.0980  1.2693  0.0349
 3659TIP3    H210935   8.122   6.142   5.370 -0.8770  0.2474 -0.0595
 3660TIP3   OH210936   6.775   5.218   0.223 -0.2376  0.2241 -0.6675
 3660TIP3    H110937   6.804   5.310   0.222 -1.5904  0.6774 -1.2119
 3660TIP3    H210938   6.849   5.170   0.186  0.3923  1.1275 -0.6329
 3661TIP3   OH210939   5.428   7.691   5.383 -0.5519 -0.1788 -0.2217
 3661TIP3    H110940   5.367   7.668   5.313 -0.6437 -1.6331  0.3037
 3661TIP3    H210941   5.505   7.723   5.337 -0.7288 -0.8181 -0.9964
 3662TIP3   OH210942   5.611   5.147   1.552 -0.1274 -0.0441  0.2637
 3662TIP3    H110943   5.688   5.097   1.579  0.5883 -0.3011 -2.0503
 3662TIP3    H210944   5.538   5.108   1.600  0.7968 -1.5749  0.4714
 3663TIP3   OH210945   1.543   7.772   2.591  0.6088 -1.4384 -0.5403
 3663TIP3    H110946   1.507   7.861   2.594  0.2662 -1.5923  1.0387
 3663TIP3    H210947   1.479   7.719   2.638  1.8830 -2.1034  0.4999
 3664TIP3   OH210948   5.289   5.457   3.738 -0.0898 -0.8751 -0.1809
 3664TIP3    H110949   5.210   5.496   3.777 -0.4932 -0.2107 -1.5917
 3664TIP3    H210950   5.321   5.524   3.678  1.6130 -1.1248  0.4134
 3665TIP3   OH210951   5.992   6.269   4.100 -0.0017 -0.5705  0.1002
 3665TIP3    H110952   6.017   6.297   4.188 -0.4967 -0.2707  0.1471
 3665TIP3    H210953   5.956   6.347   4.059 -2.3059 -1.3217  0.5558
 3666TIP3   OH210954   3.140   3.267   4.310 -0.3973  0.1104 -0.2497
 3666TIP3    H110955   3.128   3.302   4.222 -1.2471 -0.9816 -0.6055
 3666TIP3    H210956   3.100   3.332   4.368 -0.6926  0.3834 -0.7554
 3667TIP3   OH210957   8.068   6.901   4.316 -0.3519  0.5591 -0.3814
 3667TIP3    H110958   8.099   6.875   4.229  1.2665  0.3665  0.2290
 3667TIP3    H210959   8.128   6.858   4.377  0.3788  3.0282  0.7597
 3668TIP3   OH210960   3.761   7.227   0.266 -0.1248  0.3724  0.1869
 3668TIP3    H110961   3.826   7.247   0.333 -1.1513  0.2575  1.2364
 3668TIP3    H210962   3.813   7.210   0.187  1.1230  0.1633  1.0263
 3669TIP3   OH210963   2.002   3.362   5.671 -0.4793 -0.1049 -0.5405
 3669TIP3    H110964   2.043   3.284   5.634 -0.1936  0.3088 -1.1077
 3669TIP3    H210965   2.019   3.357   5.765 -0.2762 -0.6122 -0.6053
 3670TIP3   OH210966   6.292   3.309   3.220 -0.1585 -0.7228  0.0788
 3670TIP3    H110967   6.316   3.256   3.143 -1.6723  2.3784 -2.8149
 3670TIP3    H210968   6.214   3.267   3.255 -1.1226 -0.7209 -1.9027
 3671TIP3   OH210969   7.044   6.047   3.524  0.2604  0.1865 -0.3557
 3671TIP3    H110970   6.981   6.073   3.591 -0.9546 -1.4659 -0.7901
 3671TIP3    H210971   7.066   5.956   3.546  0.0195 -0.3087 -2.0262
 3672TIP3   OH210972   3.922   4.327   3.163 -0.2394 -0.0748  0.7779
 3672TIP3    H110973   4.004   4.281   3.150 -0.0449  0.1411  1.2351
 3672TIP3    H210974   3.923   4.354   3.255 -0.6258  0.3057  0.6742
 3673TIP3   OH210975   0.299   2.956   5.223 -0.1104  0.0309 -0.5357
 3673TIP3    H110976   0.252   3.031   5.186  0.3190  0.5217 -0.1007
 3673TIP3    H210977   0.239   2.921   5.289  0.5396  1.3037  0.7718
 3674TIP3   OH210978   7.367   4.377   1.273 -0.0915 -0.0772 -0.1130
 3674TIP3    H110979   7.402   4.294   1.306  0.3339  0.5443  1.0526
 3674TIP3    H210980   7.440   4.439   1.280 -0.3621  0.3785 -1.1069
 3675TIP3   OH210981   2.656   7.406   2.487  0.5339 -0.0759  0.1038
 3675TIP3    H110982   2.610   7.322   2.497 -0.3343  0.3409 -0.2600
 3675TIP3    H210983   2.606   7.467   2.540  0.2703  0.5284 -0.8114
 3676TIP3   OH210984   8.200   3.087   1.515  0.6063 -0.2861 -0.2905
 3676TIP3    H110985   8.248   3.068   1.434 -0.1540 -0.8193 -0.6198
 3676TIP3    H210986   8.111   3.105   1.487  0.3823 -0.2576  0.4163
 3677TIP3   OH210987   8.230   1.110   1.061 -0.2733 -1.3542 -0.1694
 3677TIP3    H110988   8.240   1.101   0.966 -1.0617  0.4077 -0.4680
 3677TIP3    H210989   8.320   1.117   1.093  0.0394  1.5962 -1.2852
 3678TIP3   OH210990   0.620   5.203   0.552 -0.3857 -0.1038 -0.3574
 3678TIP3    H110991   0.574   5.120   0.540 -0.0711 -0.7357  2.2248
 3678TIP3    H210992   0.707   5.178   0.585 -0.6645  1.2033  1.5829
 3679TIP3   OH210993   1.747   6.342   4.566  0.1923  0.3754  0.5531
 3679TIP3    H110994   1.732   6.426   4.608  0.8062  0.2029  1.1372
 3679TIP3    H210995   1.677   6.334   4.501  0.4748  1.5936  0.0784
 3680TIP3   OH210996   4.765   2.759   3.907 -0.0254 -0.4020  0.0526
 3680TIP3    H110997   4.704   2.833   3.905 -0.3014 -0.6014  0.7633
 3680TIP3    H210998   4.751   2.713   3.824  0.4231  0.5547 -0.5647
 3681TIP3   OH210999   6.569   6.619   5.902  0.1272 -0.4378 -0.4200
 3681TIP3    H111000   6.660   6.647   5.908  0.5073 -1.6059 -0.4272
 3681TIP3    H211001   6.519   6.693   5.936  1.2680 -1.0380  2.9357
 3682TIP3   OH211002   1.951   4.218   1.602  0.0883 -0.5633  0.3569
 3682TIP3    H111003   2.022   4.282   1.608 -0.3757  0.0286 -0.2988
 3682TIP3    H211004   1.932   4.213   1.508 -0.4187 -1.0713  0.4848
 3683TIP3   OH211005   8.180   3.831   6.245  0.0318 -0.5212  0.0389
 3683TIP3    H111006   8.149   3.905   6.192  0.5632  0.5663  1.1877
 3683TIP3    H211007   8.155   3.754   6.195  0.0747  0.4429 -1.5514
 3684TIP3   OH211008   0.163   4.364   0.075 -0.1346  0.3408  0.2786
 3684TIP3    H111009   0.187   4.302   0.144 -0.3233 -1.2101 -0.9757
 3684TIP3    H211010   0.076   4.335   0.048 -0.2062  1.1478 -0.3790
 3685TIP3   OH211011   2.534   5.689   6.556  0.0878  0.2699 -0.1520
 3685TIP3    H111012   2.601   5.640   6.509  0.3793  0.7406 -0.2301
 3685TIP3    H211013   2.581   5.731   6.628 -0.1348  0.5377 -0.1599
 3686TIP3   OH211014   4.790   3.297   3.027  0.0207 -0.0002 -0.0386
 3686TIP3    H111015   4.706   3.339   3.012  0.9828  1.3796 -1.9620
 3686TIP3    H211016   4.833   3.299   2.941  1.9445 -0.8326  0.8595
 3687TIP3   OH211017   7.228   6.103   5.398  0.8041 -0.1737  0.1859
 3687TIP3    H111018   7.271   6.106   5.313  1.4592 -0.5153  0.4965
 3687TIP3    H211019   7.153   6.045   5.385  0.5100  0.3100 -0.3212
 3688TIP3   OH211020   8.183   3.523   3.907 -0.4338 -0.2106 -0.5246
 3688TIP3    H111021   8.134   3.469   3.970  1.4835 -0.6245  0.7073
 3688TIP3    H211022   8.219   3.594   3.960  0.2507  0.1012 -1.3895
 3689TIP3   OH211023   0.926   5.475   2.582 -0.8490  0.0055  0.2668
 3689TIP3    H111024   0.921   5.382   2.558  1.8736 -0.7133  2.1326
 3689TIP3    H211025   0.911   5.521   2.499 -2.4840 -2.0344 -0.6719
 3690TIP3   OH211026   2.205   7.611   2.638  0.7856 -0.4952  0.1240
 3690TIP3    H111027   2.155   7.691   2.623  1.4698  0.2971  1.7404
 3690TIP3    H211028   2.153   7.542   2.597 -1.7623  0.2410  1.8148
 3691TIP3   OH211029   5.726   5.307   3.640 -0.5179  0.0540 -0.1347
 3691TIP3    H111030   5.800   5.278   3.695 -0.5158  0.1134 -0.1069
 3691TIP3    H211031   5.755   5.288   3.550 -1.0558 -1.2905 -0.0492
 3692TIP3   OH211032   1.056   2.272   3.630  0.0523  0.1037 -0.4019
 3692TIP3    H111033   1.137   2.237   3.594  0.2771 -1.9835  1.9106
 3692TIP3    H211034   0.988   2.213   3.598  0.1130 -1.0800  1.5476
 3693TIP3   OH211035   5.845   6.122   6.716  0.6293  0.8062  0.3110
 3693TIP3    H111036   5.835   6.058   6.786 -0.2037  2.1522  1.4721
 3693TIP3    H211037   5.931   6.161   6.730  1.3847 -0.4003 -0.7387
 3694TIP3   OH211038   2.349   7.303   4.071 -0.2131  0.4897  0.2808
 3694TIP3    H111039   2.382   7.387   4.102 -1.1690  1.1928 -0.5340
 3694TIP3    H211040   2.256   7.303   4.097  0.0589 -0.8765  1.3941
 3695TIP3   OH211041   4.917   0.607   1.507  0.1282 -0.5245 -0.1094
 3695TIP3    H111042   4.945   0.665   1.436  2.2583  0.7230  1.6048
 3695TIP3    H211043   4.826   0.633   1.524 -0.1368 -0.2572 -1.7724
 3696TIP3   OH211044   4.014   7.027   2.832 -0.1723  0.2955 -0.3351
 3696TIP3    H111045   4.103   7.001   2.805 -0.2475 -1.0517  0.5732
 3696TIP3    H211046   3.959   7.007   2.756  0.0310 -0.7513 -0.2245
 3697TIP3   OH211047   1.993   5.724   6.084  0.0069  0.2238  0.0380
 3697TIP3    H111048   1.919   5.784   6.079  0.5195  0.9838  1.2722
 3697TIP3    H211049   2.067   5.776   6.052  0.2372 -0.1237  0.0095
 3698TIP3   OH211050   1.339   2.454   6.115  0.4738  0.4507  0.2597
 3698TIP3    H111051   1.390   2.463   6.034  0.4316 -0.7568  0.0819
 3698TIP3    H211052   1.321   2.361   6.122 -0.6394  0.6955  0.9916
 3699TIP3   OH211053   6.794   2.870   2.306  0.3410  0.1493  0.5426
 3699TIP3    H111054   6.808   2.801   2.371 -0.6752  0.1080  0.7397
 3699TIP3    H211055   6.742   2.936   2.352  0.0436  0.3538 -0.0716
 3700TIP3   OH211056   4.622   2.145   2.353 -0.0983  0.2578 -0.4267
 3700TIP3    H111057   4.656   2.229   2.322  1.8273  0.0305  0.9601
 3700TIP3    H211058   4.694   2.104   2.400 -1.1732 -1.9293 -0.5156
 3701TIP3   OH211059   5.077   4.762   6.091 -0.2143 -0.7566  0.3759
 3701TIP3    H111060   5.147   4.775   6.027 -0.5091  2.1681  0.4977
 3701TIP3    H211061   5.005   4.724   6.040 -0.1536  0.7228 -0.8898
 3702TIP3   OH211062   1.783   3.183   3.872 -0.1669  0.3788  0.4167
 3702TIP3    H111063   1.854   3.154   3.815 -2.0939 -0.4646 -1.7115
 3702TIP3    H211064   1.733   3.245   3.819 -1.5950  0.1895  1.4832
 3703TIP3   OH211065   4.791   6.895   4.893 -0.2387  0.1193  0.1869
 3703TIP3    H111066   4.823   6.965   4.950  0.1582  0.4406 -0.4171
 3703TIP3    H211067   4.856   6.825   4.902  0.7125  0.7847 -1.0666
 3704TIP3   OH211068   0.353   1.258   3.660 -0.2722  0.2317 -0.0845
 3704TIP3    H111069   0.427   1.301   3.703 -1.3145  1.3340  0.6440
 3704TIP3    H211070   0.325   1.319   3.592 -1.3245  0.4341  0.5036
 3705TIP3   OH211071   5.421   4.023   3.666  0.6328 -0.0094  0.0750
 3705TIP3    H111072   5.393   3.948   3.614 -1.0972  0.0395  0.8706
 3705TIP3    H211073   5.360   4.026   3.739 -0.5142  3.2097 -0.8392
 3706TIP3   OH211074   1.078   3.437   2.041 -0.7782 -0.4942 -0.1844
 3706TIP3    H111075   1.081   3.532   2.031  0.0085 -0.4091  0.7306
 3706TIP3    H211076   0.991   3.419   2.077 -0.0696  0.1674  2.0620
 3707TIP3   OH211077   5.039   6.650   4.931 -0.0611 -0.3619 -0.1568
 3707TIP3    H111078   4.994   6.649   5.015  1.7544 -0.2055  0.8810
 3707TIP3    H211079   5.129   6.676   4.952  0.1395  0.9650 -2.3272
 3708TIP3   OH211080   6.552   2.294   2.137  0.4992 -0.3263  0.1010
 3708TIP3    H111081   6.496   2.229   2.181  1.5001  0.2276  2.3720
 3708TIP3    H211082   6.492   2.347   2.086 -0.8435 -0.7422  1.1859
 3709TIP3   OH211083   3.650   5.569   5.881 -0.5488  0.0733 -0.3546
 3709TIP3    H111084   3.657   5.604   5.792 -0.8870 -1.5249 -1.0367
 3709TIP3    H211085   3.659   5.475   5.871  1.1108 -0.0261  1.5167
 3710TIP3   OH211086   2.083   4.729   5.373  0.5388 -0.2601  0.1830
 3710TIP3    H111087   2.014   4.736   5.308 -0.9285  0.3294  1.7281
 3710TIP3    H211088   2.112   4.638   5.368 -1.6804 -1.0578  0.7472
 3711TIP3   OH211089   2.720   0.224   1.356 -0.1374 -0.4461 -0.1775
 3711TIP3    H111090   2.668   0.304   1.354  0.4319 -0.0328  1.0408
 3711TIP3    H211091   2.761   0.220   1.269  0.7380  1.2035  0.1192
 3712TIP3   OH211092   4.400   2.682   1.719 -0.9059  0.3835  0.4185
 3712TIP3    H111093   4.308   2.660   1.707 -0.5975 -1.5911  1.2737
 3712TIP3    H211094   4.423   2.644   1.804  0.1824  2.6647  1.2216
 3713TIP3   OH211095   5.527   6.024   3.511  0.2914 -0.4830 -0.1234
 3713TIP3    H111096   5.454   6.016   3.449 -0.1683  0.1067  0.3256
 3713TIP3    H211097   5.530   5.939   3.556 -0.5485 -0.2998  0.3068
 3714TIP3   OH211098   4.200   3.643   5.801  0.7022 -0.3727  0.1254
 3714TIP3    H111099   4.291   3.671   5.814  0.4511  0.7880 -0.5286
 3714TIP3    H211100   4.164   3.638   5.889  0.9483  0.7445  0.2998
 3715TIP3   OH211101   2.571   0.615   3.452 -0.1113  0.1205 -0.2983
 3715TIP3    H111102   2.516   0.680   3.495 -0.9697 -0.8777  0.1200
 3715TIP3    H211103   2.573   0.643   3.360 -0.9166  0.4337 -0.2257
 3716TIP3   OH211104   0.965   0.131   5.812  0.5576 -0.6064 -0.4782
 3716TIP3    H111105   0.945   0.186   5.888 -0.3033 -1.0636 -0.3627
 3716TIP3    H211106   1.025   0.184   5.759 -0.5546  0.6151 -0.5664
 3717TIP3   OH211107   4.704   1.347   3.610  0.0869  0.3740 -0.0208
 3717TIP3    H111108   4.744   1.394   3.684 -1.0754 -1.0266  1.5514
 3717TIP3    H211109   4.610   1.360   3.622 -0.1317 -0.3579 -0.9261
 3718TIP3   OH211110   2.554   3.045   0.336  0.1906 -0.0166 -0.1470
 3718TIP3    H111111   2.637   2.997   0.346  1.2191  1.8087  0.6654
 3718TIP3    H211112   2.533   3.074   0.425 -0.5888  0.7038 -0.5622
 3719TIP3   OH211113   5.344   2.986   3.652 -1.0609 -0.2136  0.3098
 3719TIP3    H111114   5.434   2.962   3.631 -0.8854  0.8281 -0.1576
 3719TIP3    H211115   5.344   2.998   3.747 -0.6967 -0.1432  0.3016
 3720TIP3   OH211116   6.017   0.249   2.410 -0.2490 -0.2117 -0.4122
 3720TIP3    H111117   6.068   0.199   2.474 -0.0804  0.8471  0.3095
 3720TIP3    H211118   5.933   0.265   2.453  0.5085  2.0780  0.3511
 3721TIP3   OH211119   6.885   4.176   3.670 -0.0741  0.1925  0.4422
 3721TIP3    H111120   6.895   4.087   3.638 -0.2108  0.2791  0.1566
 3721TIP3    H211121   6.973   4.202   3.698  0.2330  0.4421 -0.7140
 3722TIP3   OH211122   2.604   6.461   4.029  0.0955  0.0674  0.2851
 3722TIP3    H111123   2.611   6.474   4.123 -0.0546  3.3359 -0.0330
 3722TIP3    H211124   2.511   6.474   4.009  0.4769  1.8694 -0.5246
 3723TIP3   OH211125   5.359   3.775   4.102 -0.1106  0.2630  0.3652
 3723TIP3    H111126   5.300   3.834   4.055  0.1771  2.3177  2.3795
 3723TIP3    H211127   5.305   3.700   4.124  0.0962 -1.5134 -4.2511
 3724TIP3   OH211128   6.840   6.410   3.319  0.0024  0.0782  0.2094
 3724TIP3    H111129   6.895   6.486   3.300  0.2858 -0.4409 -1.1519
 3724TIP3    H211130   6.752   6.437   3.292  0.5058 -0.8653 -2.5848
 3725TIP3   OH211131   2.880   1.677   5.390 -0.1394  0.2204  0.1099
 3725TIP3    H111132   2.824   1.752   5.412 -0.4212  0.0965 -0.1861
 3725TIP3    H211133   2.958   1.690   5.444 -0.0460  0.8997 -0.1804
 3726TIP3   OH211134   5.768   2.894   2.982  0.5207  0.2125 -0.0197
 3726TIP3    H111135   5.774   2.904   3.077  0.5751  0.5526 -0.0558
 3726TIP3    H211136   5.859   2.887   2.953  0.4769 -3.1896  0.2614
 3727TIP3   OH211137   3.282   3.320   4.951  0.3587 -0.1653  0.4389
 3727TIP3    H111138   3.265   3.227   4.967  1.9963 -0.4993  0.4696
 3727TIP3    H211139   3.357   3.320   4.892 -1.0964  1.1337 -1.5363
 3728TIP3   OH211140   0.385   6.819   0.032 -0.4646 -0.3620 -0.5952
 3728TIP3    H111141   0.422   6.790   0.115 -0.9552  1.1297  0.1754
 3728TIP3    H211142   0.305   6.767   0.021 -0.9480  0.1607  0.3937
 3729TIP3   OH211143   6.924   3.033   2.101 -0.3989 -0.0379 -0.4540
 3729TIP3    H111144   6.885   3.086   2.171 -0.6334 -0.4027 -0.3059
 3729TIP3    H211145   6.863   2.960   2.090  0.1408 -0.5055 -0.3583
 3730TIP3   OH211146   8.187   2.938   5.774  0.9165  0.0400 -0.4166
 3730TIP3    H111147   8.142   3.000   5.831  1.7962 -0.4835  0.8967
 3730TIP3    H211148   8.146   2.853   5.794  0.2411  0.0458 -1.6479
 3731TIP3   OH211149   5.310   0.840   5.021  0.5876  0.4384 -0.1013
 3731TIP3    H111150   5.277   0.834   5.110 -0.5595 -0.2365 -0.5421
 3731TIP3    H211151   5.380   0.905   5.024 -0.7235  1.8414  0.8992
 3732TIP3   OH211152   6.261   3.998   2.366  0.6771 -0.0416  0.5809
 3732TIP3    H111153   6.210   4.059   2.419  0.8028  0.8983 -0.3510
 3732TIP3    H211154   6.226   4.008   2.277  2.5854  0.7709 -0.1342
 3733TIP3   OH211155   6.337   7.467   0.602 -0.3316  0.0315  0.2344
 3733TIP3    H111156   6.323   7.555   0.568 -0.4869 -0.1445 -0.1668
 3733TIP3    H211157   6.310   7.409   0.530 -1.2554 -0.3539  0.8655
 3734TIP3   OH211158   2.499   3.561   2.513 -0.2011 -0.0930 -0.0780
 3734TIP3    H111159   2.543   3.540   2.595 -1.3890 -0.4401  0.4954
 3734TIP3    H211160   2.525   3.651   2.494 -2.3955  1.1676  2.3837
 3735TIP3   OH211161   8.102   0.334   0.688  0.7867 -0.0784  0.1825
 3735TIP3    H111162   8.109   0.258   0.629  0.9450 -0.4578  0.6833
 3735TIP3    H211163   8.124   0.409   0.633  1.2394 -0.4616 -0.1694
 3736TIP3   OH211164   6.664   6.784   5.149 -0.1146  0.0646  0.0698
 3736TIP3    H111165   6.741   6.796   5.205 -0.6970  1.6997  0.5799
 3736TIP3    H211166   6.649   6.870   5.110 -0.5422 -0.7050 -1.5653
 3737TIP3   OH211167   5.003   5.949   4.484  0.2819  0.3540 -0.1345
 3737TIP3    H111168   4.978   5.965   4.393 -0.2968 -1.5784 -0.3598
 3737TIP3    H211169   4.919   5.939   4.530  0.5656 -1.1480  0.1010
 3738TIP3   OH211170   8.065   6.741   1.942 -0.3553  0.4073  0.5128
 3738TIP3    H111171   8.157   6.715   1.933 -1.2165 -2.7164 -0.5263
 3738TIP3    H211172   8.034   6.693   2.019 -1.4590  0.3437  0.0407
 3739TIP3   OH211173   0.141   4.900   2.973  0.7725  0.3312  0.2214
 3739TIP3    H111174   0.094   4.816   2.970  1.6419 -0.2538  1.9154
 3739TIP3    H211175   0.204   4.895   2.901  1.1848 -0.7036  0.6395
 3740TIP3   OH211176   7.415   6.893   1.697  0.1659 -0.6966 -0.0904
 3740TIP3    H111177   7.439   6.983   1.718  1.3544 -0.8750 -0.6055
 3740TIP3    H211178   7.367   6.900   1.615  0.3782 -0.5373 -0.2021
 3741TIP3   OH211179   1.684   5.462   3.707  0.0655 -0.4317 -0.0724
 3741TIP3    H111180   1.600   5.464   3.661  1.5183 -1.8295 -3.0811
 3741TIP3    H211181   1.704   5.369   3.718  1.3767 -0.1318  0.2974
 3742TIP3   OH211182   6.663   6.246   5.709 -0.0167 -0.0176 -0.4146
 3742TIP3    H111183   6.634   6.200   5.630 -0.5482  1.4660 -1.1151
 3742TIP3    H211184   6.596   6.311   5.726  0.2165 -0.1340  1.1435
 3743TIP3   OH211185   0.703   3.072   1.608  0.2110  0.2196  0.3510
 3743TIP3    H111186   0.678   3.071   1.700  1.4069  0.2139  0.6800
 3743TIP3    H211187   0.798   3.073   1.608  0.2684 -0.9739 -0.8868
 3744TIP3   OH211188   4.589   7.813   5.867  0.3949 -0.0631  0.1200
 3744TIP3    H111189   4.633   7.750   5.809  0.3665  0.0742 -0.0522
 3744TIP3    H211190   4.527   7.761   5.917  1.5760 -0.4774  1.2311
 3745TIP3   OH211191   3.932   0.972   2.041 -0.6561 -0.5431 -0.0795
 3745TIP3    H111192   4.024   0.967   2.067 -0.1068 -0.6193 -1.8983
 3745TIP3    H211193   3.933   0.952   1.947 -2.4317  0.2817 -0.3044
 3746TIP3   OH211194   1.660   5.603   4.514 -0.0666  0.3263 -0.2503
 3746TIP3    H111195   1.654   5.576   4.605  2.9782  2.0698  0.6176
 3746TIP3    H211196   1.639   5.697   4.516  0.0331  0.3842 -1.3596
 3747TIP3   OH211197   5.581   0.126   1.926  0.2552 -0.7232  0.0761
 3747TIP3    H111198   5.489   0.142   1.943  0.0001 -1.1783 -0.8233
 3747TIP3    H211199   5.616   0.210   1.896  0.1063 -0.5881  0.2809
 3748TIP3   OH211200   1.803   3.201   5.987  0.5366  0.6691  0.1827
 3748TIP3    H111201   1.845   3.150   5.917 -2.1033 -0.1012 -0.9403
 3748TIP3    H211202   1.835   3.161   6.068  2.1686  0.3295 -0.5915
 3749TIP3   OH211203   6.931   6.346   3.594 -1.2992 -0.2357 -0.2866
 3749TIP3    H111204   6.846   6.388   3.578 -0.8320  1.8351  1.9919
 3749TIP3    H211205   6.910   6.263   3.635 -2.3118  1.0536  1.9708
 3750TIP3   OH211206   0.169   4.073   3.169  0.4189 -1.2100  0.2102
 3750TIP3    H111207   0.087   4.119   3.153  1.5977  1.9885  2.2588
 3750TIP3    H211208   0.206   4.060   3.082 -0.9599 -0.0461 -0.5943
 3751TIP3   OH211209   1.542   2.014   5.898 -0.0030  0.0243 -1.3201
 3751TIP3    H111210   1.617   2.045   5.948 -0.6204  1.7280 -1.3846
 3751TIP3    H211211   1.568   1.928   5.866  0.4614 -1.1157  1.8033
 3752TIP3   OH211212   5.673   0.574   1.171 -0.3319 -0.1987 -1.1004
 3752TIP3    H111213   5.602   0.512   1.162  0.5233 -1.2226 -0.9994
 3752TIP3    H211214   5.739   0.544   1.109  0.0570  0.6641 -1.1162
 3753TIP3   OH211215   7.293   3.748   0.912  0.1280 -0.3730 -0.3959
 3753TIP3    H111216   7.204   3.761   0.879 -0.6829 -2.5325  0.7745
 3753TIP3    H211217   7.282   3.726   1.004  1.9110 -0.5432 -0.1843
 3754TIP3   OH211218   1.089   4.869   0.799  0.4290 -0.1548 -0.4115
 3754TIP3    H111219   1.024   4.799   0.792 -0.2985  0.6433 -2.7260
 3754TIP3    H211220   1.171   4.829   0.771  0.7819 -0.8906  1.5097
 3755TIP3   OH211221   4.391   7.652   5.982  0.2603 -0.5964 -0.0727
 3755TIP3    H111222   4.339   7.704   5.920 -0.3586 -1.1645 -0.0439
 3755TIP3    H211223   4.334   7.578   6.004  1.2852 -1.5173 -0.4426
 3756TIP3   OH211224   6.437   0.144   3.366 -0.1661 -0.1244  0.3838
 3756TIP3    H111225   6.389   0.142   3.283 -0.4242  0.7967  0.4977
 3756TIP3    H211226   6.368   0.149   3.433  0.0711  0.3271  0.5953
 3757TIP3   OH211227   2.213   7.309   2.845 -0.7171 -0.1570  0.6087
 3757TIP3    H111228   2.222   7.232   2.789  0.6427 -1.9157  3.0571
 3757TIP3    H211229   2.122   7.307   2.875 -1.1604  0.2100 -0.6708
 3758TIP3   OH211230   7.506   4.788   2.257  0.2349 -0.3959  0.4161
 3758TIP3    H111231   7.497   4.722   2.326  0.1149  1.6805  2.5032
 3758TIP3    H211232   7.466   4.867   2.293 -1.5424  0.3611 -2.7968
 3759TIP3   OH211233   5.409   2.742   0.636  0.1543 -0.2937 -0.2983
 3759TIP3    H111234   5.411   2.830   0.597 -1.7100 -0.3644 -0.6650
 3759TIP3    H211235   5.346   2.749   0.707 -0.4986 -1.4633 -0.7320
 3760TIP3   OH211236   1.165   3.112   0.435  0.0735 -0.2354 -0.1074
 3760TIP3    H111237   1.256   3.107   0.462 -0.0667 -0.8669  0.2522
 3760TIP3    H211238   1.116   3.126   0.516 -0.1425  0.2249 -0.3107
 3761TIP3   OH211239   4.439   3.919   4.358  0.6158  0.3058 -0.2785
 3761TIP3    H111240   4.349   3.936   4.385  0.3975 -0.5676 -0.4496
 3761TIP3    H211241   4.438   3.830   4.324  1.6350  0.1204  0.1389
 3762TIP3   OH211242   5.177   3.667   2.972 -0.5295  0.0837 -0.2255
 3762TIP3    H111243   5.268   3.641   2.984  0.0413  0.5263 -2.9023
 3762TIP3    H211244   5.179   3.762   2.962 -1.0071 -0.0346 -1.8744
 3763TIP3   OH211245   0.451   5.296   0.785 -0.3754 -0.1230 -0.7635
 3763TIP3    H111246   0.431   5.214   0.740  0.7622 -0.7908 -0.1076
 3763TIP3    H211247   0.544   5.311   0.767 -0.3508  0.5531 -0.1407
 3764TIP3   OH211248   0.573   1.280   3.434 -0.1317  0.4461  0.3343
 3764TIP3    H111249   0.564   1.216   3.364  2.0815  0.2875  0.1280
 3764TIP3    H211250   0.664   1.308   3.431 -0.1223  0.9532  2.7105
 3765TIP3   OH211251   6.293   0.582   3.847  0.1750 -0.3744 -0.0142
 3765TIP3    H111252   6.348   0.628   3.783  0.9310  0.1197  0.9651
 3765TIP3    H211253   6.300   0.490   3.823 -2.1098 -0.0179 -2.6001
 3766TIP3   OH211254   2.629   5.701   0.049 -0.1172  0.7011  0.4023
 3766TIP3    H111255   2.629   5.618   0.097 -0.3691 -1.3392 -2.8449
 3766TIP3    H211256   2.537   5.714   0.024  0.1395  1.1682 -0.3315
 3767TIP3   OH211257   7.121   5.804   3.725 -0.4082 -0.2957  0.2112
 3767TIP3    H111258   7.215   5.800   3.706 -0.5791  0.4304 -0.8393
 3767TIP3    H211259   7.115   5.777   3.817  1.0642  1.5699  0.9401
 3768TIP3   OH211260   7.210   2.359   3.189 -0.6918 -0.0173 -0.5959
 3768TIP3    H111261   7.304   2.343   3.198 -0.5209  0.5126 -1.3478
 3768TIP3    H211262   7.181   2.295   3.123 -0.9198 -0.3880 -0.1376
 3769TIP3   OH211263   0.801   5.046   2.213  0.0403  0.3822 -0.1509
 3769TIP3    H111264   0.888   5.035   2.250 -0.6025 -0.6954  1.1333
 3769TIP3    H211265   0.757   5.106   2.273 -0.0036  1.2584 -1.0229
 3770TIP3   OH211266   2.269   4.655   3.636  0.0516 -0.0736  0.0894
 3770TIP3    H111267   2.219   4.578   3.610 -0.0415 -0.0837  0.2932
 3770TIP3    H211268   2.315   4.682   3.557 -0.9872  0.4847 -0.3547
 3771TIP3   OH211269   6.268   2.734   5.756  0.4572  0.0241  0.1009
 3771TIP3    H111270   6.244   2.726   5.664  1.0113  1.2559 -0.1668
 3771TIP3    H211271   6.301   2.824   5.765  0.5454 -0.1194  1.4658
 3772TIP3   OH211272   2.129   3.073   2.462  0.3276 -0.2978 -0.1668
 3772TIP3    H111273   2.197   3.110   2.519  0.0316 -0.0202  0.0089
 3772TIP3    H211274   2.178   3.026   2.395  0.7022  0.0071 -0.1142
 3773TIP3   OH211275   5.608   7.285   6.106  0.7263  0.5361  0.3370
 3773TIP3    H111276   5.698   7.317   6.094  0.4914  0.6631 -1.2063
 3773TIP3    H211277   5.564   7.357   6.153  0.8561  1.4637 -0.9070
 3774TIP3   OH211278   3.125   6.778   5.072  0.5362  0.8592 -0.1918
 3774TIP3    H111279   3.135   6.685   5.092 -0.4107  1.4111  3.4799
 3774TIP3    H211280   3.195   6.821   5.121 -0.0839  2.2274 -0.4608
 3775TIP3   OH211281   3.871   2.757   1.429  0.1733 -0.6457  0.3914
 3775TIP3    H111282   3.815   2.680   1.444  0.5422 -0.9120  0.4107
 3775TIP3    H211283   3.833   2.825   1.484 -0.3842 -0.7014  0.0860
 3776TIP3   OH211284   3.167   7.016   0.343 -0.3287  0.0501 -0.3896
 3776TIP3    H111285   3.167   7.083   0.275 -1.6072  1.5596  1.0013
 3776TIP3    H211286   3.090   7.037   0.396 -0.0971 -1.8486  0.7732
 3777TIP3   OH211287   1.600   5.365   2.298  0.3804 -0.4351  0.0900
 3777TIP3    H111288   1.560   5.361   2.211 -1.3805  0.6505  0.7814
 3777TIP3    H211289   1.682   5.413   2.285 -0.8469  1.5682 -0.7021
 3778TIP3   OH211290   4.837   1.846   3.181 -0.1619  0.2264  0.1111
 3778TIP3    H111291   4.846   1.823   3.088 -0.3965 -0.9402  0.3611
 3778TIP3    H211292   4.744   1.862   3.192 -0.2893 -0.6585  0.3631
 3779TIP3   OH211293   8.117   0.555   6.334 -0.4654  0.0847  0.4767
 3779TIP3    H111294   8.177   0.582   6.265  1.3314  0.2728  2.0302
 3779TIP3    H211295   8.139   0.611   6.408 -0.3873 -1.9295  2.0832
 3780TIP3   OH211296   7.201   0.285   6.046  0.1731 -0.6076  0.0099
 3780TIP3    H111297   7.138   0.257   5.979 -0.0470 -0.4804  0.1627
 3780TIP3    H211298   7.256   0.349   6.001 -0.4812  0.0813  0.1684
 3781TIP3   OH211299   2.890   0.363   1.531  0.0871  0.2754  0.0293
 3781TIP3    H111300   2.844   0.316   1.461 -0.5209  1.8294 -0.6774
 3781TIP3    H211301   2.821   0.406   1.581  0.6434  1.1223  0.1060
 3782TIP3   OH211302   7.443   3.066   2.182  0.1409  0.5257  0.0149
 3782TIP3    H111303   7.407   3.142   2.228  0.6536 -0.0653  1.4586
 3782TIP3    H211304   7.495   3.021   2.248  2.2249  0.4690 -1.5317
 3783TIP3   OH211305   4.673   5.352   4.025 -0.0103 -0.0993  0.2545
 3783TIP3    H111306   4.672   5.281   3.960  0.3374  0.2984 -0.1938
 3783TIP3    H211307   4.729   5.419   3.986  0.7547 -0.1281  1.2707
 3784TIP3   OH211308   4.604   2.675   2.788 -0.9173  0.2149 -0.0223
 3784TIP3    H111309   4.596   2.658   2.882 -0.4700 -1.5500 -0.2501
 3784TIP3    H211310   4.659   2.753   2.782  0.3310 -0.5221  1.1860
 3785TIP3   OH211311   0.855   1.375   3.491  0.1810 -0.0236 -0.1492
 3785TIP3    H111312   0.864   1.471   3.485  0.8427 -0.1475 -1.7006
 3785TIP3    H211313   0.815   1.360   3.577  1.8794  1.5070  0.9834
 3786TIP3   OH211314   3.266   3.085   1.739  0.2772 -0.0130 -0.2243
 3786TIP3    H111315   3.259   3.017   1.805  1.4045 -0.1212 -0.1974
 3786TIP3    H211316   3.360   3.100   1.730  0.1458  0.0571 -1.7344
 3787TIP3   OH211317   6.714   3.570   2.160  0.1028 -0.0329  0.3323
 3787TIP3    H111318   6.788   3.521   2.195  1.1621  0.8441 -0.6138
 3787TIP3    H211319   6.649   3.503   2.139  0.9885 -0.9116  0.3239
 3788TIP3   OH211320   2.000   7.153   3.703  0.1757 -0.9296 -0.2632
 3788TIP3    H111321   2.085   7.182   3.671 -0.2049  1.2870  0.5424
 3788TIP3    H211322   1.982   7.211   3.777 -2.3306 -0.8883 -0.8289
 3789TIP3   OH211323   0.029   6.616   2.467 -0.5190  0.5037 -0.6189
 3789TIP3    H111324   0.104   6.633   2.410  0.2358 -1.2164 -0.2071
 3789TIP3    H211325   0.040   6.678   2.539  1.3196 -0.6138  0.1294
 3790TIP3   OH211326   1.676   0.154   0.953  0.3687 -0.2682 -0.0994
 3790TIP3    H111327   1.610   0.088   0.974 -0.8732  0.5508 -1.2309
 3790TIP3    H211328   1.730   0.161   1.032 -1.9580  0.2742  1.5411
 3791TIP3   OH211329   3.141   1.177   3.163  0.2042 -0.3726  0.2497
 3791TIP3    H111330   3.236   1.180   3.179  0.0800  0.7429  0.8720
 3791TIP3    H211331   3.103   1.158   3.249 -0.2025  0.6117  0.3029
 3792TIP3   OH211332   1.067   7.076   3.108 -0.4503  0.2488 -0.3292
 3792TIP3    H111333   0.972   7.073   3.102 -0.5235 -1.0923  0.9334
 3792TIP3    H211334   1.087   7.038   3.194  1.2136  0.5969 -0.5282
 3793TIP3   OH211335   5.508   5.173   3.545  0.1732  0.1225  0.1102
 3793TIP3    H111336   5.576   5.237   3.567  0.8559 -0.7057  0.4745
 3793TIP3    H211337   5.464   5.210   3.468 -1.2598  2.3525  1.8712
 3794TIP3   OH211338   6.089   7.093   0.397  0.4538  0.3138 -0.0613
 3794TIP3    H111339   5.998   7.063   0.402  1.3108 -2.4014  0.9620
 3794TIP3    H211340   6.131   7.031   0.338  1.4516  2.1964 -1.3885
 3795TIP3   OH211341   3.404   0.301   6.578 -0.3666 -0.2201  0.0161
 3795TIP3    H111342   3.455   0.220   6.571 -0.6433 -0.5485  1.5399
 3795TIP3    H211343   3.318   0.278   6.543 -0.9290 -1.0581  1.8626
 3796TIP3   OH211344   3.502   6.508   5.446 -0.1231  0.1674  0.6094
 3796TIP3    H111345   3.413   6.503   5.482 -0.4666 -0.3089 -0.2821
 3796TIP3    H211346   3.494   6.570   5.373  0.1153 -0.4027  0.0919
 3797TIP3   OH211347   4.985   2.927   0.855 -0.1078  0.3533 -0.1400
 3797TIP3    H111348   4.909   2.950   0.909 -1.1022 -2.1181 -0.3340
 3797TIP3    H211349   5.061   2.943   0.912 -0.7813  2.1912  0.3053
 3798TIP3   OH211350   1.997   4.250   0.946 -0.1214  0.3123  0.1397
 3798TIP3    H111351   2.001   4.163   0.908 -1.8042  0.6038 -0.7889
 3798TIP3    H211352   2.013   4.236   1.040  2.0317 -0.6576 -0.3033
 3799TIP3   OH211353   1.401   3.504   2.455 -0.0261 -0.6746 -0.5485
 3799TIP3    H111354   1.345   3.582   2.459 -0.8527 -1.2748  0.2668
 3799TIP3    H211355   1.348   3.435   2.497  1.1621 -1.3708 -0.1491
 3800TIP3   OH211356   4.843   2.800   2.230  0.2316  0.2755  0.3581
 3800TIP3    H111357   4.819   2.730   2.292  0.7632  0.4029  0.7162
 3800TIP3    H211358   4.933   2.823   2.254  0.9878 -0.6500 -1.3673
 3801TIP3   OH211359   4.589   3.674   1.691  0.0567 -0.3832  0.0030
 3801TIP3    H111360   4.592   3.600   1.631 -0.8822  0.6833 -1.4265
 3801TIP3    H211361   4.648   3.739   1.653  0.2195 -0.0697  0.7787
 3802TIP3   OH211362   4.872   4.100   5.694  0.0713 -0.5375  0.0611
 3802TIP3    H111363   4.897   4.173   5.638 -0.3249  0.1888  0.8171
 3802TIP3    H211364   4.951   4.080   5.744  0.3621 -1.0468 -0.5777
 3803TIP3   OH211365   7.558   0.534   2.213  0.2908  0.4849 -0.0686
 3803TIP3    H111366   7.491   0.466   2.227  1.5273 -1.1044 -1.4195
 3803TIP3    H211367   7.509   0.609   2.181 -1.0507  0.0060  0.7615
 3804TIP3   OH211368   3.109   6.900   6.571  0.8286 -0.2266  0.0024
 3804TIP3    H111369   3.131   6.989   6.543 -2.0592  0.8433  0.7345
 3804TIP3    H211370   3.073   6.859   6.492  1.0699 -0.3331 -0.0514
 3805TIP3   OH211371   4.321   5.945   2.371  0.1277 -0.3317  0.1805
 3805TIP3    H111372   4.356   5.860   2.345  2.1197  0.2982  0.5867
 3805TIP3    H211373   4.398   5.996   2.395 -1.0866  1.3037  0.8168
 3806TIP3   OH211374   4.211   3.708   1.665 -0.0022 -0.1377 -0.5242
 3806TIP3    H111375   4.257   3.633   1.627  0.2449  0.3239 -1.1551
 3806TIP3    H211376   4.250   3.784   1.623 -0.2295  0.3558  0.1287
 3807TIP3   OH211377   4.925   7.051   1.764 -0.4377  0.3485  0.8993
 3807TIP3    H111378   4.883   7.103   1.695  1.1742  0.9246  0.3107
 3807TIP3    H211379   4.948   7.115   1.832  0.0433  0.1421  0.9352
 3808TIP3   OH211380   4.637   1.212   0.053 -0.6249 -0.1495  0.0647
 3808TIP3    H111381   4.667   1.172  -0.029  2.0644 -1.6744  1.6423
 3808TIP3    H211382   4.578   1.147   0.092  2.6890 -2.3121  1.9770
 3809TIP3   OH211383   8.269   1.442   0.752 -0.4533 -0.5458 -0.0249
 3809TIP3    H111384   8.270   1.531   0.786  0.8692 -0.7630  0.5717
 3809TIP3    H211385   8.176   1.418   0.750 -1.0064  1.4518 -1.9081
 3810TIP3   OH211386   1.520   5.545   3.394  0.4337  0.6337  0.1477
 3810TIP3    H111387   1.445   5.601   3.376 -0.7926 -1.2352 -0.8443
 3810TIP3    H211388   1.579   5.559   3.319 -0.9554 -1.0777 -1.3530
 3811TIP3   OH211389   2.228   3.003   4.736 -0.2324 -0.2968 -0.5012
 3811TIP3    H111390   2.286   2.931   4.759  0.2166  0.4388  0.7308
 3811TIP3    H211391   2.150   2.960   4.699 -0.2149 -1.4489  0.7285
 3812TIP3   OH211392   4.658   0.895   0.936  0.4914 -0.4434 -0.0546
 3812TIP3    H111393   4.680   0.816   0.985  2.1689  0.2211  0.3279
 3812TIP3    H211394   4.607   0.948   0.998  0.0271 -0.8899 -0.0530
 3813TIP3   OH211395   2.700   0.805   4.970  0.6900  0.4544 -0.1534
 3813TIP3    H111396   2.686   0.799   5.064  1.3681 -1.1661 -0.1299
 3813TIP3    H211397   2.702   0.899   4.952 -0.8123  0.7796  1.2150
 3814TIP3   OH211398   1.377   4.878   6.230  0.6091  0.4837 -0.0172
 3814TIP3    H111399   1.312   4.944   6.256  0.3915 -0.1001  0.9797
 3814TIP3    H211400   1.382   4.885   6.135 -0.3117  1.1008 -0.0338
 3815TIP3   OH211401   3.048   5.853   2.847  0.1369  0.3436 -0.3449
 3815TIP3    H111402   3.025   5.767   2.812 -0.8721 -0.2681  1.6162
 3815TIP3    H211403   2.968   5.904   2.839  0.0249  0.3346  0.5314
 3816TIP3   OH211404   0.513   1.410   2.946  0.3453  0.4406 -0.0589
 3816TIP3    H111405   0.546   1.498   2.929  0.7735  0.7875  2.2276
 3816TIP3    H211406   0.591   1.359   2.966 -0.0881  0.0956  0.7964
 3817TIP3   OH211407   3.216   0.998   1.596  0.2135 -0.3655  0.0015
 3817TIP3    H111408   3.153   1.048   1.546  0.1220 -0.1539  0.3236
 3817TIP3    H211409   3.248   1.059   1.663 -0.2176 -0.8594  0.6689
 3818TIP3   OH211410   7.202   5.080   4.546 -0.0277  0.0121  0.1710
 3818TIP3    H111411   7.141   5.040   4.609  0.8524  0.1340  1.1213
 3818TIP3    H211412   7.145   5.126   4.484 -1.1666 -3.2473 -1.4542
 3819TIP3   OH211413   0.230   1.685   4.822 -0.0053 -0.4307 -0.2839
 3819TIP3    H111414   0.228   1.618   4.753 -1.9069 -0.3632 -0.3526
 3819TIP3    H211415   0.231   1.768   4.774  2.1081 -0.3464 -0.1969
 3820TIP3   OH211416   0.379   5.783   0.477 -0.2199 -0.6608  0.2069
 3820TIP3    H111417   0.376   5.840   0.553 -1.6875  0.2176 -0.4765
 3820TIP3    H211418   0.400   5.696   0.513  0.5669  0.0038  1.4182
 3821TIP3   OH211419   5.153   1.725   5.222  0.4821  0.8569  0.0810
 3821TIP3    H111420   5.167   1.719   5.128  1.9413  0.9433  0.2736
 3821TIP3    H211421   5.149   1.634   5.252 -0.3645  0.8252 -0.1018
 3822TIP3   OH211422   3.163   0.907   1.274 -0.0371 -0.2502 -0.0020
 3822TIP3    H111423   3.095   0.937   1.334  0.5776 -0.2122  0.6889
 3822TIP3    H211424   3.240   0.891   1.330  0.2647 -1.1272 -0.6360
 3823TIP3   OH211425   0.606   5.585   1.217  0.2618 -0.6523 -0.0100
 3823TIP3    H111426   0.596   5.491   1.205 -1.1052 -0.4903 -0.3817
 3823TIP3    H211427   0.562   5.604   1.300  1.2008 -0.4348  0.4489
 3824TIP3   OH211428   3.318   0.397   4.753 -0.4389  0.0680 -0.2395
 3824TIP3    H111429   3.414   0.396   4.761 -0.5526 -1.3091  1.8905
 3824TIP3    H211430   3.299   0.332   4.685  0.1153 -0.8107  0.4199
 3825TIP3   OH211431   7.542   2.915   2.378  0.3158 -0.5959 -0.0601
 3825TIP3    H111432   7.493   2.835   2.393 -0.4322 -0.3277 -0.9488
 3825TIP3    H211433   7.568   2.944   2.465 -0.7212 -0.9978  0.4033
 3826TIP3   OH211434   6.524   4.759   0.476  0.2422 -0.3367 -0.5245
 3826TIP3    H111435   6.568   4.784   0.395  0.6026  0.2682 -0.1494
 3826TIP3    H211436   6.475   4.838   0.502  0.6660 -0.2979  0.1930
 3827TIP3   OH211437   1.454   3.855   6.352 -0.3119  0.7597  0.3578
 3827TIP3    H111438   1.486   3.797   6.282  0.5253  0.6133  0.8494
 3827TIP3    H211439   1.365   3.824   6.370  0.3865 -0.8960  1.1460
 3828TIP3   OH211440   5.144   4.358   3.836 -0.0158  0.2217 -0.2190
 3828TIP3    H111441   5.063   4.319   3.869 -1.4522  1.1426 -2.4227
 3828TIP3    H211442   5.146   4.334   3.744  1.3499  1.6496 -0.6027
 3829TIP3   OH211443   6.250   3.190   3.790  1.0765 -0.3020  0.2163
 3829TIP3    H111444   6.226   3.143   3.870  1.5095 -0.5503  0.2012
 3829TIP3    H211445   6.332   3.149   3.761  1.8339  0.9261  0.5859
 3830TIP3   OH211446   3.148   0.003   5.747  0.0295  0.5219 -0.3788
 3830TIP3    H111447   3.214   0.058   5.790  0.2784 -0.1215  0.0866
 3830TIP3    H211448   3.070   0.011   5.802 -0.2599  1.2324 -0.8933
 3831TIP3   OH211449   3.723   6.487   6.180 -0.0232 -0.5041 -0.3006
 3831TIP3    H111450   3.769   6.467   6.098  2.3217  0.5943  0.6468
 3831TIP3    H211451   3.715   6.582   6.180 -2.2203 -0.6393 -0.3137
 3832TIP3   OH211452   7.480   6.132   0.362 -0.1325  0.2026 -0.2605
 3832TIP3    H111453   7.433   6.102   0.440  0.2469 -0.6439 -0.3416
 3832TIP3    H211454   7.547   6.065   0.347 -0.6706 -0.0432 -1.7459
 3833TIP3   OH211455   1.968   4.138   4.655 -0.4716 -0.3459  0.4928
 3833TIP3    H111456   1.932   4.183   4.579 -0.4883 -1.7812 -0.3889
 3833TIP3    H211457   1.895   4.086   4.689 -0.2044 -0.4586  0.9032
 3834TIP3   OH211458   6.465   6.626   2.270 -0.2278  0.7218 -0.0549
 3834TIP3    H111459   6.410   6.559   2.230  0.5222 -0.2854  0.5475
 3834TIP3    H211460   6.411   6.664   2.340 -0.2265 -0.1663  0.4454
 3835TIP3   OH211461   7.784   2.308   0.666 -0.3685 -0.5967 -0.0538
 3835TIP3    H111462   7.879   2.312   0.654 -0.4327  0.1566 -0.3814
 3835TIP3    H211463   7.770   2.346   0.753 -0.2939 -1.6364  0.4206
 3836TIP3   OH211464   7.105   4.729   0.445  0.1874 -0.2121  0.1528
 3836TIP3    H111465   7.196   4.718   0.475 -0.5697  1.4953  3.5354
 3836TIP3    H211466   7.060   4.650   0.474 -0.1163  0.5649  1.9227
 3837TIP3   OH211467   7.312   2.429   5.343 -0.3086 -0.3944 -0.0064
 3837TIP3    H111468   7.277   2.415   5.255  0.5894 -0.4353 -0.3668
 3837TIP3    H211469   7.237   2.462   5.394 -1.3503 -2.2479 -0.2558
 3838TIP3   OH211470   4.585   0.256   4.415 -0.3169 -0.0935 -0.1857
 3838TIP3    H111471   4.566   0.179   4.362 -0.4648 -0.5013  0.4433
 3838TIP3    H211472   4.517   0.256   4.483  0.9678 -0.7032  1.1727
 3839TIP3   OH211473   3.603   6.209   6.736  0.6054  0.3403 -0.9824
 3839TIP3    H111474   3.555   6.291   6.740  0.1735  0.0679 -0.5361
 3839TIP3    H211475   3.613   6.192   6.642 -1.0889 -0.1288 -1.1085
 3840TIP3   OH211476   5.193   2.648   1.459  0.3055 -0.1537 -0.1553
 3840TIP3    H111477   5.217   2.565   1.418 -0.8677 -0.6258  0.0944
 3840TIP3    H211478   5.155   2.624   1.543 -0.0651  0.6299 -0.0855
 3841TIP3   OH211479   7.683   4.349   5.497 -0.3947  0.3381  0.3374
 3841TIP3    H111480   7.766   4.328   5.539 -0.9291 -2.6475  0.1371
 3841TIP3    H211481   7.624   4.280   5.526 -1.8465  0.3925 -2.2391
 3842TIP3   OH211482   0.626   6.254   5.890 -0.0283  0.2845 -0.3771
 3842TIP3    H111483   0.713   6.272   5.854 -0.3582  1.2207 -0.7298
 3842TIP3    H211484   0.626   6.296   5.976 -0.2244  0.5201 -0.4920
 3843TIP3   OH211485   4.138   0.817   0.591  0.3223  0.1651 -0.3349
 3843TIP3    H111486   4.226   0.854   0.597  0.9552 -1.4796  2.4395
 3843TIP3    H211487   4.091   0.854   0.666 -0.4517 -1.0529 -0.1791
 3844TIP3   OH211488   7.283   5.623   2.642  0.0055 -0.3633 -0.4784
 3844TIP3    H111489   7.356   5.685   2.649 -0.3290 -0.0548  0.4717
 3844TIP3    H211490   7.222   5.666   2.582 -0.5046  0.5535  0.6432
 3845TIP3   OH211491   3.182   1.961   5.142  0.2269 -0.1803 -0.1774
 3845TIP3    H111492   3.170   1.923   5.230 -1.1756 -0.0105 -0.2630
 3845TIP3    H211493   3.271   1.995   5.143  0.6513 -1.2301  0.7731
 3846TIP3   OH211494   4.307   3.920   2.916 -0.0799  0.3762  0.0481
 3846TIP3    H111495   4.317   3.980   2.842 -1.6401 -1.0098 -1.3663
 3846TIP3    H211496   4.263   3.973   2.983 -0.9676  0.9866 -0.9768
 3847TIP3   OH211497   6.986   3.486   4.090 -0.0798  0.0054  0.0952
 3847TIP3    H111498   7.014   3.525   4.007  0.5053 -0.0204  0.2714
 3847TIP3    H211499   7.063   3.493   4.147 -0.2088 -0.7121  0.3758
 3848TIP3   OH211500   0.728   6.921   6.251 -0.2120 -0.2275 -0.0361
 3848TIP3    H111501   0.720   7.012   6.224 -1.3367 -0.2284  0.2560
 3848TIP3    H211502   0.788   6.923   6.326  1.2015  0.0323 -1.1206
 3849TIP3   OH211503   4.012   4.435   2.136 -0.1113  0.1471  0.0178
 3849TIP3    H111504   3.943   4.390   2.087  0.3710 -0.2501 -0.3034
 3849TIP3    H211505   4.089   4.379   2.126 -0.4112 -0.8850  2.6511
 3850TIP3   OH211506   5.025   3.636   6.413 -0.5760 -0.5397 -0.1623
 3850TIP3    H111507   4.942   3.622   6.368 -0.5581 -1.0639 -0.0435
 3850TIP3    H211508   5.050   3.549   6.445  0.0659 -0.4076 -0.2827
 3851TIP3   OH211509   2.635   3.853   5.886 -0.2745 -0.2001 -0.2315
 3851TIP3    H111510   2.658   3.781   5.827  0.3360  0.4053 -0.7426
 3851TIP3    H211511   2.663   3.823   5.972  0.3558 -0.4096 -0.5035
 3852TIP3   OH211512   8.148   6.468   1.384  0.0628  0.1758  0.0726
 3852TIP3    H111513   8.174   6.481   1.476  0.2466  0.5914 -0.0326
 3852TIP3    H211514   8.163   6.554   1.344  0.1525 -0.0544 -0.3863
 3853TIP3   OH211515   1.436   2.762   5.346  0.2320  0.2405  0.6145
 3853TIP3    H111516   1.466   2.680   5.384 -0.2453  0.6932  2.0317
 3853TIP3    H211517   1.403   2.812   5.420 -0.5626  1.2474 -0.3819
 3854TIP3   OH211518   7.030   7.253   0.245  0.1548 -0.0887  0.9347
 3854TIP3    H111519   6.994   7.184   0.301  0.4125 -1.4082 -0.4708
 3854TIP3    H211520   7.045   7.326   0.305 -0.9095 -0.9440  2.3214
 3855TIP3   OH211521   5.785   3.795   4.052  0.1808  0.4498  0.2188
 3855TIP3    H111522   5.719   3.838   3.997  0.6743  0.7998 -0.1173
 3855TIP3    H211523   5.735   3.758   4.125 -0.7433 -1.5532 -1.3375
 3856TIP3   OH211524   2.918   4.005   5.476  0.2569 -0.0022  0.2647
 3856TIP3    H111525   2.839   4.004   5.530  2.1472 -3.1422  3.4067
 3856TIP3    H211526   2.972   4.073   5.516 -0.5703  1.9152 -1.6818
 3857TIP3   OH211527   1.965   6.692   2.277 -0.1734 -0.3891 -0.2757
 3857TIP3    H111528   1.904   6.763   2.295 -0.9416 -1.1526  0.2047
 3857TIP3    H211529   2.030   6.730   2.218 -1.0737  0.4556 -0.7406
 3858TIP3   OH211530   7.126   0.976   4.610  0.6271  0.1623  0.0580
 3858TIP3    H111531   7.042   0.957   4.652  0.0360  0.0977 -1.0999
 3858TIP3    H211532   7.145   1.067   4.634 -0.1281  0.4066 -0.2193
 3859TIP3   OH211533   2.409   1.135   0.930  0.2941 -0.3179  0.2240
 3859TIP3    H111534   2.494   1.176   0.917  0.4743 -0.4932  0.7937
 3859TIP3    H211535   2.390   1.091   0.847 -0.1170  1.2612 -0.5527
 3860TIP3   OH211536   8.253   3.618   5.442 -0.3237 -0.5855  0.2478
 3860TIP3    H111537   8.324   3.559   5.467  1.1423  1.5378  1.3932
 3860TIP3    H211538   8.202   3.568   5.378  2.3795 -2.1051 -0.8980
 3861TIP3   OH211539   5.945   0.335   1.271  0.4286  0.4072 -0.2106
 3861TIP3    H111540   5.987   0.313   1.188  1.5137 -1.8026  0.8344
 3861TIP3    H211541   6.008   0.307   1.337 -2.7888 -3.8587  1.5230
 3862TIP3   OH211542   0.851   7.554   0.887 -0.2477  0.7524  0.0389
 3862TIP3    H111543   0.885   7.502   0.814  0.1993  1.7932 -0.5197
 3862TIP3    H211544   0.919   7.548   0.954 -0.3344  0.3751  0.0963
 3863TIP3   OH211545   2.773   6.536   1.960 -0.5495 -0.1562  0.0595
 3863TIP3    H111546   2.794   6.477   1.888 -0.9783 -1.3899  0.9202
 3863TIP3    H211547   2.714   6.601   1.921  0.8920  0.4857 -1.1913
 3864TIP3   OH211548   7.754   2.814   3.244  0.7269  0.0367  0.2719
 3864TIP3    H111549   7.845   2.844   3.235  0.6651 -0.0019 -0.4941
 3864TIP3    H211550   7.742   2.753   3.172 -0.4010  1.2148 -0.5698
 3865TIP3   OH211551   7.986   7.748   0.617 -0.5633  0.2340  0.3170
 3865TIP3    H111552   8.001   7.708   0.532 -1.0409  0.3605  0.1710
 3865TIP3    H211553   8.007   7.841   0.605  1.7966 -0.1341  0.9768
 3866TIP3   OH211554   3.118   1.505   5.363  0.4769  0.0415  0.1003
 3866TIP3    H111555   3.038   1.542   5.400  0.8078  2.8611 -1.6762
 3866TIP3    H211556   3.109   1.517   5.269  1.7624 -2.3426 -0.3932
 3867TIP3   OH211557   4.432   2.786   6.432  0.2261  0.7073 -0.6084
 3867TIP3    H111558   4.434   2.701   6.388  1.0195  0.7141 -0.5987
 3867TIP3    H211559   4.501   2.779   6.499 -0.6441  0.8569  0.3321
 3868TIP3   OH211560   6.345   4.111   3.451 -0.1930  0.2858  0.0606
 3868TIP3    H111561   6.338   4.206   3.461  0.8659  0.7724 -2.9471
 3868TIP3    H211562   6.439   4.094   3.445 -0.4315 -0.6068 -1.8149
 3869TIP3   OH211563   6.164   0.031   3.883  0.0141 -0.1336  0.4890
 3869TIP3    H111564   6.125   0.112   3.915  0.3844 -0.2316  1.2069
 3869TIP3    H211565   6.111   0.006   3.807 -1.9791 -0.8291  2.0333
 3870TIP3   OH211566   2.873   3.721   5.281  0.1448 -0.2759 -0.2849
 3870TIP3    H111567   2.945   3.776   5.313  0.3268 -0.9701  0.5354
 3870TIP3    H211568   2.898   3.700   5.191  0.6296  0.0513 -0.2323
 3871TIP3   OH211569   6.796   3.210   1.659  0.0194 -0.1671  0.2048
 3871TIP3    H111570   6.876   3.222   1.608  0.5349 -0.0177  1.0275
 3871TIP3    H211571   6.815   3.136   1.717 -1.3797 -1.8774 -1.3799
 3872TIP3   OH211572   3.422   4.261   5.387 -0.3370  0.2485 -0.2343
 3872TIP3    H111573   3.364   4.203   5.337 -2.0635  1.1754  0.6232
 3872TIP3    H211574   3.365   4.330   5.420  1.3302  1.3951  0.3867
 3873TIP3   OH211575   6.759   4.090   1.216 -0.2132 -0.1575 -0.2182
 3873TIP3    H111576   6.663   4.098   1.213 -0.1354  2.1149  0.6549
 3873TIP3    H211577   6.777   4.062   1.306 -0.0630  0.0648 -0.1761
 3874TIP3   OH211578   6.844   5.117   4.390 -0.0982 -0.2297 -0.0435
 3874TIP3    H111579   6.806   5.122   4.478  1.3783 -0.9181  0.6718
 3874TIP3    H211580   6.847   5.023   4.371  1.8636 -0.2663  0.2456
 3875TIP3   OH211581   1.431   2.575   5.043 -0.1474 -0.1753  0.1349
 3875TIP3    H111582   1.399   2.531   5.122  0.0286 -0.9789 -0.2322
 3875TIP3    H211583   1.497   2.636   5.075 -1.8599  1.4002  0.8896
 3876TIP3   OH211584   3.644   3.368   2.658  0.3623  0.1301 -0.3173
 3876TIP3    H111585   3.581   3.403   2.722 -0.1382 -1.4437  0.0860
 3876TIP3    H211586   3.648   3.435   2.590 -1.6483  0.3501 -0.2805
 3877TIP3   OH211587   1.579   5.120   5.928 -0.7144 -0.1974 -0.5862
 3877TIP3    H111588   1.616   5.096   5.843  1.2433 -0.5899  0.3179
 3877TIP3    H211589   1.542   5.039   5.961 -0.8984 -0.1946 -0.7810
 3878TIP3   OH211590   7.036   3.724   1.361  0.0474 -0.5263 -0.3193
 3878TIP3    H111591   6.953   3.724   1.410  0.1052 -0.0462 -0.2175
 3878TIP3    H211592   7.103   3.729   1.429  0.0904  2.3916 -0.4745
 3879TIP3   OH211593   4.202   0.584   1.516  0.1643  0.2888  0.4951
 3879TIP3    H111594   4.194   0.492   1.544 -0.3605  0.4013  0.7247
 3879TIP3    H211595   4.254   0.580   1.436  0.5671 -0.1653  0.7684
 3880TIP3   OH211596   5.228   4.910   4.518  0.5035  0.2207  0.3343
 3880TIP3    H111597   5.138   4.906   4.486  0.5745  0.8767  0.0192
 3880TIP3    H211598   5.279   4.937   4.442  0.9969 -0.3464  0.4620
 3881TIP3   OH211599   6.773   6.241   1.228 -0.2730 -0.9138  0.1436
 3881TIP3    H111600   6.774   6.146   1.243  0.6551 -1.0781 -0.8238
 3881TIP3    H211601   6.762   6.279   1.315 -3.6580 -1.9374  0.3166
 3882TIP3   OH211602   6.640   0.082   0.544  0.3064  0.1614 -0.4427
 3882TIP3    H111603   6.673   0.147   0.482 -2.1703  2.0295  0.0171
 3882TIP3    H211604   6.665   0.117   0.630  1.0610 -0.8026 -0.2572
 3883TIP3   OH211605   6.509   2.622   4.629  0.0523  0.2791 -0.0569
 3883TIP3    H111606   6.484   2.531   4.645  1.0517  0.1317  0.7706
 3883TIP3    H211607   6.426   2.669   4.622 -0.5239 -0.1136  2.9323
 3884TIP3   OH211608   5.338   4.671   1.142 -0.2673  0.4930  0.0139
 3884TIP3    H111609   5.416   4.721   1.118  0.0956  0.5291  1.2017
 3884TIP3    H211610   5.350   4.586   1.099  0.1921  0.6597 -0.1941
 3885TIP3   OH211611   2.276   3.234   4.591  0.2248 -0.0498 -0.1762
 3885TIP3    H111612   2.289   3.203   4.501 -0.6021 -1.0716  0.0427
 3885TIP3    H211613   2.277   3.154   4.644  0.0177  0.4826  0.6454
 3886TIP3   OH211614   8.117   6.179   5.871  0.1579  0.2231 -0.6454
 3886TIP3    H111615   8.138   6.257   5.921  0.4075  0.4230 -1.0627
 3886TIP3    H211616   8.096   6.210   5.784 -0.3547 -0.1189 -0.6497
 3887TIP3   OH211617   3.870   3.155   0.133 -0.1902 -0.0759 -0.4432
 3887TIP3    H111618   3.938   3.142   0.200  0.3835  1.2813 -0.7309
 3887TIP3    H211619   3.796   3.191   0.182  0.1217  0.6231 -0.4670
 3888TIP3   OH211620   5.848   5.445   1.529 -0.3024 -0.1896  0.0763
 3888TIP3    H111621   5.804   5.515   1.578 -0.9608  0.4991 -1.4485
 3888TIP3    H211622   5.790   5.370   1.538 -0.5456  0.0025  0.1359
 3889TIP3   OH211623   3.787   1.733   6.436  0.0412  0.3916 -0.2793
 3889TIP3    H111624   3.745   1.648   6.427 -1.1036  0.9553 -0.4119
 3889TIP3    H211625   3.786   1.770   6.348  2.4946 -0.3258 -0.6681
 3890TIP3   OH211626   7.115   0.450   2.898 -0.3073  0.2889 -0.3436
 3890TIP3    H111627   7.032   0.457   2.945 -0.2970 -1.0287 -0.1034
 3890TIP3    H211628   7.115   0.524   2.837 -1.1079  0.9903  0.4999
 3891TIP3   OH211629   1.025   1.527   6.178  0.2565  0.0780 -0.2930
 3891TIP3    H111630   1.008   1.608   6.131  1.3974  0.6394  0.2054
 3891TIP3    H211631   1.106   1.493   6.139 -0.5013 -1.1335 -0.8775
 3892TIP3   OH211632   6.085   2.693   1.097 -0.5310  0.1922 -0.1409
 3892TIP3    H111633   6.080   2.745   1.177 -0.5598  1.9905 -1.2580
 3892TIP3    H211634   6.179   2.677   1.086 -0.3829  1.2123 -0.4957
 3893TIP3   OH211635   0.335   2.865   4.868 -0.1434 -0.5265  0.2834
 3893TIP3    H111636   0.302   2.900   4.785  2.1524  2.2503  0.3955
 3893TIP3    H211637   0.409   2.922   4.891  1.1355 -2.9406  2.8158
 3894TIP3   OH211638   0.734   2.605   1.501  0.5817 -0.0474 -0.5906
 3894TIP3    H111639   0.643   2.590   1.476  0.2339  1.4705 -0.3485
 3894TIP3    H211640   0.732   2.618   1.595  1.3791 -2.0768 -0.2430
 3895TIP3   OH211641   0.047   3.927   4.669 -0.1676 -0.4786  0.2293
 3895TIP3    H111642   0.113   3.868   4.707  0.3750  0.7723  1.3287
 3895TIP3    H211643   0.036   3.995   4.735  0.5625  1.6353 -1.7115
 3896TIP3   OH211644   3.866   4.775   0.061  0.2406  0.0079 -0.3112
 3896TIP3    H111645   3.845   4.682   0.060 -1.5388  0.2940  2.3708
 3896TIP3    H211646   3.782   4.819   0.073  1.3892  1.6579  3.0594
 3897TIP3   OH211647   7.240   0.587   4.918  0.4337  0.2110 -0.0375
 3897TIP3    H111648   7.198   0.507   4.888  0.5996  0.2605 -0.4052
 3897TIP3    H211649   7.278   0.625   4.839 -1.3875  1.7215 -0.2449
 3898TIP3   OH211650   3.669   1.195   4.029 -0.2397 -0.6414 -0.0762
 3898TIP3    H111651   3.722   1.269   4.058  0.4952 -0.2055 -2.3070
 3898TIP3    H211652   3.670   1.202   3.933 -3.6213 -1.1163 -0.2720
 3899TIP3   OH211653   5.416   2.998   4.905  0.4024 -0.2761 -0.1240
 3899TIP3    H111654   5.353   2.933   4.937  1.9431 -1.2273  1.0733
 3899TIP3    H211655   5.467   3.023   4.982  1.7095  0.2462 -1.1239
 3900TIP3   OH211656   0.919   3.216   5.365 -0.2397 -0.1269  0.6313
 3900TIP3    H111657   0.976   3.249   5.296 -2.0950  0.6165 -0.6281
 3900TIP3    H211658   0.931   3.276   5.438  0.7922 -0.1673  0.5051
 3901TIP3   OH211659   2.523   0.325   1.869  0.0365 -0.0927  0.8151
 3901TIP3    H111660   2.542   0.323   1.963 -1.3043 -2.4240  1.1317
 3901TIP3    H211661   2.473   0.405   1.855  0.5800  0.4685  2.0085
 3902TIP3   OH211662   0.160   4.077   5.361 -0.2039  0.3037  0.8643
 3902TIP3    H111663   0.201   4.087   5.274  0.6956 -2.4456  0.8722
 3902TIP3    H211664   0.228   4.036   5.414 -0.8867  1.5843  2.8230
 3903TIP3   OH211665   1.691   1.694   3.286 -0.0118  0.1713 -0.3441
 3903TIP3    H111666   1.768   1.725   3.333  1.1315 -1.0976 -1.2713
 3903TIP3    H211667   1.665   1.615   3.332 -0.9101  0.7105  0.0906
 3904TIP3   OH211668   7.664   7.743   3.806 -0.2325 -0.0001  1.1778
 3904TIP3    H111669   7.682   7.766   3.897  0.0938  1.6289  0.7277
 3904TIP3    H211670   7.704   7.814   3.755  0.6746 -1.5199 -0.3076
 3905TIP3   OH211671   1.581   3.651   1.857  0.2133 -0.3650 -0.1355
 3905TIP3    H111672   1.577   3.557   1.839 -2.3176 -0.4521  0.4769
 3905TIP3    H211673   1.586   3.657   1.953  3.9648  0.1738 -0.2359
 3906TIP3   OH211674   7.536   0.363   0.377  0.3504 -0.2593  0.5953
 3906TIP3    H111675   7.625   0.384   0.406 -0.4869  1.0157  2.4259
 3906TIP3    H211676   7.483   0.438   0.404 -0.9451  0.1252 -2.5947
 3907TIP3   OH211677   5.871   2.878   4.199  0.6250  0.7961  0.6203
 3907TIP3    H111678   5.815   2.813   4.241 -2.0448  3.1095  0.9697
 3907TIP3    H211679   5.956   2.835   4.190 -1.1196 -2.9510  0.1160
 3908TIP3   OH211680   0.431   2.291   0.600  0.1363  0.3406  0.3365
 3908TIP3    H111681   0.441   2.339   0.518  0.2308 -1.8904 -1.0527
 3908TIP3    H211682   0.453   2.200   0.578  0.3194 -0.3278  2.8816
 3909TIP3   OH211683   0.734   7.097   1.042  0.8795  0.1484  0.9568
 3909TIP3    H111684   0.641   7.115   1.054  0.1746 -0.0743 -2.9141
 3909TIP3    H211685   0.775   7.183   1.036  0.4715  0.2984  0.1973
 3910TIP3   OH211686   3.325   4.553   5.976 -0.1363  0.2974  0.2926
 3910TIP3    H111687   3.240   4.534   5.935  0.0542 -0.1848  0.1129
 3910TIP3    H211688   3.328   4.496   6.053  0.0469  0.2677  0.2645
 3911TIP3   OH211689   8.177   2.255   0.161  0.0976  0.7460  0.1082
 3911TIP3    H111690   8.121   2.181   0.185 -0.6877  0.9119 -1.1339
 3911TIP3    H211691   8.173   2.314   0.236  3.2963 -1.8190  2.5926
 3912TIP3   OH211692   1.135   2.646   1.229  0.1031 -0.4513  0.2474
 3912TIP3    H111693   1.181   2.567   1.258 -0.0642 -0.6233  0.0498
 3912TIP3    H211694   1.059   2.651   1.287 -0.4417 -1.0126 -0.4057
 3913TIP3   OH211695   0.434   6.758   2.782  0.0630 -0.2788  0.3165
 3913TIP3    H111696   0.368   6.719   2.839  1.4290 -1.2199  1.3113
 3913TIP3    H211697   0.428   6.710   2.700 -1.4200  0.5972 -0.1311
 3914TIP3   OH211698   4.743   1.964   6.470  0.1652 -0.0760  0.1592
 3914TIP3    H111699   4.656   2.002   6.481  0.1162  0.0334 -0.5520
 3914TIP3    H211700   4.735   1.908   6.393  1.3236  1.8229 -1.4413
 3915TIP3   OH211701   7.368   2.710   0.349  0.0100  0.4587 -0.2281
 3915TIP3    H111702   7.321   2.637   0.307 -0.3045  0.4647  0.1154
 3915TIP3    H211703   7.316   2.731   0.426  0.0222  1.1475 -0.4023
 3916TIP3   OH211704   2.661   1.304   0.900  0.0533 -0.0481  0.6220
 3916TIP3    H111705   2.592   1.337   0.843 -0.4929 -0.6800  0.9052
 3916TIP3    H211706   2.708   1.383   0.928  0.6988  0.2294 -1.1343
 3917TIP3   OH211707   6.245   2.954   4.840  0.2308  0.1377 -0.7073
 3917TIP3    H111708   6.214   2.865   4.857  0.7096 -0.7631 -3.9171
 3917TIP3    H211709   6.165   3.004   4.825  0.0019  0.0389  0.1271
 3918TIP3   OH211710   5.506   2.558   3.486  0.3570 -0.0830  0.0669
 3918TIP3    H111711   5.433   2.592   3.434  1.0882  1.3577 -0.0538
 3918TIP3    H211712   5.499   2.463   3.477 -0.9687  0.0557 -0.6678
 3919TIP3   OH211713   0.818   5.789   1.284  0.8055 -0.3782 -0.0075
 3919TIP3    H111714   0.738   5.737   1.283 -1.2848  2.5672  0.8303
 3919TIP3    H211715   0.841   5.796   1.377 -0.0263  1.5565  0.1129
 3920TIP3   OH211716   0.002   7.539   2.247 -0.6203  0.0244  0.1138
 3920TIP3    H111717  -0.008   7.581   2.332 -2.3044 -1.4423  0.7026
 3920TIP3    H211718   0.006   7.612   2.185 -0.7184  1.0863  1.3097
 3921TIP3   OH211719   4.243   5.649   3.770 -0.4330 -0.1836 -0.2780
 3921TIP3    H111720   4.308   5.611   3.828  0.3038 -1.1183 -1.6484
 3921TIP3    H211721   4.166   5.662   3.825 -0.4215 -2.8411  0.5264
 3922TIP3   OH211722   2.171   6.369   4.751  0.1939  0.1522 -0.2039
 3922TIP3    H111723   2.098   6.426   4.776 -0.2709  0.0055 -1.1783
 3922TIP3    H211724   2.248   6.409   4.792  0.2106  2.6500 -2.3399
 3923TIP3   OH211725   1.162   5.833   3.938 -0.5960 -0.2701 -0.2575
 3923TIP3    H111726   1.223   5.867   3.872  1.0133  0.7631  1.6339
 3923TIP3    H211727   1.130   5.911   3.983 -0.2276 -0.9936  1.3240
 3924TIP3   OH211728   6.370   3.957   3.673  0.1730  0.3437 -0.8331
 3924TIP3    H111729   6.345   3.865   3.670 -0.2492  0.3328  1.4271
 3924TIP3    H211730   6.355   3.989   3.584 -1.2045 -1.3687 -1.2648
 3925TIP3   OH211731   2.088   0.844   4.327  0.1573  0.1193 -0.3089
 3925TIP3    H111732   2.033   0.904   4.377  0.4986 -1.0130  1.5404
 3925TIP3    H211733   2.177   0.865   4.353  0.3105 -0.8066 -0.0420
 3926TIP3   OH211734   3.190   6.850   4.669 -0.0922 -0.1676  0.2059
 3926TIP3    H111735   3.145   6.883   4.591  1.4298  3.1272  0.5658
 3926TIP3    H211736   3.276   6.891   4.666  0.2464 -0.4264  3.3045
 3927TIP3   OH211737   3.834   2.577   4.369  0.4316  0.4163  0.1224
 3927TIP3    H111738   3.891   2.513   4.327  1.3934  1.1591  0.2517
 3927TIP3    H211739   3.884   2.658   4.367  0.2792  0.6060  2.1963
 3928TIP3   OH211740   5.205   7.565   2.372  0.5806 -0.0169  0.5335
 3928TIP3    H111741   5.230   7.480   2.407  0.1237 -0.0035  0.8875
 3928TIP3    H211742   5.173   7.614   2.447 -0.7297 -0.1067  0.0670
 3929TIP3   OH211743   3.986   1.796   1.682  0.0402  0.4603  0.1419
 3929TIP3    H111744   4.047   1.844   1.737 -0.0588  0.3148  0.3829
 3929TIP3    H211745   3.975   1.711   1.726  1.4829 -0.4344 -1.1381
 3930TIP3   OH211746   8.285   5.285   5.222 -0.0125  0.1834 -0.4296
 3930TIP3    H111747   8.321   5.341   5.154 -1.7227 -1.5129 -2.9105
 3930TIP3    H211748   8.286   5.197   5.183 -3.1499 -0.5292  0.8111
 3931TIP3   OH211749   2.088   2.485   1.753 -0.0861 -0.1525 -0.2925
 3931TIP3    H111750   2.071   2.542   1.828 -1.9089 -1.3268  0.2450
 3931TIP3    H211751   2.111   2.546   1.682 -2.3138  1.3415  0.1515
 3932TIP3   OH211752   3.863   3.346   5.299  0.3219  0.1482  0.4467
 3932TIP3    H111753   3.866   3.441   5.311  0.7853 -0.0482  2.1257
 3932TIP3    H211754   3.954   3.319   5.303  0.1335 -0.4506  0.7694
 3933TIP3   OH211755   3.946   2.542   5.580 -0.2868 -0.3808  0.0848
 3933TIP3    H111756   3.903   2.541   5.665 -2.3288 -0.6285 -0.8890
 3933TIP3    H211757   3.961   2.450   5.560 -2.5317 -0.5729 -1.0501
 3934TIP3   OH211758   2.295   5.994   0.242  0.1038  0.8615 -0.1693
 3934TIP3    H111759   2.287   6.047   0.162  0.8102  1.7739  0.3517
 3934TIP3    H211760   2.384   5.959   0.238 -0.0336  0.4890 -0.0238
 3935TIP3   OH211761   3.053   1.145   5.637 -0.0843  0.4831 -0.5688
 3935TIP3    H111762   3.030   1.173   5.726  0.1772 -1.5802  0.2084
 3935TIP3    H211763   3.067   1.051   5.645  1.7075  0.5313 -2.4423
 3936TIP3   OH211764   4.676   1.960   5.539  0.7279 -0.2615 -0.8509
 3936TIP3    H111765   4.660   1.870   5.512  0.6290  0.1847 -2.3430
 3936TIP3    H211766   4.727   1.998   5.467 -0.1683  1.1742 -0.7534
 3937TIP3   OH211767   4.051   6.243   1.048  0.1661 -0.2302  0.0623
 3937TIP3    H111768   3.985   6.175   1.065  0.5732 -0.0578  2.8358
 3937TIP3    H211769   4.008   6.303   0.987 -1.2821 -1.4747 -0.2023
 3938TIP3   OH211770   5.038   2.218   0.789 -0.0124  0.2870 -0.0484
 3938TIP3    H111771   5.055   2.280   0.718 -0.6712 -0.1084 -0.5525
 3938TIP3    H211772   5.071   2.263   0.867 -1.4224  1.7378 -0.2416
 3939TIP3   OH211773   7.382   5.668   5.473  0.2443 -0.1833  0.1694
 3939TIP3    H111774   7.447   5.598   5.477  0.5937  0.2162  1.8181
 3939TIP3    H211775   7.432   5.749   5.476 -0.2549  0.1491 -0.1485
 3940TIP3   OH211776   6.807   1.803   0.050 -0.6878  0.4325  0.0264
 3940TIP3    H111777   6.806   1.859   0.127 -1.2822  1.2718 -0.5787
 3940TIP3    H211778   6.807   1.863  -0.024 -2.3657 -0.3462 -0.6478
 3941TIP3   OH211779   2.389   6.852   5.492  0.8825  0.7628  0.5020
 3941TIP3    H111780   2.476   6.870   5.528  2.3129  3.0299 -3.4530
 3941TIP3    H211781   2.403   6.779   5.432 -0.3715  0.1199  0.9546
 3942TIP3   OH211782   0.849   0.182   2.529 -0.0138 -0.0642 -0.2371
 3942TIP3    H111783   0.821   0.220   2.612  0.1205 -1.2621  0.3790
 3942TIP3    H211784   0.899   0.104   2.554 -1.1415 -1.2323 -1.4515
 3943TIP3   OH211785   3.082   1.494   4.824  0.1043  0.3590 -0.1653
 3943TIP3    H111786   3.106   1.403   4.839 -0.3575  0.2754  0.0915
 3943TIP3    H211787   3.121   1.516   4.739 -2.0375 -0.9161 -1.5764
 3944TIP3   OH211788   2.751   3.364   0.595 -0.3758 -0.4415  0.0811
 3944TIP3    H111789   2.803   3.299   0.547 -0.3310 -0.9643  0.8277
 3944TIP3    H211790   2.807   3.441   0.598  0.8430 -1.3340  1.8184
 3945TIP3   OH211791   6.122   1.952   2.657  0.0234 -0.2054 -0.1852
 3945TIP3    H111792   6.115   1.919   2.567 -0.9624  0.6000 -0.4169
 3945TIP3    H211793   6.071   2.033   2.657  0.4208  0.0605  0.9816
 3946TIP3   OH211794   3.073   2.722   3.176 -0.1367  0.2499 -0.2760
 3946TIP3    H111795   3.071   2.726   3.080  1.3237  2.0466 -0.2803
 3946TIP3    H211796   3.087   2.630   3.195  0.1041 -0.0701 -1.8169
 3947TIP3   OH211797   7.537   1.331   5.180  0.1657  0.6808 -0.2255
 3947TIP3    H111798   7.462   1.355   5.126  1.4287 -3.1830 -4.3664
 3947TIP3    H211799   7.614   1.356   5.128  1.5687 -1.0671  0.8786
 3948TIP3   OH211800   4.627   2.727   3.398 -0.5547 -0.3624 -0.0735
 3948TIP3    H111801   4.673   2.791   3.343 -1.8630  1.7448  1.1431
 3948TIP3    H211802   4.679   2.723   3.478 -1.1473  0.1373  0.3385
 3949TIP3   OH211803   7.467   4.784   5.117 -0.0279  0.1849  0.6249
 3949TIP3    H111804   7.441   4.748   5.032  0.8464 -0.9278  0.7957
 3949TIP3    H211805   7.551   4.741   5.136 -0.2182  0.4039  2.0614
 3950TIP3   OH211806   4.746   1.000   3.891 -0.3820  0.3356 -0.3125
 3950TIP3    H111807   4.819   1.042   3.936 -0.2422 -1.5135  1.3477
 3950TIP3    H211808   4.786   0.929   3.841 -0.9618 -0.2375  0.0242
 3951TIP3   OH211809   1.571   3.864   1.663 -0.0022 -0.2878  0.0488
 3951TIP3    H111810   1.645   3.824   1.618 -0.6798  0.4674 -1.8475
 3951TIP3    H211811   1.564   3.816   1.746  1.6168 -1.4059 -0.4132
 3952TIP3   OH211812   2.980   5.015   1.180  0.0995  0.3561  0.7104
 3952TIP3    H111813   3.035   5.038   1.105 -0.4438  2.3842  0.8880
 3952TIP3    H211814   2.891   5.015   1.145 -0.0216 -0.3818  0.9979
 3953TIP3   OH211815   3.431   6.317   5.876  0.0230 -0.0085  0.1785
 3953TIP3    H111816   3.498   6.265   5.921 -0.0174  0.0843  0.3498
 3953TIP3    H211817   3.362   6.328   5.942 -0.3563 -0.4656 -0.1303
 3954TIP3   OH211818   0.725   5.951   5.001 -0.0036 -0.6311 -0.1832
 3954TIP3    H111819   0.713   6.044   4.981 -0.7054 -0.7995 -0.5649
 3954TIP3    H211820   0.643   5.925   5.043 -0.3394 -1.3952 -1.2733
 3955TIP3   OH211821   6.080   5.449   2.389 -0.4690  0.4019  0.1314
 3955TIP3    H111822   6.044   5.491   2.311  0.1546  0.2250 -0.2567
 3955TIP3    H211823   6.172   5.436   2.369  0.3351  2.6843  1.8641
 3956TIP3   OH211824   8.027   3.315   6.407 -0.4129  0.0461  0.1064
 3956TIP3    H111825   8.089   3.388   6.407 -2.4433  1.8733 -0.3397
 3956TIP3    H211826   8.062   3.254   6.342  0.8286  1.0840 -0.2397
 3957TIP3   OH211827   7.699   6.012   0.205  0.0315  0.3588  0.0017
 3957TIP3    H111828   7.683   5.966   0.123  1.4521  0.3104 -0.2768
 3957TIP3    H211829   7.788   6.048   0.196 -0.2094  1.2928  1.0762
 3958TIP3   OH211830   7.663   7.280   0.500 -0.9420 -0.0931  0.2010
 3958TIP3    H111831   7.576   7.303   0.530 -1.1142 -0.3930 -0.0661
 3958TIP3    H211832   7.651   7.201   0.447 -0.5833  0.1451 -0.2486
 3959TIP3   OH211833   1.162   7.261   0.116 -0.4413  0.3892  0.1709
 3959TIP3    H111834   1.069   7.282   0.124 -1.1368 -1.7734 -1.0898
 3959TIP3    H211835   1.176   7.254   0.021  0.7189 -0.4081  0.3837
 3960TIP3   OH211836   5.019  -0.021   5.772  0.3353  0.3597 -0.0435
 3960TIP3    H111837   5.104  -0.025   5.728  0.7607  2.6431  0.4715
 3960TIP3    H211838   4.982   0.063   5.746 -1.4398 -0.2549  0.3720
 3961TIP3   OH211839   6.640   0.748   5.437  0.1268 -0.3308 -0.0764
 3961TIP3    H111840   6.663   0.679   5.499 -0.0802 -0.1496  0.2038
 3961TIP3    H211841   6.545   0.742   5.428  0.2788 -1.2233 -1.4068
 3962TIP3   OH211842   4.246   7.227   0.365 -0.0971  0.6035  0.3167
 3962TIP3    H111843   4.254   7.229   0.269 -3.4543 -0.1646 -0.1123
 3962TIP3    H211844   4.209   7.141   0.383  1.0444  0.5014  2.4323
 3963TIP3   OH211845   4.031   7.548   4.710  0.0739 -0.4788  0.0701
 3963TIP3    H111846   4.060   7.474   4.764  1.2733 -0.4151 -0.4508
 3963TIP3    H211847   3.964   7.592   4.763 -1.5989 -2.6350 -0.1279
 3964TIP3   OH211848   6.852   6.119   1.787  0.2926 -0.3115  0.0219
 3964TIP3    H111849   6.862   6.043   1.843  0.8724 -0.0857  0.2266
 3964TIP3    H211850   6.901   6.189   1.831 -1.4337  0.5898  0.6167
 3965TIP3   OH211851   1.158   2.895   2.773  0.2667  0.0306  0.4049
 3965TIP3    H111852   1.122   2.982   2.760 -1.6679 -0.6433  0.9354
 3965TIP3    H211853   1.151   2.879   2.867 -1.4084 -1.4607  0.0893
 3966TIP3   OH211854   7.702   3.518   3.297  0.2246 -0.1471 -0.0503
 3966TIP3    H111855   7.780   3.468   3.272  0.4281  0.2582 -0.2344
 3966TIP3    H211856   7.670   3.474   3.375  2.1004  1.1950  1.5603
 3967TIP3   OH211857   5.395   2.728   1.966 -0.3134  0.4895  0.3462
 3967TIP3    H111858   5.427   2.638   1.970  0.5610  0.7596 -0.3460
 3967TIP3    H211859   5.394   2.757   2.057  2.1779  0.7199  0.3521
 3968TIP3   OH211860   3.004   4.940   4.944  0.1066  0.4005  0.5461
 3968TIP3    H111861   3.077   4.968   4.889 -0.8201 -0.7460 -1.3486
 3968TIP3    H211862   2.945   4.894   4.885 -0.8253 -1.1636  2.5649
 3969TIP3   OH211863   0.106   0.163   1.380  0.6638  0.2553 -0.1014
 3969TIP3    H111864   0.083   0.227   1.447 -1.8062  0.3591 -0.9471
 3969TIP3    H211865   0.023   0.123   1.354  1.5301  0.0192 -2.9013
 3970TIP3   OH211866   3.201   0.167   2.924  0.1013  0.0451 -0.9438
 3970TIP3    H111867   3.230   0.079   2.948  1.7785  0.1681 -2.3760
 3970TIP3    H211868   3.272   0.224   2.952  0.8247  0.4977 -3.4588
 3971TIP3   OH211869   5.371   4.907   3.292 -0.2893 -0.9738  0.2427
 3971TIP3    H111870   5.443   4.884   3.233  1.1848 -0.0681  1.6024
 3971TIP3    H211871   5.320   4.973   3.244  1.3071  0.2944  0.2123
 3972TIP3   OH211872   5.808   6.559   6.069  0.1507  0.5771 -0.4669
 3972TIP3    H111873   5.818   6.632   6.129  0.0426  0.4493 -0.2913
 3972TIP3    H211874   5.870   6.493   6.100 -0.1754  0.3644 -0.2689
 3973TIP3   OH211875   6.386   0.690   0.353  0.4829 -0.0798 -0.1564
 3973TIP3    H111876   6.467   0.690   0.301  1.4236 -3.0990  1.0858
 3973TIP3    H211877   6.350   0.603   0.340 -2.3157  0.9880 -0.1534
 3974TIP3   OH211878   4.319   2.474   1.966  0.2472  0.6458  0.1509
 3974TIP3    H111879   4.316   2.432   2.051  0.9360 -0.1755 -0.2134
 3974TIP3    H211880   4.229   2.501   1.949 -0.1299 -0.2823  0.5976
 3975TIP3   OH211881   5.737   4.824   5.957  0.3009 -0.1674 -0.4871
 3975TIP3    H111882   5.651   4.864   5.938  1.1238  1.1210 -1.7092
 3975TIP3    H211883   5.766   4.789   5.873  0.8926 -0.7863 -0.0338
 3976TIP3   OH211884   1.775   4.691   0.334 -0.3412  0.5239 -0.1225
 3976TIP3    H111885   1.727   4.637   0.397 -0.8017  1.1328  0.0484
 3976TIP3    H211886   1.860   4.648   0.327 -0.7754 -0.3622 -0.1610
 3977TIP3   OH211887   5.061   6.094   1.512  0.0072 -0.0892 -0.0771
 3977TIP3    H111888   5.000   6.022   1.493  1.2562 -1.7006  1.6474
 3977TIP3    H211889   5.005   6.165   1.543 -1.0522 -1.3446  0.9874
 3978TIP3   OH211890   4.351   7.081   1.162  0.7271  0.2571  0.0366
 3978TIP3    H111891   4.343   7.170   1.129  1.0742  0.7332  1.1862
 3978TIP3    H211892   4.410   7.088   1.237  0.5984 -0.9101  0.2741
 3979TIP3   OH211893   0.346   6.349   1.589  0.9434 -0.1097 -0.2576
 3979TIP3    H111894   0.344   6.321   1.498 -1.1433  1.4851 -0.7733
 3979TIP3    H211895   0.307   6.277   1.638 -1.6615  0.5636 -1.1859
 3980TIP3   OH211896   4.275   1.554   0.115 -0.1416 -0.0460  0.1577
 3980TIP3    H111897   4.238   1.629   0.068 -1.3964 -0.9616 -0.3722
 3980TIP3    H211898   4.354   1.531   0.066 -1.4037 -0.9597 -1.5637
 3981TIP3   OH211899   0.380   7.753   6.628  1.0055 -0.6367 -0.2644
 3981TIP3    H111900   0.397   7.659   6.625  1.2682 -0.5738 -0.8224
 3981TIP3    H211901   0.442   7.787   6.692  0.4910 -0.9254  0.4035
 3982TIP3   OH211902   7.093   0.877   1.072 -0.1838  0.3779 -0.0890
 3982TIP3    H111903   7.103   0.783   1.054  1.2492 -0.0468  2.5029
 3982TIP3    H211904   7.070   0.882   1.165 -0.7960  2.6049 -0.2898
 3983TIP3   OH211905   8.278   7.439   3.117 -0.2739  0.3824 -0.8946
 3983TIP3    H111906   8.350   7.388   3.153 -1.1998 -0.7798 -0.6135
 3983TIP3    H211907   8.250   7.389   3.040 -1.1388  0.5126 -0.6699
 3984TIP3   OH211908   2.738   7.426   0.167 -0.6400 -0.9670  0.2222
 3984TIP3    H111909   2.762   7.470   0.249  2.0407 -0.4762 -0.7302
 3984TIP3    H211910   2.740   7.496   0.102 -1.5363 -1.5826 -0.4912
 3985TIP3   OH211911   6.551   0.528   5.240  0.5795  0.0309  0.0479
 3985TIP3    H111912   6.600   0.609   5.251 -0.2487  0.6516 -0.6336
 3985TIP3    H211913   6.471   0.555   5.195  0.4105 -1.2032 -0.4350
 3986TIP3   OH211914   7.378   4.943   1.030  0.1538 -0.0229 -0.1817
 3986TIP3    H111915   7.339   4.859   1.006 -0.4660 -0.0383  0.8088
 3986TIP3    H211916   7.371   4.996   0.950  1.5851 -1.2409 -1.1758
 3987TIP3   OH211917   4.216   2.905   4.121  0.4279  0.3825 -0.1245
 3987TIP3    H111918   4.284   2.931   4.184  1.7169  0.7823 -1.6389
 3987TIP3    H211919   4.263   2.886   4.040 -1.0690 -1.2261 -0.6997
 3988TIP3   OH211920   0.677   6.708   2.922  0.2479 -0.2647  1.3191
 3988TIP3    H111921   0.585   6.702   2.898  0.0260  0.3882  1.9718
 3988TIP3    H211922   0.697   6.625   2.965  0.5450 -1.2902 -0.6715
 3989TIP3   OH211923   0.786   5.027   3.737  0.1363 -0.5643  0.4658
 3989TIP3    H111924   0.807   4.977   3.816 -1.2675 -0.9237  0.6498
 3989TIP3    H211925   0.758   4.961   3.674  0.2519 -0.1828  0.0076
 3990TIP3   OH211926   1.027   4.602   1.063  0.3349  0.2233 -0.4048
 3990TIP3    H111927   0.987   4.674   1.111 -0.3722  0.6222 -1.5655
 3990TIP3    H211928   0.998   4.613   0.973 -0.5909 -2.0466 -0.4601
 3991TIP3   OH211929   3.607   4.795   3.715  0.1750  0.5239  0.2859
 3991TIP3    H111930   3.589   4.734   3.787  0.6204  0.8816  0.7026
 3991TIP3    H211931   3.700   4.781   3.695  0.0748  0.4905 -0.1614
 3992TIP3   OH211932   0.873   1.254   3.240 -0.3880 -0.7259  0.0544
 3992TIP3    H111933   0.884   1.303   3.321  1.9707  2.0263 -1.7141
 3992TIP3    H211934   0.801   1.299   3.194 -0.0936 -0.7101 -0.3980
 3993TIP3   OH211935   1.718   3.970   4.619 -0.1978 -0.1174  0.1096
 3993TIP3    H111936   1.742   3.935   4.534  0.2158 -0.7525  0.4779
 3993TIP3    H211937   1.630   3.936   4.636 -0.9273  1.2709 -0.7329
 3994TIP3   OH211938   5.000   4.330   2.430 -0.3497  0.1006  0.3810
 3994TIP3    H111939   5.067   4.287   2.483 -1.0729  0.4522  1.6151
 3994TIP3    H211940   4.923   4.334   2.487 -2.1135 -2.0823 -1.6099
 3995TIP3   OH211941   2.573   0.875   0.733  0.4249  0.1827 -0.2073
 3995TIP3    H111942   2.667   0.893   0.744  0.2641  1.5876 -0.9282
 3995TIP3    H211943   2.538   0.955   0.693 -1.0366 -0.4299 -0.1941
 3996TIP3   OH211944   7.047   4.965   5.901  0.5376  0.6819 -0.5561
 3996TIP3    H111945   7.003   4.973   5.817  1.7406  1.3505 -1.1447
 3996TIP3    H211946   7.077   5.053   5.922  1.9167  0.2068 -0.3765
 3997TIP3   OH211947   2.209   7.140   2.596  0.1949 -0.2394 -0.0696
 3997TIP3    H111948   2.166   7.091   2.527 -0.1764  0.7863 -0.5968
 3997TIP3    H211949   2.288   7.175   2.554 -0.0330  0.3861  0.0086
 3998TIP3   OH211950   4.924   1.055   1.901  0.2752 -0.0864 -0.0491
 3998TIP3    H111951   4.978   1.068   1.823 -1.3185 -2.1773 -1.6053
 3998TIP3    H211952   4.881   1.139   1.914  1.4667  0.6548 -0.6698
 3999TIP3   OH211953   8.224   4.705   2.247  0.0580 -0.0485 -0.0689
 3999TIP3    H111954   8.157   4.733   2.309 -1.3678  0.7199 -1.8645
 3999TIP3    H211955   8.178   4.645   2.188  0.9153  0.6084 -1.4326
 4000TIP3   OH211956   6.685   0.747   1.375  0.1851 -0.0628  0.1630
 4000TIP3    H111957   6.778   0.727   1.382  0.7185  1.3513 -2.0595
 4000TIP3    H211958   6.669   0.756   1.282 -1.5620  2.4010  0.6000
 4001TIP3   OH211959   4.252   0.213   4.997  0.1130  0.5656  0.4269
 4001TIP3    H111960   4.199   0.237   5.073  0.2033  0.2351  0.5957
 4001TIP3    H211961   4.342   0.228   5.024  0.4707 -2.9389  1.7180
 4002TIP3   OH211962   6.498   3.980   2.259 -0.0889 -0.4154  0.4601
 4002TIP3    H111963   6.490   3.988   2.163 -1.1706  1.5116  0.6578
 4002TIP3    H211964   6.412   4.007   2.292  0.0069 -1.8135  1.9739
 4003TIP3   OH211965   3.131   6.140   2.094 -0.5118 -0.1499 -0.1359
 4003TIP3    H111966   3.223   6.165   2.102 -0.3011 -0.5432 -1.1933
 4003TIP3    H211967   3.104   6.120   2.184  0.3167  0.3512  0.2365
 4004TIP3   OH211968   3.871   1.327   0.211  0.2169  0.4648  0.1567
 4004TIP3    H111969   3.802   1.369   0.160  0.3133  0.0909 -0.2824
 4004TIP3    H211970   3.864   1.367   0.298 -1.1205 -0.1963  0.3741
 4005TIP3   OH211971   1.224   0.531   5.711 -0.1520 -0.4443  0.2210
 4005TIP3    H111972   1.253   0.461   5.770  0.8881 -1.0376 -0.9422
 4005TIP3    H211973   1.247   0.499   5.624 -2.5915 -0.0579 -0.6272
 4006TIP3   OH211974   7.301   0.013   1.532  0.0479 -0.2465 -0.6353
 4006TIP3    H111975   7.365   0.079   1.504 -0.0935  0.3310  0.3592
 4006TIP3    H211976   7.273   0.042   1.619 -0.9154 -0.9708 -0.6877
 4007TIP3   OH211977   0.135   3.166   5.092 -0.1074 -0.0024  0.1481
 4007TIP3    H111978   0.075   3.125   5.030 -2.2616  0.6687  1.6756
 4007TIP3    H211979   0.138   3.258   5.065  2.4752 -0.4538 -1.5347
 4008TIP3   OH211980   0.512   1.889   1.917 -0.0987  0.8203 -0.3629
 4008TIP3    H111981   0.574   1.960   1.905  0.3740  0.2205 -1.6659
 4008TIP3    H211982   0.542   1.843   1.996  2.4759 -0.7534 -2.1100
 4009TIP3   OH211983   3.822   5.068   3.514  0.2328  0.2163  0.3806
 4009TIP3    H111984   3.844   4.987   3.561 -0.2988  0.7005  1.4840
 4009TIP3    H211985   3.884   5.132   3.548 -0.0576  0.5381  0.2982
 4010TIP3   OH211986   4.726   4.649   3.494  0.5406 -0.1328  0.7207
 4010TIP3    H111987   4.764   4.562   3.481 -0.8828 -0.7271  0.2776
 4010TIP3    H211988   4.666   4.638   3.568 -0.5074  0.1554 -0.0597
 4011TIP3   OH211989   4.524   4.923   6.333  0.2392 -0.2557  0.1140
 4011TIP3    H111990   4.480   5.009   6.329  1.2801  0.2536 -1.5351
 4011TIP3    H211991   4.466   4.865   6.284 -0.7033 -0.6390  1.6352
 4012TIP3   OH211992   8.299   2.494   6.451 -0.0962  0.6277  0.5094
 4012TIP3    H111993   8.244   2.467   6.524  0.2070  0.2766  0.6138
 4012TIP3    H211994   8.285   2.589   6.443 -1.1993  0.4518  0.1242
 4013TIP3   OH211995   7.947   1.395   4.441  0.0022 -0.4342  0.1410
 4013TIP3    H111996   7.973   1.480   4.404  2.9801 -1.3120 -0.0795
 4013TIP3    H211997   7.960   1.333   4.369 -3.5424 -1.0246 -0.1774
 4014TIP3   OH211998   2.912   6.137   2.335  0.8047  0.2160  0.1669
 4014TIP3    H111999   2.926   6.189   2.415 -0.9689 -1.6977  1.8543
 4014TIP3    H212000   2.892   6.202   2.268  2.0707  1.8910  1.3116
 4015TIP3   OH212001   7.077   5.463   4.849 -0.1104 -0.2729  0.4444
 4015TIP3    H112002   7.159   5.425   4.817 -0.8609 -1.9286  0.4183
 4015TIP3    H212003   7.105   5.530   4.912  1.2556 -0.5611  0.1700
 4016TIP3   OH212004   5.781   1.257   2.303 -0.2535  0.6434 -0.1896
 4016TIP3    H112005   5.729   1.198   2.249 -0.1029 -0.2466  0.6213
 4016TIP3    H212006   5.844   1.200   2.347  1.8010  1.7338 -1.5374
 4017TIP3   OH212007   3.052   5.032   5.373  0.3495  0.0352  0.2905
 4017TIP3    H112008   3.102   4.960   5.335 -0.0391  0.6963 -1.6162
 4017TIP3    H212009   3.069   5.106   5.314 -1.0303  0.8928  0.9131
 4018TIP3   OH212010   3.521   7.444   1.221 -0.2085  0.1384 -0.3072
 4018TIP3    H112011   3.553   7.359   1.252 -1.5480  0.0275  0.9082
 4018TIP3    H212012   3.597   7.486   1.182  0.9545 -0.8423  0.8137
 4019TIP3   OH212013   5.693   3.122   5.718 -0.3197 -0.1770  0.1982
 4019TIP3    H112014   5.662   3.150   5.804 -1.9624  0.6286 -0.6148
 4019TIP3    H212015   5.742   3.197   5.684 -1.7922  0.4620 -0.5683
 4020TIP3   OH212016   5.319   0.251   0.660  0.6839 -0.7782  0.0773
 4020TIP3    H112017   5.372   0.260   0.739  0.4993 -0.3902  0.1613
 4020TIP3    H212018   5.372   0.196   0.602  0.8478 -1.0088  0.4436
 4021TIP3   OH212019   6.555   2.962   6.151  0.2428 -0.3858  0.2406
 4021TIP3    H112020   6.589   3.051   6.158  0.3679 -0.3752 -0.4506
 4021TIP3    H212021   6.563   2.940   6.059 -1.5243 -0.4225  0.0599
 4022TIP3   OH212022   4.802   0.908   4.805  0.7525  0.6376 -0.7369
 4022TIP3    H112023   4.726   0.859   4.775  1.2728  0.8389 -2.5163
 4022TIP3    H212024   4.855   0.844   4.852 -0.4269  0.4699  0.4116
 4023TIP3   OH212025   0.670   1.923   0.080  0.1779  0.8733 -0.1452
 4023TIP3    H112026   0.704   1.888  -0.002  0.3099 -0.2986  0.3950
 4023TIP3    H212027   0.745   1.970   0.117 -0.3206  2.7734 -1.4019
 4024TIP3   OH212028   0.304   2.232   6.345  0.1462  0.4478  0.1686
 4024TIP3    H112029   0.236   2.165   6.338 -0.2779  0.9297 -0.4532
 4024TIP3    H212030   0.290   2.272   6.430 -0.4138  0.6058  0.0063
 4025TIP3   OH212031   2.625   4.876   5.792  0.3714 -0.1499  0.4132
 4025TIP3    H112032   2.668   4.852   5.709  1.0539 -1.8840  1.2246
 4025TIP3    H212033   2.660   4.814   5.856 -1.2943  0.1720  1.6988
 4026TIP3   OH212034   1.687   5.128   6.224 -0.1191 -0.4281  0.0821
 4026TIP3    H112035   1.701   5.216   6.260  0.2765 -1.1719  1.8440
 4026TIP3    H212036   1.677   5.142   6.130 -1.4713  1.6502  0.4752
 4027TIP3   OH212037   7.170   3.430   3.605  0.3248  0.6218 -0.0386
 4027TIP3    H112038   7.262   3.451   3.585 -0.1039  0.0583 -3.0565
 4027TIP3    H212039   7.156   3.467   3.692  3.4533  0.5472  0.6434
 4028TIP3   OH212040   2.116   4.402   1.199 -0.1436 -0.0968  0.2155
 4028TIP3    H112041   2.115   4.306   1.195 -1.8117 -0.1604  1.3049
 4028TIP3    H212042   2.209   4.425   1.204  0.3394 -1.5722 -1.1759
 4029TIP3   OH212043   3.493   5.721   4.126  0.3933  0.0838 -0.1255
 4029TIP3    H112044   3.433   5.656   4.164  1.0158 -0.5831 -0.2730
 4029TIP3    H212045   3.435   5.791   4.095 -0.2098  0.0804  0.9625
 4030TIP3   OH212046   7.456   3.186   4.796  0.5791 -0.2030  0.0870
 4030TIP3    H112047   7.542   3.212   4.830  0.4572 -0.2817  0.4575
 4030TIP3    H212048   7.468   3.094   4.770  0.3321 -0.5324  1.0946
 4031TIP3   OH212049   2.331   1.368   3.682 -0.0511 -0.2949  0.3417
 4031TIP3    H112050   2.279   1.398   3.607  1.1707  0.1717 -0.3519
 4031TIP3    H212051   2.375   1.289   3.651  0.3926 -0.1483  0.5840
 4032TIP3   OH212052   5.703   2.839   5.817 -0.7194 -0.1388 -0.9070
 4032TIP3    H112053   5.718   2.930   5.794  0.5911  0.2176  1.0664
 4032TIP3    H212054   5.611   2.836   5.845 -0.3695  0.9512  0.4657
 4033TIP3   OH212055   2.624   7.038   2.994  0.3450  0.1769 -0.1422
 4033TIP3    H112056   2.532   7.059   2.980  0.3839  0.3220 -0.1794
 4033TIP3    H212057   2.667   7.063   2.912  0.6453  1.4348  0.3822
 4034TIP3   OH212058   3.739   3.456   4.447 -0.6973  0.1188 -0.0021
 4034TIP3    H112059   3.672   3.418   4.504 -0.0533 -2.7147 -0.9545
 4034TIP3    H212060   3.694   3.470   4.363 -0.2607 -1.4645 -0.5389
 4035TIP3   OH212061   1.102   0.642   2.103  0.4092  0.0564 -0.1640
 4035TIP3    H112062   1.113   0.547   2.096  0.8613  0.1181 -0.3079
 4035TIP3    H212063   1.123   0.674   2.015  0.1907  0.2861 -0.1334
 4036TIP3   OH212064   2.040   7.540   4.286  0.2309 -0.3565 -0.7873
 4036TIP3    H112065   2.050   7.568   4.195 -0.8432 -1.1006 -1.1547
 4036TIP3    H212066   2.130   7.524   4.316  0.5623 -0.6897 -1.9059
 4037TIP3   OH212067   1.379   4.044   1.800 -0.5349  0.1485  0.2113
 4037TIP3    H112068   1.403   4.130   1.835 -0.8782  0.7106 -0.8694
 4037TIP3    H212069   1.446   4.027   1.734 -1.9951  0.9034 -1.5589
 4038TIP3   OH212070   4.882   3.534   4.739 -0.0770  0.3671 -0.4778
 4038TIP3    H112071   4.922   3.504   4.658 -0.1857  0.2810 -0.4996
 4038TIP3    H212072   4.938   3.500   4.808 -0.9629 -1.0556 -0.4404
 4039TIP3   OH212073   4.630   1.194   6.685 -0.1908 -0.0107  0.8644
 4039TIP3    H112074   4.566   1.259   6.656 -0.8516 -0.1339  1.9705
 4039TIP3    H212075   4.712   1.243   6.692  0.7052 -0.4921 -3.5627
 4040TIP3   OH212076   4.732   6.442   0.522  0.0413 -0.2689 -0.0331
 4040TIP3    H112077   4.754   6.506   0.455 -1.6793  1.6242  1.0697
 4040TIP3    H212078   4.768   6.479   0.603 -1.1396 -0.5638  0.6544
 4041TIP3   OH212079   5.599   4.125   0.273 -0.2413  0.1910 -0.5384
 4041TIP3    H112080   5.635   4.160   0.355  2.3858 -0.9149 -1.1011
 4041TIP3    H212081   5.589   4.031   0.290 -0.9655  0.1673 -1.0721
 4042TIP3   OH212082   2.644   7.016   1.433  0.3174  0.0772  0.0595
 4042TIP3    H112083   2.729   7.055   1.414  0.4694 -1.0054 -1.7376
 4042TIP3    H212084   2.644   7.003   1.527  1.7185  1.0279  0.2276
 4043TIP3   OH212085   2.048   3.657   4.239 -0.2549  0.4489  1.0785
 4043TIP3    H112086   1.954   3.668   4.252 -0.2143 -0.4771  2.2264
 4043TIP3    H212087   2.087   3.672   4.325  0.5562 -0.1945  0.8383
 4044TIP3   OH212088   2.893   0.046   2.960  0.1397  0.6051 -0.4797
 4044TIP3    H112089   2.895   0.110   3.032 -0.6955 -0.2996  0.3910
 4044TIP3    H212090   2.939  -0.030   2.995 -1.3311 -0.2923 -0.4143
 4045TIP3   OH212091   5.136   4.843   6.651 -0.8998  0.1168 -0.1431
 4045TIP3    H112092   5.083   4.922   6.648 -0.9891  0.0305 -0.8497
 4045TIP3    H212093   5.221   4.868   6.616 -0.7473  0.0326  0.1559
 4046TIP3   OH212094   5.391   7.626   0.024 -0.3467  0.3416  0.0086
 4046TIP3    H112095   5.306   7.643   0.064 -0.0149  0.4843  0.6648
 4046TIP3    H212096   5.420   7.712  -0.008 -0.4771  0.2818 -0.2709
 4047TIP3   OH212097   0.969   1.032   0.066  0.0945  0.2011 -0.5620
 4047TIP3    H112098   1.032   0.973   0.025  2.4518  1.5813  0.8060
 4047TIP3    H212099   0.946   1.095  -0.002  0.7454  0.0636 -0.9119
 4048TIP3   OH212100   7.229   2.479   2.388 -0.2318  0.5169 -0.0627
 4048TIP3    H112101   7.195   2.393   2.412 -3.1357  1.7939  0.8788
 4048TIP3    H212102   7.311   2.487   2.438  0.4930 -1.9019 -0.7151
 4049TIP3   OH212103   2.004   2.195   1.585 -0.1750 -0.0708 -0.4100
 4049TIP3    H112104   1.935   2.148   1.631  0.3978  0.7027  1.3268
 4049TIP3    H212105   1.981   2.288   1.595  3.0724  0.5912  3.9453
 4050TIP3   OH212106   7.061   5.663   0.318  0.1528 -0.2765 -0.2790
 4050TIP3    H112107   7.087   5.576   0.348  0.5964 -0.7814 -2.0484
 4050TIP3    H212108   7.142   5.703   0.287 -0.1835  0.4651 -0.2195
 4051TIP3   OH212109   6.767   1.757   2.292 -0.3434 -0.4021 -0.0666
 4051TIP3    H112110   6.675   1.777   2.310  0.3467  0.6937  2.7342
 4051TIP3    H212111   6.795   1.703   2.366  1.2859 -0.6835 -0.8401
 4052TIP3   OH212112   8.267   5.930   3.344 -0.3308 -0.8399  0.4557
 4052TIP3    H112113   8.270   5.980   3.262 -0.9179  0.6555  1.2959
 4052TIP3    H212114   8.218   5.986   3.404  0.1665 -1.8561  1.8658
 4053TIP3   OH212115   4.581   7.636   0.492  0.1886 -0.2937  0.0725
 4053TIP3    H112116   4.507   7.695   0.505  1.1588  0.5320  2.6143
 4053TIP3    H212117   4.547   7.550   0.516 -0.3096 -0.1664 -0.1552
 4054TIP3   OH212118   3.148   6.310   4.775  0.1785  0.3001 -0.0534
 4054TIP3    H112119   3.198   6.349   4.704 -0.3994 -0.0112 -0.6510
 4054TIP3    H212120   3.069   6.276   4.732  0.2104 -0.6428  0.5969
 4055TIP3   OH212121   0.624   4.652   2.047  0.2015 -0.2813 -0.1188
 4055TIP3    H112122   0.559   4.604   2.097 -0.1620 -0.4351 -0.7217
 4055TIP3    H212123   0.666   4.710   2.110 -1.0658  0.3975  0.1435
 4056TIP3   OH212124   8.078   7.353   3.668  0.4616  0.1851 -0.2963
 4056TIP3    H112125   7.991   7.347   3.628  1.1901 -1.1120 -1.7863
 4056TIP3    H212126   8.112   7.264   3.665  1.5085  0.4947  1.1290
 4057TIP3   OH212127   1.968   2.904   3.195  0.2029 -0.6922 -0.4204
 4057TIP3    H112128   1.878   2.935   3.207  0.1960 -1.4994  2.4221
 4057TIP3    H212129   2.018   2.951   3.261  1.5911 -1.3469 -0.9710
 4058TIP3   OH212130   2.642   1.217   1.176 -0.0130  0.1157  0.1848
 4058TIP3    H112131   2.601   1.243   1.094 -0.5808 -2.7897 -0.5513
 4058TIP3    H212132   2.710   1.283   1.191 -1.6027  2.1979 -1.1868
 4059TIP3   OH212133   6.746   7.610   6.449  0.8184  0.3677  0.7868
 4059TIP3    H112134   6.671   7.670   6.450  0.7754  0.3192  0.4702
 4059TIP3    H212135   6.731   7.553   6.525 -0.1177 -0.4364  0.0372
 4060TIP3   OH212136   1.408   4.826   3.779 -0.2478  0.3146  0.1547
 4060TIP3    H112137   1.402   4.731   3.766 -0.5458  0.3878 -0.2778
 4060TIP3    H212138   1.502   4.844   3.784 -0.2069 -0.2316  2.1207
 4061TIP3   OH212139   1.239   7.845   2.237 -0.0621 -0.2605  0.2634
 4061TIP3    H112140   1.229   7.769   2.294  0.0063 -1.0331 -0.7359
 4061TIP3    H212141   1.241   7.809   2.148  2.4874  0.6333 -0.1269
 4062TIP3   OH212142   3.184   4.348   0.558  0.4721 -0.0717 -0.0621
 4062TIP3    H112143   3.195   4.443   0.561  0.1812  0.1009 -2.5627
 4062TIP3    H212144   3.090   4.334   0.546  0.5744 -0.6453 -0.2428
 4063TIP3   OH212145   2.847   6.808   2.417 -0.5341  0.5960 -0.3544
 4063TIP3    H112146   2.766   6.852   2.393 -0.4242  0.1584 -1.5747
 4063TIP3    H212147   2.863   6.836   2.508 -1.9962  0.7285 -0.1180
 4064TIP3   OH212148   6.303   6.949   1.998 -0.3604 -0.7568 -0.6496
 4064TIP3    H112149   6.258   7.030   1.972  0.7794 -0.3082 -1.2757
 4064TIP3    H212150   6.257   6.920   2.077 -0.4956  0.7339 -0.1666
 4065TIP3   OH212151   5.864   1.809   1.341 -0.0422  0.5881  0.0433
 4065TIP3    H112152   5.897   1.899   1.347 -0.2216  0.8827 -2.3245
 4065TIP3    H212153   5.771   1.816   1.359 -0.5434  1.3487 -2.5116
 4066TIP3   OH212154   5.546   6.492   0.176  0.3556 -0.7129 -0.1602
 4066TIP3    H112155   5.487   6.417   0.185 -1.4927  0.8467  1.6322
 4066TIP3    H212156   5.607   6.484   0.249  0.2730 -0.5675 -0.0751
 4067TIP3   OH212157   0.354   6.378   1.929  0.5212  0.2235 -0.1248
 4067TIP3    H112158   0.304   6.349   2.005  1.4394 -1.3127 -0.0579
 4067TIP3    H212159   0.433   6.324   1.930  1.3172  1.3145 -1.2531
 4068TIP3   OH212160   6.977   7.357   6.774  0.2883  0.4249 -0.0547
 4068TIP3    H112161   6.889   7.372   6.739 -0.4702 -1.5957  0.8046
 4068TIP3    H212162   7.021   7.442   6.768 -0.9363  0.9763 -2.6324
 4069TIP3   OH212163   7.234   2.899   0.857  0.5584 -0.2908  0.1163
 4069TIP3    H112164   7.299   2.966   0.832  0.0118 -0.5616 -2.2087
 4069TIP3    H212165   7.268   2.863   0.938  2.2518  0.9980  0.0434
 4070TIP3   OH212166   6.467   4.968   2.780 -0.0650 -0.3713  0.0963
 4070TIP3    H112167   6.423   4.892   2.742  1.1621 -2.0896  1.8954
 4070TIP3    H212168   6.450   4.961   2.874  1.1488  0.8662  0.4364
 4071TIP3   OH212169   3.607   7.529   2.776 -0.2596 -0.7995 -0.3571
 4071TIP3    H112170   3.653   7.538   2.692  1.2624  0.9334  0.5846
 4071TIP3    H212171   3.545   7.602   2.777  0.3750 -0.2479  0.3664
 4072TIP3   OH212172   5.395   3.515   2.812  0.4343 -0.4926 -0.3902
 4072TIP3    H112173   5.375   3.608   2.799  0.8605 -0.0820  1.6137
 4072TIP3    H212174   5.311   3.476   2.835  0.5695 -0.1871  0.7112
 4073TIP3   OH212175   4.684   6.387   1.701  0.0297  0.1568  0.1207
 4073TIP3    H112176   4.743   6.412   1.772 -0.6504 -0.7995  1.0615
 4073TIP3    H212177   4.621   6.459   1.695  0.2013  0.3262  0.3685
 4074TIP3   OH212178   3.437   7.570   0.035  0.1690  0.2810 -0.5391
 4074TIP3    H112179   3.506   7.623  -0.006 -0.3859  2.2612  0.9144
 4074TIP3    H212180   3.358   7.623   0.025 -0.6725 -0.8589 -0.0729
 4075TIP3   OH212181   5.075   5.288   4.710  0.2181  0.7814 -0.2331
 4075TIP3    H112182   5.072   5.250   4.622  1.6162 -0.3509  0.1714
 4075TIP3    H212183   4.983   5.308   4.730 -0.3477 -0.5752 -1.2531
 4076TIP3   OH212184   6.805   2.947   4.895 -0.0080 -0.0146 -0.1154
 4076TIP3    H112185   6.824   2.957   4.801  2.2266  1.5176  0.4306
 4076TIP3    H212186   6.796   3.037   4.926 -1.3222 -0.5251  1.0777
 4077TIP3   OH212187   0.140   4.484   6.657 -0.5350 -0.3512  0.1271
 4077TIP3    H112188   0.092   4.459   6.578 -0.2019  2.6127 -1.1229
 4077TIP3    H212189   0.227   4.510   6.626 -0.1606  0.2354  1.5680
 4078TIP3   OH212190   6.709   1.187   4.408 -0.1916 -0.0410 -0.0547
 4078TIP3    H112191   6.743   1.104   4.441  0.6718 -0.1373 -1.1467
 4078TIP3    H212192   6.787   1.241   4.394 -0.6380  0.4354 -0.7282
 4079TIP3   OH212193   6.938   4.503   6.279 -0.4218 -0.2765 -0.2335
 4079TIP3    H112194   6.849   4.535   6.294 -0.3616  0.5435 -1.4431
 4079TIP3    H212195   6.949   4.507   6.184  1.1988  0.4614 -0.0442
 4080TIP3   OH212196   1.686   6.311   0.038 -0.1121  0.2560  0.4886
 4080TIP3    H112197   1.773   6.306   0.076  0.4610  2.0700 -0.4750
 4080TIP3    H212198   1.701   6.323  -0.056 -1.3792  0.7935  0.3344
 4081TIP3   OH212199   1.044   1.747   0.615 -0.3972  0.2824  0.4112
 4081TIP3    H112200   1.023   1.798   0.693 -0.2051 -0.9408  1.2899
 4081TIP3    H212201   1.069   1.813   0.549  1.6624  1.2553  2.0504
 4082TIP3   OH212202   4.289   2.753   1.033  0.1101  0.2533  0.0435
 4082TIP3    H112203   4.379   2.750   0.999  0.3308  1.4935  0.4579
 4082TIP3    H212204   4.236   2.711   0.965  0.9168  0.1448 -0.5338
 4083TIP3   OH212205   0.032   6.735   1.941 -0.7307  0.1266 -0.2487
 4083TIP3    H112206   0.121   6.710   1.918 -0.8439 -0.7366  0.1859
 4083TIP3    H212207   0.030   6.830   1.933 -0.1614  0.0451 -1.6189
 4084TIP3   OH212208   1.383   4.669   3.141 -0.2669 -0.0311 -0.0274
 4084TIP3    H112209   1.343   4.655   3.227 -0.6790 -0.2244 -0.2462
 4084TIP3    H212210   1.440   4.745   3.153 -1.0279  0.5210  0.1927
 4085TIP3   OH212211   0.769   1.937   3.325 -0.1168 -0.6522  0.5538
 4085TIP3    H112212   0.701   1.899   3.380 -0.1838  0.7184  1.4431
 4085TIP3    H212213   0.723   1.968   3.247 -0.0736 -2.2512 -0.1449
 4086TIP3   OH212214   1.137   6.794   4.477 -0.0973  0.0992  0.3157
 4086TIP3    H112215   1.114   6.886   4.492  0.0454  0.4173 -1.3245
 4086TIP3    H212216   1.202   6.796   4.407 -0.5778 -1.2962 -0.2039
 4087TIP3   OH212217   4.117   6.889   4.132  0.4492  0.2996 -0.7662
 4087TIP3    H112218   4.150   6.840   4.057  2.2876  1.1102 -0.5499
 4087TIP3    H212219   4.070   6.825   4.184  1.1028 -0.7952 -1.4840
 4088TIP3   OH212220   0.977   1.438   5.798 -0.1932  0.2466  0.7314
 4088TIP3    H112221   1.047   1.476   5.850  0.0168  0.4026  0.3408
 4088TIP3    H212222   1.019   1.412   5.716 -0.3529 -0.7220  0.9381
 4089TIP3   OH212223   5.907   0.579   5.752  0.4463 -0.0432 -0.3456
 4089TIP3    H112224   5.913   0.497   5.702  1.4147 -1.4948  2.0083
 4089TIP3    H212225   5.962   0.640   5.703  1.7480 -1.5323 -0.8257
 4090TIP3   OH212226   3.013   5.736   1.527  0.0663  0.1407 -0.1354
 4090TIP3    H112227   3.014   5.640   1.524 -1.3154  0.0540  1.2277
 4090TIP3    H212228   3.086   5.758   1.584 -1.1670 -0.2592  1.6712
 4091TIP3   OH212229   5.357   7.321   0.699  0.1467  0.4129  0.0672
 4091TIP3    H112230   5.272   7.363   0.710  0.9117  2.6245 -1.7557
 4091TIP3    H212231   5.420   7.393   0.700  2.2339 -1.2153  2.6016
 4092TIP3   OH212232   1.990   2.072   2.678  0.2780  0.3201  0.1486
 4092TIP3    H112233   2.076   2.114   2.684  0.4713 -0.2398  2.4796
 4092TIP3    H212234   1.973   2.041   2.767 -1.9916 -0.3048 -0.4433
 4093TIP3   OH212235   0.873   7.821   5.383  0.3158 -0.3230 -0.7126
 4093TIP3    H112236   0.913   7.821   5.470  0.7694 -0.6399 -0.9182
 4093TIP3    H212237   0.783   7.794   5.398  0.2812  0.0075 -0.2951
 4094TIP3   OH212238   6.804   1.209   0.519  0.2400 -0.1581 -0.2511
 4094TIP3    H112239   6.715   1.244   0.528  0.7917  1.6040 -1.1715
 4094TIP3    H212240   6.811   1.145   0.589 -1.8214 -0.4953 -0.2786
 4095TIP3   OH212241   4.949   6.883   3.675  0.1040  0.1359  0.4623
 4095TIP3    H112242   5.031   6.856   3.634 -0.0586 -0.8560  0.7678
 4095TIP3    H212243   4.893   6.910   3.602  0.8506  1.2932  0.2831
 4096TIP3   OH212244   3.091   2.973   2.136 -0.4075 -0.2223  0.1633
 4096TIP3    H112245   3.102   2.878   2.124  0.8913 -0.1772  0.7994
 4096TIP3    H212246   3.008   2.981   2.184  0.0527 -1.1409  1.1710
 4097TIP3   OH212247   3.221   4.456   6.442  0.3602 -0.0561  0.0571
 4097TIP3    H112248   3.202   4.445   6.535 -0.5279 -1.8901 -0.3024
 4097TIP3    H212249   3.138   4.435   6.398  0.7356  0.8759 -1.1602
 4098TIP3   OH212250   3.499   2.368   0.763  0.5264  0.6339 -0.0195
 4098TIP3    H112251   3.510   2.460   0.785  0.5661  0.2172  1.7911
 4098TIP3    H212252   3.410   2.346   0.791  1.4294 -0.5353  2.1303
 4099TIP3   OH212253   8.214   3.199   4.364 -0.3787 -0.3754 -0.3253
 4099TIP3    H112254   8.178   3.245   4.440  2.1624  1.3523 -0.0249
 4099TIP3    H212255   8.222   3.108   4.392 -3.4421 -0.6850 -0.1258
 4100TIP3   OH212256   3.546   3.038   6.060 -0.5716 -0.2653 -0.2675
 4100TIP3    H112257   3.504   2.985   6.127 -0.1215  0.8963  0.9776
 4100TIP3    H212258   3.474   3.077   6.010 -0.9283 -0.2122  0.2884
 4101TIP3   OH212259   4.203   4.358   1.709  0.5219  0.6494  0.2040
 4101TIP3    H112260   4.210   4.342   1.803 -1.9809  0.2415  0.3902
 4101TIP3    H212261   4.185   4.272   1.671 -3.6304  1.4052  0.0665
 4102TIP3   OH212262   3.168   0.597   4.408  0.0673  0.0616  0.3700
 4102TIP3    H112263   3.123   0.515   4.388 -1.5271  1.1112 -0.5856
 4102TIP3    H212264   3.188   0.635   4.323  0.5986  0.7701  0.7956
 4103TIP3   OH212265   3.873   3.353   5.960 -0.4145  0.4817 -0.6228
 4103TIP3    H112266   3.849   3.297   6.034  0.1529  0.1128 -0.7122
 4103TIP3    H212267   3.873   3.442   5.996  1.0171  0.2069  0.1486
 4104TIP3   OH212268   0.898   6.663   1.907  0.0822  0.1965 -0.2746
 4104TIP3    H112269   0.921   6.710   1.827  0.1069  0.0312 -0.3633
 4104TIP3    H212270   0.928   6.721   1.977  0.5922  0.0774 -0.3900
 4105TIP3   OH212271   7.403   0.574   1.462 -0.2384  0.0317 -0.3032
 4105TIP3    H112272   7.386   0.640   1.394 -0.0331 -0.1957 -0.5758
 4105TIP3    H212273   7.404   0.491   1.416  0.3519 -0.0842 -0.0965
 4106TIP3   OH212274   2.888   6.079   4.365  0.4694 -0.1116 -0.1718
 4106TIP3    H112275   2.818   6.043   4.311 -0.1093  1.3838 -0.4595
 4106TIP3    H212276   2.844   6.113   4.443  0.9933 -0.0112  0.0920
 4107TIP3   OH212277   0.274   7.426   3.207  0.7252 -0.1142 -0.0587
 4107TIP3    H112278   0.366   7.402   3.194  0.3960 -2.1326  0.8452
 4107TIP3    H212279   0.260   7.414   3.301 -1.1318 -2.6647 -0.5626
 4108TIP3   OH212280   4.236   7.656   2.322  0.1890  0.2491 -0.1986
 4108TIP3    H112281   4.171   7.723   2.303 -0.5071  0.7747  3.3586
 4108TIP3    H212282   4.318   7.704   2.334 -0.2041  0.5004  1.8320
 4109TIP3   OH212283   5.555   2.209   4.823 -0.1010  0.8147 -0.1643
 4109TIP3    H112284   5.545   2.220   4.917 -0.6620 -0.0877 -0.1007
 4109TIP3    H212285   5.611   2.132   4.813 -1.7707 -0.4245 -0.5311
 4110TIP3   OH212286   6.133   2.200   4.161  0.6746 -0.0831  0.5843
 4110TIP3    H112287   6.210   2.147   4.181  0.4767 -0.4033  0.5105
 4110TIP3    H212288   6.168   2.282   4.127  0.9866 -0.9797 -1.4077
 4111TIP3   OH212289   1.679   3.242   6.266 -0.5140  0.1459  0.0005
 4111TIP3    H112290   1.745   3.309   6.282 -0.5234 -0.0279  0.8073
 4111TIP3    H212291   1.729   3.168   6.231 -0.7520  1.2231 -2.8234
 4112TIP3   OH212292   0.493   6.636   1.359 -0.2257  0.0531 -0.1431
 4112TIP3    H112293   0.473   6.544   1.339 -0.1647  0.0838 -0.3390
 4112TIP3    H212294   0.589   6.639   1.364 -0.1401  0.4406 -1.7281
 4113TIP3   OH212295   6.274   5.298   4.376 -0.8392 -0.0756 -0.3300
 4113TIP3    H112296   6.192   5.341   4.398 -0.9076  0.3333 -1.3441
 4113TIP3    H212297   6.315   5.356   4.312  0.6546  0.1759  0.7980
 4114TIP3   OH212298   3.376   7.386   2.375 -0.5323  0.9290 -0.0652
 4114TIP3    H112299   3.437   7.313   2.365 -1.8194 -0.2319  0.2725
 4114TIP3    H212300   3.377   7.405   2.469  0.8843  2.3623 -0.3205
 4115TIP3   OH212301   3.457   1.235   4.292 -0.8192 -0.2269  0.0230
 4115TIP3    H112302   3.504   1.203   4.369  0.1950  0.5015 -0.2692
 4115TIP3    H212303   3.524   1.236   4.223 -1.2482  0.8722 -0.3938
 4116TIP3   OH212304   3.185   5.252   1.100 -0.0909 -0.0317 -0.7461
 4116TIP3    H112305   3.136   5.308   1.040  2.6003  3.2220 -0.1944
 4116TIP3    H212306   3.220   5.182   1.044 -0.0756  1.2428 -2.4018
 4117TIP3   OH212307   4.045   1.709   3.195 -0.0552 -0.2556 -0.1264
 4117TIP3    H112308   4.141   1.716   3.197 -0.1045  0.3295  1.1570
 4117TIP3    H212309   4.026   1.636   3.254 -0.4001 -0.5009 -0.5386
 4118TIP3   OH212310   3.787   7.147   6.127 -0.3486  0.3810  0.2317
 4118TIP3    H112311   3.791   7.051   6.127  1.2247  0.3993  1.3554
 4118TIP3    H212312   3.698   7.167   6.157 -0.0528 -0.7772  2.0775
 4119TIP3   OH212313   3.445   0.650   5.766 -0.1432  0.1715  0.0521
 4119TIP3    H112314   3.505   0.658   5.693  0.8725  0.5862  0.9087
 4119TIP3    H212315   3.470   0.721   5.826 -0.7139 -0.3691  0.9624
 4120TIP3   OH212316   4.139   0.691   5.125 -0.4257  1.4402  0.0844
 4120TIP3    H112317   4.051   0.726   5.137 -0.7029  0.9598 -0.4805
 4120TIP3    H212318   4.125   0.604   5.087  0.1805  0.1558  2.5903
 4121TIP3   OH212319   4.488   7.668   4.695 -0.6165  0.3989  0.0976
 4121TIP3    H112320   4.504   7.709   4.609  0.9463 -1.2283 -0.4655
 4121TIP3    H212321   4.437   7.590   4.675 -0.3948  0.1046  0.6543
 4122TIP3   OH212322   0.773   3.829   1.781 -0.4822  0.5089  0.1588
 4122TIP3    H112323   0.771   3.919   1.814 -0.7543  0.1501  1.1612
 4122TIP3    H212324   0.690   3.818   1.735  0.1500  1.1999 -1.1820
 4123TIP3   OH212325   2.080   2.041   0.449 -0.5556  0.7092  0.5182
 4123TIP3    H112326   2.156   2.099   0.458 -0.8267  1.0074  0.9382
 4123TIP3    H212327   2.088   1.981   0.523 -0.9100  0.9541  0.7558
 4124TIP3   OH212328   0.776   7.023   3.979 -0.4162  0.0521  0.8954
 4124TIP3    H112329   0.730   6.991   3.902  2.9548  0.4360 -1.5137
 4124TIP3    H212330   0.761   7.118   3.979  2.6190  0.6957 -1.8047
 4125TIP3   OH212331   6.559   4.066   6.476 -0.0504 -0.4171 -1.1470
 4125TIP3    H112332   6.520   4.120   6.544  2.0956 -0.9380  0.6373
 4125TIP3    H212333   6.485   4.024   6.432 -1.5510  0.5339  0.3548
 4126TIP3   OH212334   7.367   0.916   4.866  0.1464  0.4772 -0.9724
 4126TIP3    H112335   7.426   0.984   4.834  0.1661  0.1283 -1.7264
 4126TIP3    H212336   7.299   0.910   4.798  0.6078 -0.8231 -1.3498
 4127TIP3   OH212337   6.779   6.513   6.753  0.3229 -0.0924  0.3093
 4127TIP3    H112338   6.777   6.420   6.731 -1.4220 -0.2581  0.9811
 4127TIP3    H212339   6.730   6.519   6.835  0.9186  1.3482  0.5829
 4128TIP3   OH212340   3.297   4.292   6.129  0.3494  0.2212  0.1927
 4128TIP3    H112341   3.329   4.271   6.216  0.5673  0.8057  0.2585
 4128TIP3    H212342   3.202   4.300   6.139  0.2872 -0.4948  0.2092
 4129TIP3   OH212343   4.963   6.341   1.609  0.6461 -0.8910 -0.6126
 4129TIP3    H112344   5.001   6.313   1.692  0.9607 -2.0078 -1.1153
 4129TIP3    H212345   4.876   6.375   1.632  0.7192 -1.2158  0.1650
 4130TIP3   OH212346   7.653   7.771   4.077 -0.1088  0.0793 -0.4046
 4130TIP3    H112347   7.581   7.733   4.127 -0.2199  2.2681  1.2189
 4130TIP3    H212348   7.724   7.707   4.086 -1.0424 -0.9187  0.0971
 4131TIP3   OH212349   7.896   0.551   1.689  0.7550 -0.1072  0.3951
 4131TIP3    H112350   7.834   0.621   1.669 -0.4909 -1.3425 -0.2709
 4131TIP3    H212351   7.960   0.554   1.618  0.9128  0.5673  0.5624
 4132TIP3   OH212352   6.448   3.053   0.574 -0.8578 -0.0019 -0.5165
 4132TIP3    H112353   6.514   3.102   0.623 -1.0998 -0.8269  0.6835
 4132TIP3    H212354   6.389   3.018   0.641 -1.2110 -1.1628 -1.3966
 4133TIP3   OH212355   1.477   2.758   1.009  0.0697 -0.3051  0.5041
 4133TIP3    H112356   1.392   2.797   1.028  0.7059  0.2716  2.3753
 4133TIP3    H212357   1.468   2.724   0.920 -1.8938  0.3090  0.4140
 4134TIP3   OH212358   4.242   0.705   5.992  0.1095 -0.2801  0.1644
 4134TIP3    H112359   4.244   0.785   5.940 -1.3711  0.0950  0.6654
 4134TIP3    H212360   4.326   0.705   6.039  0.3144  0.7315 -0.1842
 4135TIP3   OH212361   0.806   3.579   2.895 -0.3052  0.3051  0.6530
 4135TIP3    H112362   0.813   3.675   2.902 -0.0262  0.3591 -0.1996
 4135TIP3    H212363   0.714   3.561   2.911 -0.1114  0.5660  2.2384
 4136TIP3   OH212364   7.289   0.334   4.138 -0.2827 -0.2949  0.2607
 4136TIP3    H112365   7.241   0.410   4.172  0.4334  0.2447  0.0797
 4136TIP3    H212366   7.299   0.352   4.044 -1.6945 -1.4765 -0.1559
 4137TIP3   OH212367   7.230   5.602   3.193  0.9341  1.1669  0.4956
 4137TIP3    H112368   7.310   5.575   3.239  0.2950 -1.3343  0.3069
 4137TIP3    H212369   7.240   5.565   3.105 -0.8093 -0.1240  0.7740
 4138TIP3   OH212370   2.112   6.934   5.547  0.7189 -0.0773 -0.5781
 4138TIP3    H112371   2.190   6.963   5.501  0.1649  0.5002 -1.1845
 4138TIP3    H212372   2.103   6.842   5.524  1.6548 -0.3638  0.1433
 4139TIP3   OH212373   6.247   2.165   5.830  0.0193 -0.0611 -0.5054
 4139TIP3    H112374   6.183   2.102   5.798  1.6364 -1.1600 -1.7736
 4139TIP3    H212375   6.279   2.209   5.752 -0.1780  1.4957  0.2466
 4140TIP3   OH212376   3.653   7.425   4.484  0.2641 -0.1746  0.2871
 4140TIP3    H112377   3.620   7.426   4.395 -1.6720 -1.4684  0.9244
 4140TIP3    H212378   3.670   7.332   4.502 -0.4635 -0.0749  1.6161
 4141TIP3   OH212379   5.385   3.348   2.338  0.0449 -0.4126  0.1237
 4141TIP3    H112380   5.411   3.303   2.259  0.0521  0.3043 -0.2932
 4141TIP3    H212381   5.351   3.433   2.308  1.7203  0.6316  0.9817
 4142TIP3   OH212382   7.013   5.248   5.673  0.2912  0.2732  0.1578
 4142TIP3    H112383   7.044   5.330   5.635 -1.3424  0.5645 -0.6477
 4142TIP3    H212384   6.940   5.274   5.730  0.1076 -0.5601  0.3168
 4143TIP3   OH212385   5.959   3.243   0.367 -0.7562 -0.0029 -0.5189
 4143TIP3    H112386   5.922   3.173   0.421 -1.4424  1.2773  0.7489
 4143TIP3    H212387   6.026   3.199   0.314 -0.9652 -1.5633  0.4287
 4144TIP3   OH212388   3.471   4.229   1.480 -0.1120  0.5010 -0.5648
 4144TIP3    H112389   3.560   4.224   1.446  0.5842 -2.3164  1.3498
 4144TIP3    H212390   3.481   4.233   1.575 -2.0222  0.4966 -0.3154
 4145TIP3   OH212391   0.041   4.528   6.395  0.4324  0.1189 -0.0508
 4145TIP3    H112392   0.020   4.481   6.314 -0.2667 -3.1013  1.7888
 4145TIP3    H212393  -0.044   4.558   6.428  0.7358  1.6006 -0.5677
 4146TIP3   OH212394   5.401   4.130   4.213  0.3188 -0.0063  0.5590
 4146TIP3    H112395   5.436   4.122   4.125  1.3458 -0.3559  0.9818
 4146TIP3    H212396   5.471   4.098   4.270 -1.0455 -1.6853  1.3954
 4147TIP3   OH212397   0.385   5.952   6.038  0.3122 -0.0286 -0.1366
 4147TIP3    H112398   0.396   5.983   6.127 -0.1528  1.1395 -0.4657
 4147TIP3    H212399   0.343   5.866   6.047  1.0296 -0.2947  0.7763
 4148TIP3   OH212400   0.962   1.885   4.565  0.2154  0.3302  0.4976
 4148TIP3    H112401   0.928   1.931   4.642  1.7435 -0.9425  2.0035
 4148TIP3    H212402   0.944   1.793   4.583  0.1329  0.0368 -0.9544
 4149TIP3   OH212403   0.867   1.932   1.245  0.0643 -0.2959 -0.5170
 4149TIP3    H112404   0.866   1.950   1.339  0.9891  0.8064 -0.7048
 4149TIP3    H212405   0.779   1.900   1.227 -0.7968  1.4064  0.3769
 4150TIP3   OH212406   0.855   2.249   1.019 -0.1211  0.2030 -0.0129
 4150TIP3    H112407   0.873   2.191   1.093  0.7769  0.0102 -0.3697
 4150TIP3    H212408   0.910   2.326   1.035 -0.2988  0.3743 -0.2220
 4151TIP3   OH212409   6.947   1.737   4.999  0.1845 -0.5247 -0.2002
 4151TIP3    H112410   7.018   1.748   5.063  0.9587 -1.7889 -0.8129
 4151TIP3    H212411   6.951   1.816   4.945  1.7608 -0.9957 -0.8263
 4152TIP3   OH212412   0.131   1.610   6.706  0.0167  0.5055  0.3337
 4152TIP3    H112413   0.094   1.543   6.764 -0.1702 -0.3931 -0.7755
 4152TIP3    H212414   0.058   1.633   6.648  0.6368  0.1772 -0.5951
 4153TIP3   OH212415   7.526   5.929   5.480 -0.3589 -0.1488  0.2450
 4153TIP3    H112416   7.581   5.999   5.445 -1.5739  0.7461  0.0442
 4153TIP3    H212417   7.563   5.910   5.566 -0.7324  1.6527  0.8652
 4154TIP3   OH212418   3.719   0.254   0.197 -0.6064 -1.0480 -0.1334
 4154TIP3    H112419   3.705   0.345   0.225 -2.4057 -1.4716  0.4454
 4154TIP3    H212420   3.647   0.235   0.137 -1.3534 -2.6665  1.2061
 4155TIP3   OH212421   2.020   5.322   2.479  0.1205 -0.1570  0.0784
 4155TIP3    H112422   1.976   5.237   2.472  0.6762 -0.4228 -0.2253
 4155TIP3    H212423   2.088   5.308   2.544 -1.0931  0.6318  1.5914
 4156TIP3   OH212424   6.953   1.346   4.496 -0.1462  0.0292  0.3394
 4156TIP3    H112425   6.954   1.380   4.407  0.8555  0.0782  0.3606
 4156TIP3    H212426   6.934   1.422   4.551  2.2913  0.6758  0.4053
 4157TIP3   OH212427   7.395   5.727   3.902  0.3100 -0.1139  0.0270
 4157TIP3    H112428   7.389   5.816   3.866 -2.1263  0.2524  1.1442
 4157TIP3    H212429   7.468   5.731   3.964  2.0263  0.2946 -1.9193
 4158TIP3   OH212430   0.544   3.810   5.250 -0.1490  0.1898  0.2809
 4158TIP3    H112431   0.532   3.764   5.167  0.2657  0.6816 -0.0599
 4158TIP3    H212432   0.630   3.782   5.281 -0.2007  0.1891  0.4266
 4159TIP3   OH212433   5.644   5.192   5.813 -0.0520 -0.2552  0.0541
 4159TIP3    H112434   5.630   5.171   5.905  2.2764  0.5105  0.6524
 4159TIP3    H212435   5.558   5.180   5.772 -1.2057 -0.3513  2.3590
 4160TIP3   OH212436   2.358   2.061   1.308 -0.3871 -0.1401  0.1556
 4160TIP3    H112437   2.271   2.100   1.297  0.0139  0.6828 -0.1935
 4160TIP3    H212438   2.408   2.128   1.356  0.6859  0.3531 -1.5495
 4161TIP3   OH212439   1.658   5.921   4.023 -0.2921 -0.1398  0.0773
 4161TIP3    H112440   1.612   5.914   4.107 -0.1969  0.5580  0.1897
 4161TIP3    H212441   1.592   5.899   3.958 -0.5217 -0.1057  0.2962
 4162TIP3   OH212442   3.834   2.837   4.932 -0.0998  0.1120 -0.6252
 4162TIP3    H112443   3.780   2.786   4.871 -2.6004  0.6510  0.9878
 4162TIP3    H212444   3.857   2.776   5.001  1.6625 -0.1716 -1.4104
 4163TIP3   OH212445   3.116   2.662   2.888  0.1701 -0.0450 -0.7983
 4163TIP3    H112446   3.148   2.593   2.830  2.4735  0.1938  0.0803
 4163TIP3    H212447   3.185   2.728   2.887 -0.2706  0.5107  1.2469
 4164TIP3   OH212448   7.836   6.616   5.758  0.3547  0.3216 -0.0909
 4164TIP3    H112449   7.789   6.569   5.689 -1.8142  1.8284  0.2532
 4164TIP3    H212450   7.908   6.660   5.713  0.4360 -0.6719 -0.9603
 4165TIP3   OH212451   7.507   7.780   5.888 -0.7163 -0.0142  0.3012
 4165TIP3    H112452   7.423   7.739   5.869 -0.0256 -1.1835 -0.3495
 4165TIP3    H212453   7.566   7.747   5.820  0.3122  0.6465  0.8470
 4166TIP3   OH212454   6.753   3.128   4.061  0.2730 -0.8526 -0.0145
 4166TIP3    H112455   6.716   3.213   4.086  0.6241 -1.0253  1.1870
 4166TIP3    H212456   6.711   3.106   3.978 -1.3089 -0.4241  0.6339
 4167TIP3   OH212457   8.287   6.891   0.095 -0.5180  0.3856 -0.5051
 4167TIP3    H112458   8.327   6.914   0.179 -1.8317 -0.1474  0.2977
 4167TIP3    H212459   8.202   6.937   0.096 -0.0115  1.4391 -2.1253
 4168TIP3   OH212460   1.309   6.633   0.188  0.1322 -0.3133 -0.0079
 4168TIP3    H112461   1.393   6.643   0.233 -0.0736  1.1653  0.0873
 4168TIP3    H212462   1.269   6.720   0.191 -0.3785 -0.4244 -2.0946
 4169TIP3   OH212463   2.553   6.338   3.199  0.1100  0.1141  0.1262
 4169TIP3    H112464   2.618   6.407   3.212 -0.2302  1.1998 -2.9850
 4169TIP3    H212465   2.471   6.385   3.183 -0.7361 -1.1147  0.7237
 4170TIP3   OH212466   7.885   3.483   6.089 -0.2050 -0.1409 -0.1220
 4170TIP3    H112467   7.876   3.523   6.002  0.6777  1.9010  0.6566
 4170TIP3    H212468   7.961   3.425   6.081  0.8893  1.2710 -0.3295
 4171TIP3   OH212469   0.720   1.321   5.859 -0.0991  0.2733  0.2070
 4171TIP3    H112470   0.695   1.230   5.874  2.9589 -0.8343 -0.7032
 4171TIP3    H212471   0.745   1.324   5.766 -0.6055  2.1953  0.0918
 4172TIP3   OH212472   3.759   2.064   1.570 -0.6501  0.2061 -0.3267
 4172TIP3    H112473   3.767   2.103   1.657 -1.3550 -0.1285 -0.0962
 4172TIP3    H212474   3.690   2.115   1.527 -0.7097  0.0008 -0.4772
 4173TIP3   OH212475   3.400   1.833   1.672 -0.5324 -0.1577  0.1294
 4173TIP3    H112476   3.388   1.743   1.643  1.2267  0.0267 -1.3396
 4173TIP3    H212477   3.468   1.829   1.738 -1.1158  0.0020  0.7517
 4174TIP3   OH212478   3.168   2.053   6.213 -0.0145 -0.4368  0.1577
 4174TIP3    H112479   3.189   2.012   6.297 -0.1007 -2.3341 -0.7085
 4174TIP3    H212480   3.075   2.033   6.199 -0.1586  0.3783 -0.1358
 4175TIP3   OH212481   4.329   1.704   3.178 -0.3071  0.2920  0.8546
 4175TIP3    H112482   4.386   1.756   3.235  1.2697 -0.4703  0.0601
 4175TIP3    H212483   4.372   1.709   3.092 -2.1564  0.7143 -0.0830
 4176TIP3   OH212484   5.150   6.093   0.199  0.1904 -0.4155  0.0816
 4176TIP3    H112485   5.175   6.071   0.289  4.0712  1.4138 -0.3324
 4176TIP3    H212486   5.181   6.182   0.186 -2.6929  0.4116 -2.3600
 4177TIP3   OH212487   7.512   7.101   4.674 -0.1105 -0.2031 -0.3668
 4177TIP3    H112488   7.495   7.047   4.596 -2.1291 -0.8886  0.4932
 4177TIP3    H212489   7.451   7.175   4.666 -0.5680 -0.4451  0.6940
 4178TIP3   OH212490   4.339   1.484   3.416  0.0426 -0.2094 -0.0483
 4178TIP3    H112491   4.272   1.493   3.485 -0.0023 -1.4707  0.1096
 4178TIP3    H212492   4.390   1.564   3.421 -1.7403  1.0127 -0.4840
 4179TIP3   OH212493   5.526   7.498   4.476 -0.5084  0.6714 -0.0705
 4179TIP3    H112494   5.603   7.547   4.447 -0.1273  0.6928  0.9464
 4179TIP3    H212495   5.483   7.555   4.539  0.1763 -0.4390  1.4556
 4180TIP3   OH212496   6.979   2.165   1.402  0.1293  0.1275 -0.1214
 4180TIP3    H112497   6.895   2.200   1.374 -0.0168  0.0030  0.1608
 4180TIP3    H212498   7.040   2.190   1.332 -0.5058 -1.4854 -1.3011
 4181TIP3   OH212499   4.560   4.296   2.712 -0.0936 -0.3624  0.3936
 4181TIP3    H112500   4.641   4.262   2.673  1.2313  1.9501  0.9699
 4181TIP3    H212501   4.588   4.334   2.796 -1.8677  0.1259  0.8027
 4182TIP3   OH212502   3.350   1.305   1.055 -0.3361  0.2563  0.6324
 4182TIP3    H112503   3.299   1.310   1.136 -0.1801  0.7659  0.6979
 4182TIP3    H212504   3.441   1.317   1.082 -0.3094  0.7195  0.3507
 4183TIP3   OH212505   6.996   1.152   1.079 -0.4752  0.1671 -0.2215
 4183TIP3    H112506   6.992   1.058   1.097  1.2260 -0.0701 -0.9481
 4183TIP3    H212507   7.045   1.189   1.152 -1.7574  0.6452  0.4449
 4184TIP3   OH212508   7.275   3.640   5.932 -0.1872 -0.5559 -0.1465
 4184TIP3    H112509   7.338   3.702   5.970 -0.8158 -0.0448  0.0787
 4184TIP3    H212510   7.319   3.555   5.937 -0.0495 -0.4304  1.2899
 4185TIP3   OH212511   1.472   6.693   1.453  0.0137  0.4319 -0.0670
 4185TIP3    H112512   1.503   6.698   1.363 -0.4412  2.2031 -0.1578
 4185TIP3    H212513   1.388   6.646   1.447 -0.7969  1.9084 -0.8211
 4186TIP3   OH212514   1.837   1.717   5.305  0.0749  0.0952  0.2064
 4186TIP3    H112515   1.762   1.683   5.256  0.8222 -0.7179 -0.4235
 4186TIP3    H212516   1.833   1.671   5.390 -0.8257  0.9839  0.6599
 4187TIP3   OH212517   6.879   5.303   3.699 -0.1126  0.1763  0.1897
 4187TIP3    H112518   6.823   5.336   3.629 -0.2760 -1.2574 -0.3821
 4187TIP3    H212519   6.820   5.253   3.756  0.4331 -0.7449 -0.0296
 4188TIP3   OH212520   1.909   0.311   6.310  0.3573 -0.3170  0.1228
 4188TIP3    H112521   1.852   0.355   6.373  1.6390  1.2758  0.2461
 4188TIP3    H212522   1.854   0.243   6.271 -1.2204  0.3240  1.1297
 4189TIP3   OH212523   4.580   4.082   5.474 -0.3147 -0.4113  0.2426
 4189TIP3    H112524   4.551   4.044   5.391 -2.2453  1.3314  0.0390
 4189TIP3    H212525   4.674   4.095   5.463 -0.3278 -1.3339 -1.1910
 4190TIP3   OH212526   7.620   7.586   1.513 -0.0675 -0.1552 -0.3084
 4190TIP3    H112527   7.537   7.589   1.561 -0.0994 -0.7090 -0.3282
 4190TIP3    H212528   7.657   7.674   1.525 -1.0914  0.4078 -1.1017
 4191TIP3   OH212529   7.136   2.743   0.507  0.1737  0.4409  0.4461
 4191TIP3    H112530   7.072   2.757   0.576 -0.5512 -0.7060  0.0315
 4191TIP3    H212531   7.084   2.725   0.429  0.9588 -1.0148  0.2079
 4192TIP3   OH212532   5.604   4.676   1.069 -0.4227 -0.4067 -0.0910
 4192TIP3    H112533   5.644   4.624   0.999  0.3577  1.5674 -1.2131
 4192TIP3    H212534   5.677   4.700   1.126 -0.5485  0.4045 -0.2554
 4193TIP3   OH212535   5.552   6.948   3.450  0.4759 -0.6534 -0.0433
 4193TIP3    H112536   5.613   6.981   3.516  0.4549 -0.7633  0.0305
 4193TIP3    H212537   5.593   6.867   3.418  0.1775 -0.9350  0.2853
 4194TIP3   OH212538   6.595   4.274   0.979 -0.0880  0.4815  0.3521
 4194TIP3    H112539   6.620   4.218   1.053 -0.3264  1.3411  1.1096
 4194TIP3    H212540   6.666   4.338   0.973  0.5685 -0.3195 -0.9962
 4195TIP3   OH212541   6.487   1.746   2.046 -0.3579  0.1715  0.3163
 4195TIP3    H112542   6.425   1.752   1.973 -0.1402 -1.0032  0.0284
 4195TIP3    H212543   6.437   1.708   2.117 -1.4471  3.9660  1.8339
 4196TIP3   OH212544   0.515   4.446   0.247  0.3285  0.0757  0.6237
 4196TIP3    H112545   0.511   4.350   0.245 -0.9933  0.1310  0.1523
 4196TIP3    H212546   0.438   4.473   0.296 -0.2357  0.9473 -0.6770
 4197TIP3   OH212547   6.658   2.211   4.837 -0.5609  0.2564 -0.0113
 4197TIP3    H112548   6.668   2.267   4.914  0.4893  0.0757  0.0036
 4197TIP3    H212549   6.646   2.124   4.873  1.2048 -0.0334 -0.0134
 4198TIP3   OH212550   0.391   5.103   4.600 -0.2333 -0.3131 -0.1118
 4198TIP3    H112551   0.374   5.108   4.694 -0.2466  2.4747 -0.1847
 4198TIP3    H212552   0.370   5.191   4.567 -1.0058 -1.4166 -2.8720
 4199TIP3   OH212553   3.528   6.941   1.133 -0.8232 -0.7558 -0.4016
 4199TIP3    H112554   3.466   7.009   1.106  1.2996  1.4780 -0.0449
 4199TIP3    H212555   3.530   6.948   1.229 -0.2493 -0.9975 -0.3954
 4200TIP3   OH212556   3.760   2.466   0.536 -0.3151 -0.5857  0.1503
 4200TIP3    H112557   3.770   2.501   0.447  0.1232 -0.9384  0.0565
 4200TIP3    H212558   3.710   2.385   0.523 -0.3640 -0.5688  0.2386
 4201TIP3   OH212559  -0.020   3.701   6.725 -0.0592  0.6460  0.6138
 4201TIP3    H112560   0.066   3.660   6.727  0.4838  1.7135  2.8560
 4201TIP3    H212561  -0.013   3.769   6.658  1.5549  1.9967  2.0507
 4202TIP3   OH212562   3.018   5.389   1.633 -0.1843 -0.4086  0.0420
 4202TIP3    H112563   3.064   5.354   1.709  0.1707 -0.4168 -0.1731
 4202TIP3    H212564   3.081   5.383   1.562  0.0116  0.9623  0.0595
 4203TIP3   OH212565   7.207   3.026   4.564  0.4591  0.5469  0.4504
 4203TIP3    H112566   7.227   3.104   4.512  0.3340  0.5890  0.4641
 4203TIP3    H212567   7.171   2.964   4.501  0.5418  0.5061  0.4426
 4204TIP3   OH212568   6.041   6.813   1.212 -0.0560 -0.0761  0.0572
 4204TIP3    H112569   6.094   6.761   1.152 -0.4456 -1.3707  0.7949
 4204TIP3    H212570   6.104   6.872   1.254  0.5269 -0.4390 -0.2883
 4205TIP3   OH212571   4.975   5.857   1.732  0.0591  0.6343 -0.3642
 4205TIP3    H112572   4.956   5.786   1.672 -0.9747  0.3935  0.2316
 4205TIP3    H212573   4.905   5.921   1.719 -0.2492  0.5236  0.6567
 4206TIP3   OH212574   1.790   7.564   4.343  0.4287  0.2166  0.1896
 4206TIP3    H112575   1.871   7.555   4.292  0.0417 -0.7372 -0.2764
 4206TIP3    H212576   1.816   7.543   4.432  0.4982 -1.1212 -0.1306
 4207TIP3   OH212577   1.870   0.668   6.381  0.2946 -0.7275  0.0480
 4207TIP3    H112578   1.835   0.656   6.470  1.1172 -0.2145  0.4609
 4207TIP3    H212579   1.927   0.744   6.389  0.4573 -0.7467 -0.9085
 4208TIP3   OH212580   1.178   6.284   3.483  0.0646 -0.2599 -0.0394
 4208TIP3    H112581   1.094   6.321   3.454  0.4680 -0.5060 -1.6006
 4208TIP3    H212582   1.158   6.193   3.505 -0.1443 -0.2276 -0.0937
 4209TIP3   OH212583   6.103   4.342   3.393  0.5818  0.0832  0.0821
 4209TIP3    H112584   6.194   4.367   3.375 -0.1343  1.7050 -1.5132
 4209TIP3    H212585   6.066   4.322   3.307 -0.0754 -2.5924  0.8942
 4210TIP3   OH212586   6.968   1.733   3.860  0.8538  0.4468  0.5138
 4210TIP3    H112587   7.019   1.654   3.842  1.4554  1.1919 -1.3082
 4210TIP3    H212588   6.878   1.709   3.837  1.1277  0.4324 -0.6116
 4211TIP3   OH212589   6.166   0.338   2.852 -0.0490 -0.3288 -0.1547
 4211TIP3    H112590   6.115   0.400   2.799  2.1654  2.4641  0.7363
 4211TIP3    H212591   6.141   0.359   2.943  1.2918 -0.1761  0.1916
 4212TIP3   OH212592   0.536   0.793   5.938 -0.3556  0.2458 -0.5599
 4212TIP3    H112593   0.541   0.888   5.938 -1.9276  0.3581 -0.0236
 4212TIP3    H212594   0.601   0.765   5.874  0.3422  1.6555 -0.4920
 4213TIP3   OH212595   1.762   4.247   4.441 -0.2482  0.7163 -0.3708
 4213TIP3    H112596   1.673   4.221   4.420 -0.8619  1.0795  1.5209
 4213TIP3    H212597   1.792   4.297   4.365 -1.7479  0.8009 -0.9312
 4214TIP3   OH212598   8.261   7.529   6.329 -0.2834  0.0189 -0.1816
 4214TIP3    H112599   8.193   7.467   6.355 -2.3469  2.2379 -0.0761
 4214TIP3    H212600   8.325   7.525   6.400 -0.6286 -1.5271  0.0894
 4215TIP3   OH212601   7.554   0.872   2.427  0.7206  0.2747  0.5865
 4215TIP3    H112602   7.516   0.933   2.363  0.3690  1.6702  2.0639
 4215TIP3    H212603   7.573   0.793   2.376 -0.5454  0.9395 -1.0151
 4216TIP3   OH212604   7.521   6.044   1.001 -0.1728  1.1463  0.0041
 4216TIP3    H112605   7.512   5.949   1.008  0.0768  1.1074 -0.1986
 4216TIP3    H212606   7.600   6.065   1.052 -0.4044  1.2850  0.3157
 4217TIP3   OH212607   7.320   3.497   5.340 -0.1692 -0.4933  0.8431
 4217TIP3    H112608   7.234   3.453   5.341  0.0912 -1.0240  1.7282
 4217TIP3    H212609   7.299   3.590   5.349 -0.6374 -0.7084  2.3247
 4218TIP3   OH212610   2.559   3.866   0.859  0.2788  0.3589  0.2724
 4218TIP3    H112611   2.473   3.902   0.840  0.2192 -0.3487 -0.8631
 4218TIP3    H212612   2.554   3.774   0.834  1.6279  0.5125 -0.6808
 4219TIP3   OH212613   0.278   6.939   5.926  0.1774  1.1438 -0.1142
 4219TIP3    H112614   0.368   6.951   5.957 -0.7494  1.2776  2.8323
 4219TIP3    H212615   0.268   7.004   5.856  1.8298  2.3566  0.7082
 4220TIP3   OH212616   2.552   2.414   6.411 -0.3016  0.4525 -0.3621
 4220TIP3    H112617   2.583   2.408   6.502 -1.2316  1.8873  0.0748
 4220TIP3    H212618   2.509   2.330   6.395  0.8693 -0.2816  0.1065
 4221TIP3   OH212619   4.804   5.106   3.018  0.6340  0.6218  0.7906
 4221TIP3    H112620   4.822   5.026   2.969  1.0908 -0.4127  2.5554
 4221TIP3    H212621   4.719   5.136   2.985  0.1799 -0.9133  0.4751
 4222TIP3   OH212622   1.698   0.835   5.425  1.0548 -0.4224 -0.2853
 4222TIP3    H112623   1.682   0.766   5.361  3.4221 -1.6456  0.3156
 4222TIP3    H212624   1.788   0.819   5.455  0.6339  1.1431  2.0588
 4223TIP3   OH212625   8.228   4.655   0.166 -0.0168 -0.7915  0.0486
 4223TIP3    H112626   8.305   4.670   0.111  0.0960 -0.4107  0.3100
 4223TIP3    H212627   8.247   4.573   0.211  0.5486 -0.3528  0.6340
 4224TIP3   OH212628   5.374   6.939   3.140  0.0626 -1.0669  0.1690
 4224TIP3    H112629   5.344   6.951   3.229  1.2748 -0.7080  0.5504
 4224TIP3    H212630   5.465   6.969   3.141 -0.4633  0.8652 -1.6398
 4225TIP3   OH212631   8.149   7.799   1.302  0.7774  0.0739  0.0377
 4225TIP3    H112632   8.187   7.875   1.346 -1.2557  1.6327 -0.7214
 4225TIP3    H212633   8.215   7.772   1.239  1.7323  0.9393  0.6411
 4226TIP3   OH212634   2.821   6.774   5.667  0.4782  0.2577 -0.1576
 4226TIP3    H112635   2.763   6.783   5.743 -1.1546  0.1115 -1.3381
 4226TIP3    H212636   2.774   6.714   5.608  1.0824  1.3563 -1.8261
 4227TIP3   OH212637   6.610   2.181   0.056 -0.3076  0.1277 -0.0137
 4227TIP3    H112638   6.625   2.232  -0.024  0.3287 -0.1322 -0.0678
 4227TIP3    H212639   6.565   2.102   0.027 -0.9587  0.4838  0.0192
 4228TIP3   OH212640   1.569   6.746   1.207  0.1145 -0.3362 -0.0224
 4228TIP3    H112641   1.658   6.773   1.232 -0.9111  2.0885  1.3777
 4228TIP3    H212642   1.582   6.684   1.136  3.0180 -1.9367  1.7118
 4229TIP3   OH212643   0.454   0.198   3.643 -0.0379  0.7014  0.2574
 4229TIP3    H112644   0.368   0.234   3.661  0.0008  0.8104  0.2223
 4229TIP3    H212645   0.468   0.133   3.712 -1.1756 -1.0812 -1.0966
 4230TIP3   OH212646   1.750   6.587   0.571  0.4236  0.7795  0.0949
 4230TIP3    H112647   1.728   6.665   0.519  0.4715  1.1973  0.6920
 4230TIP3    H212648   1.809   6.619   0.639  1.7190 -0.0599 -0.5770
 4231TIP3   OH212649   0.701   1.026   3.558 -0.1707 -0.6158  0.8062
 4231TIP3    H112650   0.704   1.048   3.465 -1.8167  0.0883  0.8946
 4231TIP3    H212651   0.656   0.942   3.561  0.3226 -0.8791  0.9432
 4232TIP3   OH212652   4.113   3.535   1.863 -0.3753 -0.0579 -0.4476
 4232TIP3    H112653   4.159   3.523   1.945 -0.9090  1.2592  0.0742
 4232TIP3    H212654   4.169   3.594   1.812 -1.2171  1.1411 -0.0121
 4233TIP3   OH212655   6.338   6.048   0.237 -0.3833  0.3589 -0.1808
 4233TIP3    H112656   6.337   5.967   0.289 -0.9934 -0.3392 -1.2452
 4233TIP3    H212657   6.423   6.046   0.192 -0.9094 -0.3673 -1.1933
 4234TIP3   OH212658   6.017   1.853   3.503 -0.2986  0.0169 -0.3450
 4234TIP3    H112659   6.096   1.898   3.472 -0.0338 -1.6298 -2.2899
 4234TIP3    H212660   5.966   1.838   3.424 -1.5494 -0.8708  0.5958
 4235TIP3   OH212661   3.482   3.527   2.830 -0.2467 -0.5349  0.1794
 4235TIP3    H112662   3.515   3.535   2.919  0.5376 -0.3181 -0.1270
 4235TIP3    H212663   3.390   3.504   2.841 -0.4281  0.5334  1.0529
 4236TIP3   OH212664   4.086   2.826   4.751  0.5405  0.3834 -0.1574
 4236TIP3    H112665   4.134   2.748   4.725 -0.8346 -0.1120 -1.3417
 4236TIP3    H212666   4.047   2.804   4.835  1.8983  0.6108  0.5708
 4237TIP3   OH212667   0.625   4.073   1.593 -0.4434  0.0355  0.5369
 4237TIP3    H112668   0.664   3.994   1.554  0.5695  1.0545 -0.5968
 4237TIP3    H212669   0.692   4.106   1.652 -0.3949  0.6854  0.1211
 4238TIP3   OH212670   5.577   5.526   1.421 -0.1700  0.3946  0.0210
 4238TIP3    H112671   5.553   5.565   1.337  0.8183  1.9663  0.4371
 4238TIP3    H212672   5.583   5.432   1.403 -1.8844  0.4775 -1.1847
 4239TIP3   OH212673   3.710   5.831   1.118  0.3434  0.3022 -0.0095
 4239TIP3    H112674   3.669   5.812   1.202  0.2349  0.6679  0.0243
 4239TIP3    H212675   3.779   5.765   1.109 -1.0004 -1.0652 -0.6207
 4240TIP3   OH212676   0.335   1.378   6.762  0.2679  0.4412 -0.1607
 4240TIP3    H112677   0.393   1.302   6.773 -1.3159 -0.5247  2.9642
 4240TIP3    H212678   0.284   1.359   6.684 -0.0569 -1.7997  0.5145
 4241TIP3   OH212679   2.577   7.341   0.898 -0.2804  0.1714  0.4442
 4241TIP3    H112680   2.568   7.433   0.922 -0.6856  0.8690 -2.1271
 4241TIP3    H212681   2.568   7.294   0.981 -0.0570  2.4155  1.8331
 4242TIP3   OH212682   0.922   7.778   3.570 -0.1457 -0.0953  0.5910
 4242TIP3    H112683   0.916   7.696   3.521 -1.8665  0.1842  0.2578
 4242TIP3    H212684   1.001   7.820   3.537  0.9093 -1.7202  0.9562
 4243TIP3   OH212685   6.602   4.764   3.889  0.4152  0.2410 -0.6816
 4243TIP3    H112686   6.557   4.684   3.914 -2.6625  2.0101 -0.0168
 4243TIP3    H212687   6.580   4.777   3.797  0.0808  0.8050 -0.5268
 4244TIP3   OH212688   8.296   3.522   1.396  0.5700  0.8889 -0.9848
 4244TIP3    H112689   8.359   3.516   1.468  0.4770  4.5997 -0.3820
 4244TIP3    H212690   8.218   3.561   1.435 -0.3828  0.7481 -2.6506
 4245TIP3   OH212691   4.685   1.495   4.488  0.4791  0.2939 -0.6483
 4245TIP3    H112692   4.681   1.569   4.427  1.2331  0.1054 -0.9277
 4245TIP3    H212693   4.603   1.502   4.538  0.3074  1.0212 -1.0093
 4246TIP3   OH212694   0.946   6.821   3.777 -0.1095  0.5646  0.1599
 4246TIP3    H112695   1.011   6.794   3.712 -0.4014  0.0071  0.0852
 4246TIP3    H212696   0.920   6.909   3.751 -1.2663 -0.1847 -1.3372
 4247TIP3   OH212697   7.520   3.613   1.704 -0.0026 -0.6888 -0.1049
 4247TIP3    H112698   7.469   3.597   1.784  0.8105 -1.3172  0.3067
 4247TIP3    H212699   7.584   3.680   1.730 -0.2313 -0.3301 -0.4529
 4248TIP3   OH212700   7.335   0.780   6.086 -0.0366  0.2291 -0.4232
 4248TIP3    H112701   7.404   0.726   6.123 -0.1724  1.2047  1.3906
 4248TIP3    H212702   7.254   0.735   6.108 -0.1301  0.9318  0.7505
 4249TIP3   OH212703   6.137   0.926   6.152 -0.2010 -0.0848 -0.3597
 4249TIP3    H112704   6.168   0.850   6.202 -1.7105 -0.6544 -0.2238
 4249TIP3    H212705   6.043   0.910   6.141 -0.6698  2.0440  0.1515
 4250TIP3   OH212706   6.673   7.627   4.568 -0.6469 -0.3170 -0.0070
 4250TIP3    H112707   6.580   7.607   4.568 -0.6314 -0.3988  0.4281
 4250TIP3    H212708   6.716   7.542   4.569 -0.5727 -0.2735  0.5705
 4251TIP3   OH212709   2.754   7.028   3.910 -0.8003  0.7779  0.1827
 4251TIP3    H112710   2.744   7.087   3.836  0.5419  1.0646  0.2094
 4251TIP3    H212711   2.724   6.943   3.877  0.6103  0.7003 -0.9966
 4252TIP3   OH212712   0.820   1.389   5.282 -0.0943 -0.4673  0.2685
 4252TIP3    H112713   0.762   1.321   5.247  0.3452 -0.7140  0.0092
 4252TIP3    H212714   0.897   1.386   5.226 -0.3631  0.7415 -0.1969
 4253TIP3   OH212715   0.580   5.868   6.721  0.3152  0.3176 -1.2913
 4253TIP3    H112716   0.659   5.921   6.732  1.0035 -0.4013 -2.5547
 4253TIP3    H212717   0.510   5.931   6.707  0.7905  0.9358 -0.9251
 4254TIP3   OH212718   7.967   6.587   3.151 -0.3385  0.4748 -0.4007
 4254TIP3    H112719   7.960   6.578   3.246 -0.3774  0.2240 -0.4276
 4254TIP3    H212720   7.916   6.515   3.115 -1.6668  1.4912 -0.6274
 4255TIP3   OH212721   3.033   4.094   0.587  0.1351 -0.0270  0.1405
 4255TIP3    H112722   3.013   4.109   0.679 -1.1975 -0.8368  0.0012
 4255TIP3    H212723   2.961   4.135   0.540  0.9968  0.7085 -0.5765
 4256TIP3   OH212724   6.041   4.676   3.495 -0.3112 -0.2314 -0.3007
 4256TIP3    H112725   5.990   4.755   3.515  0.7554  0.2177  0.7669
 4256TIP3    H212726   6.033   4.622   3.574  0.1049 -0.5697 -0.4857
 4257TIP3   OH212727   2.433   0.504   5.310  0.5768  0.1948  0.0299
 4257TIP3    H112728   2.391   0.448   5.375  0.8491 -0.4214 -0.3191
 4257TIP3    H212729   2.390   0.483   5.228 -0.6957  1.9262  0.1903
 4258TIP3   OH212730   2.148   7.036   1.099 -0.8791  0.5686  0.4258
 4258TIP3    H112731   2.218   7.011   1.040 -1.4021 -0.1202  0.0909
 4258TIP3    H212732   2.163   7.129   1.117 -0.5194  0.6921 -0.5082
 4259TIP3   OH212733   4.540   2.787   0.932 -0.6154 -0.1952  0.3145
 4259TIP3    H112734   4.554   2.866   0.879 -0.6158 -1.4188 -1.6121
 4259TIP3    H212735   4.622   2.774   0.979 -1.0152  1.5767  1.6198
 4260TIP3   OH212736   6.852   6.902   2.391 -0.1524 -0.2273  0.3768
 4260TIP3    H112737   6.840   6.846   2.314  0.1038 -0.1335  0.2663
 4260TIP3    H212738   6.776   6.884   2.446 -0.3044 -0.3439  0.1310
 4261TIP3   OH212739   4.538   1.746   0.306  0.3181  0.8886  0.3791
 4261TIP3    H112740   4.589   1.688   0.250  1.2619  1.5734  0.4949
 4261TIP3    H212741   4.531   1.827   0.256 -1.2881  0.5806  0.0728
 4262TIP3   OH212742   0.687   5.804   2.322 -0.2112 -0.4156 -0.5550
 4262TIP3    H112743   0.674   5.826   2.414 -0.4845 -1.2536 -0.3886
 4262TIP3    H212744   0.723   5.884   2.284 -0.6664  0.1409  0.1462
 4263TIP3   OH212745   1.255   3.671   4.002 -0.4766 -0.0737 -0.0673
 4263TIP3    H112746   1.227   3.616   3.929 -0.9570  0.8889 -0.6323
 4263TIP3    H212747   1.184   3.664   4.065 -0.2689 -0.5532  0.1156
 4264TIP3   OH212748   2.840   5.710   3.690 -0.1321 -0.1500  0.2869
 4264TIP3    H112749   2.745   5.724   3.695 -0.0027  0.7578  0.3422
 4264TIP3    H212750   2.849   5.628   3.643 -0.9361  0.1311 -0.3920
 4265TIP3   OH212751   3.392   4.967   1.339  0.0585  0.1532  0.2737
 4265TIP3    H112752   3.394   4.938   1.248  0.9182  1.9251 -0.3058
 4265TIP3    H212753   3.325   5.036   1.342  0.5110  0.5811  0.8289
 4266TIP3   OH212754   2.192   6.118   5.417  0.2027 -0.4177  0.4276
 4266TIP3    H112755   2.162   6.205   5.445 -1.0918 -1.1560  1.4113
 4266TIP3    H212756   2.274   6.105   5.463  0.0761  0.0298  0.7930
 4267TIP3   OH212757   4.022   1.268   0.484  0.3533 -0.4641  0.0086
 4267TIP3    H112758   4.037   1.352   0.441 -1.1910  0.6683  1.5260
 4267TIP3    H212759   4.107   1.245   0.522  0.1346  2.1366  2.3738
 4268TIP3   OH212760   7.641   2.740   1.776 -0.6857 -0.3461  0.0826
 4268TIP3    H112761   7.651   2.750   1.870 -2.8797 -0.4358  0.3810
 4268TIP3    H212762   7.571   2.801   1.752 -0.1186 -0.2542 -1.5157
 4269TIP3   OH212763   7.531   1.277   0.842  0.1427 -0.4955  0.2247
 4269TIP3    H112764   7.590   1.244   0.910  0.4308  0.1497  0.2948
 4269TIP3    H212765   7.443   1.255   0.874  0.1764  1.1688  1.5775
 4270TIP3   OH212766   8.241   7.400   0.506 -0.0629 -0.1117  0.3126
 4270TIP3    H112767   8.191   7.472   0.467 -0.3786 -0.4243  0.1325
 4270TIP3    H212768   8.235   7.414   0.600 -0.4851 -0.1436  0.2908
 4271TIP3   OH212769   4.998   4.688   1.541  0.1401  0.0897 -0.3681
 4271TIP3    H112770   4.957   4.715   1.458  0.6757  0.6388 -0.4576
 4271TIP3    H212771   5.088   4.666   1.517  0.2111 -0.0447  0.0200
 4272TIP3   OH212772   3.959   6.201   6.102 -0.1041  0.0881 -0.4522
 4272TIP3    H112773   4.027   6.155   6.152  1.4342  1.9714 -0.7354
 4272TIP3    H212774   3.886   6.208   6.164  0.6541 -0.2770  0.5139
 4273TIP3   OH212775   7.660   0.355   4.111 -0.8317 -0.4745 -0.0807
 4273TIP3    H112776   7.594   0.383   4.174 -1.7038 -0.9758 -0.7630
 4273TIP3    H212777   7.718   0.297   4.161 -1.0782 -0.2727  0.4431
 4274TIP3   OH212778   4.273   3.072   1.430 -0.6525 -0.3173  0.1618
 4274TIP3    H112779   4.234   3.141   1.377  0.3820  1.1031  1.1590
 4274TIP3    H212780   4.289   3.001   1.369 -1.5677  0.3869 -0.9528
 4275TIP3   OH212781   7.916   3.178   4.504  0.1279  0.0596  0.2881
 4275TIP3    H112782   7.848   3.195   4.570  0.4447 -0.3603  0.7328
 4275TIP3    H212783   7.990   3.232   4.532 -0.2809  1.1425 -0.6493
 4276TIP3   OH212784   7.432   5.368   5.790 -0.0123  0.4286 -0.2271
 4276TIP3    H112785   7.367   5.403   5.852 -0.0635  0.6974 -0.4296
 4276TIP3    H212786   7.422   5.273   5.796  0.8219  0.4033  1.0672
 4277TIP3   OH212787   7.408   5.724   4.260 -0.4720  0.2420  1.0282
 4277TIP3    H112788   7.426   5.801   4.315  0.4099  1.1868 -0.5062
 4277TIP3    H212789   7.478   5.724   4.195 -1.4780 -0.8275 -0.1008
 4278TIP3   OH212790   7.598   3.605   5.370 -0.2777 -0.2201 -0.0213
 4278TIP3    H112791   7.505   3.588   5.385 -0.2545  0.6773  1.3068
 4278TIP3    H212792   7.601   3.643   5.282 -0.9570 -1.6805 -0.7093
 4279TIP3   OH212793   4.510   3.748   6.123 -0.3458 -0.0498 -0.1920
 4279TIP3    H112794   4.543   3.821   6.071  0.7244 -0.5789 -0.3092
 4279TIP3    H212795   4.531   3.670   6.070  0.6642 -0.5942  0.9422
 4280TIP3   OH212796   0.585   6.957   1.736 -0.1798  0.2933 -0.2486
 4280TIP3    H112797   0.638   7.026   1.695 -0.4333  0.3821 -0.4297
 4280TIP3    H212798   0.593   6.974   1.830 -0.8768  1.0551 -0.3139
 4281TIP3   OH212799   7.832   0.712   3.762  0.0004  0.3220  0.6936
 4281TIP3    H112800   7.792   0.721   3.676  0.3294  2.5999  0.7310
 4281TIP3    H212801   7.759   0.717   3.823 -0.0523  0.4296  0.6216
 4282TIP3   OH212802   7.877   0.554   6.071  0.5522  0.1365 -0.7329
 4282TIP3    H112803   7.918   0.545   6.157 -0.0636 -2.6980 -0.6584
 4282TIP3    H212804   7.792   0.595   6.089  0.5696 -0.1292 -0.0524
 4283TIP3   OH212805   4.481   3.365   3.617 -0.3937 -0.3611  0.1807
 4283TIP3    H112806   4.405   3.320   3.579  0.1950 -1.1670 -0.0724
 4283TIP3    H212807   4.536   3.294   3.649  0.8447  0.1474 -0.7595
 4284TIP3   OH212808   4.095   7.211   6.575 -0.7118 -0.3884 -0.7162
 4284TIP3    H112809   4.030   7.230   6.507 -1.3852 -1.0708 -0.2840
 4284TIP3    H212810   4.043   7.194   6.653 -0.0575 -1.6807 -0.5354
 4285TIP3   OH212811   5.447   1.607   1.334  0.2377  0.2240  0.0066
 4285TIP3    H112812   5.525   1.663   1.334  0.4482 -0.0467  1.0086
 4285TIP3    H212813   5.418   1.607   1.424 -1.2687  0.7532 -0.4585
 4286TIP3   OH212814   0.002   5.606   2.930  0.0136  0.0786 -0.3662
 4286TIP3    H112815   0.078   5.631   2.877  0.8845 -2.0136 -0.1861
 4286TIP3    H212816   0.012   5.655   3.012  1.0049  0.0332 -0.4575
 4287TIP3   OH212817   0.152   6.414   2.966  0.1360 -0.5077 -0.4159
 4287TIP3    H112818   0.148   6.442   2.875  1.8651 -2.0870 -1.0379
 4287TIP3    H212819   0.200   6.331   2.964  0.2872 -0.5555  1.9374
 4288TIP3   OH212820   5.885   4.171   0.724  0.3523  0.2576  0.0369
 4288TIP3    H112821   5.817   4.196   0.787 -0.0868 -1.1082  0.1327
 4288TIP3    H212822   5.928   4.095   0.764 -0.2943 -0.9938 -1.5289
 4289TIP3   OH212823   4.272   3.241   3.269  0.2294 -0.3087  0.1658
 4289TIP3    H112824   4.249   3.173   3.205 -1.5755 -1.1392  1.6063
 4289TIP3    H212825   4.228   3.319   3.236 -0.3759 -0.6377  0.1715
 4290TIP3   OH212826   0.844   3.305   3.123 -0.2556 -0.0489 -0.2251
 4290TIP3    H112827   0.807   3.245   3.059  0.0244 -0.4178 -0.0427
 4290TIP3    H212828   0.917   3.347   3.077  1.7524 -2.3321  0.6700
 4291TIP3   OH212829   6.147   2.330   0.946 -0.2557 -0.6764  0.6148
 4291TIP3    H112830   6.198   2.251   0.925  2.6153  0.7563  1.6798
 4291TIP3    H212831   6.144   2.379   0.864  1.0285 -0.3218  0.7577
 4292TIP3   OH212832   2.465   3.575   6.166 -0.6839 -0.1516  0.2801
 4292TIP3    H112833   2.404   3.513   6.205 -2.4597  1.7676  0.6940
 4292TIP3    H212834   2.493   3.532   6.084  1.4051 -3.2489  2.3940
 4293TIP3   OH212835   5.945   4.440   4.438  0.0830 -0.2497 -0.0727
 4293TIP3    H112836   5.877   4.374   4.452  0.6892 -0.8787 -0.0194
 4293TIP3    H212837   6.007   4.399   4.378  1.1885 -0.2738  1.0385
 4294TIP3   OH212838   5.982   7.272   1.723 -0.5866  0.2663  0.2897
 4294TIP3    H112839   6.028   7.263   1.640 -1.1620 -1.9471  0.1528
 4294TIP3    H212840   5.889   7.264   1.701 -0.8320  1.0149  0.9919
 4295TIP3   OH212841   0.436   1.523   2.315  0.0740  0.0345  0.3596
 4295TIP3    H112842   0.494   1.477   2.254 -2.6778 -1.1053 -1.5803
 4295TIP3    H212843   0.475   1.610   2.324  1.7427 -0.4805 -1.2708
 4296TIP3   OH212844   6.866   0.524   0.589  0.1091 -0.0055 -0.6562
 4296TIP3    H112845   6.946   0.486   0.552  0.0192 -0.3386 -0.5096
 4296TIP3    H212846   6.795   0.488   0.535 -0.0349 -0.6000 -0.0790
 4297TIP3   OH212847   7.740   2.213   5.519 -0.9396 -0.7330  0.1123
 4297TIP3    H112848   7.758   2.296   5.563 -0.4583 -0.0896 -1.2286
 4297TIP3    H212849   7.666   2.176   5.567 -1.9143  1.0225  0.0672
 4298TIP3   OH212850   4.228   2.369   3.371  0.2361 -0.7329  0.1087
 4298TIP3    H112851   4.175   2.449   3.363  1.7449  0.3901  0.7548
 4298TIP3    H212852   4.188   2.321   3.443 -0.5615 -0.4444 -0.1330
 4299TIP3   OH212853   4.449   0.907   4.192  0.1244  0.8260  0.1883
 4299TIP3    H112854   4.362   0.914   4.231  0.5898  1.2228  1.1657
 4299TIP3    H212855   4.510   0.925   4.263  1.0379 -0.1693 -0.3077
 4300TIP3   OH212856   7.948   5.973   5.912  0.2173  0.0290  0.6085
 4300TIP3    H112857   7.989   6.058   5.897 -0.4613  0.2533 -0.0628
 4300TIP3    H212858   7.989   5.940   5.992  2.5534 -0.2954 -0.6358
 4301TIP3   OH212859   2.613   3.659   5.502 -0.3899 -0.0099 -0.1621
 4301TIP3    H112860   2.651   3.691   5.583  0.0302 -0.8682 -0.0053
 4301TIP3    H212861   2.684   3.662   5.438 -1.2375  2.6418 -1.1012
 4302TIP3   OH212862   4.747   4.995   5.489 -0.1168 -0.3752 -0.2120
 4302TIP3    H112863   4.773   4.990   5.581 -2.1300  0.3810  0.4568
 4302TIP3    H212864   4.818   5.044   5.447  1.4639 -1.8458  0.6262
 4303TIP3   OH212865   4.971   3.474   0.377  0.8351 -0.6361 -0.0139
 4303TIP3    H112866   4.917   3.506   0.449  0.9478  0.2920 -0.3211
 4303TIP3    H212867   5.012   3.395   0.410 -0.0799 -0.9047  0.5082
 4304TIP3   OH212868   6.839   1.827   1.003  0.2493  0.5231 -0.0012
 4304TIP3    H112869   6.852   1.752   0.946  0.2116 -0.0189  0.6964
 4304TIP3    H212870   6.862   1.796   1.090  1.9405  1.8241  0.0583
 4305TIP3   OH212871   6.724   5.074   4.628 -0.3372  0.4572 -0.1987
 4305TIP3    H112872   6.743   5.017   4.703  0.9442 -3.0263 -2.8722
 4305TIP3    H212873   6.631   5.096   4.638 -1.0328 -2.4834  0.9159
 4306TIP3   OH212874   6.626   5.684   2.738 -0.3001  0.1008 -0.4568
 4306TIP3    H112875   6.601   5.777   2.745 -1.1856 -0.1935  0.6606
 4306TIP3    H212876   6.695   5.683   2.672 -1.0902  1.4056 -1.3684
 4307TIP3   OH212877   4.838   4.053   4.567 -0.5765 -0.3576  0.2490
 4307TIP3    H112878   4.790   3.972   4.585 -0.7767  0.1427  2.2621
 4307TIP3    H212879   4.828   4.105   4.647 -2.2335  2.6159 -1.6957
 4308TIP3   OH212880   4.932   1.865   4.907 -0.0637  0.5378 -0.3720
 4308TIP3    H112881   4.847   1.899   4.935 -0.6467  0.4005 -1.8696
 4308TIP3    H212882   4.939   1.780   4.951 -1.5704 -0.2852 -1.6176
 4309TIP3   OH212883   7.981   2.474   6.237 -0.0397 -0.2259 -0.0775
 4309TIP3    H112884   7.913   2.496   6.301 -1.2036 -0.0160 -1.3220
 4309TIP3    H212885   8.018   2.559   6.212  1.9626 -0.4435  1.8608
 4310TIP3   OH212886   3.547   1.273   2.351  0.6976  0.0776 -0.5044
 4310TIP3    H112887   3.596   1.310   2.425  0.5817 -0.5281 -0.1209
 4310TIP3    H212888   3.613   1.226   2.300  0.6979  0.1355 -0.5583
 4311TIP3   OH212889   5.623   4.663   3.831 -0.6884  0.3870 -0.2452
 4311TIP3    H112890   5.531   4.646   3.813 -0.7622 -0.7767  1.0084
 4311TIP3    H212891   5.665   4.663   3.746 -1.1809 -3.4512 -0.6860
 4312TIP3   OH212892   6.161   5.877   6.438  0.5649  0.3837  0.1228
 4312TIP3    H112893   6.150   5.954   6.494  2.2585  0.0154  1.0080
 4312TIP3    H212894   6.097   5.890   6.368 -0.7366  1.4723  1.4440
 4313TIP3   OH212895   6.321   0.289   1.237  0.0937  0.3954  0.1027
 4313TIP3    H112896   6.277   0.238   1.169  1.1417  1.7282 -1.6766
 4313TIP3    H212897   6.374   0.225   1.284  0.6752 -0.3359 -1.4692
 4314TIP3   OH212898   7.179   2.581   3.553  0.4371 -0.0036  0.0097
 4314TIP3    H112899   7.214   2.639   3.621 -0.2700  0.9752 -0.4303
 4314TIP3    H212900   7.152   2.502   3.600  2.3158 -0.4045  0.4863
 4315TIP3   OH212901   5.063   3.662   0.179  0.1577  0.7323  0.3576
 4315TIP3    H112902   5.026   3.612   0.252  0.8577 -0.8359 -0.3095
 4315TIP3    H212903   5.158   3.654   0.190  0.2723  0.7892 -0.5041
 4316TIP3   OH212904   4.201   3.089   4.765 -0.3132  0.6116  0.1039
 4316TIP3    H112905   4.158   3.004   4.755  2.3905 -0.6408 -2.5474
 4316TIP3    H212906   4.144   3.138   4.824 -2.7609 -2.4948  0.5956
 4317TIP3   OH212907   7.326   4.172   2.540  0.0942 -0.1194 -0.6869
 4317TIP3    H112908   7.342   4.078   2.543  1.4918  0.1214  0.8712
 4317TIP3    H212909   7.375   4.202   2.463  2.2984 -0.2924  0.5395
 4318TIP3   OH212910   0.816   1.094   1.548 -0.6433 -0.1163  0.3018
 4318TIP3    H112911   0.779   1.009   1.523  1.5842 -1.3958  1.1528
 4318TIP3    H212912   0.835   1.086   1.641  1.4258  0.5898 -0.0199
 4319TIP3   OH212913   5.088   5.841   0.901  0.5265  0.1347 -0.2712
 4319TIP3    H112914   5.052   5.857   0.989  4.0026  1.2845  1.1116
 4319TIP3    H212915   5.038   5.899   0.844 -1.4822 -0.2630  0.9862
 4320TIP3   OH212916   1.140   2.226   4.124  0.4131 -0.1245  0.0119
 4320TIP3    H112917   1.115   2.171   4.049  1.1757  0.5646 -0.7843
 4320TIP3    H212918   1.108   2.313   4.101 -0.2675 -0.1015  0.9930
 4321TIP3   OH212919   5.367   4.543   3.808  0.6502 -0.5359  0.6285
 4321TIP3    H112920   5.278   4.517   3.834  0.3420 -0.6938 -0.5117
 4321TIP3    H212921   5.374   4.514   3.717  1.2945  0.9034  0.1882
 4322TIP3   OH212922   7.871   5.416   0.568 -0.1681  0.1083  0.2726
 4322TIP3    H112923   7.825   5.437   0.649  0.0287  0.8508  0.2028
 4322TIP3    H212924   7.963   5.438   0.587 -0.2352  1.0051 -0.3875
 4323TIP3   OH212925   4.874   5.861   3.717  0.2765 -0.6607  0.5947
 4323TIP3    H112926   4.903   5.843   3.806  0.8041  0.5455  0.6822
 4323TIP3    H212927   4.951   5.898   3.674 -0.3140 -0.1174 -0.0115
 4324TIP3   OH212928   7.665   6.042   3.831  0.5628  0.2464  0.2954
 4324TIP3    H112929   7.689   5.958   3.792  1.6898 -0.2626  1.9554
 4324TIP3    H212930   7.573   6.054   3.807  0.4614 -1.3027 -0.2394
 4325TIP3   OH212931   2.846   1.320   5.230 -0.3555  0.1547 -0.3146
 4325TIP3    H112932   2.897   1.272   5.295 -0.0888 -0.7071 -1.1425
 4325TIP3    H212933   2.906   1.388   5.198 -0.1576 -0.0396 -0.3591
 4326TIP3   OH212934   5.002   4.248   1.556  0.7871  0.3663 -0.6169
 4326TIP3    H112935   4.940   4.314   1.587  0.5821 -0.5631  1.0484
 4326TIP3    H212936   4.948   4.188   1.504  0.1634 -0.5576  0.9968
 4327TIP3   OH212937   3.827  -0.005   2.920  0.1514  0.5995  0.5558
 4327TIP3    H112938   3.918   0.023   2.914 -0.1153  1.1615 -1.4719
 4327TIP3    H212939   3.781   0.070   2.958  0.1600  1.3069 -0.7683
 4328TIP3   OH212940   3.950   1.990   3.363 -0.5908  0.4086 -0.4588
 4328TIP3    H112941   3.948   1.957   3.273 -2.1648  0.9328 -0.6457
 4328TIP3    H212942   4.042   2.012   3.378 -0.5172  1.7981 -2.5142
 4329TIP3   OH212943   0.156   4.261   0.525 -0.4167  0.5481  0.2707
 4329TIP3    H112944   0.082   4.319   0.506 -0.4830  0.6782  0.8945
 4329TIP3    H212945   0.123   4.173   0.510  0.2862  0.7122 -2.7514
 4330TIP3   OH212946   7.496   3.299   5.322  0.1291 -0.4302  0.1397
 4330TIP3    H112947   7.444   3.379   5.331  0.0451 -0.2943 -1.2956
 4330TIP3    H212948   7.453   3.236   5.380 -0.6655  0.1511  0.2020
 4331TIP3   OH212949   7.900   0.813   0.765  0.0131  0.2706 -0.5077
 4331TIP3    H112950   7.931   0.802   0.675 -0.5610 -0.1305 -0.6625
 4331TIP3    H212951   7.832   0.881   0.759 -0.7569 -0.4872 -0.5574
 4332TIP3   OH212952   4.007   3.920   1.597  0.0462 -0.1058 -0.0684
 4332TIP3    H112953   3.944   3.942   1.527 -1.3812  0.4211  1.3191
 4332TIP3    H212954   4.047   3.838   1.568 -0.2935  0.2466 -1.6370
 4333TIP3   OH212955   6.416   3.805   4.192  0.8135  0.6764 -0.2911
 4333TIP3    H112956   6.473   3.879   4.167 -1.0919  2.0483 -0.7858
 4333TIP3    H212957   6.393   3.822   4.283  1.5255 -0.1245  0.0494
 4334TIP3   OH212958   2.250   0.757   5.561 -0.2946  0.0035  0.2424
 4334TIP3    H112959   2.198   0.731   5.484 -1.6542  0.2925  1.0257
 4334TIP3    H212960   2.224   0.695   5.629  0.5627  0.0259  0.5969
 4335TIP3   OH212961   2.043   4.641   1.037 -0.2590 -0.0454 -0.5405
 4335TIP3    H112962   1.949   4.649   1.054 -0.3033 -0.9060 -0.3543
 4335TIP3    H212963   2.070   4.564   1.086  0.6003  0.3351 -0.3982
 4336TIP3   OH212964   1.707   6.832   5.864 -0.3587  0.1058  0.3249
 4336TIP3    H112965   1.751   6.792   5.939 -0.0219 -0.8933 -0.3802
 4336TIP3    H212966   1.777   6.877   5.817 -0.6025  0.8919  0.6877
 4337TIP3   OH212967   3.515   3.052   2.136  0.5947  0.0021 -0.1563
 4337TIP3    H112968   3.495   2.981   2.198 -0.6364  1.2311  0.9206
 4337TIP3    H212969   3.605   3.035   2.108  1.4205 -0.3131  2.4170
 4338TIP3   OH212970   3.854   3.509   0.449  0.4914 -0.1082  0.0715
 4338TIP3    H112971   3.761   3.519   0.429  0.1710 -1.1091  1.0126
 4338TIP3    H212972   3.865   3.417   0.472  2.2422 -0.7141 -2.6652
 4339TIP3   OH212973   6.025   5.675   3.724 -0.1154  0.0160  0.0169
 4339TIP3    H112974   6.105   5.701   3.678  0.6074 -0.8880  0.7359
 4339TIP3    H212975   5.994   5.599   3.676 -0.8353  0.6605 -0.5612
 4340TIP3   OH212976   6.169   5.691   2.996  0.1939 -0.2813 -0.4264
 4340TIP3    H112977   6.188   5.757   2.930  0.5230  0.3665  0.3063
 4340TIP3    H212978   6.224   5.714   3.070 -1.2569 -0.1113  0.6411
 4341TIP3   OH212979   3.176   2.900   2.451  0.1733  0.3015  0.6692
 4341TIP3    H112980   3.088   2.897   2.413  1.0488  1.8914 -1.7859
 4341TIP3    H212981   3.163   2.918   2.544 -2.0843  0.6032  0.3292
 4342TIP3   OH212982   4.666   0.022   0.493  0.5698 -0.1728  0.2535
 4342TIP3    H112983   4.600   0.039   0.427  0.3800 -0.4114  0.3791
 4342TIP3    H212984   4.718  -0.050   0.458 -0.6060 -1.4885  1.1082
 4343TIP3   OH212985   6.481   1.079   0.737  0.6628 -0.0325 -0.1687
 4343TIP3    H112986   6.488   1.169   0.705 -1.5078 -0.2155 -1.3422
 4343TIP3    H212987   6.476   1.026   0.657  0.8507 -1.1095  0.5088
 4344TIP3   OH212988   2.985   5.742   3.914 -0.0211  0.2543  0.0215
 4344TIP3    H112989   3.055   5.724   3.851 -0.3071 -1.0103  0.0401
 4344TIP3    H212990   2.906   5.750   3.861 -0.0410  0.5659  0.0974
 4345TIP3   OH212991   2.984   2.011   2.718 -0.3414 -0.2669 -0.4788
 4345TIP3    H112992   3.065   1.975   2.755 -0.0645  0.2425 -0.5730
 4345TIP3    H212993   2.946   1.939   2.669 -0.6939 -0.9508  0.7608
 4346TIP3   OH212994   7.281   4.086   0.337 -0.2846 -0.0717 -0.3184
 4346TIP3    H112995   7.280   4.076   0.432 -0.8834  0.9871 -0.2045
 4346TIP3    H212996   7.244   4.172   0.321 -1.6798 -0.8492 -1.5820
 4347TIP3   OH212997   0.953   1.843   6.779  0.5099  0.3898 -0.0999
 4347TIP3    H112998   0.978   1.932   6.755  0.1035  0.0784 -1.8057
 4347TIP3    H212999   0.872   1.827   6.730  1.5409 -1.5370 -1.2891
 4348TIP3   OH213000   0.936   7.123   2.610  0.0541  0.2856 -0.1093
 4348TIP3    H113001   0.983   7.045   2.580 -0.5085 -0.3843  0.6929
 4348TIP3    H213002   0.997   7.167   2.669 -0.5600 -1.0379  1.6165
 4349TIP3   OH213003   6.437   3.246   2.335  0.5943  0.0158  0.0714
 4349TIP3    H113004   6.489   3.266   2.413  1.9241 -0.7140 -0.5951
 4349TIP3    H213005   6.501   3.216   2.270 -0.7772 -2.5245 -0.2630
 4350TIP3   OH213006   0.497   5.995   3.708  0.0843  0.4705 -0.3441
 4350TIP3    H113007   0.414   5.976   3.663  0.5909  0.5497 -1.3411
 4350TIP3    H213008   0.513   6.087   3.688  0.8713  0.2114 -0.9207
 4351TIP3   OH213009   5.630   2.804   0.233 -0.5213 -0.2451 -0.5907
 4351TIP3    H113010   5.628   2.738   0.301  0.4013 -0.0916 -0.4011
 4351TIP3    H213011   5.700   2.776   0.174 -1.2804 -0.3596 -1.4641
 4352TIP3   OH213012   6.037   4.688   0.960  0.1109  0.5094 -0.8102
 4352TIP3    H113013   6.004   4.614   1.012  1.6095 -0.2562 -0.8972
 4352TIP3    H213014   6.031   4.658   0.869 -0.4790  1.0067 -0.9406
 4353TIP3   OH213015   0.556   7.310   0.692  0.5174  0.2428 -0.3430
 4353TIP3    H113016   0.520   7.398   0.703  0.6812  0.3829 -0.9060
 4353TIP3    H213017   0.605   7.314   0.610  1.5884 -0.0210  0.2674
 4354TIP3   OH213018   3.844   5.517   6.061  0.0992  0.4196  0.3803
 4354TIP3    H113019   3.776   5.499   6.126  1.5321  1.5879  2.2935
 4354TIP3    H213020   3.801   5.573   5.997 -1.5383 -1.2961 -0.1188
 4355TIP3   OH213021   1.569   7.107   6.363 -0.3731  0.2144  0.3414
 4355TIP3    H113022   1.490   7.054   6.376 -0.4112  0.1679 -0.0711
 4355TIP3    H213023   1.551   7.159   6.285 -1.2752  2.5760  1.9862
 4356TIP3   OH213024   6.845   2.227   4.034  0.6118 -0.2061 -0.0254
 4356TIP3    H113025   6.893   2.145   4.025  1.7735  0.4879 -0.3476
 4356TIP3    H213026   6.903   2.283   4.085  1.1752  1.3905 -2.2618
 4357TIP3   OH213027   6.751   2.742   2.549 -0.1963 -0.1018  0.0959
 4357TIP3    H113028   6.721   2.833   2.544  1.3211  0.3724 -2.3220
 4357TIP3    H213029   6.844   2.749   2.570  0.3221 -0.9355 -1.7061
 4358TIP3   OH213030   7.769   3.636   2.595 -0.3051 -0.3606 -0.2265
 4358TIP3    H113031   7.843   3.694   2.578 -1.3605  1.2560  0.4331
 4358TIP3    H213032   7.776   3.568   2.528  0.3376  1.1707 -1.8155
 4359TIP3   OH213033   0.203   3.607   0.291  0.3738  0.5059 -0.0260
 4359TIP3    H113034   0.268   3.544   0.323 -0.6379  0.4113  2.0254
 4359TIP3    H213035   0.204   3.596   0.196  1.7881 -1.0494  0.1206
 4360TIP3   OH213036   0.933   0.302   1.048 -0.1036 -0.0146  0.2154
 4360TIP3    H113037   1.024   0.332   1.042  0.1254 -0.3178  1.7047
 4360TIP3    H213038   0.883   0.367   1.000  0.8222  0.5703  0.0098
 4361TIP3   OH213039   5.200   1.950   4.137 -0.4895 -0.0845 -0.0804
 4361TIP3    H113040   5.214   1.869   4.088 -0.3571 -0.3857  0.4455
 4361TIP3    H213041   5.110   1.942   4.171 -0.2823 -0.2689  0.4353
 4362TIP3   OH213042   4.263   5.429   2.337 -0.0924  0.1581 -0.0842
 4362TIP3    H113043   4.169   5.421   2.351  0.2430  0.6598  3.1650
 4362TIP3    H213044   4.287   5.351   2.287 -1.8783 -1.3846  1.3250
 4363TIP3   OH213045   5.007   0.960   5.991  0.6062  0.1404  0.5260
 4363TIP3    H113046   5.075   1.028   5.993  1.8071 -0.9757 -0.3754
 4363TIP3    H213047   4.956   0.979   5.912  1.7191 -0.6699 -0.4308
 4364TIP3   OH213048   4.425   4.136   6.562 -0.1039  0.0628 -0.3702
 4364TIP3    H113049   4.477   4.199   6.513  1.2989 -0.1949  0.7221
 4364TIP3    H213050   4.460   4.140   6.651 -1.0949 -1.0773  0.1037
 4365TIP3   OH213051   3.511   5.673   3.293 -0.0391 -0.0432 -0.4249
 4365TIP3    H113052   3.564   5.753   3.295  0.2559 -0.1874 -1.6832
 4365TIP3    H213053   3.422   5.703   3.279 -0.0242  0.0986 -0.2167
 4366TIP3   OH213054   6.002   7.039   0.917  0.0950  0.2261 -0.0998
 4366TIP3    H113055   5.977   7.131   0.919 -1.8593 -0.2585  1.7336
 4366TIP3    H213056   5.929   6.995   0.872  1.2942 -0.3985 -1.5339
 4367TIP3   OH213057   2.804   3.033   5.217  0.0428  0.0172 -0.3440
 4367TIP3    H113058   2.725   3.001   5.260 -0.3910  1.2202 -0.2116
 4367TIP3    H213059   2.839   3.099   5.278  0.6940  0.0793 -0.7788
 4368TIP3   OH213060   7.891   1.529   0.241  0.2729  0.2926  0.3917
 4368TIP3    H113061   7.843   1.484   0.310  0.8118  0.6518  1.0076
 4368TIP3    H213062   7.826   1.586   0.200 -0.0740 -0.0079  0.5195
 4369TIP3   OH213063   3.902   7.251   6.380  0.0687  0.3602  0.1010
 4369TIP3    H113064   3.836   7.226   6.315 -0.0486  0.5531  0.1466
 4369TIP3    H213065   3.922   7.342   6.361  0.3061  0.3097  0.1040
 4370TIP3   OH213066   0.073   1.300   5.078  0.5981 -0.9059 -0.0298
 4370TIP3    H113067   0.161   1.323   5.049 -0.1692 -0.5295 -2.2142
 4370TIP3    H213068   0.046   1.373   5.133  1.3570 -0.6753  0.0493
 4371TIP3   OH213069   5.268   2.582   3.113 -0.2760 -0.2666 -0.0834
 4371TIP3    H113070   5.182   2.619   3.092  0.7194  2.6257  0.5803
 4371TIP3    H213071   5.257   2.546   3.201 -0.7998  0.0273 -0.0228
 4372TIP3   OH213072   7.131   6.661   0.198 -0.4900  0.5167 -0.0344
 4372TIP3    H113073   7.049   6.691   0.239 -0.9162 -0.6105 -0.0310
 4372TIP3    H213074   7.151   6.728   0.132 -0.8531  1.3363  0.6722
 4373TIP3   OH213075   4.883   3.672   5.616  0.5853 -0.8093  0.2003
 4373TIP3    H113076   4.962   3.679   5.562  0.7064 -1.3939  0.2963
 4373TIP3    H213077   4.893   3.590   5.663  0.4692 -0.3183  1.1078
 4374TIP3   OH213078   2.054   2.962   2.941  0.0466 -0.0165 -0.3110
 4374TIP3    H113079   2.143   2.996   2.949  0.4480 -1.1346  0.0987
 4374TIP3    H213080   2.023   2.951   3.031 -1.1382  1.8807 -0.4182
 4375TIP3   OH213081   2.413   2.369   3.133  0.3611 -0.0906  0.3448
 4375TIP3    H113082   2.477   2.335   3.195  0.7198 -0.7071 -0.3515
 4375TIP3    H213083   2.331   2.373   3.184  0.7968  0.0849  1.0505
 4376TIP3   OH213084   2.591   6.998   4.425  0.3823  0.6136  0.4234
 4376TIP3    H113085   2.633   7.055   4.360 -2.2468  0.6292 -1.4087
 4376TIP3    H213086   2.642   7.012   4.505  2.3176  2.4032 -0.9951
 4377TIP3   OH213087   5.949   4.318   1.893 -0.2588  0.3535 -0.0430
 4377TIP3    H113088   5.902   4.394   1.859 -0.3400 -0.1745 -1.1648
 4377TIP3    H213089   5.880   4.255   1.913 -0.0949 -0.2276 -1.1986
 4378TIP3   OH213090   0.409   3.252   4.226  0.0153  0.0744 -0.4895
 4378TIP3    H113091   0.407   3.157   4.218 -2.5090  0.1217 -1.3790
 4378TIP3    H213092   0.338   3.272   4.286  0.5234  1.4092 -0.3049
 4379TIP3   OH213093   7.738   5.066   4.777 -0.2733 -0.2937 -0.6731
 4379TIP3    H113094   7.704   5.058   4.866 -0.4244 -1.9500 -0.8495
 4379TIP3    H213095   7.659   5.074   4.722 -0.1654  1.6494 -0.6264
 4380TIP3   OH213096   7.961   4.865   6.232  0.7173 -0.4315 -0.2969
 4380TIP3    H113097   7.873   4.840   6.261  1.9288 -1.2077  3.3394
 4380TIP3    H213098   7.990   4.792   6.178 -0.1304 -1.1922  0.2362
 4381TIP3   OH213099   1.653   4.736   2.910  0.4246 -0.2873 -0.6077
 4381TIP3    H113100   1.571   4.702   2.874  0.4871 -0.5703 -0.4783
 4381TIP3    H213101   1.695   4.661   2.951  1.4224 -0.4774 -1.8969
 4382TIP3   OH213102   2.901   1.245   6.260 -1.0967 -0.3038 -0.7701
 4382TIP3    H113103   2.824   1.274   6.307 -1.0701 -1.7577  0.2169
 4382TIP3    H213104   2.938   1.326   6.222 -1.0623  0.9431  1.7408
 4383TIP3   OH213105   6.136   3.514   3.366  0.3337 -0.3152  0.4552
 4383TIP3    H113106   6.210   3.480   3.315 -1.0097 -1.5106 -0.8249
 4383TIP3    H213107   6.108   3.592   3.318  0.4978 -0.1052  0.6992
 4384TIP3   OH213108   7.892   3.459   2.409  0.0311  0.2357  0.7341
 4384TIP3    H113109   7.931   3.400   2.473  1.5000 -1.2289 -1.3678
 4384TIP3    H213110   7.866   3.402   2.336 -1.8106  1.7861  0.0839
 4385TIP3   OH213111   8.045   3.073   5.967  0.0289  0.0878 -0.0230
 4385TIP3    H113112   7.995   3.136   5.916 -0.6533  1.2268  1.9357
 4385TIP3    H213113   8.043   3.107   6.056  2.4085 -1.0369  0.5439
 4386TIP3   OH213114   2.489   0.950   4.227  0.7906 -0.2382 -0.7869
 4386TIP3    H113115   2.534   0.876   4.188 -1.1389 -0.2557 -3.2141
 4386TIP3    H213116   2.404   0.953   4.182  0.2164  2.5269  0.2836
 4387TIP3   OH213117   2.171   2.174   4.912  0.2470  0.3145  0.5553
 4387TIP3    H113118   2.082   2.205   4.894  0.1480 -0.6388 -0.7471
 4387TIP3    H213119   2.223   2.206   4.839  0.6206 -0.5284  0.4392
 4388TIP3   OH213120   7.269   4.573   3.098  0.3850  0.4639  0.5704
 4388TIP3    H113121   7.281   4.478   3.102  1.6143  0.4868 -1.1721
 4388TIP3    H213122   7.175   4.585   3.085  0.3952 -0.6272 -0.7246
 4389TIP3   OH213123   0.501   6.469   5.453  0.8967 -0.6943 -0.8276
 4389TIP3    H113124   0.577   6.528   5.457 -0.3749  0.9498  1.8275
 4389TIP3    H213125   0.430   6.524   5.422  0.1838 -1.4336 -0.5394
 4390TIP3   OH213126   7.536   3.233   4.238  0.2474 -0.2360 -0.1313
 4390TIP3    H113127   7.595   3.158   4.248  0.2745 -0.6181 -2.4523
 4390TIP3    H213128   7.461   3.211   4.293  2.4096  0.6097  3.5163
 4391TIP3   OH213129   3.660   6.987   0.864  0.9508 -0.4115  0.4587
 4391TIP3    H113130   3.629   7.077   0.861  0.2741 -0.6388  0.5440
 4391TIP3    H213131   3.611   6.942   0.795  1.3768 -0.6907  0.3311
 4392TIP3   OH213132   2.852   6.179   0.699 -0.1897 -0.2009 -0.3957
 4392TIP3    H113133   2.914   6.167   0.627  0.2072 -1.5517  0.1468
 4392TIP3    H213134   2.770   6.141   0.668 -0.6660  1.1879 -0.9417
 4393TIP3   OH213135   4.208   6.106   6.180  0.4155 -0.2590  0.0391
 4393TIP3    H113136   4.294   6.150   6.177  0.3833  0.0241  1.9396
 4393TIP3    H213137   4.229   6.014   6.197  0.3941  0.1454  2.8767
 4394TIP3   OH213138   8.290   4.122   1.892 -0.0686  0.0524 -0.0949
 4394TIP3    H113139   8.240   4.045   1.862  0.9513 -0.1070 -1.4818
 4394TIP3    H213140   8.320   4.097   1.980  0.7663 -1.4240 -0.7533
 4395TIP3   OH213141   5.176   2.397   2.576 -0.1366  0.1108  0.0656
 4395TIP3    H113142   5.121   2.403   2.498  1.4244  2.7992 -0.9725
 4395TIP3    H213143   5.116   2.374   2.647 -1.6118 -2.3911 -1.8356
 4396TIP3   OH213144   3.937   3.003   3.433  0.3218 -0.3355  0.3345
 4396TIP3    H113145   4.028   3.012   3.459  0.2107 -0.7060  0.8641
 4396TIP3    H213146   3.891   3.072   3.480  0.5886  1.0232 -1.3234
 4397TIP3   OH213147   7.818   1.934   3.089 -0.6191 -0.3408  0.4180
 4397TIP3    H113148   7.908   1.957   3.111 -0.8995  0.9725  0.2564
 4397TIP3    H213149   7.806   1.966   3.000 -0.2155 -3.5373 -0.9201
 4398TIP3   OH213150   3.854   7.588   2.434  0.3227 -0.6743  0.3515
 4398TIP3    H113151   3.827   7.496   2.424  0.6468 -0.8799  1.2715
 4398TIP3    H213152   3.943   7.583   2.469  0.7231  0.0003 -0.5269
 4399TIP3   OH213153   5.534   6.401   5.885 -0.2845  0.0539  0.3696
 4399TIP3    H113154   5.529   6.464   5.956  0.4031  2.4570 -1.5902
 4399TIP3    H213155   5.615   6.353   5.900  1.0197  2.0597  0.0770
 4400TIP3   OH213156   1.849   3.165   1.260 -0.2368  0.1005  0.3403
 4400TIP3    H113157   1.929   3.115   1.248 -0.3614  0.5493 -3.3066
 4400TIP3    H213158   1.878   3.255   1.276  0.0014  0.2033 -0.6488
 4401TIP3   OH213159   6.212   6.038   5.778  0.3404 -0.0538  0.3952
 4401TIP3    H113160   6.288   6.064   5.726 -0.1572  0.4749 -0.0878
 4401TIP3    H213161   6.176   6.121   5.810 -0.6594 -0.2060 -0.2885
 4402TIP3   OH213162   1.219   4.669   5.303  0.6663 -0.0770 -0.5614
 4402TIP3    H113163   1.236   4.584   5.262  1.4870 -0.0265 -0.3537
 4402TIP3    H213164   1.199   4.728   5.231 -1.4656 -0.7680 -0.6058
 4403TIP3   OH213165   7.911   3.839   6.597 -0.5004  0.7761 -0.1637
 4403TIP3    H113166   7.978   3.786   6.554 -0.7228  0.6991 -0.4156
 4403TIP3    H213167   7.859   3.777   6.647 -0.8009  0.7487 -0.5112
 4404TIP3   OH213168   4.395   7.106   3.744 -0.0957  0.0125 -0.4631
 4404TIP3    H113169   4.399   7.080   3.652 -1.2713  0.3344 -0.6229
 4404TIP3    H213170   4.301   7.114   3.762  0.1387  2.7034 -0.0150
 4405TIP3   OH213171   0.341   3.847   2.405 -0.7089 -0.6400  0.5575
 4405TIP3    H113172   0.260   3.853   2.355 -0.2114 -0.1952 -0.2131
 4405TIP3    H213173   0.384   3.768   2.374  0.6860  0.7922 -1.4445
 4406TIP3   OH213174   8.132   7.123   1.742 -0.4385  0.8618 -0.2185
 4406TIP3    H113175   8.103   7.088   1.657 -1.0301  1.9504 -0.4746
 4406TIP3    H213176   8.199   7.187   1.720  0.4978  0.0737  0.2433
 4407TIP3   OH213177   7.483   0.399   6.067 -0.4123  0.0840 -0.6740
 4407TIP3    H113178   7.410   0.408   6.128  0.8311 -0.7861  1.0383
 4407TIP3    H213179   7.549   0.461   6.098  0.6746 -1.1486 -0.3937
 4408TIP3   OH213180   4.148   1.280   1.600  0.0466 -0.1602 -0.0366
 4408TIP3    H113181   4.151   1.226   1.679 -1.5437  0.7743  0.7218
 4408TIP3    H213182   4.195   1.360   1.624 -0.2696  0.0450 -0.0908
 4409TIP3   OH213183   7.886   4.719   2.291 -0.5366 -0.0700  0.1853
 4409TIP3    H113184   7.851   4.674   2.368 -0.9939 -0.7299 -0.3863
 4409TIP3    H213185   7.877   4.654   2.221 -0.1564  0.5313 -0.4236
 4410TIP3   OH213186   4.323   7.356   2.763 -0.3362 -0.0580 -0.1344
 4410TIP3    H113187   4.309   7.262   2.778 -1.1358 -0.0103 -0.5590
 4410TIP3    H213188   4.254   7.399   2.814 -0.7904  0.2433 -0.9876
 4411TIP3   OH213189   7.614   0.777   5.298 -0.1343  0.3195 -0.5615
 4411TIP3    H113190   7.620   0.872   5.298  0.1724  0.3051 -1.3494
 4411TIP3    H213191   7.575   0.755   5.213  2.7152 -0.4232 -1.7844
 4412TIP3   OH213192   5.374   0.766   2.692  0.0373 -0.3746 -0.0474
 4412TIP3    H113193   5.342   0.720   2.614  0.8452  0.1625 -0.7166
 4412TIP3    H213194   5.432   0.703   2.734 -1.5170 -1.1953  0.9378
 4413TIP3   OH213195   3.194   4.700   4.342  0.0432 -0.0265  0.0212
 4413TIP3    H113196   3.158   4.767   4.400 -1.5767 -0.4975 -0.3868
 4413TIP3    H213197   3.284   4.687   4.373 -0.0786  1.2792  1.0194
 4414TIP3   OH213198   3.017   2.602   6.269 -0.0348 -0.1001 -0.2216
 4414TIP3    H113199   3.025   2.509   6.249 -1.9758 -0.4937  0.5224
 4414TIP3    H213200   3.087   2.619   6.332  0.7901 -0.8761 -0.9094
 4415TIP3   OH213201   0.131   7.669   1.430  0.2654  0.2772  0.6526
 4415TIP3    H113202   0.212   7.621   1.444 -0.6686 -0.9721  2.1330
 4415TIP3    H213203   0.096   7.635   1.348  1.2439  0.8866 -0.0368
 4416TIP3   OH213204   7.036   1.174   3.555 -0.2336  0.2810 -0.3750
 4416TIP3    H113205   7.038   1.096   3.611  0.5223  1.0293  0.6852
 4416TIP3    H213206   7.105   1.230   3.590 -0.6740  1.3768 -1.2044
 4417TIP3   OH213207   3.782   1.119   0.446 -0.2679 -0.2263  0.0479
 4417TIP3    H113208   3.757   1.198   0.398 -1.3358 -0.7324 -0.2460
 4417TIP3    H213209   3.873   1.135   0.471 -0.5756  1.2602  0.3297
 4418TIP3   OH213210   6.042   5.019   0.358 -0.8214 -0.1783 -0.3706
 4418TIP3    H113211   5.954   5.048   0.334 -0.2766  0.5856 -1.5215
 4418TIP3    H213212   6.086   5.098   0.389 -0.1186 -0.2565 -1.1316
 4419TIP3   OH213213   5.762   4.607   6.123  0.1890 -0.4512 -0.1328
 4419TIP3    H113214   5.684   4.561   6.092 -0.8139  0.0616  1.5056
 4419TIP3    H213215   5.767   4.686   6.069 -0.2666 -0.6245 -0.4256
 4420TIP3   OH213216   3.548   1.345   2.783 -0.0688 -0.1192  0.2162
 4420TIP3    H113217   3.609   1.288   2.737  0.7514  1.3150 -0.5488
 4420TIP3    H213218   3.595   1.372   2.862 -0.9420 -1.4631  1.2421
 4421TIP3   OH213219   6.647   1.263   2.226 -0.5626  0.1302  0.4150
 4421TIP3    H113220   6.584   1.260   2.154 -0.8323  1.2033  0.5824
 4421TIP3    H213221   6.615   1.333   2.283  0.6842  0.6077  0.5709
 4422TIP3   OH213222   3.667   5.208   4.693 -0.6291  0.2813 -0.5074
 4422TIP3    H113223   3.727   5.138   4.668  0.2490  0.0465  1.9491
 4422TIP3    H213224   3.603   5.166   4.750 -0.2282  1.3887  0.8209
 4423TIP3   OH213225   0.953   2.235   1.734  0.2474 -0.2682 -0.3645
 4423TIP3    H113226   1.013   2.240   1.808 -0.0606  0.7171 -0.1685
 4423TIP3    H213227   0.985   2.301   1.672 -0.1216 -0.3393 -0.6373
 4424TIP3   OH213228   2.481   6.028   2.493 -0.1931  0.4057 -0.1673
 4424TIP3    H113229   2.450   5.944   2.527  1.6471 -1.0562 -1.8420
 4424TIP3    H213230   2.401   6.078   2.476 -1.3084 -0.7497  1.4411
 4425TIP3   OH213231   6.065   2.540   5.206 -0.4662  0.5120  0.6029
 4425TIP3    H113232   6.067   2.620   5.154 -0.1936 -0.1131 -0.3803
 4425TIP3    H213233   6.050   2.470   5.142  0.5610 -0.3570  1.2677
 4426TIP3   OH213234   4.814   4.128   6.420 -0.5555  0.2895  0.3457
 4426TIP3    H113235   4.749   4.196   6.439  0.0085  0.7116  0.8201
 4426TIP3    H213236   4.775   4.076   6.350 -0.8095  1.3931 -0.3581
 4427TIP3   OH213237   0.088   2.455   6.175  0.6677  0.5499  0.6166
 4427TIP3    H113238   0.064   2.433   6.265  0.1463 -0.5996  0.2144
 4427TIP3    H213239   0.027   2.525   6.150 -0.7164 -0.6827  0.4199
 4428TIP3   OH213240   0.298   0.878   4.384 -0.2468  0.2722  0.2064
 4428TIP3    H113241   0.233   0.948   4.394  1.2273  1.5145  1.6525
 4428TIP3    H213242   0.377   0.923   4.355 -0.0100 -1.2441 -1.7090
 4429TIP3   OH213243   0.926   6.802   1.680 -0.6055  0.1992  0.2068
 4429TIP3    H113244   0.958   6.852   1.605 -1.0274  1.5352  0.8876
 4429TIP3    H213245   0.831   6.817   1.680 -1.0966 -2.3428 -0.7929
 4430TIP3   OH213246   0.845   6.009   6.349 -0.1204 -0.1078 -0.2380
 4430TIP3    H113247   0.935   6.041   6.357 -0.2248  0.3462 -0.8116
 4430TIP3    H213248   0.791   6.086   6.365 -0.4604 -0.6514  1.4796
 4431TIP3   OH213249   4.078   5.529   6.196  0.3529  0.2181  0.2946
 4431TIP3    H113250   3.990   5.533   6.159 -0.3776 -0.2819  1.8766
 4431TIP3    H213251   4.133   5.497   6.125 -0.9796 -0.7030 -0.3615
 4432TIP3   OH213252   8.258   2.558   0.836 -0.5189  0.1371  0.6116
 4432TIP3    H113253   8.310   2.583   0.913 -1.0024  0.7246  0.7594
 4432TIP3    H213254   8.191   2.626   0.829  0.4852  1.0063 -1.2883
 4433TIP3   OH213255   0.168   6.983   3.689  0.5097  0.6051  0.1565
 4433TIP3    H113256   0.258   6.965   3.713  0.3793  0.3338  0.4534
 4433TIP3    H213257   0.148   6.921   3.619  0.1130 -0.3117  1.0646
 4434TIP3   OH213258   6.147   1.941   2.941 -1.0129 -0.8428 -0.4349
 4434TIP3    H113259   6.125   1.986   2.859  0.1495 -0.2921 -0.4613
 4434TIP3    H213260   6.242   1.945   2.945 -1.0955  0.2943  1.5795
 4435TIP3   OH213261   1.469   1.380   5.244 -0.1783 -0.7871  0.3728
 4435TIP3    H113262   1.447   1.289   5.225 -1.9059 -0.5999  1.2959
 4435TIP3    H213263   1.454   1.390   5.338 -1.4850  0.8113  0.0452
 4436TIP3   OH213264   2.186   3.196   5.261  0.5939  0.2003 -0.0252
 4436TIP3    H113265   2.163   3.123   5.203 -0.2737 -0.3739  1.0192
 4436TIP3    H213266   2.174   3.162   5.349 -1.2863  2.0268  0.4951
 4437TIP3   OH213267   3.054   1.103   3.703 -0.4067 -0.1678  0.4859
 4437TIP3    H113268   3.092   1.023   3.740 -1.2168 -0.5340  0.5533
 4437TIP3    H213269   3.129   1.152   3.669  0.6386  1.0564  4.1273
 4438TIP3   OH213270   6.338   0.696   5.829  0.4298 -0.1750  0.0855
 4438TIP3    H113271   6.308   0.668   5.915  0.0957  0.4550  0.1798
 4438TIP3    H213272   6.313   0.625   5.770  0.8817 -0.7183  0.5430
 4439TIP3   OH213273   4.164   0.059   3.567  0.2340 -0.1895  0.4819
 4439TIP3    H113274   4.091   0.002   3.543  0.0062  0.5484 -0.6732
 4439TIP3    H213275   4.123   0.138   3.603  0.4455  0.2734 -0.2713
 4440TIP3   OH213276   8.249   0.475   5.515  0.4733  0.2107 -0.0255
 4440TIP3    H113277   8.254   0.570   5.509 -0.4823  0.2415 -0.5782
 4440TIP3    H213278   8.189   0.449   5.444  1.2185 -0.8571 -0.2925
 4441TIP3   OH213279   7.118   0.818   2.102  0.6868 -0.0553  0.0895
 4441TIP3    H113280   7.167   0.869   2.037  1.0171 -1.6906 -1.0195
 4441TIP3    H213281   7.061   0.882   2.145  0.9647  1.2124 -1.3248
 4442TIP3   OH213282   1.922   3.554   2.381 -0.0740 -0.0129  0.1812
 4442TIP3    H113283   2.008   3.514   2.393 -0.1292 -0.5231 -1.0755
 4442TIP3    H213284   1.865   3.507   2.442 -0.0351 -1.5527 -0.9240
 4443TIP3   OH213285   7.125   7.022   0.561  0.5301 -0.4793 -0.2791
 4443TIP3    H113286   7.069   7.053   0.632  0.5504  2.8429 -1.5478
 4443TIP3    H213287   7.066   7.010   0.487  1.1339  1.0748 -1.0611
 4444TIP3   OH213288   4.514   6.004   5.993 -0.1665  0.7190 -0.5902
 4444TIP3    H113289   4.591   6.019   5.938  0.8540 -0.9489  0.3121
 4444TIP3    H213290   4.509   6.082   6.048  1.5340  0.4102  0.0586
 4445TIP3   OH213291   1.414   2.991   3.746  0.1040 -0.3275  0.6928
 4445TIP3    H113292   1.319   2.982   3.747  0.0757 -0.0890  0.4298
 4445TIP3    H213293   1.432   3.044   3.668  0.4415 -0.2644  0.8124
 4446TIP3   OH213294   2.167   6.248   1.083  0.6658  1.1451  0.0805
 4446TIP3    H113295   2.179   6.240   0.988 -0.2747  0.9329 -0.0308
 4446TIP3    H213296   2.242   6.300   1.113  2.5329 -1.1008 -0.3744
 4447TIP3   OH213297   0.575   3.298   5.054  0.2559 -0.3048 -0.8537
 4447TIP3    H113298   0.538   3.251   5.129 -2.5071  0.1695 -1.8199
 4447TIP3    H213299   0.664   3.320   5.082 -0.6813 -0.0079  2.3447
 4448TIP3   OH213300   2.665   4.273   0.136  0.2492 -0.0944  0.2540
 4448TIP3    H113301   2.738   4.211   0.136 -0.5614 -1.2461  3.7347
 4448TIP3    H213302   2.588   4.221   0.115 -0.3396 -0.2075  2.5047
 4449TIP3   OH213303   3.194   0.887   4.944  0.0102  0.2085  0.1565
 4449TIP3    H113304   3.131   0.855   5.008 -1.7041  1.9853 -0.5340
 4449TIP3    H213305   3.275   0.897   4.993 -0.4052 -1.4465  1.2503
 4450TIP3   OH213306   6.521   6.712   0.155 -0.5038 -0.0864 -0.6184
 4450TIP3    H113307   6.498   6.635   0.207  3.0464 -2.3754 -2.0851
 4450TIP3    H213308   6.515   6.785   0.216 -0.0856 -2.0745  1.9793
 4451TIP3   OH213309   5.394   0.832   5.880 -1.1366 -0.0084 -0.3111
 4451TIP3    H113310   5.382   0.916   5.835 -1.9208 -0.3884 -0.8421
 4451TIP3    H213311   5.477   0.799   5.847 -0.2408  1.0778  0.7779
 4452TIP3   OH213312   1.178   2.821   3.442  0.5324  0.0604 -0.1397
 4452TIP3    H113313   1.103   2.862   3.399  0.8622  0.5618 -0.2519
 4452TIP3    H213314   1.163   2.836   3.536  2.0789  3.1110 -0.2468
 4453TIP3   OH213315   0.192   7.127   0.159  0.1121 -0.6267 -0.2179
 4453TIP3    H113316   0.263   7.064   0.169 -0.3962 -1.0136  1.0164
 4453TIP3    H213317   0.150   7.131   0.244 -0.0255  1.2089 -0.3239
 4454TIP3   OH213318   5.462   3.271   3.428  0.4306 -0.6121  0.5725
 4454TIP3    H113319   5.537   3.213   3.442  1.1423  0.1040 -0.2347
 4454TIP3    H213320   5.479   3.347   3.484 -0.1026 -0.8032  1.0060
 4455TIP3   OH213321   7.198   6.111   1.925  0.1356 -0.2378  0.2576
 4455TIP3    H113322   7.120   6.161   1.951 -0.3507 -1.0338  0.3725
 4455TIP3    H213323   7.199   6.037   1.986  0.1252 -1.0474 -0.7112
 4456TIP3   OH213324   2.475   3.268   5.374  0.0199 -0.2415 -0.4344
 4456TIP3    H113325   2.472   3.210   5.299  1.4510  0.2094 -0.8768
 4456TIP3    H213326   2.384   3.279   5.401 -0.3724 -1.5837 -1.1780
 4457TIP3   OH213327   0.884   4.618   5.099  0.1303  0.4336 -0.3368
 4457TIP3    H113328   0.882   4.679   5.173 -0.7737  0.9393 -0.7616
 4457TIP3    H213329   0.966   4.570   5.110 -0.2795  0.0632  1.3377
 4458TIP3   OH213330   2.550   7.610   1.893  0.6484  0.2559 -0.1107
 4458TIP3    H113331   2.588   7.656   1.968  0.0433 -0.4484  0.6613
 4458TIP3    H213332   2.464   7.650   1.882  0.6392  0.1919 -0.2643
 4459TIP3   OH213333   1.728   6.946   3.764  0.4198  0.5280 -0.0912
 4459TIP3    H113334   1.791   6.970   3.832  0.3047  1.8496 -0.4304
 4459TIP3    H213335   1.769   6.872   3.719  1.4520  0.9773  0.0763
 4460TIP3   OH213336   0.259   0.780   6.173 -0.1595  0.0817 -0.0651
 4460TIP3    H113337   0.289   0.865   6.142  0.2613  0.7095  1.9051
 4460TIP3    H213338   0.337   0.724   6.169 -0.1924  0.0568 -0.4206
 4461TIP3   OH213339   1.843   4.048   0.317  0.1900  0.0635  0.8171
 4461TIP3    H113340   1.818   3.966   0.360 -0.8441  0.4106  0.9077
 4461TIP3    H213341   1.870   4.022   0.229  0.0473 -0.3892  0.9047
 4462TIP3   OH213342   0.760   1.805   6.582 -0.4139 -0.0680  0.1946
 4462TIP3    H113343   0.750   1.883   6.527 -2.0989  0.7598  1.5718
 4462TIP3    H213344   0.790   1.737   6.522  1.7150  1.7544 -0.9313
 4463TIP3   OH213345   4.782   3.393   2.119 -0.4610 -0.2755 -0.3471
 4463TIP3    H113346   4.762   3.301   2.132  0.2580 -0.3273  0.5105
 4463TIP3    H213347   4.707   3.440   2.155 -0.9428 -0.5190 -1.0166
 4464TIP3   OH213348   5.543   5.461   6.070 -0.0530  0.1112 -0.4764
 4464TIP3    H113349   5.610   5.410   6.117 -0.6812 -0.1516  0.1467
 4464TIP3    H213350   5.523   5.408   5.992 -1.3845 -1.1086  0.6355
 4465TIP3   OH213351   7.897   2.033   3.392  0.7216 -0.3610 -0.3202
 4465TIP3    H113352   7.860   1.945   3.381 -1.3834  0.5809 -1.2262
 4465TIP3    H213353   7.967   2.038   3.327  0.5313 -1.1864 -0.6024
 4466TIP3   OH213354   8.038   2.580   2.512 -0.4282  0.0119 -0.1636
 4466TIP3    H113355   7.975   2.548   2.446  1.1741 -0.5738 -1.4795
 4466TIP3    H213356   8.094   2.505   2.530  0.4412  0.7586  0.3312
 4467TIP3   OH213357   2.974   7.005   2.961 -0.3043  0.1637  0.5547
 4467TIP3    H113358   2.977   7.098   2.938  1.0256 -0.5118 -2.3064
 4467TIP3    H213359   2.883   6.990   2.987 -0.5643  2.2021  0.9902
 4468TIP3   OH213360   2.655   1.278   6.671 -0.5956 -0.0122 -0.2244
 4468TIP3    H113361   2.667   1.295   6.577  1.5464 -1.0612 -0.2071
 4468TIP3    H213362   2.665   1.183   6.680 -0.4032  0.1169  1.1084
 4469TIP3   OH213363   3.736   3.523   2.016 -0.3764 -0.0406  0.2452
 4469TIP3    H113364   3.726   3.476   1.933 -1.0996 -0.3569  0.4944
 4469TIP3    H213365   3.713   3.614   1.996  0.3600  0.0745 -0.0945
 4470TIP3   OH213366   3.147   4.603   2.431  0.0982 -0.3028 -0.4946
 4470TIP3    H113367   3.104   4.538   2.376 -0.3135 -1.4261  1.0869
 4470TIP3    H213368   3.090   4.612   2.507  0.2106  1.8494 -0.6033
 4471TIP3   OH213369   3.129   7.553   4.678 -0.5685 -0.1382  0.0223
 4471TIP3    H113370   3.176   7.579   4.599 -0.1349 -1.3462 -0.1398
 4471TIP3    H213371   3.100   7.635   4.718 -1.7172  0.4592 -1.9291
 4472TIP3   OH213372   7.952   5.081   0.257 -0.7362  0.3529 -0.3272
 4472TIP3    H113373   8.023   5.141   0.280 -1.2073  0.3952  1.1582
 4472TIP3    H213374   7.995   5.011   0.207  0.4290  0.1969  0.8326
 4473TIP3   OH213375   4.058   0.542   6.128 -0.3776  0.2139  0.6677
 4473TIP3    H113376   3.970   0.555   6.094 -0.8112 -1.6696  0.9423
 4473TIP3    H213377   4.113   0.601   6.076 -1.3816 -0.7167 -1.5657
 4474TIP3   OH213378   4.555   5.513   5.236  0.5597 -0.0689  0.3095
 4474TIP3    H113379   4.616   5.586   5.227  0.3572 -0.0201 -0.9068
 4474TIP3    H213380   4.610   5.440   5.265  1.1312  0.0757 -0.3761
 4475TIP3   OH213381   4.797   4.911   6.437 -0.0490 -0.0588  0.3446
 4475TIP3    H113382   4.706   4.905   6.407 -0.6610  0.9121  1.9226
 4475TIP3    H213383   4.811   5.004   6.454  1.5107 -0.0836 -0.5914
 4476TIP3   OH213384   4.916   2.170   3.616  0.2696 -0.0265 -0.1619
 4476TIP3    H113385   4.871   2.100   3.568 -0.2043  2.0164 -2.9204
 4476TIP3    H213386   4.846   2.225   3.650  0.6296 -0.9598  2.2972
 4477TIP3   OH213387   7.216   6.196   0.254 -0.2655 -0.0499  0.5418
 4477TIP3    H113388   7.160   6.149   0.191 -0.3294  2.0716 -1.0957
 4477TIP3    H213389   7.164   6.271   0.281  1.1492  1.1169  0.1861
 4478TIP3   OH213390   5.551   0.735   0.493  0.9383 -0.5917 -0.0882
 4478TIP3    H113391   5.458   0.714   0.487  0.4482  1.3810  0.0643
 4478TIP3    H213392   5.564   0.807   0.432  2.1366 -0.1671  0.6213
 4479TIP3   OH213393   2.402   4.790   2.323  0.4661  0.5154  0.1446
 4479TIP3    H113394   2.459   4.867   2.317 -0.8238  1.5518  0.6691
 4479TIP3    H213395   2.386   4.766   2.232  1.9422  0.0237 -0.0134
 4480TIP3   OH213396   2.139   7.223   0.050  0.3140 -0.3473 -0.2915
 4480TIP3    H113397   2.212   7.188   0.102  0.9817  0.1481 -0.8747
 4480TIP3    H213398   2.148   7.181  -0.035  0.9149  0.9191 -0.8846
 4481TIP3   OH213399   4.762   0.724   1.151 -0.0259  0.0200 -0.0565
 4481TIP3    H113400   4.716   0.780   1.214 -1.0602  0.9772 -1.5948
 4481TIP3    H213401   4.843   0.699   1.195  0.0331  1.9738  1.0309
 4482TIP3   OH213402   6.946   5.804   4.743 -0.0146  0.0282 -0.1799
 4482TIP3    H113403   6.978   5.883   4.787 -0.1365  0.6883 -1.2398
 4482TIP3    H213404   7.018   5.777   4.686 -1.0489  1.2216 -2.1801
 4483TIP3   OH213405   0.719   0.281   5.990 -0.4833 -0.0636  0.1458
 4483TIP3    H113406   0.683   0.313   6.073 -0.8960 -0.3230  0.0711
 4483TIP3    H213407   0.782   0.348   5.964 -1.3568  0.7310 -0.0217
 4484TIP3   OH213408   4.878   0.504   2.599  0.4104  0.9718 -0.0752
 4484TIP3    H113409   4.818   0.447   2.551  0.9305  1.4108 -1.2873
 4484TIP3    H213410   4.932   0.443   2.651  0.4931  0.3923 -0.8140
 4485TIP3   OH213411   1.370   6.459   4.489  0.7601  0.1223  0.0874
 4485TIP3    H113412   1.411   6.386   4.441 -1.5647 -2.0249  1.1285
 4485TIP3    H213413   1.277   6.452   4.467  0.0957  1.1006  2.3602
 4486TIP3   OH213414   8.180   5.007   4.189 -0.0014  0.1501  0.4790
 4486TIP3    H113415   8.147   4.923   4.155  1.6507 -0.2608 -0.2166
 4486TIP3    H213416   8.146   5.072   4.127 -0.4182 -0.1229  0.4126
 4487TIP3   OH213417   5.334   5.136   0.722 -0.5908 -0.7281  0.4177
 4487TIP3    H113418   5.265   5.107   0.663  0.1008 -1.3992 -0.0863
 4487TIP3    H213419   5.302   5.218   0.760 -0.2507  0.7718 -2.3195
 4488TIP3   OH213420   6.935   5.073   4.068  0.5165  0.0019 -0.0975
 4488TIP3    H113421   6.898   5.045   3.984 -0.4918 -0.1834  0.3863
 4488TIP3    H213422   6.860   5.107   4.117  1.3128  1.3242  0.2503
 4489TIP3   OH213423   3.761   3.186   6.144 -0.1183  0.8615  0.1194
 4489TIP3    H113424   3.713   3.253   6.193  0.9013  0.3967  1.8884
 4489TIP3    H213425   3.697   3.118   6.126 -0.6285  1.2367  0.4871
 4490TIP3   OH213426   0.798   2.354   4.113 -0.3551 -0.5363  0.2379
 4490TIP3    H113427   0.867   2.407   4.072  0.0296 -1.2593 -0.0555
 4490TIP3    H213428   0.781   2.398   4.196  0.3708 -0.2734  0.2560
 4491TIP3   OH213429   3.227   6.530   5.105  0.5807  0.4698  0.7143
 4491TIP3    H113430   3.174   6.496   5.177  0.0031  1.0265  0.5692
 4491TIP3    H213431   3.277   6.455   5.073  0.1704  0.0226  1.1158
 4492TIP3   OH213432   3.460   5.964   0.197  0.3007  0.0727 -0.2996
 4492TIP3    H113433   3.467   5.875   0.163  1.4290  0.3250 -0.7708
 4492TIP3    H213434   3.425   5.954   0.285 -2.3436 -0.6295 -1.3218
 4493TIP3   OH213435   2.392   5.388   6.368  0.1184 -0.0984 -0.2983
 4493TIP3    H113436   2.406   5.416   6.459 -0.0554 -0.2971 -0.2109
 4493TIP3    H213437   2.299   5.404   6.352 -0.3479 -1.9346  0.2196
 4494TIP3   OH213438   6.374   2.240   3.247 -0.0618  0.2310 -0.5632
 4494TIP3    H113439   6.418   2.298   3.185 -0.4445  0.4672 -0.6168
 4494TIP3    H213440   6.329   2.299   3.308 -0.7383 -0.0049 -0.8235
 4495TIP3   OH213441   6.902   2.966   2.793 -0.4123  0.1433 -0.2436
 4495TIP3    H113442   6.813   2.977   2.824 -0.1294  1.0852  0.2741
 4495TIP3    H213443   6.926   2.877   2.818 -0.7577  0.3308  0.7949
 4496TIP3   OH213444   6.854   7.019   2.731  0.0742  0.4652  0.2909
 4496TIP3    H113445   6.926   7.030   2.669 -0.2392  1.0325  0.0196
 4496TIP3    H213446   6.861   6.928   2.760  0.1564  0.1547 -0.6591
 4497TIP3   OH213447   6.714   4.267   4.224 -0.1808 -0.0006 -0.6876
 4497TIP3    H113448   6.717   4.337   4.288 -0.9375  0.3854 -1.0759
 4497TIP3    H213449   6.750   4.305   4.144 -1.0991  0.1165 -1.0541
 4498TIP3   OH213450   0.256   6.201   0.736  0.2149 -0.1779 -0.0602
 4498TIP3    H113451   0.218   6.209   0.824 -0.2849 -1.9964 -0.0577
 4498TIP3    H213452   0.348   6.228   0.748  0.4118 -1.2879  1.2639
 4499TIP3   OH213453   1.330   6.683   5.667 -0.3651 -0.1151 -0.3230
 4499TIP3    H113454   1.383   6.618   5.621 -0.0643 -0.0947 -0.0081
 4499TIP3    H213455   1.241   6.670   5.634 -0.3175 -0.7389 -0.2032
 4500TIP3   OH213456   1.125   5.933   6.423  0.3769 -0.2115  0.0376
 4500TIP3    H113457   1.158   5.934   6.333  1.3636 -3.0029  0.2980
 4500TIP3    H213458   1.198   5.967   6.475  0.5328 -0.4365 -0.0301
 4501TIP3   OH213459   1.431   0.779   5.031  0.2441  0.4835 -0.5823
 4501TIP3    H113460   1.463   0.737   4.951  0.3812 -0.8668  0.1544
 4501TIP3    H213461   1.350   0.823   5.004 -0.2622 -0.8078 -1.2593
 4502TIP3   OH213462   4.799   2.430   2.547 -0.4158  0.1922 -0.3062
 4502TIP3    H113463   4.825   2.444   2.638  0.8506  0.4626 -0.7034
 4502TIP3    H213464   4.825   2.340   2.528  2.3931  1.1264 -1.3734
 4503TIP3   OH213465   5.031   0.796   6.462  0.1520  0.0386 -0.6628
 4503TIP3    H113466   4.974   0.719   6.470 -1.2084  1.0089 -0.6019
 4503TIP3    H213467   5.008   0.833   6.377 -0.7495  1.5312  0.2009
 4504TIP3   OH213468   4.086   0.506   3.371 -0.2287 -0.1711 -0.4871
 4504TIP3    H113469   4.039   0.567   3.313  0.9938  1.2074 -0.0844
 4504TIP3    H213470   4.082   0.422   3.325 -1.5230  0.2976 -1.3066
 4505TIP3   OH213471   6.136   0.165   2.625  0.0210  0.0130 -0.0688
 4505TIP3    H113472   6.106   0.179   2.715  3.0211  1.0346  0.9106
 4505TIP3    H213473   6.218   0.117   2.634  1.9486  2.5946 -1.9564
 4506TIP3   OH213474   0.414   3.340   5.464 -0.2650  0.4930 -0.4436
 4506TIP3    H113475   0.472   3.290   5.406  1.9927  0.7521  1.4137
 4506TIP3    H213476   0.409   3.427   5.423  3.3118  1.4640  0.7735
 4507TIP3   OH213477   0.127   3.692   3.464  0.7959  0.0775  0.0355
 4507TIP3    H113478   0.071   3.746   3.408  0.1098 -0.0643  0.5665
 4507TIP3    H213479   0.084   3.607   3.466  0.4743  0.2578  1.2627
 4508TIP3   OH213480   0.480   0.572   1.452  0.0655  0.2419 -0.1624
 4508TIP3    H113481   0.470   0.556   1.358  0.0336 -0.3385 -0.0679
 4508TIP3    H213482   0.571   0.552   1.470  0.4645  1.7883 -0.3240
 4509TIP3   OH213483   3.075   5.141   4.686  0.1859 -0.1203 -0.0564
 4509TIP3    H113484   3.032   5.221   4.716 -0.2144 -1.2706  2.7308
 4509TIP3    H213485   3.155   5.171   4.643 -1.3313  1.8536 -1.7089
 4510TIP3   OH213486   2.728   3.806   3.153 -0.3826 -0.2591  0.0476
 4510TIP3    H113487   2.738   3.806   3.249 -0.9177  0.3843  0.1078
 4510TIP3    H213488   2.666   3.876   3.136 -0.2442 -0.3390 -0.7849
 4511TIP3   OH213489   7.619   5.308   2.507  0.0262  0.3238 -0.8257
 4511TIP3    H113490   7.562   5.252   2.559 -1.1975  2.1426 -0.1005
 4511TIP3    H213491   7.680   5.345   2.570 -0.9637  1.9353 -0.7731
 4512TIP3   OH213492   6.621   3.428   5.479 -0.3313 -0.3281  0.4674
 4512TIP3    H113493   6.560   3.461   5.413 -0.5155 -1.0201  0.2797
 4512TIP3    H213494   6.569   3.422   5.559 -0.1771  0.2636  0.6121
 4513TIP3   OH213495   0.206   4.066   6.012 -0.2534 -0.1807  0.2328
 4513TIP3    H113496   0.298   4.085   6.031 -1.1197  1.1321  4.1398
 4513TIP3    H213497   0.175   4.143   5.964  0.5360 -0.4018 -0.6602
 4514TIP3   OH213498   3.083   7.653   3.063  0.1671  0.1878 -0.6773
 4514TIP3    H113499   3.163   7.602   3.073 -1.7815 -2.9603  0.2062
 4514TIP3    H213500   3.074   7.666   2.969  0.6084 -1.4060 -0.9656
 4515TIP3   OH213501   5.219   5.757   3.807  0.7240  0.2320  0.8094
 4515TIP3    H113502   5.189   5.736   3.718 -0.2721  0.4088  1.0895
 4515TIP3    H213503   5.255   5.845   3.800  0.6468  0.2455  0.5788
 4516TIP3   OH213504   2.167   7.181   5.026 -0.0906  0.2617  0.3350
 4516TIP3    H113505   2.085   7.143   5.056  0.8315 -0.5428  2.0107
 4516TIP3    H213506   2.199   7.231   5.101  1.6791 -0.7226  0.2865
 4517TIP3   OH213507   7.515   7.662   1.845 -0.0440  0.1977  0.1817
 4517TIP3    H113508   7.474   7.701   1.922  0.0252 -0.0369  0.3371
 4517TIP3    H213509   7.461   7.586   1.825 -0.9901  1.1069 -0.9292
 4518TIP3   OH213510   4.672   3.366   5.520 -0.4083  0.4050 -0.6019
 4518TIP3    H113511   4.655   3.461   5.517 -1.6210  0.1885 -1.3938
 4518TIP3    H213512   4.763   3.357   5.493 -0.6118  1.2804 -1.6807
 4519TIP3   OH213513   0.673   0.798   6.544  0.2744 -0.3531  0.5549
 4519TIP3    H113514   0.639   0.836   6.625  0.7506  0.6049  0.3217
 4519TIP3    H213515   0.601   0.808   6.482  0.4941  0.4670  0.4165
 4520TIP3   OH213516   0.624   1.304   4.712  0.8072  0.1131  0.8854
 4520TIP3    H113517   0.641   1.211   4.730 -0.0545 -0.1410  0.4390
 4520TIP3    H213518   0.636   1.312   4.617  4.0149  1.1510  1.2495
 4521TIP3   OH213519   0.283   0.878   2.735 -0.1028  0.0124  0.4774
 4521TIP3    H113520   0.254   0.968   2.749  0.7323  0.3157  0.3105
 4521TIP3    H213521   0.370   0.887   2.697  0.8475 -0.8617  2.3341
 4522TIP3   OH213522   5.475   5.611   2.209 -0.2489  0.2531 -0.2053
 4522TIP3    H113523   5.472   5.622   2.114 -2.0674 -3.1491 -0.7148
 4522TIP3    H213524   5.545   5.547   2.224 -0.7021 -0.0816  0.5954
 4523TIP3   OH213525   7.374   6.399   4.151 -0.5576 -0.3377 -0.4204
 4523TIP3    H113526   7.439   6.379   4.084 -0.3338  0.0219 -0.3146
 4523TIP3    H213527   7.337   6.484   4.124 -1.5118 -0.8747 -0.8789
 4524TIP3   OH213528   1.778   4.427   2.648  0.0075 -0.2168  0.0302
 4524TIP3    H113529   1.732   4.434   2.731 -0.2315 -2.9769  0.2174
 4524TIP3    H213530   1.711   4.400   2.585  0.4136  0.7263 -0.8406
 4525TIP3   OH213531   5.219   6.376   3.119  0.1635 -0.4435  0.4705
 4525TIP3    H113532   5.219   6.467   3.087  1.6268 -0.8685 -0.9069
 4525TIP3    H213533   5.207   6.324   3.039  0.4663 -1.4829  1.0943
 4526TIP3   OH213534   5.759   5.864   0.626  0.0126 -0.2645  0.6844
 4526TIP3    H113535   5.691   5.838   0.688 -0.6847 -0.0504  0.0270
 4526TIP3    H213536   5.741   5.812   0.548  0.8839 -0.5349  0.6475
 4527TIP3   OH213537   8.299   7.015   0.848 -0.1319 -0.4626  0.0754
 4527TIP3    H113538   8.355   7.007   0.925 -0.7205  0.5033  0.6280
 4527TIP3    H213539   8.214   6.981   0.876 -0.9459  1.7486  0.5628
 4528TIP3   OH213540   1.520   2.771   5.973 -0.3264  0.1697  0.0018
 4528TIP3    H113541   1.426   2.778   5.992 -0.4442 -2.2476  0.5247
 4528TIP3    H213542   1.553   2.710   6.038  1.6820  1.0852 -0.0935
 4529TIP3   OH213543   2.471   6.738   0.012  0.5090  0.3390 -0.0335
 4529TIP3    H113544   2.528   6.773  -0.056  0.8651 -1.4005 -0.6879
 4529TIP3    H213545   2.530   6.691   0.071  0.0760  0.9639  0.9285
 4530TIP3   OH213546   3.346   3.471   0.142 -0.7746 -0.5144  0.1137
 4530TIP3    H113547   3.390   3.543   0.096 -0.9901  1.7829  3.1162
 4530TIP3    H213548   3.274   3.446   0.085  0.8260 -0.1697 -2.1919
 4531TIP3   OH213549   5.012   5.689   5.748 -0.2123 -0.3705 -0.0200
 4531TIP3    H113550   4.997   5.651   5.834  0.3168  2.5600  1.4951
 4531TIP3    H213551   5.097   5.732   5.755 -0.1988  0.0388 -1.9917
 4532TIP3   OH213552   0.595   4.867   3.387  0.4582  0.0959 -0.1980
 4532TIP3    H113553   0.668   4.839   3.443  0.4907  1.3869  0.4504
 4532TIP3    H213554   0.520   4.871   3.447  0.4154  1.1679 -0.3151
 4533TIP3   OH213555   1.829   6.994   4.877 -0.1412 -0.2257 -0.5582
 4533TIP3    H113556   1.859   7.014   4.966 -0.3580  2.4835 -0.9987
 4533TIP3    H213557   1.909   6.988   4.826 -0.0962  1.8500 -0.7953
 4534TIP3   OH213558   1.416   5.651   0.269  0.0600 -0.1313 -0.1015
 4534TIP3    H113559   1.487   5.707   0.298  1.5137 -0.0487 -3.4311
 4534TIP3    H213560   1.436   5.565   0.307 -0.2329  0.6904  2.0638
 4535TIP3   OH213561   6.806   6.389   4.381  0.1314 -0.0672  0.5657
 4535TIP3    H113562   6.895   6.422   4.396  0.0475  0.9810 -1.0104
 4535TIP3    H213563   6.798   6.315   4.441  2.1646 -0.3634  0.5614
 4536TIP3   OH213564   4.279   5.984   4.245  0.2633  0.0084  0.3989
 4536TIP3    H113565   4.322   5.926   4.308  1.0893  0.4734  0.2798
 4536TIP3    H213566   4.252   5.927   4.173  1.8369 -0.1374 -0.1187
 4537TIP3   OH213567   0.993   1.754   1.738 -0.2316 -0.3136 -0.1789
 4537TIP3    H113568   1.076   1.759   1.691 -0.3493  0.3400 -0.3363
 4537TIP3    H213569   0.993   1.832   1.794 -0.9197 -0.0698 -0.5004
 4538TIP3   OH213570   3.427   0.171   0.069 -0.7978 -0.7015  0.1851
 4538TIP3    H113571   3.394   0.253   0.108 -1.2673 -1.8628  2.4100
 4538TIP3    H213572   3.394   0.172  -0.021 -2.5332  0.6109  0.7829
 4539TIP3   OH213573   4.035   6.894   3.609  0.0262 -0.0282  0.7515
 4539TIP3    H113574   4.061   6.960   3.545 -2.5455  0.7148  0.3763
 4539TIP3    H213575   3.993   6.944   3.679 -1.5768 -1.2199  0.6742
 4540TIP3   OH213576   0.113   6.784   0.721 -0.3313  0.1964 -0.1486
 4540TIP3    H113577   0.034   6.733   0.740 -0.6216  0.6307 -0.1747
 4540TIP3    H213578   0.090   6.874   0.746 -0.0865  0.4510 -0.8295
 4541TIP3   OH213579   5.156   4.467   5.213  0.1448  0.3324  0.0902
 4541TIP3    H113580   5.062   4.464   5.231 -0.2021  0.5135 -1.5219
 4541TIP3    H213581   5.195   4.410   5.280 -1.0346  0.6704  1.1198
 4542TIP3   OH213582   0.360   2.386   0.848 -0.0894 -0.1853 -0.3505
 4542TIP3    H113583   0.450   2.365   0.872 -0.0237  1.4425  0.9983
 4542TIP3    H213584   0.353   2.361   0.756  0.9432 -2.7261  0.1697
 4543TIP3   OH213585   2.572   4.207   1.599 -0.1524  0.0083 -0.1980
 4543TIP3    H113586   2.499   4.255   1.640 -0.0541  0.6543 -0.7588
 4543TIP3    H213587   2.531   4.155   1.530  0.0335  1.2979 -1.3242
 4544TIP3   OH213588   5.711   2.090   1.273 -0.2581 -0.0026 -0.3577
 4544TIP3    H113589   5.745   2.135   1.350  0.7879  0.3884 -1.0214
 4544TIP3    H213590   5.693   2.160   1.210 -0.2027 -0.3815 -0.8045
 4545TIP3   OH213591   7.189   3.873   5.774  0.1733 -0.1158  0.0395
 4545TIP3    H113592   7.139   3.794   5.755 -0.2887  0.6745 -2.3134
 4545TIP3    H213593   7.127   3.932   5.815 -0.3537  0.1547 -1.1106
 4546TIP3   OH213594   1.246   2.649   4.508  0.2920 -0.1217 -0.0271
 4546TIP3    H113595   1.244   2.660   4.603 -2.4543 -0.7392  0.0569
 4546TIP3    H213596   1.257   2.738   4.474  2.7650 -0.0332  0.8140
 4547TIP3   OH213597   7.290   6.485   6.741  0.2954  0.1550  0.0666
 4547TIP3    H113598   7.200   6.492   6.710  1.0391  4.3388 -1.9483
 4547TIP3    H213599   7.343   6.485   6.661  2.1682 -1.1455  1.2148
 4548TIP3   OH213600   8.234   6.341   2.711  0.3322 -0.8583 -0.2396
 4548TIP3    H113601   8.163   6.392   2.674  0.4531  0.9556  1.8323
 4548TIP3    H213602   8.312   6.396   2.700  0.5609 -0.7380  1.5603
 4549TIP3   OH213603   6.820   2.525   1.427 -0.4404  0.2022  0.0659
 4549TIP3    H113604   6.814   2.439   1.384 -0.5557 -0.0183  0.5175
 4549TIP3    H213605   6.899   2.520   1.480 -1.3703 -0.2726  1.4754
 4550TIP3   OH213606   7.529   1.222   3.201 -0.2672  0.0880 -0.3341
 4550TIP3    H113607   7.585   1.234   3.277 -0.3477  1.6769 -0.4802
 4550TIP3    H213608   7.442   1.252   3.230 -0.2378  0.9830 -1.0915
 4551TIP3   OH213609   4.298   3.764   3.660  0.1576  0.6476  0.5357
 4551TIP3    H113610   4.298   3.700   3.732  1.1428  0.5539  0.4751
 4551TIP3    H213611   4.383   3.751   3.618 -0.8963 -0.1899 -1.4523
 4552TIP3   OH213612   7.712   5.916   0.591  0.3468  0.0960 -0.3936
 4552TIP3    H113613   7.782   5.892   0.652 -0.4350  0.0514  0.5113
 4552TIP3    H213614   7.703   5.840   0.533 -0.3990 -0.8222  0.8623
 4553TIP3   OH213615   7.305   7.284   6.221  0.0095  0.0491 -0.2692
 4553TIP3    H113616   7.290   7.370   6.181 -1.0087 -0.0467 -0.1233
 4553TIP3    H213617   7.220   7.259   6.256 -0.3183 -2.0580 -2.3225
 4554TIP3   OH213618   2.121   7.003   4.831 -0.5734  0.3822 -0.4654
 4554TIP3    H113619   2.154   7.087   4.863  0.4909 -0.3114  0.3544
 4554TIP3    H213620   2.122   6.946   4.908 -3.4284  0.1837 -0.4769
 4555TIP3   OH213621   1.843   5.107   4.770  0.5475  0.2782 -1.0023
 4555TIP3    H113622   1.830   5.181   4.829 -0.2438  1.7140 -2.8751
 4555TIP3    H213623   1.756   5.071   4.757  1.0835 -1.9431  0.9717
 4556TIP3   OH213624   0.117   5.647   4.725 -0.7494 -0.5038 -0.7046
 4556TIP3    H113625   0.128   5.723   4.668 -0.5186  1.4551  1.7588
 4556TIP3    H213626   0.023   5.644   4.744 -0.3690  2.3591  2.9414
 4557TIP3   OH213627   2.405   2.371   5.728  0.0162  0.4369 -0.2513
 4557TIP3    H113628   2.445   2.319   5.659 -2.2225 -1.4924 -0.1815
 4557TIP3    H213629   2.434   2.330   5.809  0.2173  0.8444 -0.1120
 4558TIP3   OH213630   7.851   2.830   4.102 -0.2303  0.6480 -0.0900
 4558TIP3    H113631   7.880   2.741   4.123 -1.4618  0.8430  2.8200
 4558TIP3    H213632   7.930   2.884   4.110 -0.2213  0.3675  2.1885
 4559TIP3   OH213633   2.068   4.758   4.074  0.2193 -0.1218  0.3614
 4559TIP3    H113634   2.138   4.814   4.041  0.4962  0.0936  1.2812
 4559TIP3    H213635   2.059   4.690   4.008  0.3695  0.6057 -0.4181
 4560TIP3   OH213636   2.695   7.364   5.117 -0.3733 -0.0441  0.8109
 4560TIP3    H113637   2.658   7.424   5.052  2.0205  1.5817  0.8437
 4560TIP3    H213638   2.693   7.278   5.074 -3.3806  0.0228  0.5581
 4561TIP3   OH213639   1.661   1.626   1.304 -0.1555 -0.4687 -0.7675
 4561TIP3    H113640   1.632   1.628   1.395  0.2909  1.4549 -0.6188
 4561TIP3    H213641   1.757   1.630   1.310 -0.1654  1.0064 -1.3035
 4562TIP3   OH213642   6.512   4.373   0.392 -0.1958  0.1761  0.3442
 4562TIP3    H113643   6.528   4.432   0.466 -1.0441  0.7050  0.1148
 4562TIP3    H213644   6.433   4.407   0.351  0.7493  0.4604 -1.3655
 4563TIP3   OH213645   6.536   6.164   5.004 -0.0800  0.1187  0.2125
 4563TIP3    H113646   6.479   6.090   4.983  0.9367  0.0443 -2.7710
 4563TIP3    H213647   6.481   6.241   4.987 -0.1170  0.0391 -0.0419
 4564TIP3   OH213648   7.731   5.506   4.258 -0.1644  0.0020  0.1481
 4564TIP3    H113649   7.681   5.500   4.339 -0.1286 -1.6557  0.0908
 4564TIP3    H213650   7.812   5.458   4.277  0.0960  0.0936 -0.6917
 4565TIP3   OH213651   6.376   1.030   0.462 -0.3287  0.0243  0.5416
 4565TIP3    H113652   6.340   1.073   0.384  0.3376  0.6914  0.5812
 4565TIP3    H213653   6.328   0.948   0.469 -1.8753  0.9123  0.6377
 4566TIP3   OH213654   5.578   4.178   4.016  0.2615  0.3803 -0.2369
 4566TIP3    H113655   5.653   4.181   4.076  0.6618 -0.8242 -0.6468
 4566TIP3    H213656   5.604   4.115   3.949 -0.9219  0.3254 -0.6625
 4567TIP3   OH213657   6.665   6.800   1.344 -0.4305 -0.5764 -0.4028
 4567TIP3    H113658   6.660   6.746   1.423  0.8714  2.0076  1.6049
 4567TIP3    H213659   6.751   6.780   1.307  0.1365  0.1899  0.4520
 4568TIP3   OH213660   4.115   3.513   6.539  0.0646  0.1154  0.6100
 4568TIP3    H113661   4.072   3.476   6.616  0.6280  3.3275  2.6614
 4568TIP3    H213662   4.060   3.588   6.515  0.8654  0.2148 -1.0269
 4569TIP3   OH213663   1.640   2.106   3.090  0.1862 -0.1083 -0.3647
 4569TIP3    H113664   1.560   2.074   3.049  0.6422  0.1692 -1.4937
 4569TIP3    H213665   1.632   2.201   3.086  1.1390 -0.0589 -1.6655
 4570TIP3   OH213666   0.729   1.009   5.925 -0.1054  0.4602 -0.0308
 4570TIP3    H113667   0.813   1.037   5.962  0.2050 -0.3797 -0.0932
 4570TIP3    H213668   0.753   0.961   5.845 -0.7358  1.8117 -1.0887
 4571TIP3   OH213669   5.288   5.756   6.291 -0.1997  0.0639 -0.1430
 4571TIP3    H113670   5.287   5.790   6.202 -1.4813 -0.0852 -0.2059
 4571TIP3    H213671   5.261   5.665   6.283 -0.6325  0.1325  0.4247
 4572TIP3   OH213672   5.434   6.552   5.158 -0.5516 -0.6404 -0.0776
 4572TIP3    H113673   5.508   6.503   5.122 -0.4376 -1.7352  1.5480
 4572TIP3    H213674   5.362   6.489   5.157 -0.6577 -0.5588  1.1364
 4573TIP3   OH213675   2.015   5.718   1.895 -0.3205 -0.3025  0.1131
 4573TIP3    H113676   1.997   5.632   1.934  0.2818 -0.5676 -0.1622
 4573TIP3    H213677   1.947   5.729   1.829 -1.3763  0.1727  1.2441
 4574TIP3   OH213678   1.717   2.960   0.442 -0.2975  0.1161 -0.1000
 4574TIP3    H113679   1.752   3.049   0.446  0.2506 -0.1490  2.7233
 4574TIP3    H213680   1.623   2.971   0.458 -0.2300  0.1956  0.2505
 4575TIP3   OH213681   7.634   7.561   5.315  0.6252 -0.0587 -0.5652
 4575TIP3    H113682   7.611   7.630   5.252  0.0973 -0.4193 -0.7755
 4575TIP3    H213683   7.575   7.489   5.293 -0.4214  0.2450  1.1383
 4576TIP3   OH213684   1.082   1.237   4.662 -0.4193  0.5006 -0.0445
 4576TIP3    H113685   1.140   1.187   4.604 -0.3464  0.6663 -0.1144
 4576TIP3    H213686   0.996   1.195   4.651 -0.2544  0.0785  0.2744
 4577TIP3   OH213687   4.563   5.742   0.967  0.6453  0.2626 -0.2585
 4577TIP3    H113688   4.552   5.652   0.937  0.1741  0.7003 -1.4811
 4577TIP3    H213689   4.568   5.736   1.062  1.7314 -1.1585 -0.3721
 4578TIP3   OH213690   4.065   3.737   0.496  0.2981  0.0262  0.0724
 4578TIP3    H113691   4.056   3.832   0.489  0.7435  0.0747  0.1570
 4578TIP3    H213692   4.051   3.706   0.406  2.3810  0.3663 -0.4263
 4579TIP3   OH213693   1.910   5.423   0.564  0.1353 -0.0567 -0.7914
 4579TIP3    H113694   2.001   5.453   0.576 -0.2151  1.0602 -0.8147
 4579TIP3    H213695   1.919   5.333   0.534  1.1957 -1.0842  2.1920
 4580TIP3   OH213696   5.649   2.714   0.790  0.0088  0.5705 -0.0858
 4580TIP3    H113697   5.720   2.709   0.726  1.1693  3.3096  0.8622
 4580TIP3    H213698   5.569   2.701   0.738  1.0392 -0.0140 -1.5920
 4581TIP3   OH213699   0.494   0.495   1.887  0.1625 -0.7449  0.0816
 4581TIP3    H113700   0.498   0.417   1.943  0.4117  0.7760  2.3153
 4581TIP3    H213701   0.584   0.527   1.886 -0.4259  1.1086  1.6576
 4582TIP3   OH213702   1.526   7.692   0.142  0.1488 -0.0813 -0.1548
 4582TIP3    H113703   1.488   7.606   0.126  0.5450 -0.7961  2.3210
 4582TIP3    H213704   1.456   7.742   0.185  0.1642  0.6329 -0.9120
 4583TIP3   OH213705   2.825   4.969   4.303 -0.0678  0.2772 -0.5094
 4583TIP3    H113706   2.854   4.889   4.348 -0.6463  0.1882 -0.2888
 4583TIP3    H213707   2.744   4.993   4.347 -0.3658  0.4869 -1.1719
 4584TIP3   OH213708   3.826   7.172   3.379 -0.2120  0.3198 -0.0971
 4584TIP3    H113709   3.878   7.250   3.361  0.1507  0.1450  0.1842
 4584TIP3    H213710   3.891   7.101   3.385 -0.6228 -0.2133 -1.5283
 4585TIP3   OH213711   4.278   7.784   4.850  0.5745 -0.2368  0.3051
 4585TIP3    H113712   4.343   7.741   4.795  0.1661  0.4720 -0.7568
 4585TIP3    H213713   4.327   7.813   4.927  0.8882 -2.4206  0.9875
 4586TIP3   OH213714   4.925   6.346   5.935 -0.1106 -0.0403  0.6920
 4586TIP3    H113715   4.844   6.394   5.951  0.1154  0.9309 -0.8326
 4586TIP3    H213716   4.945   6.362   5.843  1.4329 -0.8461  0.8423
 4587TIP3   OH213717   1.079   7.096   3.617 -0.0165 -0.0118 -0.3043
 4587TIP3    H113718   1.119   7.176   3.651 -2.9737  0.6515  2.0021
 4587TIP3    H213719   1.124   7.025   3.662  0.8471  0.4639 -0.3870
 4588TIP3   OH213720   7.819   0.747   0.034 -0.0559 -0.0585 -0.0297
 4588TIP3    H113721   7.892   0.763   0.093  0.2354  0.4573 -0.5165
 4588TIP3    H213722   7.849   0.780  -0.051 -0.0358 -1.7933 -0.7383
 4589TIP3   OH213723   6.978   2.498   2.588 -0.1978 -0.5435  0.3706
 4589TIP3    H113724   7.031   2.424   2.618  0.0802  0.0591  1.4429
 4589TIP3    H213725   6.901   2.457   2.548  1.7524 -1.4847 -2.7396
 4590TIP3   OH213726   1.758   4.416   0.195  0.1274 -0.1134  0.0098
 4590TIP3    H113727   1.716   4.491   0.237  0.4026  0.5386 -0.8519
 4590TIP3    H213728   1.852   4.434   0.202  0.2221 -0.6936  0.3507
 4591TIP3   OH213729   3.513   5.494   1.246 -0.2050  0.2938  0.0234
 4591TIP3    H113730   3.457   5.435   1.297  0.4195  1.4847  2.2008
 4591TIP3    H213731   3.596   5.495   1.293  0.0437  2.3019 -0.3973
 4592TIP3   OH213732   3.137   1.530   3.724 -0.9964  0.2746  0.0897
 4592TIP3    H113733   3.108   1.480   3.647  0.3096 -0.6636  0.1741
 4592TIP3    H213734   3.092   1.488   3.798 -0.6205 -0.1902  0.0578
 4593TIP3   OH213735   1.727   0.091   5.587 -0.5502  0.1860  0.1838
 4593TIP3    H113736   1.662   0.102   5.518 -1.8634 -0.7036  1.2091
 4593TIP3    H213737   1.793   0.033   5.549  0.5105  2.2839 -1.3834
 4594TIP3   OH213738   1.074   6.807   6.394  0.6856 -0.5143 -0.3386
 4594TIP3    H113739   1.013   6.793   6.466  1.5493  0.3261  0.5853
 4594TIP3    H213740   1.076   6.902   6.383  0.6703 -0.6251 -1.3982
 4595TIP3   OH213741   6.423   2.216   0.375  0.0698  0.2039 -0.0383
 4595TIP3    H113742   6.444   2.303   0.410 -2.1241  0.8910 -0.2809
 4595TIP3    H213743   6.448   2.155   0.444 -0.1992  1.2037  0.9683
 4596TIP3   OH213744   7.366   6.455   6.491  0.7892  0.2296 -0.2554
 4596TIP3    H113745   7.409   6.493   6.414 -0.9135  0.1618 -1.3012
 4596TIP3    H213746   7.401   6.366   6.497  0.5823  0.0743 -1.2474
 4597TIP3   OH213747   2.403   3.495   4.550  0.5044 -0.0670 -0.8634
 4597TIP3    H113748   2.398   3.404   4.578  1.6099 -0.5863 -2.2675
 4597TIP3    H213749   2.319   3.533   4.577 -0.3320 -1.7259 -1.0610
 4598TIP3   OH213750   6.535   3.099   3.234 -0.3339 -0.1059 -0.3000
 4598TIP3    H113751   6.558   3.041   3.306  1.6008  0.4575 -0.4082
 4598TIP3    H213752   6.466   3.052   3.186  0.5733 -1.9227  0.1013
 4599TIP3   OH213753   2.203   2.227   2.695 -0.5842  0.3076 -0.5161
 4599TIP3    H113754   2.288   2.220   2.737 -0.0089  0.0635 -1.6949
 4599TIP3    H213755   2.195   2.320   2.672 -1.2082  0.5824  0.7265
 4600TIP3   OH213756   2.648   3.037   3.302  0.0516  0.2173 -0.3659
 4600TIP3    H113757   2.740   3.011   3.303  0.2582  0.9206 -0.4233
 4600TIP3    H213758   2.649   3.127   3.269 -0.6975  0.0858 -0.7571
 4601TIP3   OH213759   1.421   4.422   3.247  0.2125  0.1696  0.0749
 4601TIP3    H113760   1.505   4.464   3.231 -1.0400  2.7726 -0.3505
 4601TIP3    H213761   1.366   4.450   3.173 -2.1603  2.0454  2.3519
 4602TIP3   OH213762   5.329   0.869   6.170  0.3529  0.1660  0.0186
 4602TIP3    H113763   5.370   0.834   6.091  0.1751 -1.4081  0.5838
 4602TIP3    H213764   5.361   0.959   6.176  0.3252  0.3381 -1.8624
 4603TIP3   OH213765   4.813   6.429   2.591  0.0440 -0.6901  0.7995
 4603TIP3    H113766   4.754   6.366   2.633 -0.7770  0.0000  0.7117
 4603TIP3    H213767   4.896   6.420   2.638  0.1254 -2.2605  0.3904
 4604TIP3   OH213768   0.084   6.824   5.198 -0.6419 -0.5272 -0.0629
 4604TIP3    H113769   0.089   6.820   5.293 -0.0886 -0.6841 -0.0934
 4604TIP3    H213770   0.004   6.874   5.179 -0.5315 -0.1440  0.4832
 4605TIP3   OH213771   2.524   1.384   0.037 -0.3342  0.0885  0.3909
 4605TIP3    H113772   2.443   1.403   0.084  0.8637 -0.3574  2.7948
 4605TIP3    H213773   2.569   1.469   0.032 -0.1579  0.0127  0.6716
 4606TIP3   OH213774   7.317   4.061   0.783  0.4730 -0.4981 -0.1835
 4606TIP3    H113775   7.229   4.076   0.749  0.9077  0.6972 -0.8405
 4606TIP3    H213776   7.366   4.028   0.707  0.9516  0.2765 -0.2200
 4607TIP3   OH213777   4.099   6.425   4.914  0.0953 -0.3530  0.5041
 4607TIP3    H113778   4.012   6.459   4.897  0.6671  0.9430  0.0642
 4607TIP3    H213779   4.151   6.453   4.838  1.1302 -0.2336  1.2308
 4608TIP3   OH213780   4.353   3.673   4.163  0.1525  0.0940 -0.0970
 4608TIP3    H113781   4.271   3.633   4.194 -0.0595  1.5045  1.3180
 4608TIP3    H213782   4.332   3.709   4.078 -0.9909  1.1947  0.6182
 4609TIP3   OH213783   1.938   3.230   2.307 -0.3265 -0.2922 -0.0009
 4609TIP3    H113784   1.987   3.209   2.386 -0.4716 -0.1584  0.1277
 4609TIP3    H213785   1.851   3.193   2.323 -1.1273  1.8112  0.9678
 4610TIP3   OH213786   5.709   5.807   2.181 -1.0768  0.6630 -0.6306
 4610TIP3    H113787   5.618   5.787   2.163 -1.0010 -0.9786  0.6090
 4610TIP3    H213788   5.758   5.767   2.109 -1.3014  1.6717 -1.3755
 4611TIP3   OH213789   0.570   4.642   1.338  0.0611  0.2324 -0.5224
 4611TIP3    H113790   0.593   4.672   1.426 -1.0794 -0.1726 -0.0711
 4611TIP3    H213791   0.594   4.550   1.337  2.5712  0.8075 -1.5606
 4612TIP3   OH213792   0.479   7.093   3.531 -0.7396 -0.1327  0.0665
 4612TIP3    H113793   0.515   7.169   3.485 -0.7519  1.0955  2.0020
 4612TIP3    H213794   0.431   7.045   3.463  0.1753  0.9736 -1.4409
 4613TIP3   OH213795   0.414   7.483   6.611 -0.4490 -0.1502  0.2006
 4613TIP3    H113796   0.423   7.420   6.682 -0.2355 -1.1926 -0.7201
 4613TIP3    H213797   0.500   7.487   6.570 -1.2141 -1.6965 -1.7126
 4614TIP3   OH213798   7.912   6.389   1.946 -0.0301 -0.2568  0.3186
 4614TIP3    H113799   7.906   6.403   2.040  1.5542 -0.1420  0.4300
 4614TIP3    H213800   7.875   6.468   1.907  1.0914  0.5703  0.8764
 4615TIP3   OH213801   0.482   3.987   3.531  0.2111  0.1780 -0.0181
 4615TIP3    H113802   0.476   4.019   3.621 -0.5468  0.7198 -0.2506
 4615TIP3    H213803   0.434   3.904   3.532 -0.2809  0.4558 -0.0375
 4616TIP3   OH213804   2.121   3.697   1.740 -0.4325  0.1674 -0.0618
 4616TIP3    H113805   2.207   3.657   1.755  0.7504  2.0564 -1.4209
 4616TIP3    H213806   2.072   3.680   1.821  1.3346 -0.6823  0.8659
 4617TIP3   OH213807   6.788   1.833   1.664 -0.1160  0.5129 -0.5034
 4617TIP3    H113808   6.754   1.917   1.695  1.3474  0.6710  0.8256
 4617TIP3    H213809   6.778   1.774   1.738  2.4646  0.6082  0.0369
 4618TIP3   OH213810   4.347   7.112   6.453 -0.2841  0.5817  0.3204
 4618TIP3    H113811   4.256   7.131   6.479 -0.1187  0.5867  0.9013
 4618TIP3    H213812   4.399   7.133   6.530  0.5093  2.9238 -0.7622
 4619TIP3   OH213813   3.726   4.930   5.151 -0.6924 -0.5955  0.0335
 4619TIP3    H113814   3.811   4.890   5.165  0.3771  1.5258 -0.0090
 4619TIP3    H213815   3.663   4.859   5.166  1.0947 -2.7293 -1.8293
 4620TIP3   OH213816   0.779   6.199   2.413  0.2085  0.3393 -0.4846
 4620TIP3    H113817   0.844   6.269   2.412 -0.0458  0.5768 -0.7533
 4620TIP3    H213818   0.830   6.119   2.425  0.4936  0.5772 -0.1053
 4621TIP3   OH213819   3.814   4.463   5.520  0.2426 -0.0892 -0.1877
 4621TIP3    H113820   3.756   4.448   5.594 -1.4060 -0.3213 -1.4554
 4621TIP3    H213821   3.807   4.557   5.502  0.8732  0.0213  0.1239
 4622TIP3   OH213822   0.210   5.668   3.150 -0.2491 -0.1151  0.4983
 4622TIP3    H113823   0.270   5.601   3.182 -0.3287 -0.7754 -0.6967
 4622TIP3    H213824   0.133   5.660   3.207 -0.9013 -2.1174 -0.5723
 4623TIP3   OH213825   0.776   6.700   5.958  0.0763  0.0939 -0.7224
 4623TIP3    H113826   0.766   6.789   5.924  2.8449  0.9537  0.4584
 4623TIP3    H213827   0.705   6.690   6.021 -1.0657  0.9410 -1.8350
 4624TIP3   OH213828   3.390   2.954   5.505 -0.4452  0.1420  0.3559
 4624TIP3    H113829   3.419   2.864   5.486 -1.2993  0.0177 -0.4415
 4624TIP3    H213830   3.472   3.002   5.521  0.1248 -0.4866 -0.5404
 4625TIP3   OH213831   5.402   7.128   0.915 -0.4347  0.3308 -0.4576
 4625TIP3    H113832   5.367   7.190   0.852 -2.0399  0.8704  0.8722
 4625TIP3    H213833   5.430   7.182   0.989  3.8682  0.0038 -1.5711
 4626TIP3   OH213834   7.274   3.424   1.153 -0.2949  0.1284  0.2570
 4626TIP3    H113835   7.243   3.514   1.154 -0.2143  0.1729 -0.6573
 4626TIP3    H213836   7.368   3.430   1.141 -0.1593 -0.0646  1.1196
 4627TIP3   OH213837   5.793   3.275   3.391  0.7375  0.0236  0.2734
 4627TIP3    H113838   5.824   3.184   3.397  0.7805  0.0448  0.3597
 4627TIP3    H213839   5.827   3.306   3.307  1.8091  0.3780  0.8268
 4628TIP3   OH213840   4.775   0.552   1.992  0.0131 -0.2275  0.7123
 4628TIP3    H113841   4.727   0.634   2.002  0.8553  0.9420 -3.1384
 4628TIP3    H213842   4.712   0.484   2.016 -1.7725  1.4264  0.9403
 4629TIP3   OH213843   3.890   6.557   1.156 -0.2040 -0.2565 -0.2073
 4629TIP3    H113844   3.983   6.534   1.158 -0.2632 -0.4313  1.4955
 4629TIP3    H213845   3.845   6.477   1.181 -0.8242 -0.1218 -0.8439
 4630TIP3   OH213846   1.469   3.842   2.452 -0.4742  0.4579  0.0043
 4630TIP3    H113847   1.463   3.810   2.362 -1.9410 -0.7232  0.4824
 4630TIP3    H213848   1.379   3.841   2.484  0.1739 -0.6858  1.9912
 4631TIP3   OH213849   0.527   2.840   6.134 -0.4250  0.3722  0.1958
 4631TIP3    H113850   0.439   2.836   6.097  0.3307 -0.5586 -1.6433
 4631TIP3    H213851   0.518   2.891   6.214 -2.6419  0.2173  0.0903
 4632TIP3   OH213852   7.682   7.094   1.778 -0.1695 -0.1184  0.3855
 4632TIP3    H113853   7.747   7.132   1.718  0.4096 -0.7442  0.5936
 4632TIP3    H213854   7.598   7.121   1.743  0.2170  1.1142  0.3762
 4633TIP3   OH213855   2.678   6.540   4.304  0.4818  0.0538  0.9989
 4633TIP3    H113856   2.711   6.590   4.379  0.8439 -0.6678  1.3236
 4633TIP3    H213857   2.585   6.562   4.300  0.7975  1.4233  0.6134
 4634TIP3   OH213858   1.453   2.816   3.948  0.1840 -0.6466 -0.1977
 4634TIP3    H113859   1.488   2.871   4.018  0.4366 -0.1109 -0.7387
 4634TIP3    H213860   1.448   2.874   3.872  0.0552 -1.2624 -0.6660
 4635TIP3   OH213861   1.186   3.508   5.368  0.1332 -0.5343 -0.1626
 4635TIP3    H113862   1.121   3.516   5.438 -0.2277 -2.1237 -0.2696
 4635TIP3    H213863   1.264   3.473   5.412  0.7683  0.8917 -0.1245
 4636TIP3   OH213864   4.606   2.780   5.373 -0.0941  0.1724 -0.1027
 4636TIP3    H113865   4.623   2.712   5.307 -0.5771 -0.4911  0.4340
 4636TIP3    H213866   4.693   2.803   5.406  0.1210  0.2380 -0.7010
 4637TIP3   OH213867   0.505   5.798   0.084 -0.4944 -0.6132  0.4529
 4637TIP3    H113868   0.569   5.870   0.080 -0.5107 -0.4167  2.7478
 4637TIP3    H213869   0.442   5.818   0.015  1.0205  0.0561 -0.7974
 4638TIP3   OH213870   5.225   6.764   1.110 -0.5478 -0.7499 -0.0481
 4638TIP3    H113871   5.269   6.803   1.034 -2.2729  0.6338 -0.4004
 4638TIP3    H213872   5.272   6.800   1.185 -1.2262  0.9529 -0.4036
 4639TIP3   OH213873   7.725   6.393   1.678 -0.4096  0.0601 -0.0323
 4639TIP3    H113874   7.784   6.350   1.616  0.5127  0.3307  0.6452
 4639TIP3    H213875   7.782   6.448   1.732 -1.5430  2.3097 -0.9707
 4640TIP3   OH213876   8.096   6.682   0.048  0.1764  0.0951 -0.1524
 4640TIP3    H113877   8.049   6.649   0.124  1.5914  2.1341  1.7199
 4640TIP3    H213878   8.169   6.733   0.084  1.7373  0.0174 -2.8857
 4641TIP3   OH213879   8.170   6.572   4.176 -0.0268 -0.0769 -0.1446
 4641TIP3    H113880   8.168   6.668   4.167 -2.5702 -0.1778 -1.6317
 4641TIP3    H213881   8.149   6.557   4.268  2.0461  0.7417  0.5363
 4642TIP3   OH213882   3.750   1.620   0.440  0.2482 -1.0576  0.4002
 4642TIP3    H113883   3.792   1.641   0.357 -1.8821 -1.4979 -0.8571
 4642TIP3    H213884   3.689   1.549   0.419 -0.2336 -1.2914  2.3827
 4643TIP3   OH213885   5.401   1.324   3.950  0.2804 -0.3516 -0.3284
 4643TIP3    H113886   5.445   1.394   3.902 -0.7956 -1.4169 -3.0888
 4643TIP3    H213887   5.472   1.264   3.975  0.7600 -0.8250 -2.5562
 4644TIP3   OH213888   1.422   2.795   6.640 -0.1202  0.1018  0.0542
 4644TIP3    H113889   1.394   2.808   6.550  1.8642 -1.3053 -0.8307
 4644TIP3    H213890   1.390   2.707   6.662 -2.2603  1.1381  1.4636
 4645TIP3   OH213891   0.448   2.163   2.679  0.0908  0.1665 -0.2909
 4645TIP3    H113892   0.353   2.152   2.682  0.3043 -2.0516  0.1689
 4645TIP3    H213893   0.471   2.150   2.587  0.0927 -1.0764 -0.1289
 4646TIP3   OH213894   4.909   0.986   0.111 -0.1162  0.1020 -0.4741
 4646TIP3    H113895   4.835   0.979   0.051 -0.7866 -0.4985  0.3912
 4646TIP3    H213896   4.986   0.970   0.057 -0.8247 -2.3123 -0.8610
 4647TIP3   OH213897   7.197   3.034   0.482  0.2636 -0.4411 -0.1720
 4647TIP3    H113898   7.220   3.092   0.555 -0.7893  0.7331 -0.7324
 4647TIP3    H213899   7.183   2.949   0.523  3.0388 -0.6607  0.5255
 4648TIP3   OH213900   5.119   2.131   1.317 -0.2681 -0.2835  1.3493
 4648TIP3    H113901   5.139   2.097   1.230 -1.4301 -1.9757  1.7005
 4648TIP3    H213902   5.045   2.190   1.303 -0.4612 -0.5615  1.1935
 4649TIP3   OH213903   4.489   1.697   3.465  0.2417 -0.4918  0.6066
 4649TIP3    H113904   4.482   1.784   3.425  0.2268 -0.2083  1.2042
 4649TIP3    H213905   4.583   1.684   3.476  0.1951  0.3754  2.4355
 4650TIP3   OH213906   6.587   2.087   3.363  0.3622 -0.5065  0.3020
 4650TIP3    H113907   6.594   2.179   3.390 -1.7752 -0.6238  1.5746
 4650TIP3    H213908   6.544   2.090   3.278 -0.3389 -0.3201  0.6544
 4651TIP3   OH213909   3.300   0.150   5.924  0.0153 -0.1403  0.5051
 4651TIP3    H113910   3.275   0.193   6.006 -0.9166 -1.6088  1.0181
 4651TIP3    H213911   3.383   0.106   5.945  1.0689  1.4751 -0.0726
 4652TIP3   OH213912   1.299   4.306   0.914 -0.1530  0.3458  0.1226
 4652TIP3    H113913   1.278   4.327   1.005  1.0685 -1.5282  0.8869
 4652TIP3    H213914   1.362   4.374   0.888 -0.4691  0.8638  0.6734
 4653TIP3   OH213915   0.163   1.389   5.432 -0.4931 -0.4142  0.3875
 4653TIP3    H113916   0.113   1.439   5.368 -1.9237  1.1733  2.5783
 4653TIP3    H213917   0.192   1.455   5.496  1.4458 -1.8101  1.0251
 4654TIP3   OH213918   7.180   0.566   4.278  0.4266  0.1079 -0.0258
 4654TIP3    H113919   7.102   0.590   4.229  0.0213  0.4679  0.7682
 4654TIP3    H213920   7.150   0.498   4.340  1.1376 -1.0516 -0.9161
 4655TIP3   OH213921   5.266   1.461   5.286 -0.0139  0.1518 -0.0162
 4655TIP3    H113922   5.227   1.415   5.212  0.3473 -1.0722  0.5282
 4655TIP3    H213923   5.255   1.402   5.360  2.4309 -0.0643  0.2490
 4656TIP3   OH213924   7.289   6.733   3.400 -0.6296 -0.2115  0.1802
 4656TIP3    H113925   7.345   6.687   3.462  0.4386  0.2413 -0.4212
 4656TIP3    H213926   7.299   6.685   3.318 -0.5046  0.3374 -0.1295
 4657TIP3   OH213927   1.697   6.668   1.630  0.6089 -0.4115 -0.1134
 4657TIP3    H113928   1.633   6.682   1.560  0.4662 -0.8051 -0.0649
 4657TIP3    H213929   1.769   6.727   1.608 -0.2137  0.8357  0.4083
 4658TIP3   OH213930   2.314   3.645   1.397 -0.9961  0.3608  0.4547
 4658TIP3    H113931   2.358   3.583   1.455 -0.9842  1.2950  1.4656
 4658TIP3    H213932   2.221   3.638   1.420 -1.0030  0.6697  0.5255
 4659TIP3   OH213933   5.627   2.942   5.518 -0.1559  0.3274 -0.2447
 4659TIP3    H113934   5.532   2.939   5.530 -0.1196 -2.0636 -0.0503
 4659TIP3    H213935   5.657   3.005   5.584 -1.3438 -1.5120  2.2336
 4660TIP3   OH213936   3.711   2.733   0.322  0.0095  0.3723 -0.6687
 4660TIP3    H113937   3.683   2.779   0.243 -1.9898 -0.2897 -0.3780
 4660TIP3    H213938   3.637   2.739   0.382  0.9982 -0.2731  0.6785
 4661TIP3   OH213939   3.877   6.736   5.742  0.9960  0.1132 -0.7697
 4661TIP3    H113940   3.837   6.650   5.731 -1.3530  0.8275  1.2052
 4661TIP3    H213941   3.873   6.776   5.655 -2.8726  0.1440 -0.7256
 4662TIP3   OH213942   1.112   5.597   2.949  0.0826 -0.3196  0.4513
 4662TIP3    H113943   1.106   5.519   2.895 -0.3556 -0.6129  0.9207
 4662TIP3    H213944   1.191   5.584   3.001 -0.1502 -0.5827  0.7383
 4663TIP3   OH213945   3.076   7.124   6.784  0.4479 -0.1254  1.0792
 4663TIP3    H113946   3.074   7.127   6.688 -1.2930  0.1498  1.0896
 4663TIP3    H213947   3.167   7.107   6.805  0.6796 -1.3625 -0.6615
 4664TIP3   OH213948   4.996   1.081   0.495 -0.1293 -0.0612  0.4468
 4664TIP3    H113949   4.929   1.037   0.547 -0.4618 -1.6591 -1.2286
 4664TIP3    H213950   5.072   1.022   0.498  0.3806  0.5709  0.3432
 4665TIP3   OH213951   2.612   5.127   3.631 -0.2496 -0.2106  0.3590
 4665TIP3    H113952   2.660   5.177   3.565 -0.6968  1.1579  1.0412
 4665TIP3    H213953   2.539   5.089   3.584  1.4805 -2.4347 -0.7314
 4666TIP3   OH213954   3.962   3.671   3.522  0.5469 -0.0469  0.1314
 4666TIP3    H113955   4.020   3.743   3.547  2.2644 -1.7804  1.4285
 4666TIP3    H213956   3.947   3.623   3.603 -2.5130  0.1025 -0.2236
 4667TIP3   OH213957   5.312   1.328   3.662 -0.0067 -0.3118 -0.0107
 4667TIP3    H113958   5.394   1.281   3.675  0.7618  0.8141 -0.6167
 4667TIP3    H213959   5.275   1.338   3.749  0.2507 -1.2746  0.2101
 4668TIP3   OH213960   5.627   0.794   5.742  0.0921 -0.3514  0.0713
 4668TIP3    H113961   5.712   0.788   5.785 -0.5601 -0.8253  1.3627
 4668TIP3    H213962   5.636   0.867   5.681  1.9159 -1.3893 -1.0137
 4669TIP3   OH213963   2.580   2.711   0.279 -0.1593  0.1343 -0.1473
 4669TIP3    H113964   2.672   2.703   0.306 -0.6483 -1.2075  1.3472
 4669TIP3    H213965   2.582   2.708   0.184  1.3343 -0.0845 -0.1322
 4670TIP3   OH213966   1.541   7.770   5.089 -0.5615 -0.4695  0.0976
 4670TIP3    H113967   1.559   7.699   5.028 -0.1296 -0.4724  0.2240
 4670TIP3    H213968   1.517   7.844   5.034  1.4302  0.0173 -0.1987
 4671TIP3   OH213969   3.320   3.879   3.547  0.3355  0.0819 -0.3587
 4671TIP3    H113970   3.337   3.936   3.622 -0.9259  0.3507 -0.2435
 4671TIP3    H213971   3.348   3.930   3.471  0.5707  0.2649 -0.1510
 4672TIP3   OH213972   5.840   2.129   4.878  0.0337  0.1987  0.0367
 4672TIP3    H113973   5.844   2.182   4.799 -1.6430  1.5985  0.8238
 4672TIP3    H213974   5.931   2.108   4.898  0.7733  2.7864 -0.3225
 4673TIP3   OH213975   1.464   7.214   6.139 -0.2111 -0.6418  0.4579
 4673TIP3    H113976   1.494   7.276   6.072 -2.2041 -0.4440 -0.3020
 4673TIP3    H213977   1.489   7.128   6.104  1.1509 -0.3982  0.7703
 4674TIP3   OH213978   4.857   2.234   5.636  0.1376  0.3719  0.1003
 4674TIP3    H113979   4.867   2.202   5.546  2.4257  1.0453  0.0588
 4674TIP3    H213980   4.855   2.329   5.627  1.3555  0.4738  0.8267
 4675TIP3   OH213981   3.376   6.998   6.123  0.0677 -0.7542  0.6168
 4675TIP3    H113982   3.457   6.948   6.113  0.0838 -0.3691 -1.4541
 4675TIP3    H213983   3.327   6.982   6.043 -1.7483 -0.6354  1.6372
 4676TIP3   OH213984   0.256   4.527   1.749  0.3384  0.0653  0.3459
 4676TIP3    H113985   0.181   4.576   1.783  0.8945  0.6064  0.8170
 4676TIP3    H213986   0.218   4.449   1.711 -0.3979 -0.1199  1.4069
 4677TIP3   OH213987   8.055   0.927   1.168  0.2869 -0.4118 -0.8189
 4677TIP3    H113988   8.093   1.015   1.166 -2.6086  0.9666 -0.0962
 4677TIP3    H213989   8.100   0.883   1.241  1.7758  0.4165 -1.1897
 4678TIP3   OH213990   0.289   3.369   4.456 -0.0369 -0.3271  0.4039
 4678TIP3    H113991   0.195   3.379   4.440 -0.2180 -0.2395  1.4503
 4678TIP3    H213992   0.295   3.334   4.545  0.8956 -1.2749 -0.0116
 4679TIP3   OH213993   4.169   3.187   2.769 -0.1646 -0.7439 -0.1122
 4679TIP3    H113994   4.165   3.137   2.688 -0.6097  0.9832 -1.2058
 4679TIP3    H213995   4.082   3.176   2.809 -0.4398 -0.4179 -0.6176
 4680TIP3   OH213996   5.938   5.173   1.084  0.5533 -0.2326 -0.6324
 4680TIP3    H113997   5.916   5.098   1.027 -1.5872  1.0488 -1.5984
 4680TIP3    H213998   5.974   5.133   1.163  0.0302 -2.2583 -1.3538
 4681TIP3   OH213999   3.350   1.757   4.314  0.6552  0.1010  0.4111
 4681TIP3    H114000   3.400   1.694   4.367  0.9487 -0.2203 -0.2440
 4681TIP3    H214001   3.284   1.792   4.375  2.4150  1.4424  1.6513
 4682TIP3   OH214002   5.414   1.822   3.506  0.4358 -0.6546 -0.0210
 4682TIP3    H114003   5.482   1.787   3.448 -0.2200 -0.1264 -1.1448
 4682TIP3    H214004   5.376   1.744   3.548  1.4629 -0.9802  0.3409
 4683TIP3   OH214005   2.024   4.007   0.803 -0.2603 -0.1428  0.5196
 4683TIP3    H114006   2.042   3.917   0.776 -0.6847  0.0799 -0.5258
 4683TIP3    H214007   1.979   4.047   0.729  0.0179  0.9736  0.9258
 4684TIP3   OH214008   8.266   1.439   3.414  0.9028  0.2252 -0.6221
 4684TIP3    H114009   8.328   1.375   3.379 -0.9887 -1.9715 -0.2976
 4684TIP3    H214010   8.198   1.445   3.347  1.0439  1.9565 -0.6402
 4685TIP3   OH214011   8.187   6.220   0.152 -0.4689 -0.0636 -0.0385
 4685TIP3    H114012   8.199   6.215   0.058 -0.0768 -2.3002  0.0747
 4685TIP3    H214013   8.267   6.260   0.186  0.2289 -1.0565 -0.5024
 4686TIP3   OH214014   3.501   2.259   6.378  0.2501 -0.2501  1.0900
 4686TIP3    H114015   3.562   2.296   6.442 -1.3677 -0.7884  3.0115
 4686TIP3    H214016   3.430   2.223   6.430 -2.7972  2.1013 -1.0876
 4687TIP3   OH214017   1.562   7.633   4.856 -0.0746 -0.2726  0.2176
 4687TIP3    H114018   1.562   7.729   4.848 -0.4463 -0.3776 -1.3759
 4687TIP3    H214019   1.505   7.603   4.786  0.6265 -1.6989  0.2186
 4688TIP3   OH214020   0.066   4.037   3.484 -0.1443 -0.2407 -0.0725
 4688TIP3    H114021   0.002   4.088   3.533 -1.7777  0.1699 -2.4372
 4688TIP3    H214022   0.103   3.976   3.548 -2.0587  0.3109  1.6523
 4689TIP3   OH214023   3.418   1.687   2.057 -0.2656  0.2146 -0.3319
 4689TIP3    H114024   3.388   1.738   2.133 -1.4732  0.5071 -0.9865
 4689TIP3    H214025   3.420   1.597   2.089  3.4782  0.7251  1.3426
 4690TIP3   OH214026   4.007   3.962   0.883 -0.5035  0.5587  0.4625
 4690TIP3    H114027   4.045   4.049   0.892  0.0610  0.3207  0.4450
 4690TIP3    H214028   3.959   3.965   0.800  1.9620 -0.0191 -1.0894
 4691TIP3   OH214029   0.853   2.072   5.727  0.3026  0.1085 -0.3516
 4691TIP3    H114030   0.781   2.120   5.686 -1.2390 -0.1652  1.8482
 4691TIP3    H214031   0.817   2.044   5.812  1.2005 -4.6413 -1.2999
 4692TIP3   OH214032   4.824   7.251   4.685  0.1233 -0.2594 -0.7071
 4692TIP3    H114033   4.796   7.259   4.776  1.3177 -0.9316 -0.2557
 4692TIP3    H214034   4.760   7.193   4.645  0.0433 -0.6180 -0.0746
 4693TIP3   OH214035   1.033   5.922   5.760  0.6760 -0.4605  0.4750
 4693TIP3    H114036   0.969   5.925   5.831 -0.3748 -1.4309 -0.3971
 4693TIP3    H214037   1.019   5.837   5.719 -0.1333  0.8315 -2.1356
 4694TIP3   OH214038   0.915   0.897   6.430 -0.5601 -0.3705 -0.2038
 4694TIP3    H114039   0.836   0.887   6.484 -0.8245  1.3657 -0.1928
 4694TIP3    H214040   0.981   0.843   6.474 -0.8175  0.8525  1.8230
 4695TIP3   OH214041   5.667   2.619   1.054  0.0334  0.2951 -0.0543
 4695TIP3    H114042   5.674   2.661   0.968  1.6297 -0.5997 -0.3952
 4695TIP3    H214043   5.717   2.538   1.046 -3.1245 -1.9236  0.4965
 4696TIP3   OH214044   4.961   5.222   1.314 -0.4009  0.1535 -0.1316
 4696TIP3    H114045   4.894   5.203   1.249 -0.2084  2.4585 -1.1038
 4696TIP3    H214046   5.006   5.138   1.329 -2.9491 -1.2837 -0.0108
 4697TIP3   OH214047   5.065   5.251   4.425  0.0828 -0.2078 -0.3256
 4697TIP3    H114048   5.057   5.331   4.374 -1.1511 -0.9555 -1.3708
 4697TIP3    H214049   5.084   5.182   4.361 -1.7728 -1.2116  0.1249
 4698TIP3   OH214050   6.743   6.187   6.041  0.5652  0.0838 -0.0146
 4698TIP3    H114051   6.706   6.114   5.990  2.2594 -0.6125 -0.3366
 4698TIP3    H214052   6.781   6.145   6.118 -1.0054  1.0117  1.3164
 4699TIP3   OH214053   3.495   1.159   3.235  0.3850  0.3971  0.0031
 4699TIP3    H114054   3.536   1.244   3.253  0.0489  0.5188  0.2196
 4699TIP3    H214055   3.475   1.123   3.322 -0.0947  0.4094 -0.0987
 4700TIP3   OH214056   0.074   3.731   1.212  0.3636 -0.2269  0.3873
 4700TIP3    H114057   0.032   3.718   1.297 -3.8877  1.4911 -1.1928
 4700TIP3    H214058   0.075   3.644   1.172 -2.0158 -0.3623  0.4852
 4701TIP3   OH214059   4.539   7.113   6.703 -0.1328 -0.0535  0.1472
 4701TIP3    H114060   4.560   7.026   6.737 -0.2936 -0.3393 -0.4666
 4701TIP3    H214061   4.609   7.132   6.641 -0.5113 -0.0801 -0.2945
 4702TIP3   OH214062   2.612   6.074   0.608 -0.1667 -0.5696 -0.8831
 4702TIP3    H114063   2.534   6.035   0.646  0.7337 -0.0551  1.6614
 4702TIP3    H214064   2.650   6.005   0.554  0.0836 -2.4983  1.5823
 4703TIP3   OH214065   6.218   5.414   0.392  0.5632  0.2597 -0.2693
 4703TIP3    H114066   6.220   5.510   0.399 -1.4546  0.3255 -0.0712
 4703TIP3    H214067   6.125   5.393   0.382  0.9506 -1.7111  0.0125
 4704TIP3   OH214068   3.585   7.295   3.984  0.3293 -0.6015 -0.1775
 4704TIP3    H114069   3.568   7.363   3.919  1.3788  0.8212  0.9820
 4704TIP3    H214070   3.562   7.213   3.939 -2.3202  0.5540 -1.1554
 4705TIP3   OH214071   1.403   0.384   0.871  0.1787  0.3210  0.2357
 4705TIP3    H114072   1.477   0.337   0.834  0.7003 -0.1564  1.7808
 4705TIP3    H214073   1.435   0.473   0.887  0.0157  0.4708 -0.2616
 4706TIP3   OH214074   3.220   6.780   0.863  0.5913  0.4027  0.2475
 4706TIP3    H114075   3.155   6.743   0.803  1.9485 -1.3552 -0.1985
 4706TIP3    H214076   3.296   6.800   0.808  1.3852 -0.0051  1.1578
 4707TIP3   OH214077   3.683   5.013   6.342  0.2169  0.2703  0.4823
 4707TIP3    H114078   3.655   5.035   6.253  0.7763 -0.4840  0.1075
 4707TIP3    H214079   3.602   4.986   6.386  0.2566 -1.7209 -0.5429
 4708TIP3   OH214080   1.599   7.554   2.099  0.1332  0.0129  0.2286
 4708TIP3    H114081   1.636   7.552   2.010 -0.0097 -2.6330  0.1478
 4708TIP3    H214082   1.676   7.557   2.156  0.3021 -0.4195  0.0292
 4709TIP3   OH214083   0.062   3.232   3.917 -0.1134  1.1548  0.0248
 4709TIP3    H114084   0.106   3.147   3.922 -1.5383  0.4039  0.8768
 4709TIP3    H214085   0.057   3.261   4.008 -0.0243  1.9352 -0.2189
 4710TIP3   OH214086   3.084   2.810   6.675 -0.1454 -0.0261 -0.3322
 4710TIP3    H114087   3.068   2.791   6.767  2.0183  2.2648  0.6185
 4710TIP3    H214088   3.045   2.896   6.660  1.3350  0.5831 -0.9336
 4711TIP3   OH214089   3.121   7.585   6.197  0.3091  0.5994 -0.3140
 4711TIP3    H114090   3.141   7.571   6.290 -1.7687 -1.3379 -0.0865
 4711TIP3    H214091   3.069   7.666   6.196 -0.2112  0.2833  0.3042
 4712TIP3   OH214092   7.715   0.466   5.817  0.1098  0.3050  0.2843
 4712TIP3    H114093   7.656   0.538   5.795  0.9590  1.3152  1.1577
 4712TIP3    H214094   7.662   0.387   5.808 -1.0592  1.0985  0.0239
 4713TIP3   OH214095   2.540   3.640   3.468  0.2301  0.1535 -0.6300
 4713TIP3    H114096   2.466   3.579   3.475  0.5307 -0.2652 -1.0293
 4713TIP3    H214097   2.501   3.726   3.484 -0.2549 -0.1120 -0.3454
 4714TIP3   OH214098   4.225   5.997   0.125 -0.1450 -0.0945  0.1272
 4714TIP3    H114099   4.225   6.029   0.216  1.6743 -1.2743  0.5978
 4714TIP3    H214100   4.164   5.924   0.125 -0.5605  0.2477  0.2566
 4715TIP3   OH214101   3.373   7.418   0.813 -0.2998 -0.4353  0.6433
 4715TIP3    H114102   3.403   7.492   0.760 -1.2563  0.2317  1.0030
 4715TIP3    H214103   3.290   7.391   0.773  0.3075 -1.7018  0.1712
 4716TIP3   OH214104   5.559   5.474   5.420 -0.2265  0.0458  0.0280
 4716TIP3    H114105   5.569   5.568   5.435 -0.1818  0.1735 -0.8025
 4716TIP3    H214106   5.641   5.436   5.450 -0.6564  0.1400  1.4006
 4717TIP3   OH214107   4.918   5.623   2.354 -0.3269  0.1775 -0.2591
 4717TIP3    H114108   4.928   5.680   2.278 -1.6853 -1.6318 -1.8981
 4717TIP3    H214109   5.007   5.597   2.376  0.0183 -0.6830 -2.4173
 4718TIP3   OH214110   2.253   5.207   3.575 -0.8123  0.2242  0.4924
 4718TIP3    H114111   2.250   5.282   3.633 -2.9141  0.9642 -0.4443
 4718TIP3    H214112   2.293   5.240   3.494  1.0622 -0.5048  1.0750
 4719TIP3   OH214113   8.032   7.745   1.963  0.4858  0.6024 -0.1352
 4719TIP3    H114114   7.950   7.791   1.948  0.3271  0.5905  0.6184
 4719TIP3    H214115   8.013   7.687   2.037  0.6886 -0.6650 -1.0501
 4720TIP3   OH214116   3.644   7.233   1.367  0.3828  0.1555 -0.1552
 4720TIP3    H114117   3.600   7.148   1.365 -1.8493  1.2455 -0.4692
 4720TIP3    H214118   3.670   7.244   1.459 -2.5706  0.6420  0.7105
 4721TIP3   OH214119   7.579   2.681   3.595  0.6173  0.1583 -0.0113
 4721TIP3    H114120   7.510   2.662   3.658  0.7567  0.3922  0.2160
 4721TIP3    H214121   7.660   2.655   3.640  1.0021  2.7699  0.9985
 4722TIP3   OH214122   0.216   7.782   5.292 -0.0245 -0.4904 -0.5874
 4722TIP3    H114123   0.266   7.740   5.362 -0.6935  0.1045  0.2694
 4722TIP3    H214124   0.135   7.810   5.333 -0.8777 -0.9994 -1.8465
 4723TIP3   OH214125   4.729   1.502   0.301  0.2622 -0.6549  0.0342
 4723TIP3    H114126   4.803   1.445   0.320  0.2347 -0.5518  0.4653
 4723TIP3    H214127   4.710   1.545   0.384 -1.2498 -1.8033  0.3288
 4724TIP3   OH214128   3.054   1.194   0.778  0.6896  0.3561  0.2122
 4724TIP3    H114129   3.067   1.192   0.683 -0.8476  0.1009 -0.0141
 4724TIP3    H214130   3.023   1.106   0.799 -1.4220  1.1427  0.5576
 4725TIP3   OH214131   0.833   4.302   3.989  0.4356 -0.2386 -0.2386
 4725TIP3    H114132   0.803   4.301   4.080 -0.6973  0.0339 -0.5919
 4725TIP3    H214133   0.914   4.251   3.990  1.4003  1.2256  1.2339
 4726TIP3   OH214134   2.173   3.521   2.145 -0.2260  0.0870  0.4755
 4726TIP3    H114135   2.149   3.452   2.083  1.5259  0.2266 -0.4106
 4726TIP3    H214136   2.144   3.488   2.230 -0.2452 -1.3203 -0.0489
 4727TIP3   OH214137   1.691   0.982   4.945  0.0379  0.2790 -0.1831
 4727TIP3    H114138   1.654   1.070   4.947  1.1494  0.7855 -1.2650
 4727TIP3    H214139   1.615   0.924   4.956 -0.7710  1.3460 -0.0363
 4728TIP3   OH214140   2.826   5.119   5.507 -0.0785 -0.0963 -0.1528
 4728TIP3    H114141   2.756   5.127   5.442  0.1026  2.4542 -0.1458
 4728TIP3    H214142   2.902   5.089   5.456 -0.2915  0.5145 -0.8545
 4729TIP3   OH214143   7.943   3.714   1.943  0.7156 -0.0557  0.0768
 4729TIP3    H114144   7.872   3.777   1.947  1.6541  1.0628 -0.3032
 4729TIP3    H214145   7.905   3.633   1.977 -0.6068  0.6150  0.2683
 4730TIP3   OH214146   5.828   7.031   0.184  0.7088  0.1437  0.3679
 4730TIP3    H114147   5.827   7.039   0.279 -0.3413 -0.6017  0.4290
 4730TIP3    H214148   5.736   7.031   0.158  0.9656 -0.1671 -0.6070
 4731TIP3   OH214149   5.018   2.421   3.952 -0.2379 -0.2252 -0.4109
 4731TIP3    H114150   5.045   2.447   4.040 -1.0070 -0.8373  0.0172
 4731TIP3    H214151   5.069   2.341   3.935 -1.9219 -1.5699  0.5296
 4732TIP3   OH214152   2.033   3.322   2.677  0.5558  0.0502  0.3379
 4732TIP3    H114153   2.103   3.386   2.668  0.4901 -0.0014 -0.5533
 4732TIP3    H214154   2.079   3.238   2.687  0.6257  0.1291  0.7180
 4733TIP3   OH214155   0.081   5.783   2.292  0.0980 -0.0454 -0.1499
 4733TIP3    H114156   0.048   5.747   2.373 -0.6137  0.2636 -0.2972
 4733TIP3    H214157   0.031   5.739   2.223 -0.4458  0.8541 -0.3497
 4734TIP3   OH214158   7.793   3.736   3.093  0.1896  0.4512 -0.7707
 4734TIP3    H114159   7.731   3.693   3.151  1.8488  0.2793  0.9659
 4734TIP3    H214160   7.813   3.671   3.026  0.2587 -0.3451  0.0107
 4735TIP3   OH214161   1.958   1.412   4.048 -0.5755  0.3755  0.3379
 4735TIP3    H114162   2.044   1.397   4.010 -0.5238 -1.5264  1.0911
 4735TIP3    H214163   1.927   1.493   4.007  0.8233  0.1641 -1.2319
 4736TIP3   OH214164   7.765   6.857   6.143 -0.0263  0.0043 -0.2429
 4736TIP3    H114165   7.810   6.785   6.098 -1.0717 -0.0618 -1.2188
 4736TIP3    H214166   7.802   6.936   6.104 -0.6786 -0.0494 -1.0021
 4737TIP3   OH214167   1.216   5.402   0.523  0.7571 -0.4105  0.0782
 4737TIP3    H114168   1.284   5.335   0.515 -0.3223 -1.6919  1.1021
 4737TIP3    H214169   1.134   5.353   0.522 -0.1515  1.0590 -0.6933
 4738TIP3   OH214170   6.975   6.797   0.420  0.5660 -0.2065 -0.0771
 4738TIP3    H114171   7.030   6.732   0.462  1.4514 -0.7027 -1.8967
 4738TIP3    H214172   6.886   6.775   0.447  0.9778 -1.3422  0.3875
 4739TIP3   OH214173   3.939   1.169   3.940  0.3794 -0.8550  0.2656
 4739TIP3    H114174   3.933   1.098   3.875  0.4981 -1.1606  0.5830
 4739TIP3    H214175   3.893   1.134   4.017 -1.6723  0.3194 -0.3521
 4740TIP3   OH214176   0.146   3.574   3.770 -0.2700 -0.5687  1.0794
 4740TIP3    H114177   0.148   3.495   3.715 -1.5450  0.3065 -0.3239
 4740TIP3    H214178   0.053   3.585   3.793  0.0467 -0.0767  2.1761
 4741TIP3   OH214179   4.105   4.132   3.799 -0.1978 -0.1190  0.1516
 4741TIP3    H114180   4.025   4.167   3.759 -1.1112 -1.9243  0.3104
 4741TIP3    H214181   4.086   4.132   3.892  0.4631  0.5413  0.2910
 4742TIP3   OH214182   1.083   0.123   1.611 -0.4546 -0.0569  0.1687
 4742TIP3    H114183   1.161   0.109   1.664 -0.6408  1.4727  0.8939
 4742TIP3    H214184   1.115   0.135   1.522  0.2579  1.5960  0.6189
 4743TIP3   OH214185   1.914   1.763   3.424 -0.3754  0.2748  0.8924
 4743TIP3    H114186   1.855   1.823   3.469  0.6541  1.6189  0.5136
 4743TIP3    H214187   1.967   1.725   3.494 -0.7284  0.1429  1.0913
 4744TIP3   OH214188   3.228   6.277   6.464 -0.4097 -0.1955 -0.3574
 4744TIP3    H114189   3.136   6.266   6.440  0.2057 -3.2887 -1.8059
 4744TIP3    H214190   3.225   6.308   6.555 -2.8054  2.2029 -1.1253
 4745TIP3   OH214191   4.057   2.642   2.339 -0.0400 -0.4894  0.6299
 4745TIP3    H114192   4.039   2.554   2.308 -3.3774  0.2407  0.1736
 4745TIP3    H214193   3.995   2.656   2.411  0.6140  1.3840  0.8977
 4746TIP3   OH214194   3.984   4.814   5.181 -0.5058 -0.0164 -0.1136
 4746TIP3    H114195   4.057   4.873   5.200 -0.3083  0.3474 -1.8263
 4746TIP3    H214196   4.021   4.726   5.185 -0.7932 -0.0976  2.4249
 4747TIP3   OH214197   1.568   3.990   3.168 -0.4266  0.6978  0.4347
 4747TIP3    H114198   1.552   3.941   3.249  0.4163 -0.1107  0.1348
 4747TIP3    H214199   1.520   3.942   3.101  0.6983  0.0343  0.0738
 4748TIP3   OH214200   2.103   1.048   1.467 -0.2820  0.4301 -0.2590
 4748TIP3    H114201   2.119   0.974   1.408 -1.6755  0.2813 -0.4815
 4748TIP3    H214202   2.186   1.097   1.467  0.2026 -0.3549 -1.2163
 4749TIP3   OH214203   4.125   6.987   6.123  0.4232 -0.4037  0.4013
 4749TIP3    H114204   4.100   6.991   6.031 -3.0329 -0.7189  1.1852
 4749TIP3    H214205   4.127   6.893   6.143  1.4018 -0.3482  0.6141
 4750TIP3   OH214206   7.368   1.857   4.975 -0.2930  0.0274  0.0852
 4750TIP3    H114207   7.403   1.770   4.960 -0.8406 -0.2111  0.1383
 4750TIP3    H214208   7.303   1.845   5.045 -0.5001  0.4423 -0.0281
 4751TIP3   OH214209   3.848   6.925   1.133 -0.4632 -0.0614  0.3895
 4751TIP3    H114210   3.881   6.977   1.207 -0.7987  0.5732  0.0962
 4751TIP3    H214211   3.927   6.891   1.092 -0.1954  0.8288  0.1447
 4752TIP3   OH214212   6.036   5.454   6.136  0.4152 -0.0486  0.3692
 4752TIP3    H114213   6.080   5.461   6.221  0.2920  0.6504  0.3823
 4752TIP3    H214214   6.012   5.544   6.114  2.4923  0.1325 -1.4911
 4753TIP3   OH214215   0.968   5.078   0.975  0.6582  0.3292  0.3254
 4753TIP3    H114216   0.954   5.019   1.050 -0.9675  1.9797  1.4093
 4753TIP3    H214217   1.001   5.021   0.906 -1.1671 -1.9577  1.1806
 4754TIP3   OH214218   3.173   6.939   3.214  0.0922 -0.5008 -0.3524
 4754TIP3    H114219   3.230   7.004   3.256 -0.4725  0.1780 -0.6256
 4754TIP3    H214220   3.166   6.969   3.123 -2.2814  0.5499  0.1187
 4755TIP3   OH214221   5.661   5.373   1.746  0.4474  0.0169 -0.1708
 4755TIP3    H114222   5.602   5.448   1.738  0.5082  0.4455  2.5329
 4755TIP3    H214223   5.632   5.313   1.678 -1.4059  1.3155 -0.6198
 4756TIP3   OH214224   1.121   4.350   3.130 -0.2378 -0.1422  0.5406
 4756TIP3    H114225   1.128   4.404   3.051 -0.1458 -0.8261  0.0780
 4756TIP3    H214226   1.058   4.397   3.185 -1.5128 -0.4641 -0.5921
 4757TIP3   OH214227   0.445   4.605   3.546 -0.0471 -0.7695  0.2839
 4757TIP3    H114228   0.426   4.578   3.456 -1.4592  1.4210 -0.1448
 4757TIP3    H214229   0.523   4.554   3.570  1.3634 -0.2726 -2.7553
 4758TIP3   OH214230   7.915   1.911   6.368  0.2096  0.5735 -0.2894
 4758TIP3    H114231   7.967   1.962   6.429  2.2360 -0.3113 -1.1967
 4758TIP3    H214232   7.922   1.821   6.399  0.9422  0.1643 -1.5678
 4759TIP3   OH214233   6.989   4.788   5.174  0.5653  0.2225 -0.3886
 4759TIP3    H114234   6.919   4.728   5.149  0.2464  1.0751 -1.6344
 4759TIP3    H214235   6.946   4.852   5.231  1.3817 -1.9750  2.9798
 4760TIP3   OH214236   1.244   1.424   1.832  0.1676 -0.1058 -0.1101
 4760TIP3    H114237   1.290   1.455   1.755  0.3610  2.2684  0.8824
 4760TIP3    H214238   1.152   1.443   1.814  0.2382  0.6819  0.3145
 4761TIP3   OH214239   5.931   3.757   1.295  0.4544  0.6292  0.0576
 4761TIP3    H114240   5.863   3.784   1.234 -0.9733 -0.0971  1.2842
 4761TIP3    H214241   5.970   3.839   1.326  0.0329  1.0594 -0.5329
 4762TIP3   OH214242   5.742   0.850   4.941 -0.0056 -0.1902 -0.4357
 4762TIP3    H114243   5.735   0.810   4.854 -0.4130 -0.9445 -0.0626
 4762TIP3    H214244   5.790   0.785   4.993  1.1363  0.6891 -0.3500
 4763TIP3   OH214245   4.459   5.048   4.053 -0.5198 -0.2248 -0.1124
 4763TIP3    H114246   4.455   5.120   4.116  0.3437  0.9547 -1.3381
 4763TIP3    H214247   4.510   5.083   3.980 -1.0777 -1.7035 -1.2625
 4764TIP3   OH214248   0.124   1.213   2.277 -0.1259  0.0124 -0.2700
 4764TIP3    H114249   0.049   1.272   2.268 -0.9288 -1.0188 -0.5348
 4764TIP3    H214250   0.173   1.248   2.351 -1.0131  0.5490  0.0856
 4765TIP3   OH214251   5.769   2.715   6.651  0.2348 -0.1624 -0.5507
 4765TIP3    H114252   5.714   2.793   6.640 -0.0780 -0.2489  0.3292
 4765TIP3    H214253   5.832   2.721   6.579 -0.3873  0.3877 -1.0770
 4766TIP3   OH214254   0.675   5.458   5.915  0.5662  0.2864 -0.5789
 4766TIP3    H114255   0.615   5.467   5.841  0.0865 -0.6156 -0.3191
 4766TIP3    H214256   0.626   5.407   5.979  0.7797  1.4809  0.5874
 4767TIP3   OH214257   4.069   1.400   3.863  0.4031 -0.4406 -0.1156
 4767TIP3    H114258   4.015   1.328   3.894 -1.9436  0.7704 -1.1537
 4767TIP3    H214259   4.012   1.477   3.867  2.1257  0.9717 -1.0761
 4768TIP3   OH214260   2.803   2.588   3.260  0.2312  0.5087  0.2251
 4768TIP3    H114261   2.824   2.650   3.329  0.4143 -1.4257  2.0097
 4768TIP3    H214262   2.867   2.518   3.270 -1.5831 -1.2836  0.0905
 4769TIP3   OH214263   2.966   0.986   1.455 -0.3803 -0.1495 -0.1907
 4769TIP3    H114264   2.922   1.067   1.481  0.5328  0.1841  0.3518
 4769TIP3    H214265   2.989   0.944   1.538 -1.3183 -1.2399 -0.4608
 4770TIP3   OH214266   2.385   2.027   3.124  0.3250  0.0118  0.0525
 4770TIP3    H114267   2.463   2.052   3.175  1.0686 -0.8546 -0.6383
 4770TIP3    H214268   2.405   1.940   3.090 -0.6454  0.0931 -0.7625
 4771TIP3   OH214269   4.782   2.945   3.612  0.0859  0.1313 -0.1676
 4771TIP3    H114270   4.858   2.953   3.555  1.5530  0.7564  1.7912
 4771TIP3    H214271   4.775   2.851   3.629 -0.5928 -0.1046 -1.6119
 4772TIP3   OH214272   3.834   3.618   6.050 -0.0355 -0.2178  0.2190
 4772TIP3    H114273   3.795   3.615   6.137 -0.0270 -1.4774  0.1854
 4772TIP3    H214274   3.762   3.647   5.993  0.2239  1.6601  0.7528
 4773TIP3   OH214275   5.859   0.951   2.545 -0.4822  0.4770 -0.0954
 4773TIP3    H114276   5.782   0.924   2.495 -1.7773 -0.4279  2.2262
 4773TIP3    H214277   5.855   1.046   2.546 -1.3754  0.4489 -0.3023
 4774TIP3   OH214278   5.537   6.679   6.466  0.1491  0.8577  0.3439
 4774TIP3    H114279   5.505   6.770   6.470  1.2381  1.4972 -2.5951
 4774TIP3    H214280   5.580   6.665   6.550 -0.9633  2.6954  1.2815
 4775TIP3   OH214281   4.501   4.488   0.997 -0.2919 -0.3705  0.0518
 4775TIP3    H114282   4.462   4.569   0.966  0.4670  0.6367  1.6208
 4775TIP3    H214283   4.454   4.469   1.079  1.8231  0.4165  1.5296
 4776TIP3   OH214284   7.693   0.070   6.314  0.3323  0.0818  0.5730
 4776TIP3    H114285   7.604   0.042   6.337  0.4801 -0.9774 -0.0704
 4776TIP3    H214286   7.690   0.081   6.219  1.3866 -1.9325  0.2574
 4777TIP3   OH214287   6.817   0.462   1.946  0.2062 -0.2545 -0.0878
 4777TIP3    H114288   6.847   0.371   1.948  0.1351 -0.2819  1.5213
 4777TIP3    H214289   6.785   0.475   1.857  0.2267 -1.8070 -0.3545
 4778TIP3   OH214290   3.445   2.822   2.272 -0.0050 -0.0158  0.8219
 4778TIP3    H114291   3.493   2.747   2.306 -0.1827 -1.5993 -2.0861
 4778TIP3    H214292   3.366   2.826   2.327  0.2793 -1.5994  1.4068
 4779TIP3   OH214293   1.159   0.344   5.928 -0.2441 -0.2102  0.0283
 4779TIP3    H114294   1.209   0.263   5.928 -2.1841 -1.4678 -0.4594
 4779TIP3    H214295   1.183   0.388   6.010  0.0240 -1.8113  0.8362
 4780TIP3   OH214296   7.649   0.234   3.830  0.2060  0.8686  0.5366
 4780TIP3    H114297   7.664   0.164   3.893 -1.7521 -1.3258 -1.2684
 4780TIP3    H214298   7.578   0.286   3.868 -0.7124 -0.2183  0.3478
 4781TIP3   OH214299   3.587   7.194   6.510  0.7235 -0.0476 -0.3451
 4781TIP3    H114300   3.642   7.264   6.544  0.7756  0.0336 -0.6008
 4781TIP3    H214301   3.557   7.225   6.425  0.3275 -0.1155 -0.2312
 4782TIP3   OH214302   0.642   0.390   6.224  0.4000 -0.1810 -0.5783
 4782TIP3    H114303   0.665   0.418   6.313 -0.5233  0.1579 -0.4442
 4782TIP3    H214304   0.590   0.461   6.188 -0.1479 -0.7879 -1.0048
 4783TIP3   OH214305   2.519   4.096   4.037  0.3275 -0.3059 -0.5993
 4783TIP3    H114306   2.483   4.152   3.967  0.2467 -0.0840 -0.3816
 4783TIP3    H214307   2.448   4.089   4.101  0.5897 -0.0658 -0.2816
 4784TIP3   OH214308   6.152   2.064   0.674  0.5235  0.4182  0.0383
 4784TIP3    H114309   6.146   2.048   0.768  0.2342  0.6506  0.0630
 4784TIP3    H214310   6.155   1.977   0.635 -2.4492  0.1912  0.0678
 4785TIP3   OH214311   7.182   4.416   0.594  0.1198  0.4504 -0.1095
 4785TIP3    H114312   7.277   4.402   0.585  0.1227  0.4342 -0.0481
 4785TIP3    H214313   7.152   4.341   0.646  0.1672  0.7849  0.4042
 4786TIP3   OH214314   5.470   4.345   0.198 -0.5033  0.0696  0.2012
 4786TIP3    H114315   5.410   4.325   0.126 -0.9739 -0.2507  0.6754
 4786TIP3    H214316   5.521   4.264   0.210 -0.1266  0.2661 -0.0529
 4787TIP3   OH214317   7.681   7.284   4.363 -0.0422 -0.0176  0.4298
 4787TIP3    H114318   7.770   7.250   4.350 -0.0712  0.1890 -0.3419
 4787TIP3    H214319   7.656   7.319   4.278 -0.1298  1.6690  1.1076
 4788TIP3   OH214320   6.888   2.030   5.738  0.1587  0.2017 -0.0182
 4788TIP3    H114321   6.908   2.111   5.784 -1.1492  0.8268 -0.4957
 4788TIP3    H214322   6.924   2.042   5.650  1.1590 -0.3087  0.3011
 4789TIP3   OH214323   6.692   6.444   1.439 -0.2238 -0.1169 -0.4065
 4789TIP3    H114324   6.711   6.424   1.531 -0.8365 -0.9143 -0.4378
 4789TIP3    H214325   6.720   6.535   1.427  0.2850 -0.1574  0.4468
 4790TIP3   OH214326   5.580   1.072   0.689 -0.2191  0.1418 -0.2130
 4790TIP3    H114327   5.645   1.096   0.755 -1.0838  0.7298  0.4469
 4790TIP3    H214328   5.515   1.142   0.693 -1.2941 -0.8184 -0.3024
 4791TIP3   OH214329   1.248   1.953   0.691  0.9773 -0.0551  0.2200
 4791TIP3    H114330   1.204   1.982   0.611 -0.2627 -0.6277  0.6547
 4791TIP3    H214331   1.324   1.903   0.660  0.3204 -0.5638 -0.6229
 4792TIP3   OH214332   0.834   6.150   5.561 -0.2500 -0.0503  0.3061
 4792TIP3    H114333   0.907   6.164   5.622 -0.5822 -0.4207  0.8024
 4792TIP3    H214334   0.844   6.219   5.495  0.5510 -0.0993  0.3617
 4793TIP3   OH214335   1.890   7.016   6.724  0.0866 -0.1307 -0.2599
 4793TIP3    H114336   1.976   6.998   6.761  0.1602 -1.2019 -0.9120
 4793TIP3    H214337   1.847   7.071   6.790  0.2695 -1.8308  1.3573
 4794TIP3   OH214338   5.486   6.278   4.892  0.1983 -0.2083 -0.1906
 4794TIP3    H114339   5.517   6.195   4.855 -1.1155 -1.0440  0.5100
 4794TIP3    H214340   5.504   6.270   4.986 -1.8396 -0.6306  0.2086
 4795TIP3   OH214341   1.266   7.258   5.148 -0.3856  0.1711 -0.2869
 4795TIP3    H114342   1.259   7.353   5.147 -0.0504  0.1944 -0.9250
 4795TIP3    H214343   1.303   7.237   5.235 -0.4433  0.6192 -0.1547
 4796TIP3   OH214344   1.620   3.516   0.543 -0.4990  0.4084 -0.1548
 4796TIP3    H114345   1.705   3.555   0.563 -0.0814 -0.6647  0.2312
 4796TIP3    H214346   1.634   3.468   0.461 -0.6928  0.1101 -0.0154
 4797TIP3   OH214347   6.457   4.317   4.505  0.1160 -0.2246 -0.4142
 4797TIP3    H114348   6.535   4.335   4.557 -0.1732 -1.7455  0.6250
 4797TIP3    H214349   6.403   4.396   4.513  0.9549  0.3231 -0.0551
 4798TIP3   OH214350   6.455   5.555   3.265  0.0657 -0.0653  0.1048
 4798TIP3    H114351   6.443   5.640   3.307  3.1279 -0.1385  1.3320
 4798TIP3    H214352   6.483   5.576   3.176  3.5937  0.4330  1.1912
 4799TIP3   OH214353   2.015   2.665   1.019 -0.0200  0.3789  0.3441
 4799TIP3    H114354   1.965   2.588   1.048 -0.5641  0.5441 -0.1371
 4799TIP3    H214355   2.089   2.668   1.079  1.3929 -1.9573 -1.1155
 4800TIP3   OH214356   5.838   6.902   2.829 -0.1786  0.1014  0.0937
 4800TIP3    H114357   5.868   6.989   2.854  1.7002 -0.9307  1.6690
 4800TIP3    H214358   5.749   6.895   2.865 -0.0400  1.0580  0.6392
 4801TIP3   OH214359   0.890   0.021   3.316 -0.1630  0.2481  0.2387
 4801TIP3    H114360   0.929   0.011   3.403 -0.5252  0.7466  0.4645
 4801TIP3    H214361   0.849   0.107   3.318  0.2986  0.4988 -0.6218
 4802TIP3   OH214362   2.759   7.245   6.585 -0.0402  0.4744  0.3706
 4802TIP3    H114363   2.746   7.157   6.551  1.7851  0.1134  0.4651
 4802TIP3    H214364   2.699   7.300   6.535 -2.7397 -1.0589  1.7532
 4803TIP3   OH214365   5.319   2.401   4.812 -0.2296 -0.2306  0.1059
 4803TIP3    H114366   5.351   2.319   4.849  1.5459 -0.2505 -1.3023
 4803TIP3    H214367   5.255   2.374   4.746 -2.5932 -0.2370  2.2639
 4804TIP3   OH214368   4.338   1.674   1.868 -0.4223  0.0414 -0.6830
 4804TIP3    H114369   4.304   1.707   1.952 -0.7192 -0.7016 -0.4924
 4804TIP3    H214370   4.360   1.583   1.887  1.6431  0.4711 -0.8296
 4805TIP3   OH214371   0.775   4.837   3.143  0.4059 -0.0806  0.5760
 4805TIP3    H114372   0.840   4.908   3.147  0.5542 -0.2560  2.9161
 4805TIP3    H214373   0.702   4.869   3.196 -1.1139 -0.2243 -1.3714
 4806TIP3   OH214374   7.089   2.684   5.066  0.3214  0.3545 -0.0940
 4806TIP3    H114375   7.062   2.669   4.976  1.2703  1.5847 -0.6016
 4806TIP3    H214376   7.156   2.618   5.083 -0.6002 -0.5640  0.0851
 4807TIP3   OH214377   6.111   2.610   6.719  0.3427  0.0277  0.4108
 4807TIP3    H114378   6.049   2.667   6.674  0.5987  0.4309  0.5612
 4807TIP3    H214379   6.057   2.545   6.764  0.0728 -2.4881 -3.0963
 4808TIP3   OH214380   4.460   5.009   2.377 -0.3540  0.0883  0.2839
 4808TIP3    H114381   4.451   4.980   2.287 -0.8275 -2.0056  0.9446
 4808TIP3    H214382   4.555   5.012   2.392 -0.2552 -1.6295  0.2721
 4809TIP3   OH214383   0.375   2.009   3.296 -0.0283 -0.4068 -0.1702
 4809TIP3    H114384   0.427   2.082   3.263  0.1870 -0.6312 -0.3307
 4809TIP3    H214385   0.317   1.985   3.224 -1.1882  0.5888  0.3814
 4810TIP3   OH214386   6.975   6.218   6.508 -0.2243 -0.2662  0.4253
 4810TIP3    H114387   6.903   6.221   6.571 -0.4348 -0.6705  0.2062
 4810TIP3    H214388   7.029   6.144   6.536 -1.0834 -1.3478 -0.6819
 4811TIP3   OH214389   3.215   1.982   4.431  0.4126 -0.3638  0.7265
 4811TIP3    H114390   3.302   2.015   4.451  0.8568 -1.6050  0.9186
 4811TIP3    H214391   3.207   1.989   4.336  1.1186 -1.1511  0.5957
 4812TIP3   OH214392   7.280   0.256   6.393  0.3430 -0.0068  0.0248
 4812TIP3    H114393   7.278   0.228   6.301  0.4951  0.5566 -0.1537
 4812TIP3    H214394   7.200   0.220   6.430  0.3113 -0.2930 -0.3129
 4813TIP3   OH214395   7.829   1.571   3.159 -0.0447  0.2154  0.3390
 4813TIP3    H114396   7.813   1.641   3.095 -0.4458  0.8795  1.1518
 4813TIP3    H214397   7.743   1.548   3.192  0.1875  0.1063  0.8806
 4814TIP3   OH214398   1.767   4.326   0.848  0.0098 -0.4902  0.7090
 4814TIP3    H114399   1.859   4.304   0.861 -0.1286 -0.9151  0.9910
 4814TIP3    H214400   1.724   4.241   0.835 -0.0514 -0.2066 -1.3368
 4815TIP3   OH214401   3.465   2.817   1.706  0.4681  0.0162 -0.0889
 4815TIP3    H114402   3.507   2.732   1.694  0.9651  0.2020  0.2636
 4815TIP3    H214403   3.418   2.832   1.625  0.9574 -0.2827 -0.4367
 4816TIP3   OH214404   3.749   0.526   3.171 -0.0820 -0.1353 -0.1215
 4816TIP3    H114405   3.760   0.619   3.155  1.3790 -0.4449 -1.1808
 4816TIP3    H214406   3.732   0.519   3.265  2.0971  1.0600  0.4341
 4817TIP3   OH214407   7.266   0.840   4.244  0.2924  0.1130 -0.2447
 4817TIP3    H114408   7.250   0.749   4.271 -0.7517  0.4148  0.2124
 4817TIP3    H214409   7.191   0.860   4.187 -1.3555  1.7388  2.3095
 4818TIP3   OH214410   3.587   6.666   2.431  0.0901  0.5683 -0.7961
 4818TIP3    H114411   3.559   6.708   2.350  0.5786 -0.1808 -1.3652
 4818TIP3    H214412   3.680   6.647   2.417  0.0029 -0.2144 -0.3424
 4819TIP3   OH214413   1.818   7.649   1.772  0.4736  0.3263  0.3271
 4819TIP3    H114414   1.899   7.615   1.811  1.1369  0.5828 -0.7990
 4819TIP3    H214415   1.802   7.731   1.819 -0.5059 -0.8887  2.2608
 4820TIP3   OH214416   3.289   5.368   0.752  0.2487 -0.5307 -0.3929
 4820TIP3    H114417   3.343   5.325   0.819 -0.9454 -1.2560  0.1409
 4820TIP3    H214418   3.311   5.461   0.758  0.5837 -0.6695  0.6132
 4821TIP3   OH214419   3.009   0.442   0.968  0.5984 -0.2260  0.2807
 4821TIP3    H114420   3.081   0.505   0.971  0.7155 -0.3178 -0.4600
 4821TIP3    H214421   3.051   0.358   0.946  0.1486 -0.0704 -1.2721
 4822TIP3   OH214422   4.475   1.867   6.102  0.4981 -0.6285 -0.1699
 4822TIP3    H114423   4.397   1.880   6.156 -0.2481 -1.6222 -0.9622
 4822TIP3    H214424   4.509   1.781   6.129  1.2711 -0.2414  0.1091
 4823TIP3   OH214425   7.784   5.007   2.182 -0.0115 -0.5168 -0.0442
 4823TIP3    H114426   7.801   4.914   2.197 -1.2379 -1.0213 -1.5370
 4823TIP3    H214427   7.717   5.030   2.246  2.4056  0.2103  2.4414
 4824TIP3   OH214428   0.200   2.143   0.437  0.0658  0.4270 -0.5142
 4824TIP3    H114429   0.182   2.050   0.423  1.7562 -0.0982  0.4097
 4824TIP3    H214430   0.162   2.163   0.522 -0.1062  0.5270 -0.6137
 4825TIP3   OH214431   5.731   4.240   0.041  0.6832  0.1849  0.4491
 4825TIP3    H114432   5.706   4.214   0.129  0.1700  0.9693  0.5425
 4825TIP3    H214433   5.698   4.170  -0.015  1.9077 -0.8471  0.9504
 4826TIP3   OH214434   1.229   7.595   4.274  0.1986 -0.1300  0.2888
 4826TIP3    H114435   1.203   7.683   4.298 -1.6341 -0.7636  0.7768
 4826TIP3    H214436   1.147   7.545   4.273  1.1370 -1.7285 -0.3759
 4827TIP3   OH214437   4.989   7.437   5.883 -0.1175  0.4383 -0.1761
 4827TIP3    H114438   4.953   7.519   5.916  0.5802  0.5834  0.2310
 4827TIP3    H214439   5.071   7.425   5.930 -0.0175 -0.2970 -0.5143
 4828TIP3   OH214440   4.607   6.302   1.416  0.6946  0.2909 -0.7232
 4828TIP3    H114441   4.668   6.298   1.490 -0.3903  1.1076  0.2610
 4828TIP3    H214442   4.584   6.211   1.399 -0.1889  0.1468  0.9715
 4829TIP3   OH214443   4.733   7.520   0.889  1.0978 -0.2608  0.1607
 4829TIP3    H114444   4.687   7.461   0.949 -0.4266  0.2259 -0.4950
 4829TIP3    H214445   4.776   7.583   0.947 -0.2768  0.1456  0.7693
 4830TIP3   OH214446   3.730   2.285   4.575 -0.8500 -0.1735 -0.4535
 4830TIP3    H114447   3.667   2.354   4.552 -0.9376 -0.2239 -0.3645
 4830TIP3    H214448   3.776   2.265   4.493 -0.1961  0.6299 -0.3026
 4831TIP3   OH214449   2.959   3.022   5.540 -0.3429  0.1472  0.2369
 4831TIP3    H114450   2.991   3.096   5.488 -0.0615 -0.6102 -0.7094
 4831TIP3    H214451   2.889   3.058   5.594 -1.2627  0.7918 -1.3244
 4832TIP3   OH214452   1.688   4.841   6.584 -0.0167 -0.0573  0.2229
 4832TIP3    H114453   1.594   4.833   6.568 -0.0769  0.5479  0.2320
 4832TIP3    H214454   1.728   4.772   6.531 -0.2671  1.3427 -1.9181
 4833TIP3   OH214455   5.398   4.976   4.738 -0.2144 -0.1536  0.0587
 4833TIP3    H114456   5.374   4.942   4.651 -0.6834  1.1046 -0.3176
 4833TIP3    H214457   5.357   4.915   4.799  1.0341 -1.7174 -0.5615
 4834TIP3   OH214458   7.010   6.077   0.106  0.5861  0.3070 -0.2838
 4834TIP3    H114459   6.980   6.149   0.050  0.0177  0.3391  0.0580
 4834TIP3    H214460   6.930   6.037   0.139  0.9023  0.9002  1.2777
 4835TIP3   OH214461   1.995   5.650   5.689 -0.0560 -0.0289  0.5243
 4835TIP3    H114462   1.999   5.555   5.687 -1.6017 -0.1032 -0.5069
 4835TIP3    H214463   1.975   5.676   5.599  1.3212  1.3481  0.5619
 4836TIP3   OH214464   1.441   7.357   2.883  0.3209 -0.7126  0.4778
 4836TIP3    H114465   1.358   7.345   2.929  0.2941 -1.8952  0.1527
 4836TIP3    H214466   1.423   7.329   2.793  1.6582 -3.3491  0.9374
 4837TIP3   OH214467   7.874   7.302   1.044  0.0558  0.3604 -0.3420
 4837TIP3    H114468   7.843   7.253   0.968  1.2325  0.2024 -0.7522
 4837TIP3    H214469   7.825   7.266   1.118  0.2030 -0.7734 -0.7748
 4838TIP3   OH214470   7.958   0.498   6.608  0.1763 -0.5886  0.5010
 4838TIP3    H114471   7.872   0.535   6.626 -0.6336 -1.6607 -0.9904
 4838TIP3    H214472   8.016   0.574   6.597 -0.6160  0.1444  1.2536
 4839TIP3   OH214473   3.412   2.574   4.778  0.3158 -0.0637  0.6352
 4839TIP3    H114474   3.414   2.481   4.755  0.5383 -0.0981  0.7973
 4839TIP3    H214475   3.342   2.580   4.843  1.1337 -0.3294  1.5544
 4840TIP3   OH214476   2.254   0.321   2.347 -0.1939  0.2778 -0.0410
 4840TIP3    H114477   2.201   0.329   2.426 -0.5140 -0.2793 -0.1885
 4840TIP3    H214478   2.316   0.251   2.366 -0.7243 -0.3336 -0.5196
 4841TIP3   OH214479   3.676   4.134   4.755  0.4874  0.4361  0.0845
 4841TIP3    H114480   3.708   4.219   4.783  0.3144  1.0079 -1.3604
 4841TIP3    H214481   3.748   4.074   4.773  0.5220  0.8288  1.3334
 4842TIP3   OH214482  -0.010   0.569   6.112 -0.5833  0.3016  0.6680
 4842TIP3    H114483  -0.014   0.530   6.025  0.8550  0.0896  0.6754
 4842TIP3    H214484   0.080   0.600   6.121 -1.1218  1.7369  1.4883
 4843TIP3   OH214485   3.577   5.187  -0.027  0.0970 -0.3565 -0.1394
 4843TIP3    H114486   3.548   5.154   0.058  0.9204  0.6568  0.5610
 4843TIP3    H214487   3.550   5.279  -0.027  1.8206  0.1853 -0.1293
 4844TIP3   OH214488   0.927   7.575   6.350 -0.1399 -0.7478  0.0085
 4844TIP3    H114489   0.943   7.662   6.315 -2.2373  0.0191  0.7936
 4844TIP3    H214490   1.014   7.542   6.374  0.6824  1.1476 -0.2177
 4845TIP3   OH214491   3.116   6.688   6.002  1.0407 -0.1399 -0.4234
 4845TIP3    H114492   3.198   6.652   6.034  0.7560 -0.0604  0.4112
 4845TIP3    H214493   3.139   6.774   5.967  1.1221  0.4377  0.9793
 4846TIP3   OH214494   8.264   2.408   2.505  0.6966  0.1124 -0.6823
 4846TIP3    H114495   8.265   2.418   2.410 -1.0732  0.0432 -0.7301
 4846TIP3    H214496   8.284   2.495   2.539 -1.0723  0.7369 -1.1388
 4847TIP3   OH214497   5.609   3.822   1.276  0.0425  0.3424  0.1261
 4847TIP3    H114498   5.664   3.745   1.287  1.9027  1.3257 -1.5181
 4847TIP3    H214499   5.568   3.810   1.190  0.8780  1.4530 -0.4517
 4848TIP3   OH214500   4.873   4.321   2.160 -0.0631 -0.2223 -0.0918
 4848TIP3    H114501   4.864   4.230   2.188 -0.5800  0.2850  1.4484
 4848TIP3    H214502   4.899   4.368   2.239 -2.0407  1.3439 -0.3007
 4849TIP3   OH214503   3.753   6.725   5.294 -0.1822  0.4001 -0.4455
 4849TIP3    H114504   3.713   6.812   5.295 -0.7896  0.1495 -1.5276
 4849TIP3    H214505   3.683   6.667   5.263  0.1733 -0.5088  0.3745
 4850TIP3   OH214506   0.940   5.701   3.911  0.7469 -0.5375 -0.2965
 4850TIP3    H114507   0.991   5.628   3.946  0.7372  0.4243  1.8771
 4850TIP3    H214508   1.006   5.768   3.890  0.5638 -0.1158  0.4438
 4851TIP3   OH214509   4.388   0.971   3.538  0.1235 -0.4963 -0.3234
 4851TIP3    H114510   4.332   0.909   3.492 -0.0446 -2.0402  1.8350
 4851TIP3    H214511   4.328   1.029   3.584  0.2816 -0.9169  0.4220
 4852TIP3   OH214512   5.964   3.173   3.779 -0.4923  0.3440 -0.0927
 4852TIP3    H114513   5.944   3.124   3.858 -0.2702 -0.0264 -0.2619
 4852TIP3    H214514   5.888   3.160   3.722 -0.1086 -0.4528 -0.4436
 4853TIP3   OH214515   6.057   1.938   5.824 -0.3241 -0.2699  0.3224
 4853TIP3    H114516   6.064   1.844   5.840  0.2780 -0.0765  1.2309
 4853TIP3    H214517   5.989   1.945   5.757 -0.7884 -1.3086  0.6569
 4854TIP3   OH214518   8.123   1.370   5.449 -0.1702  0.8133  0.3589
 4854TIP3    H114519   8.036   1.355   5.487 -0.6505 -1.1129 -1.2668
 4854TIP3    H214520   8.181   1.380   5.524 -1.3349 -1.0184  1.5929
 4855TIP3   OH214521   0.267   5.306   0.980 -0.3223  0.0583 -0.3328
 4855TIP3    H114522   0.342   5.309   0.920  0.8496  0.3216  1.0641
 4855TIP3    H214523   0.257   5.213   1.001  0.7195  0.1618  0.7428
 4856TIP3   OH214524   4.505   7.374   5.925 -0.3600  0.0164  0.2565
 4856TIP3    H114525   4.417   7.337   5.915 -1.4314  1.8836  1.9445
 4856TIP3    H214526   4.518   7.426   5.845  0.6201 -2.6642 -1.5004
 4857TIP3   OH214527   5.396   1.145   6.696  0.2549  0.6075 -0.3274
 4857TIP3    H114528   5.385   1.116   6.786  1.9003  0.4143 -0.1655
 4857TIP3    H214529   5.337   1.089   6.645 -1.1382  1.1086  0.6543
 4858TIP3   OH214530   5.230   7.064   2.164 -0.3664  0.3703 -0.3880
 4858TIP3    H114531   5.203   7.059   2.073 -1.2101  1.8770 -0.2592
 4858TIP3    H214532   5.240   6.973   2.192 -0.7305 -0.1193 -1.7916
 4859TIP3   OH214533   3.867   5.527   4.526 -0.1183  0.0032 -0.3592
 4859TIP3    H114534   3.805   5.472   4.574  0.4141 -0.9445 -0.7186
 4859TIP3    H214535   3.947   5.525   4.579 -0.2818  0.9424 -0.0681
 4860TIP3   OH214536   0.734   6.086   6.710 -0.2373 -0.5159  0.7415
 4860TIP3    H114537   0.685   6.124   6.783 -2.8277 -0.7188 -0.7736
 4860TIP3    H214538   0.755   6.161   6.654 -2.3286 -0.7855 -0.5226
 4861TIP3   OH214539   7.145   4.625   3.746  0.0432  0.2636  0.3160
 4861TIP3    H114540   7.225   4.679   3.744 -0.0137  0.3607 -1.7276
 4861TIP3    H214541   7.099   4.654   3.824  1.3754  1.1706  0.8123
 4862TIP3   OH214542   1.038   4.475   0.341 -0.1971 -0.1947  0.4934
 4862TIP3    H114543   0.978   4.532   0.293 -0.6903 -0.8569  0.2942
 4862TIP3    H214544   0.992   4.390   0.344  1.1952 -1.0306 -0.6154
 4863TIP3   OH214545   5.262   3.526   1.873 -0.7400  0.0288 -0.5004
 4863TIP3    H114546   5.228   3.615   1.864 -1.6953 -0.2970 -0.2986
 4863TIP3    H214547   5.287   3.501   1.784 -0.4720  0.4892 -0.5598
 4864TIP3   OH214548   5.015   0.759   4.920  0.3917  0.2290  0.5994
 4864TIP3    H114549   5.000   0.665   4.918  0.8246  0.1493 -1.5071
 4864TIP3    H214550   5.104   0.768   4.956 -0.1271 -0.0497  2.0083
 4865TIP3   OH214551   2.919   4.521   4.949  0.0850 -0.3148  0.0890
 4865TIP3    H114552   2.876   4.438   4.973 -1.5465  0.2338 -0.7530
 4865TIP3    H214553   2.857   4.588   4.977  0.8988  0.5806 -0.2208
 4866TIP3   OH214554   7.546   2.247   6.631 -0.2630  0.3304 -0.2804
 4866TIP3    H114555   7.475   2.203   6.678  0.1741 -0.5781 -0.4474
 4866TIP3    H214556   7.591   2.177   6.585 -0.1422  1.0888 -1.3616
 4867TIP3   OH214557   7.777   2.136   0.093  0.2854 -0.3193  0.0811
 4867TIP3    H114558   7.842   2.121   0.024 -0.2289 -0.3351 -0.4108
 4867TIP3    H214559   7.729   2.213   0.063 -3.2494 -3.0336 -2.1998
 4868TIP3   OH214560   3.309   1.665   0.507  0.1564  0.2057  0.3350
 4868TIP3    H114561   3.277   1.578   0.529  0.4360  0.4351  1.7369
 4868TIP3    H214562   3.359   1.653   0.426 -0.3144 -0.8099  0.1779
 4869TIP3   OH214563   1.352   1.950   0.268 -0.1148 -0.0864  0.3050
 4869TIP3    H114564   1.329   2.037   0.237  2.0369 -0.0458 -1.4937
 4869TIP3    H214565   1.448   1.950   0.270  0.0583 -2.9906 -1.7969
 4870TIP3   OH214566   2.954   4.927   1.449  0.0280  0.4356  0.1637
 4870TIP3    H114567   2.939   4.984   1.373 -0.8860  0.2317  0.1792
 4870TIP3    H214568   3.020   4.973   1.501 -0.6205  1.4384  0.1235
 4871TIP3   OH214569   7.561   2.113   2.221 -0.4094 -0.2301 -0.3930
 4871TIP3    H114570   7.535   2.122   2.129 -1.9086  1.2420  0.1169
 4871TIP3    H214571   7.483   2.077   2.264 -0.6864  1.5017  0.6867
 4872TIP3   OH214572   1.402   7.438   0.088 -0.0908 -0.0034 -0.2690
 4872TIP3    H114573   1.355   7.484   0.019 -0.4170  0.3730  0.1938
 4872TIP3    H214574   1.335   7.385   0.132 -0.0593  0.4126  0.2932
 4873TIP3   OH214575   7.436   2.101   0.017  0.4959 -0.8022 -0.2896
 4873TIP3    H114576   7.456   2.147   0.098 -0.0434  0.5757 -0.9053
 4873TIP3    H214577   7.511   2.117  -0.040  0.3533 -0.7636 -0.4712
 4874TIP3   OH214578   4.737   0.385   4.053 -0.4419  0.0052 -0.3882
 4874TIP3    H114579   4.659   0.332   4.069  0.4333 -0.8686  1.2712
 4874TIP3    H214580   4.795   0.327   4.003 -0.1655  0.0065 -0.0723
 4875TIP3   OH214581   6.696   2.220   6.757 -0.2963 -0.1204  0.3475
 4875TIP3    H114582   6.722   2.192   6.670 -2.8885 -0.2757 -0.4537
 4875TIP3    H214583   6.654   2.305   6.744  1.9489  1.3490  1.9208
 4876TIP3   OH214584   0.156   1.490   1.855  0.2125 -0.2587  0.0929
 4876TIP3    H114585   0.169   1.518   1.946  1.8943  0.5595 -0.3697
 4876TIP3    H214586   0.166   1.395   1.858 -0.1198 -0.2820  0.8058
 4877TIP3   OH214587   3.773   3.520   6.710  0.6518 -0.0468  0.0442
 4877TIP3    H114588   3.689   3.565   6.696 -0.7836 -1.9436  1.9658
 4877TIP3    H214589   3.818   3.575   6.774 -0.9897 -1.0778  2.2059
 4878TIP3   OH214590   4.178   4.858   0.569 -0.2310 -0.1337 -0.2086
 4878TIP3    H114591   4.237   4.869   0.495 -1.4801 -1.2579 -1.4452
 4878TIP3    H214592   4.117   4.931   0.561  0.2662  0.3469  0.3545
 4879TIP3   OH214593   3.551   6.271   6.179  0.1313 -0.3180  0.6717
 4879TIP3    H114594   3.614   6.342   6.166 -0.1572 -0.1763 -0.0069
 4879TIP3    H214595   3.466   6.309   6.156  0.2298 -1.4690 -1.9757
 4880TIP3   OH214596   8.106   5.221   3.522  0.4603  0.1293 -0.2691
 4880TIP3    H114597   8.102   5.186   3.611  0.4830 -0.7599 -0.6023
 4880TIP3    H214598   8.188   5.187   3.487  1.2969  1.8552 -0.0864
 4881TIP3   OH214599   3.718   7.065   1.590 -0.7100 -0.0476 -0.0295
 4881TIP3    H114600   3.796   7.039   1.638  1.1395 -0.3422 -2.9639
 4881TIP3    H214601   3.645   7.031   1.642  1.1767 -1.4214  1.8583
 4882TIP3   OH214602   2.620   4.626   5.358 -0.0102  0.4052  0.2562
 4882TIP3    H114603   2.714   4.622   5.339 -0.0765  1.6778 -0.5076
 4882TIP3    H214604   2.579   4.578   5.287 -0.0118  1.2645 -0.3368
 4883TIP3   OH214605   2.093   1.714   5.211 -0.1535  0.0611  0.4182
 4883TIP3    H114606   2.098   1.790   5.152  1.0742  0.2162  0.6985
 4883TIP3    H214607   2.000   1.705   5.230 -0.6127 -0.0641 -1.6377
 4884TIP3   OH214608   1.682   1.143   2.905 -0.1110  0.0909  0.1585
 4884TIP3    H114609   1.686   1.178   2.994 -0.8846  0.0384  0.2168
 4884TIP3    H214610   1.769   1.106   2.890  0.3151  0.8920  0.5626
 4885TIP3   OH214611   0.801   5.141   2.921  0.2507 -0.6302 -0.5035
 4885TIP3    H114612   0.815   5.096   3.004  0.8691 -0.2924 -0.4151
 4885TIP3    H214613   0.880   5.122   2.870  0.1723 -0.2926 -0.7553
 4886TIP3   OH214614   5.368   0.643   0.948  0.0600  0.5097 -0.1146
 4886TIP3    H114615   5.417   0.692   1.013  1.3979  0.5185 -1.0896
 4886TIP3    H214616   5.434   0.613   0.885 -0.9176 -1.1902 -0.4065
 4887TIP3   OH214617   6.774   6.533   5.041 -0.3720  0.1571 -0.8668
 4887TIP3    H114618   6.752   6.607   5.096  1.3979 -0.0541  0.2099
 4887TIP3    H214619   6.791   6.461   5.102 -1.2859 -0.9281 -1.8450
 4888TIP3   OH214620   4.895   6.479   1.084 -0.2207  1.1472 -0.3320
 4888TIP3    H114621   4.903   6.573   1.098 -1.4569  1.1838  0.1946
 4888TIP3    H214622   4.956   6.440   1.147  0.5851  1.5823 -0.8183
 4889TIP3   OH214623   0.904   5.745   0.040 -0.4969 -0.0652  0.3296
 4889TIP3    H114624   0.819   5.776   0.009 -0.4456  0.2330  0.4819
 4889TIP3    H214625   0.884   5.672   0.099 -0.6567  0.1297  0.5148
 4890TIP3   OH214626   1.880   6.304   3.511  0.9503  0.0205  0.4213
 4890TIP3    H114627   1.919   6.384   3.548  1.4863 -0.8127  1.7406
 4890TIP3    H214628   1.919   6.233   3.563  0.8781 -1.1385 -1.0645
 4891TIP3   OH214629   0.799   1.962   4.807 -0.1673  0.3543 -0.1679
 4891TIP3    H114630   0.731   1.898   4.787 -0.7786  0.0943  2.4022
 4891TIP3    H214631   0.790   1.979   4.900  1.9741  1.9029 -0.1525
 4892TIP3   OH214632   0.543   3.513   2.948  0.0005  0.3956 -0.1242
 4892TIP3    H114633   0.548   3.445   3.015  1.5016  0.5257 -0.0757
 4892TIP3    H214634   0.487   3.475   2.880 -1.2067  0.1017  0.9926
 4893TIP3   OH214635   4.884   3.712   2.710  0.1787  0.1264  0.0357
 4893TIP3    H114636   4.868   3.802   2.739  1.4738  0.4588 -0.1860
 4893TIP3    H214637   4.819   3.697   2.641 -1.0855  0.3151  1.1490
 4894TIP3   OH214638   0.198   5.317   6.012  0.2796  0.0878 -0.8285
 4894TIP3    H114639   0.113   5.296   5.973 -0.5628  2.5418 -0.5266
 4894TIP3    H214640   0.210   5.251   6.080 -1.5341 -0.1777 -0.7132
 4895TIP3   OH214641   1.657   0.123   6.775 -1.1101  0.4809 -0.5144
 4895TIP3    H114642   1.648   0.095   6.684  1.5226  4.0301 -2.1077
 4895TIP3    H214643   1.751   0.132   6.788 -1.4829  1.3062  2.1664
 4896TIP3   OH214644   7.567   3.916   5.005  0.0228 -0.2368 -0.0505
 4896TIP3    H114645   7.609   3.909   4.919 -0.5139 -0.4823 -0.2985
 4896TIP3    H214646   7.552   3.825   5.032  1.3644 -0.2168  0.9068
 4897TIP3   OH214647   5.485   6.953   5.545  0.0270  0.3909 -0.1107
 4897TIP3    H114648   5.447   6.881   5.497 -0.6575  0.7515 -0.1162
 4897TIP3    H214649   5.580   6.942   5.534 -0.1071  1.1659 -2.6042
 4898TIP3   OH214650   4.558   5.885   4.290  0.1134  0.4531 -0.4703
 4898TIP3    H114651   4.504   5.813   4.258 -0.2331  1.4952 -2.3789
 4898TIP3    H214652   4.577   5.937   4.212  0.0409  2.6550  0.9128
 4899TIP3   OH214653   3.295   5.832   2.139 -0.5858 -0.4436  0.3788
 4899TIP3    H114654   3.315   5.740   2.118  0.3147 -0.1613 -0.0762
 4899TIP3    H214655   3.263   5.869   2.057  0.2385 -0.0514  0.2183
 4900TIP3   OH214656   3.787   0.357   5.239 -0.3420 -0.1426 -0.6913
 4900TIP3    H114657   3.712   0.417   5.239  0.9531  1.5714  0.3255
 4900TIP3    H214658   3.762   0.287   5.179 -2.7194  0.4026 -0.4296
 4901TIP3   OH214659   8.280   4.004   4.933  0.1959 -0.3058 -0.0839
 4901TIP3    H114660   8.342   4.077   4.930  0.7226 -0.7509 -0.1585
 4901TIP3    H214661   8.214   4.031   4.997 -0.5852  0.9999 -1.3453
 4902TIP3   OH214662   1.258   4.968   5.299 -0.2351 -0.0527  0.2293
 4902TIP3    H114663   1.177   4.942   5.342 -1.6376  1.5221 -1.2778
 4902TIP3    H214664   1.244   4.948   5.206  1.3419 -0.2847  0.0115
 4903TIP3   OH214665   1.960   4.293   6.080 -0.5639  0.3688 -0.0722
 4903TIP3    H114666   1.984   4.385   6.095 -2.0243  0.8304 -0.4018
 4903TIP3    H214667   1.877   4.282   6.127 -0.2703 -0.8706  0.1895
 4904TIP3   OH214668   1.532   5.930   3.535  0.5006  0.2954 -0.2714
 4904TIP3    H114669   1.580   6.005   3.500 -0.7265  0.2746 -2.0993
 4904TIP3    H214670   1.446   5.965   3.557 -0.4649 -0.7557 -2.1901
 4905TIP3   OH214671   6.038   1.669   4.389  0.4003  0.3766  0.2144
 4905TIP3    H114672   5.998   1.582   4.389  1.7914 -0.3124  0.7714
 4905TIP3    H214673   5.989   1.719   4.324 -0.2335 -0.9218 -0.3387
 4906TIP3   OH214674   5.526   1.006   2.550 -0.1198 -0.1148 -0.0874
 4906TIP3    H114675   5.482   0.954   2.483  0.3535  0.0788 -0.5582
 4906TIP3    H214676   5.518   0.954   2.630  0.1867 -0.8228 -0.5068
 4907TIP3   OH214677   5.270   3.825   3.525  0.5527 -0.0935  0.3669
 4907TIP3    H114678   5.246   3.775   3.447 -0.7906 -1.1397  1.4027
 4907TIP3    H214679   5.189   3.829   3.576  1.2028  1.2574  1.3456
 4908TIP3   OH214680   1.360   0.525   0.227  0.0506  0.4099  0.0275
 4908TIP3    H114681   1.324   0.570   0.304  0.3599 -0.0446  0.4423
 4908TIP3    H214682   1.383   0.596   0.167  0.2426  0.8019  0.5496
 4909TIP3   OH214683  -0.010   5.297   0.038 -0.0674  0.0524 -0.4305
 4909TIP3    H114684  -0.033   5.357  -0.033 -0.5946  0.4756  0.1014
 4909TIP3    H214685   0.082   5.317   0.058 -0.6512  1.6984  0.7378
 4910TIP3   OH214686   2.495   6.313   2.888 -0.0296 -0.1056 -0.1217
 4910TIP3    H114687   2.520   6.239   2.944 -0.0293  0.7893  1.1113
 4910TIP3    H214688   2.453   6.375   2.948 -1.6706  0.1348 -1.4509
 4911TIP3   OH214689   2.548   4.732   3.135 -0.5701  0.0884  0.1360
 4911TIP3    H114690   2.568   4.718   3.043  1.9030  0.0811  0.6049
 4911TIP3    H214691   2.535   4.827   3.143 -1.8351 -0.0207 -0.3535
 4912TIP3   OH214692   7.641   1.400   5.429 -0.0250  0.8735 -0.0202
 4912TIP3    H114693   7.554   1.434   5.450 -0.3603 -0.0091  0.0560
 4912TIP3    H214694   7.628   1.348   5.349  0.4514  0.8197 -0.0689
 4913TIP3   OH214695   2.285   7.150   3.201  0.0242 -0.2651 -0.1233
 4913TIP3    H114696   2.195   7.117   3.192 -0.7246  1.7326 -0.4398
 4913TIP3    H214697   2.324   7.137   3.115 -0.4163  0.0969 -0.3826
 4914TIP3   OH214698   4.580   2.002   4.276  0.1812 -0.0680 -0.3154
 4914TIP3    H114699   4.614   1.949   4.204  0.4237  0.0719 -0.3062
 4914TIP3    H214700   4.520   2.063   4.234  0.6884  0.3357 -0.4738
 4915TIP3   OH214701   1.819   5.181   4.460  0.3038 -0.2979  0.0215
 4915TIP3    H114702   1.842   5.135   4.380  0.9736 -1.3578  0.8063
 4915TIP3    H214703   1.876   5.144   4.528 -0.8202 -0.0246  1.1646
 4916TIP3   OH214704   2.389   6.929   3.339 -0.8949  0.3742  0.4391
 4916TIP3    H114705   2.417   6.955   3.427  1.2094  0.3333 -0.1422
 4916TIP3    H214706   2.353   7.009   3.301  1.2675  1.3233  0.2432
 4917TIP3   OH214707   6.418   2.662   0.790 -0.0944 -0.1483 -0.1777
 4917TIP3    H114708   6.414   2.642   0.696  1.7255  0.9170 -0.5402
 4917TIP3    H214709   6.371   2.746   0.798 -1.2096 -0.7741  0.0840
 4918TIP3   OH214710   7.416   4.850   0.705  0.2039  0.1683  0.5555
 4918TIP3    H114711   7.427   4.755   0.709 -0.2147  0.0427 -0.7082
 4918TIP3    H214712   7.473   4.884   0.774 -0.2261 -1.0340  1.5416
 4919TIP3   OH214713   5.076   2.754   3.240  0.1657  0.4906  0.0943
 4919TIP3    H114714   5.113   2.805   3.168 -2.7398 -0.9105 -2.5873
 4919TIP3    H214715   4.981   2.763   3.231 -0.3661 -0.7277  3.0813
 4920TIP3   OH214716   6.170   7.064   1.518 -0.1746 -0.0456 -0.3897
 4920TIP3    H114717   6.162   7.113   1.436  3.3477  1.0277 -0.2862
 4920TIP3    H214718   6.231   7.116   1.570 -1.0837 -1.5109  2.3209
 4921TIP3   OH214719   6.081   7.240   5.495  0.1399 -0.0425 -0.0305
 4921TIP3    H114720   6.000   7.269   5.453  0.9727  0.6695 -1.2338
 4921TIP3    H214721   6.111   7.316   5.545  1.0548  0.3962 -1.1909
 4922TIP3   OH214722   0.651   7.307   6.374 -0.4944  0.4608 -0.2676
 4922TIP3    H114723   0.670   7.309   6.467  0.6650 -1.2218 -0.3992
 4922TIP3    H214724   0.640   7.398   6.349 -0.2075  0.9814  1.3921
 4923TIP3   OH214725   0.895   4.053   0.491  0.7155 -0.0717  0.3624
 4923TIP3    H114726   0.977   4.083   0.532  1.0883 -1.9474  1.1110
 4923TIP3    H214727   0.924   4.003   0.414  0.2102  0.1133  0.0469
 4924TIP3   OH214728   5.381   3.278   2.043  0.3051 -0.3749 -0.4195
 4924TIP3    H114729   5.400   3.277   1.950 -0.1311  2.9532 -0.6591
 4924TIP3    H214730   5.290   3.249   2.049  0.0844  0.1574 -1.1314
 4925TIP3   OH214731   4.173   2.056   0.042  0.1121  0.3926 -0.1415
 4925TIP3    H114732   4.232   2.127   0.066 -0.4073  0.6421  0.4132
 4925TIP3    H214733   4.182   1.991   0.112  0.8702 -0.2731 -0.8382
 4926TIP3   OH214734   1.724   0.526   0.177 -0.2820  0.1450  0.4060
 4926TIP3    H114735   1.640   0.519   0.222 -0.4335  0.7688  0.2307
 4926TIP3    H214736   1.741   0.620   0.173  0.6389  0.0042  0.8296
 4927TIP3   OH214737   4.311   0.163   5.573 -0.7983  0.2871  0.2787
 4927TIP3    H114738   4.303   0.078   5.615 -1.0591  0.5481  0.7596
 4927TIP3    H214739   4.224   0.180   5.537 -0.4580 -0.1523 -0.8042
 4928TIP3   OH214740   1.313   5.373   3.852  0.0439 -0.9367 -0.4728
 4928TIP3    H114741   1.386   5.326   3.893  1.3151  0.0390 -1.5049
 4928TIP3    H214742   1.314   5.459   3.893  0.2101 -0.5438 -1.2852
 4929TIP3   OH214743   0.057   1.740   1.252  0.2298 -0.1783  0.4023
 4929TIP3    H114744   0.086   1.697   1.332 -0.4209  0.2381  0.8630
 4929TIP3    H214745  -0.002   1.677   1.211  0.2566 -0.2292  0.4409
 4930TIP3   OH214746   2.283   4.728   5.183  0.9694  0.5752 -0.1997
 4930TIP3    H114747   2.249   4.640   5.170  0.7751  0.8726 -1.9939
 4930TIP3    H214748   2.242   4.758   5.264 -1.1956  0.0499 -1.0384
 4931TIP3   OH214749   2.502   3.533   1.072  0.3938 -0.2150  0.1159
 4931TIP3    H114750   2.583   3.522   1.022 -1.0488 -1.5690 -2.0910
 4931TIP3    H214751   2.469   3.445   1.084  0.3822  0.0987  3.1501
 4932TIP3   OH214752   6.935   7.643   2.824  0.1450 -0.6522 -0.0386
 4932TIP3    H114753   6.978   7.687   2.897 -0.1260  1.2925 -0.9692
 4932TIP3    H214754   6.983   7.561   2.813  1.2607 -0.2090  1.2337
 4933TIP3   OH214755   0.580   2.477   2.970 -0.1618 -0.3919  0.4119
 4933TIP3    H114756   0.503   2.484   2.914 -0.4397 -1.2760  0.6663
 4933TIP3    H214757   0.625   2.399   2.940  0.0111 -0.5333  1.0184
 4934TIP3   OH214758   7.120   4.535   4.944 -0.0564  0.5358  0.9337
 4934TIP3    H114759   7.151   4.462   4.997  0.2008  0.8981  1.2899
 4934TIP3    H214760   7.167   4.611   4.979  1.0049  0.6082 -0.5781
 4935TIP3   OH214761   5.198   6.654   4.666  0.2740  0.3127 -0.1268
 4935TIP3    H114762   5.240   6.643   4.751 -0.3479  2.4257  0.5180
 4935TIP3    H214763   5.119   6.600   4.671 -0.2584  1.1567  1.0460
 4936TIP3   OH214764   6.867   3.293   1.160 -0.0297  0.1007 -0.6512
 4936TIP3    H114765   6.803   3.323   1.225  2.5416  1.6562  1.3742
 4936TIP3    H214766   6.877   3.200   1.179 -1.7461 -0.1957 -1.0907
 4937TIP3   OH214767   5.270   5.607   5.282  0.2122 -0.8014 -0.2206
 4937TIP3    H114768   5.243   5.612   5.374  1.1574  2.1520 -0.0003
 4937TIP3    H214769   5.214   5.539   5.245 -3.0089  0.5464  1.6669
 4938TIP3   OH214770   6.538   5.634   0.800  0.1051 -0.5952 -0.0239
 4938TIP3    H114771   6.507   5.554   0.759  0.2971 -0.6376 -0.0880
 4938TIP3    H214772   6.615   5.659   0.749  1.0216 -1.2509  0.9923
 4939TIP3   OH214773   0.941   0.641   2.948  0.2599 -0.1473  0.2326
 4939TIP3    H114774   1.032   0.655   2.923  0.3042  2.3903  1.4714
 4939TIP3    H214775   0.898   0.615   2.867  1.8202 -0.0032 -0.6874
 4940TIP3   OH214776   4.977   0.422   5.974  0.0072  1.1877 -0.4655
 4940TIP3    H114777   4.992   0.516   5.980 -0.0041  1.1862 -0.4123
 4940TIP3    H214778   5.034   0.384   6.041  0.6200  1.0917 -1.0416
 4941TIP3   OH214779   6.265   4.277   2.785  0.1851  0.5612 -0.0215
 4941TIP3    H114780   6.360   4.279   2.801  0.2598 -2.1584  0.3126
 4941TIP3    H214781   6.226   4.287   2.872  0.2472 -0.5614  0.1469
 4942TIP3   OH214782   4.828   2.052   3.935 -0.2847 -0.7486  0.3142
 4942TIP3    H114783   4.883   2.007   3.871 -0.7891 -0.7402 -0.1296
 4942TIP3    H214784   4.787   2.123   3.885 -1.5818 -1.4446  0.3565
 4943TIP3   OH214785   0.410   4.248   6.505 -0.1901 -0.5319  0.0391
 4943TIP3    H114786   0.325   4.245   6.462 -0.2958 -0.9731  0.2665
 4943TIP3    H214787   0.465   4.301   6.447 -0.3874 -0.9301 -0.5176
 4944TIP3   OH214788   1.373   6.903   1.133 -0.3214  0.0813 -0.2094
 4944TIP3    H114789   1.448   6.845   1.148 -0.2676  0.3490  0.6293
 4944TIP3    H214790   1.359   6.900   1.039  0.2690 -0.5643 -0.2882
 4945TIP3   OH214791   4.041   1.953   2.571  0.1762 -0.2748 -0.2345
 4945TIP3    H114792   3.998   1.886   2.519  0.4738 -0.7368  0.1102
 4945TIP3    H214793   4.120   1.974   2.523 -0.6754  0.9660 -1.1506
 4946TIP3   OH214794   3.524   6.755   4.258  0.2292 -0.0933 -0.4984
 4946TIP3    H114795   3.578   6.677   4.270 -1.1469 -1.1726 -1.0937
 4946TIP3    H214796   3.572   6.809   4.195  0.7685 -0.8719 -0.7587
 4947TIP3   OH214797   2.790   1.062   5.908 -0.2312  0.0711 -0.4641
 4947TIP3    H114798   2.840   1.004   5.850 -1.2837  0.0456 -1.3692
 4947TIP3    H214799   2.745   1.003   5.968 -0.6312 -0.0162 -0.8430
 4948TIP3   OH214800   2.253   7.415   4.849 -0.0174 -0.4255 -0.3243
 4948TIP3    H114801   2.294   7.464   4.920 -2.0532  1.1252 -0.1369
 4948TIP3    H214802   2.213   7.340   4.893  0.6394 -0.7171 -0.2000
 4949TIP3   OH214803   0.221   2.933   6.401  0.3454 -0.6675  0.3232
 4949TIP3    H114804   0.306   2.962   6.366 -0.3177 -0.3990 -1.1302
 4949TIP3    H214805   0.227   2.951   6.495  2.0731 -1.1113  0.3328
 4950TIP3   OH214806   6.467   0.414   0.180  0.1792 -0.9733 -0.0039
 4950TIP3    H114807   6.470   0.491   0.122  2.0671 -1.1692 -0.2383
 4950TIP3    H214808   6.467   0.339   0.120 -1.3795 -1.1929  0.2294
 4951TIP3   OH214809   5.122   0.262   3.601  0.5708 -0.2687 -0.7716
 4951TIP3    H114810   5.050   0.305   3.556  0.3040 -0.4942 -0.5625
 4951TIP3    H214811   5.080   0.198   3.659  0.9648 -1.2395 -1.5154
 4952TIP3   OH214812   6.346   6.346   5.033 -0.2001 -0.4538  0.1076
 4952TIP3    H114813   6.374   6.425   4.987  0.5258 -0.6219  0.2393
 4952TIP3    H214814   6.358   6.367   5.126 -1.5984 -0.1365  0.2417
 4953TIP3   OH214815   7.562   2.002   3.171 -0.3528  0.4769  0.1706
 4953TIP3    H114816   7.497   1.964   3.113 -0.5354  1.6344 -0.4198
 4953TIP3    H214817   7.640   2.014   3.116 -0.4593  1.3871  0.1951
 4954TIP3   OH214818   5.535   0.749   4.062 -0.1454 -0.2241 -0.2072
 4954TIP3    H114819   5.462   0.690   4.044 -0.5359  0.4253 -0.7514
 4954TIP3    H214820   5.497   0.836   4.061  0.3291  0.0223  1.1291
 4955TIP3   OH214821   4.563   6.337   5.733  0.3073 -0.2669 -0.1530
 4955TIP3    H114822   4.531   6.319   5.645  1.6394  1.1061 -0.9650
 4955TIP3    H214823   4.606   6.256   5.759 -0.7399 -0.9380 -0.4433
 4956TIP3   OH214824   0.226   0.798   5.128  0.1927  0.6452  0.1171
 4956TIP3    H114825   0.201   0.726   5.070  0.8655  1.1476 -0.8284
 4956TIP3    H214826   0.231   0.758   5.215 -2.8765  0.2996  0.2447
 4957TIP3   OH214827   2.869   2.065   2.957  0.7337 -0.2397  0.1034
 4957TIP3    H114828   2.940   2.070   2.893 -1.3758 -1.3890 -2.5065
 4957TIP3    H214829   2.868   2.151   2.999  2.6001  0.3485 -0.9547
 4958TIP3   OH214830   0.574   5.393   5.650 -0.3144  0.4892  0.4347
 4958TIP3    H114831   0.585   5.468   5.591  2.1940 -1.9059 -2.4085
 4958TIP3    H214832   0.488   5.358   5.628 -0.3191  0.8955 -0.2363
 4959TIP3   OH214833   8.157   5.470   5.392 -0.4549  0.0091 -0.4289
 4959TIP3    H114834   8.234   5.415   5.376  0.4338  1.0453  0.1767
 4959TIP3    H214835   8.100   5.453   5.317  0.7726 -0.0849 -1.3745
 4960TIP3   OH214836   8.242   5.415   6.482  0.3888 -0.0388  0.1042
 4960TIP3    H114837   8.280   5.445   6.564 -1.1240  1.0656  0.4474
 4960TIP3    H214838   8.271   5.478   6.416  1.5680 -0.9005 -0.2468
 4961TIP3   OH214839   1.357   6.333   1.258  0.4138 -0.2312  0.2003
 4961TIP3    H114840   1.378   6.412   1.208  1.3438  0.1670  1.1784
 4961TIP3    H214841   1.303   6.363   1.331 -2.9830 -1.1251 -1.7365
 4962TIP3   OH214842   8.057   5.734   0.536  0.3309  0.0643  0.1245
 4962TIP3    H114843   8.100   5.652   0.560 -2.6893 -1.9076 -0.6213
 4962TIP3    H214844   8.035   5.723   0.443 -0.9672  1.2937  0.2551
 4963TIP3   OH214845   5.894   2.512   6.254 -0.0405  0.4952  0.7444
 4963TIP3    H114846   5.888   2.559   6.171 -0.3422 -2.4106 -1.0255
 4963TIP3    H214847   5.983   2.529   6.285 -0.3630  2.7258  0.6163
 4964TIP3   OH214848   6.369   5.140   1.362  0.1679  0.0146 -0.1107
 4964TIP3    H114849   6.452   5.188   1.366 -0.8604  1.8599 -0.3753
 4964TIP3    H214850   6.313   5.182   1.427 -0.8902 -0.6200 -0.5855
 4965TIP3   OH214851   5.711   6.808   3.856 -0.1201 -0.1126 -0.3975
 4965TIP3    H114852   5.666   6.724   3.872 -0.6491  0.0451 -1.0166
 4965TIP3    H214853   5.773   6.789   3.786  1.0471 -0.4110  0.6853
 4966TIP3   OH214854   8.158   6.628   5.034  0.2406 -0.6314 -0.2704
 4966TIP3    H114855   8.202   6.615   4.950  0.9278 -0.9272  0.1225
 4966TIP3    H214856   8.180   6.717   5.060 -0.8823 -0.1527 -0.9148
 4967TIP3   OH214857   8.094   1.864   2.917  0.1659  0.4742 -0.4532
 4967TIP3    H114858   8.164   1.904   2.969 -0.6143  1.3916 -0.0563
 4967TIP3    H214859   8.134   1.788   2.876  0.9763  0.0806  1.0050
 4968TIP3   OH214860   7.388   2.713   4.849  0.1616 -0.1921  0.5500
 4968TIP3    H114861   7.424   2.790   4.895 -1.2980  1.1561 -0.4380
 4968TIP3    H214862   7.296   2.736   4.834  0.2947 -1.0482 -1.9975
 4969TIP3   OH214863   2.359   2.460   4.911 -0.4557 -0.2895 -0.5968
 4969TIP3    H114864   2.350   2.372   4.946 -0.4603 -0.1160 -0.1420
 4969TIP3    H214865   2.398   2.449   4.825 -1.4683 -0.8004 -0.9987
 4970TIP3   OH214866   8.192   3.876   3.692  0.4482  0.3697 -0.4270
 4970TIP3    H114867   8.169   3.860   3.601 -0.9450  0.3525 -0.0968
 4970TIP3    H214868   8.201   3.971   3.699 -3.9867  0.9332  0.3252
 4971TIP3   OH214869   4.099   7.541   2.545  0.0591  0.5285  0.5005
 4971TIP3    H114870   4.148   7.569   2.622 -1.2744  0.8447  1.2659
 4971TIP3    H214871   4.151   7.572   2.471  0.9842  0.8849  1.2820
 4972TIP3   OH214872   4.107   0.234   6.653  0.6081  0.0110 -0.5559
 4972TIP3    H114873   4.153   0.282   6.722  0.2217  0.6879 -0.7632
 4972TIP3    H214874   4.022   0.277   6.647  0.2277 -0.7571 -0.6953
 4973TIP3   OH214875   1.334   7.492   1.368 -0.2775  0.0502 -0.2626
 4973TIP3    H114876   1.372   7.554   1.306  0.9964 -0.8583 -0.4343
 4973TIP3    H214877   1.253   7.533   1.396 -0.9116  0.4834 -2.5513
 4974TIP3   OH214878   2.703   6.227   3.869 -0.1841  0.1775  0.4470
 4974TIP3    H114879   2.682   6.271   3.951  0.5985  0.1284  0.6837
 4974TIP3    H214880   2.747   6.294   3.817 -0.1749  0.0495  0.2909
 4975TIP3   OH214881   6.363   1.326   3.821 -0.2481 -0.3325 -0.5724
 4975TIP3    H114882   6.368   1.302   3.914 -2.7610  1.8476  0.2727
 4975TIP3    H214883   6.333   1.417   3.822  0.4944  0.0351 -3.5630
 4976TIP3   OH214884   4.648   5.873   4.542  0.3271 -0.0040  0.3875
 4976TIP3    H114885   4.646   5.779   4.560 -1.2546 -0.0448  0.1342
 4976TIP3    H214886   4.615   5.882   4.453  0.9297  0.7660  0.2268
 4977TIP3   OH214887   1.209   3.123   3.929 -0.6294  0.2453 -0.3968
 4977TIP3    H114888   1.147   3.110   3.857 -0.2298 -0.5677 -0.6109
 4977TIP3    H214889   1.178   3.064   3.998 -1.0260  1.0407  0.1146
 4978TIP3   OH214890   5.693   7.389   0.573  0.1069  0.1524  0.1331
 4978TIP3    H114891   5.638   7.467   0.576 -0.3509 -0.1968  1.2049
 4978TIP3    H214892   5.641   7.326   0.521 -0.2264  0.0395  0.5978
 4979TIP3   OH214893   2.073   0.795   2.781 -0.3343 -0.1566 -0.0874
 4979TIP3    H114894   2.064   0.803   2.686  0.5909 -1.0342 -0.2702
 4979TIP3    H214895   2.039   0.707   2.801 -0.7849  0.1318  0.4365
 4980TIP3   OH214896   6.092   5.950   4.211  0.3225  0.6978 -0.2833
 4980TIP3    H114897   6.006   5.975   4.247  0.6233  0.3505  0.6965
 4980TIP3    H214898   6.079   5.954   4.116 -1.5746 -1.9466 -0.2382
 4981TIP3   OH214899   4.456   2.105   6.459 -0.3045  0.2641 -0.0528
 4981TIP3    H114900   4.495   2.139   6.379  0.3518  1.6208  0.8064
 4981TIP3    H214901   4.421   2.183   6.504 -1.2653 -0.5483  0.6555
 4982TIP3   OH214902   8.079   7.266   6.062 -0.2082 -0.6409  0.3240
 4982TIP3    H114903   8.045   7.346   6.024  1.6450 -0.7016 -1.6235
 4982TIP3    H214904   8.119   7.294   6.145 -0.6241  0.2274  0.2418
 4983TIP3   OH214905   0.225   3.814   1.484  0.3111 -0.3689 -0.1188
 4983TIP3    H114906   0.181   3.775   1.560 -1.0234 -1.3072 -1.3195
 4983TIP3    H214907   0.243   3.904   1.510 -2.4521  0.0969  0.4153
 4984TIP3   OH214908   6.072   6.000   5.168 -0.5646 -0.4582 -0.2234
 4984TIP3    H114909   6.099   5.942   5.239  1.7735 -0.3694 -0.9694
 4984TIP3    H214910   6.037   5.941   5.101 -1.1631 -0.6852  0.2721
 4985TIP3   OH214911   0.201   2.867   1.866  0.2894  0.8085 -0.2443
 4985TIP3    H114912   0.108   2.883   1.856  0.6691  1.8284 -3.3041
 4985TIP3    H214913   0.241   2.954   1.867  1.3243  0.3783 -1.2829
 4986TIP3   OH214914   8.184   3.102   3.503 -0.3031 -0.5467 -0.8877
 4986TIP3    H114915   8.135   3.020   3.508 -0.1536 -0.5750  0.6271
 4986TIP3    H214916   8.134   3.164   3.557  1.5502 -0.7427  1.2211
 4987TIP3   OH214917   5.939   0.336   3.310 -0.1743  0.0739 -0.1033
 4987TIP3    H114918   5.874   0.289   3.361  1.6682 -0.8376  1.5049
 4987TIP3    H214919   5.981   0.395   3.372  1.1778 -0.0353 -0.8710
 4988TIP3   OH214920   0.984   7.678   6.628  0.6450  0.0474  0.4793
 4988TIP3    H114921   1.048   7.743   6.658  3.5017 -1.9903 -0.6942
 4988TIP3    H214922   1.034   7.622   6.569 -2.4355 -1.4583 -0.8975
 4989TIP3   OH214923   1.742   3.654   4.949 -0.2164  0.4763  0.5132
 4989TIP3    H114924   1.776   3.718   4.887 -0.5417 -1.8114 -2.2179
 4989TIP3    H214925   1.820   3.620   4.994  0.1953  1.1254  0.3006
 4990TIP3   OH214926   6.126   6.576   0.209  0.2530  0.1454 -0.0176
 4990TIP3    H114927   6.032   6.569   0.227  0.2644  0.1745  0.0525
 4990TIP3    H214928   6.160   6.488   0.224  0.3677  0.3042  0.7004
 4991TIP3   OH214929   1.597   2.398   3.527 -0.2419  0.0825  0.0037
 4991TIP3    H114930   1.511   2.400   3.569  0.4788  1.3371  1.5071
 4991TIP3    H214931   1.598   2.477   3.472 -0.3728 -0.4207 -0.7414
 4992TIP3   OH214932   7.730   0.160   3.122  0.5398  0.1459  0.2462
 4992TIP3    H114933   7.648   0.211   3.121  2.3914  3.4028 -0.0472
 4992TIP3    H214934   7.730   0.114   3.039 -1.5920 -1.1093  0.8524
 4993TIP3   OH214935   2.227   0.103   3.626  0.6862 -0.3964 -0.3295
 4993TIP3    H114936   2.279   0.106   3.546 -0.3643  0.0432 -1.0134
 4993TIP3    H214937   2.141   0.073   3.598  0.0876  0.4601  0.5077
 4994TIP3   OH214938   4.397   6.851   2.191 -0.1540  0.0722  0.2225
 4994TIP3    H114939   4.423   6.860   2.283  0.8869  1.4308 -0.1843
 4994TIP3    H214940   4.466   6.895   2.142 -0.0118 -1.7577 -1.3236
 4995TIP3   OH214941   6.120   2.172   3.069 -0.0439  0.5349  0.5093
 4995TIP3    H114942   6.211   2.199   3.055 -0.1291  1.1370  1.0762
 4995TIP3    H214943   6.114   2.085   3.029  0.8771  0.3362  0.7808
 4996TIP3   OH214944   0.573   0.786   3.581  0.1956 -0.1354 -0.2506
 4996TIP3    H114945   0.546   0.694   3.586 -0.2126  0.0266  0.9260
 4996TIP3    H214946   0.507   0.833   3.633  1.9077  0.4705  1.4749
 4997TIP3   OH214947   1.841   3.519   2.649 -0.0153  0.2138 -0.3532
 4997TIP3    H114948   1.907   3.449   2.652  0.2244  0.4482  0.0039
 4997TIP3    H214949   1.880   3.590   2.700  0.3441  1.1320 -1.8670
 4998TIP3   OH214950   7.613   1.078   6.184  0.6747 -0.3479  0.4620
 4998TIP3    H114951   7.637   1.108   6.096 -2.2901  0.3170 -0.2158
 4998TIP3    H214952   7.655   0.992   6.192 -0.1878 -1.1098 -2.2208
 4999TIP3   OH214953   7.021   3.185   5.800  0.5183 -0.0675 -0.8982
 4999TIP3    H114954   6.983   3.225   5.878 -1.4015 -1.1344 -1.2063
 4999TIP3    H214955   7.007   3.249   5.731 -0.7266 -0.4087 -0.9890
 5000TIP3   OH214956   6.995   6.258   5.068 -0.0194  0.2757 -0.4189
 5000TIP3    H114957   6.997   6.280   5.162  2.7618  0.8913 -0.5184
 5000TIP3    H214958   6.995   6.163   5.066  1.4195  0.2259  0.2981
 5001TIP3   OH214959   4.118   4.502   2.614  0.0378 -0.5215  0.1570
 5001TIP3    H114960   4.210   4.521   2.634 -0.0157 -0.0218 -0.0562
 5001TIP3    H214961   4.070   4.579   2.645 -0.0784  0.1703 -1.6158
 5002TIP3   OH214962   1.245   1.743   5.668  0.4897 -0.6092  0.4654
 5002TIP3    H114963   1.306   1.752   5.742 -0.1725  1.1561  0.8346
 5002TIP3    H214964   1.159   1.764   5.705 -0.1918 -1.8434 -0.3447
 5003TIP3   OH214965   2.498   7.213   1.621  0.3990  0.0068 -0.3003
 5003TIP3    H114966   2.549   7.132   1.615 -0.7201 -0.6208 -2.2334
 5003TIP3    H214967   2.444   7.201   1.699  1.4671 -0.3305  0.4214
 5004TIP3   OH214968   6.673   7.266   3.567  0.2345 -0.3782  0.7085
 5004TIP3    H114969   6.662   7.321   3.489  0.9533 -0.6953  0.3786
 5004TIP3    H214970   6.756   7.221   3.553  1.3464  0.9804  2.5591
 5005TIP3   OH214971   7.933   6.706   1.201 -0.3181  0.2709 -0.0907
 5005TIP3    H114972   7.900   6.795   1.189  0.0393  0.5509  0.9520
 5005TIP3    H214973   8.027   6.717   1.214 -0.1198 -0.3479 -0.8754
 5006TIP3   OH214974   1.955   3.900   4.054 -0.0620 -0.0606 -0.6041
 5006TIP3    H114975   1.884   3.837   4.048 -0.3071  0.1604 -0.0593
 5006TIP3    H214976   2.001   3.878   4.135  0.3168 -0.0228 -0.8038
 5007TIP3   OH214977   7.675   4.253   4.114 -0.1133  0.0453  0.3121
 5007TIP3    H114978   7.722   4.221   4.191  0.8154  0.6066 -0.0119
 5007TIP3    H214979   7.713   4.339   4.095 -0.6076  0.0977 -0.5279
 5008TIP3   OH214980   5.000   0.136   6.609 -0.5136  0.1215 -0.1327
 5008TIP3    H114981   5.053   0.118   6.532  0.1001  1.7401 -0.1255
 5008TIP3    H214982   4.922   0.082   6.597 -1.6092  2.0800 -3.1627
 5009TIP3   OH214983   6.474   0.109   4.650  0.6358 -0.3624  0.1114
 5009TIP3    H114984   6.466   0.202   4.627  0.2590 -0.6952 -1.1654
 5009TIP3    H214985   6.384   0.078   4.658  0.6888 -1.2182 -2.1015
 5010TIP3   OH214986   4.133   6.658   3.080 -0.1116  0.6317 -0.1533
 5010TIP3    H114987   4.218   6.688   3.048 -1.0474  1.2220 -2.2693
 5010TIP3    H214988   4.093   6.614   3.005 -1.3722 -0.2952  1.0245
 5011TIP3   OH214989   8.249   4.642   3.457  0.6396  0.0094 -0.3259
 5011TIP3    H114990   8.205   4.564   3.489  1.1239 -0.9291 -1.8659
 5011TIP3    H214991   8.309   4.667   3.528  0.1063 -0.6822  0.3884
 5012TIP3   OH214992   3.982   2.891   2.213 -0.1665  0.1347  0.3030
 5012TIP3    H114993   3.989   2.901   2.308 -2.2062 -2.4809  0.8530
 5012TIP3    H214994   4.007   2.800   2.196  0.3136  0.5860 -1.7203
 5013TIP3   OH214995   4.211   4.715   2.961 -0.0355  0.7106 -0.4318
 5013TIP3    H114996   4.293   4.755   2.991  0.1507  0.7345 -0.9636
 5013TIP3    H214997   4.216   4.625   2.991  0.2887  0.6531 -0.6474
 5014TIP3   OH214998   1.242   5.142   6.286  0.2781 -0.2997 -0.0605
 5014TIP3    H114999   1.183   5.204   6.329  1.2300 -0.7021  1.9409
 5014TIP3    H215000   1.278   5.190   6.212 -1.3659  0.4608 -0.4200
 5015TIP3   OH215001   7.387   1.685   4.479  0.2528  0.4113 -0.1491
 5015TIP3    H115002   7.338   1.752   4.431  0.3831  0.5729 -0.0595
 5015TIP3    H215003   7.324   1.615   4.494 -0.1099  0.8626  0.4662
 5016TIP3   OH215004   0.250   0.600   5.349 -0.0312 -0.1123  0.4129
 5016TIP3    H115005   0.274   0.666   5.414 -1.8459  1.4053 -0.3838
 5016TIP3    H215006   0.157   0.583   5.364 -0.2434 -0.4910 -1.1214
 5017TIP3   OH215007   0.845   2.012   2.161 -0.5271  0.2381  0.4868
 5017TIP3    H115008   0.789   2.051   2.094  0.0695 -0.8707 -0.7050
 5017TIP3    H215009   0.909   1.960   2.112  0.9082  0.6233  1.8553
 5018TIP3   OH215010   7.538   5.809   5.232  0.3321 -0.3330 -0.3595
 5018TIP3    H115011   7.633   5.803   5.229  0.3990  0.1019  0.4948
 5018TIP3    H215012   7.519   5.845   5.319 -0.6977 -1.9790  0.1337
 5019TIP3   OH215013   7.496   6.826   6.090 -0.2842 -0.0539 -0.2329
 5019TIP3    H115014   7.518   6.740   6.054 -0.6634 -0.8781  1.4015
 5019TIP3    H215015   7.578   6.857   6.128 -0.2696  0.0736 -0.3698
 5020TIP3   OH215016   7.307   3.322   3.213  0.4614  0.2017  0.3701
 5020TIP3    H115017   7.332   3.414   3.208  0.2515  0.2318 -0.3057
 5020TIP3    H215018   7.321   3.298   3.304 -0.3951  1.1699  0.7778
 5021TIP3   OH215019   6.550   4.212   1.442 -0.2850 -0.2400 -0.3848
 5021TIP3    H115020   6.602   4.133   1.455  0.5582  0.4339  0.4727
 5021TIP3    H215021   6.460   4.185   1.462 -0.0579 -1.0564 -0.4459
 5022TIP3   OH215022   4.794   1.291   1.941 -0.6288 -0.5236  0.6070
 5022TIP3    H115023   4.715   1.309   1.890 -0.0051 -0.4567 -0.3488
 5022TIP3    H215024   4.856   1.359   1.915 -0.1741 -0.7129  1.1722
 5023TIP3   OH215025   6.036   7.607   0.184  0.0737 -0.0211 -0.6760
 5023TIP3    H115026   6.110   7.603   0.244 -0.1409 -1.6485 -0.4579
 5023TIP3    H215027   5.962   7.574   0.235 -0.3628 -0.3022 -1.4771
 5024TIP3   OH215028   0.704   5.348   1.478 -0.0910 -0.1194 -0.7406
 5024TIP3    H115029   0.627   5.387   1.520 -0.1999 -0.0989 -0.9561
 5024TIP3    H215030   0.676   5.259   1.456  1.2757 -1.6853  3.0185
 5025TIP3   OH215031   0.545   1.173   6.759 -0.3769  0.5390  0.1490
 5025TIP3    H115032   0.556   1.094   6.813  1.0268  1.2653  0.9937
 5025TIP3    H215033   0.633   1.194   6.729 -0.9276  1.0344 -1.1832
 5026TIP3   OH215034   2.912   7.301   0.594  0.3989  0.3440  0.5374
 5026TIP3    H115035   2.885   7.209   0.601  0.6088  0.4157  3.4777
 5026TIP3    H215036   2.834   7.350   0.620  0.7751  0.9363  0.5564
 5027TIP3   OH215037   4.686   6.916   2.671 -0.2282  0.0433 -0.1207
 5027TIP3    H115038   4.709   7.009   2.667 -0.5109  0.1270  0.1761
 5027TIP3    H215039   4.770   6.870   2.663 -0.0121  0.3329  0.4122
 5028TIP3   OH215040   3.680   1.066   6.331 -0.7136 -0.1125 -0.0808
 5028TIP3    H115041   3.766   1.107   6.323 -0.8509 -0.0928 -1.7945
 5028TIP3    H215042   3.683   1.022   6.416  0.8855  0.1050  0.0146
 5029TIP3   OH215043   4.311   2.237   1.098  0.1071 -0.2304  0.6045
 5029TIP3    H115044   4.332   2.308   1.038  0.6732 -0.4561  0.5340
 5029TIP3    H215045   4.308   2.159   1.043 -0.3119 -0.2956  0.7156
 5030TIP3   OH215046   3.363   6.376   3.997  0.1200  0.2857  0.0197
 5030TIP3    H115047   3.436   6.315   4.005 -0.3363 -0.1052  1.2324
 5030TIP3    H215048   3.395   6.456   4.038  0.1382  0.3685 -0.1528
 5031TIP3   OH215049   7.724   0.080   1.013  0.0870  0.4873  0.1767
 5031TIP3    H115050   7.684   0.081   0.926 -0.4647 -0.0467  0.4189
 5031TIP3    H215051   7.652   0.060   1.073  0.6170 -0.0255  0.6650
 5032TIP3   OH215052   7.221   5.936   0.810 -0.3303  0.2754  0.1558
 5032TIP3    H115053   7.190   5.908   0.896  1.9770  1.1837  1.3747
 5032TIP3    H215054   7.238   5.855   0.762 -0.9577 -0.2521  0.8191
 5033TIP3   OH215055   5.367   5.256   5.423 -0.7211 -0.3247 -0.1355
 5033TIP3    H115056   5.423   5.333   5.417 -0.4951 -0.5182 -0.5706
 5033TIP3    H215057   5.405   5.194   5.361 -1.8353 -0.1951 -0.9745
 5034TIP3   OH215058   7.670   4.670   3.384  0.3357  0.1251 -0.0278
 5034TIP3    H115059   7.676   4.627   3.299  0.3506  0.3900 -0.1646
 5034TIP3    H215060   7.637   4.758   3.364  0.8901  0.3888  0.1780
 5035TIP3   OH215061   1.792   6.772   4.029  0.0446 -0.3498 -0.3440
 5035TIP3    H115062   1.836   6.727   4.101  0.5663  0.9860  0.2112
 5035TIP3    H215063   1.863   6.809   3.977 -0.3695  1.1543  0.1100
 5036TIP3   OH215064   6.161   1.276   0.732 -0.0642  0.7025 -0.2842
 5036TIP3    H115065   6.228   1.253   0.667  2.2986  2.1558  1.4704
 5036TIP3    H215066   6.117   1.193   0.751  1.7432 -0.4905 -1.0265
 5037TIP3   OH215067   1.477   4.114   1.164  0.1522 -0.3052  0.6050
 5037TIP3    H115068   1.525   4.090   1.084 -2.8160  0.2214 -1.4929
 5037TIP3    H215069   1.466   4.031   1.210  2.9209 -0.4554  1.1939
 5038TIP3   OH215070   6.234   1.865   1.333 -0.0758 -0.4157  0.1974
 5038TIP3    H115071   6.144   1.898   1.338  0.1252  0.2189 -0.2327
 5038TIP3    H215072   6.255   1.867   1.240  0.5335 -0.1406  0.3339
 5039TIP3   OH215073   3.407   2.859   4.697  0.4446  0.4597 -0.6634
 5039TIP3    H115074   3.428   2.910   4.619  2.3712 -0.0069 -0.5059
 5039TIP3    H215075   3.411   2.768   4.667 -0.2066  0.3159 -0.3272
 5040TIP3   OH215076   6.207   0.985   5.533 -0.1401 -0.2472  0.1682
 5040TIP3    H115077   6.242   1.042   5.465 -0.6330  0.4851  0.5114
 5040TIP3    H215078   6.259   0.906   5.527  0.3360  0.1076 -0.5465
 5041TIP3   OH215079   6.928   4.521   0.503  0.1110 -0.1817  0.1977
 5041TIP3    H115080   6.842   4.554   0.530  0.0169 -0.3126  0.0562
 5041TIP3    H215081   6.931   4.431   0.535 -0.9235 -1.1384 -2.1798
 5042TIP3   OH215082   4.989   2.330   5.905 -0.1488  0.1389 -0.3690
 5042TIP3    H115083   4.907   2.325   5.955  0.8519  0.6323  1.3886
 5042TIP3    H215084   5.010   2.239   5.886 -0.0670 -0.1512  0.9819
 5043TIP3   OH215085   2.117   1.379   5.180  0.3820 -0.3690 -0.2890
 5043TIP3    H115086   2.150   1.465   5.153 -0.8166  0.2807  0.2398
 5043TIP3    H215087   2.100   1.388   5.274 -0.7035 -0.8544 -0.4214
 5044TIP3   OH215088   2.216   2.543   0.367  0.0094  0.2157 -0.0696
 5044TIP3    H115089   2.144   2.602   0.347  1.5207  1.9167 -0.7704
 5044TIP3    H215090   2.274   2.593   0.424  0.7063 -1.0767  0.4120
 5045TIP3   OH215091   0.601   0.984   5.595  0.3376  0.3657 -0.7420
 5045TIP3    H115092   0.523   1.039   5.592  1.0348  1.6319  1.8385
 5045TIP3    H215093   0.669   1.037   5.555  0.7379  0.9418  0.6539
 5046TIP3   OH215094   4.974   0.901   0.825 -0.1724  0.7948  0.1249
 5046TIP3    H115095   4.885   0.869   0.807  0.3800 -0.3732 -0.6517
 5046TIP3    H215096   4.999   0.857   0.906 -0.5765  1.7402  0.7837
 5047TIP3   OH215097   0.815   0.283   6.585  0.2725 -0.2132 -0.4813
 5047TIP3    H115098   0.905   0.301   6.611  0.3868 -2.1842  0.6731
 5047TIP3    H215099   0.777   0.370   6.572  2.7658  0.6670 -2.7956
 5048TIP3   OH215100   3.886   0.218   0.874  0.3925  0.6785 -0.2158
 5048TIP3    H115101   3.859   0.128   0.891  0.1141  0.4064 -1.8828
 5048TIP3    H215102   3.972   0.225   0.915 -0.0829  0.0285  0.9324
 5049TIP3   OH215103   4.807   2.663   4.158 -0.2138 -0.1842 -0.4163
 5049TIP3    H115104   4.801   2.692   4.067  1.1503 -0.3623 -0.5889
 5049TIP3    H215105   4.795   2.743   4.210  1.4041  0.3653 -0.8307
 5050TIP3   OH215106   3.197   7.170   4.401 -0.5266  0.0958 -0.2654
 5050TIP3    H115107   3.123   7.139   4.452  0.3679  0.1028  1.0923
 5050TIP3    H215108   3.241   7.233   4.458  0.7948 -0.2624 -0.8387
 5051TIP3   OH215109   3.520   2.408   3.278 -0.0499  0.4651  0.4365
 5051TIP3    H115110   3.612   2.435   3.281  0.2177 -0.4435  0.8321
 5051TIP3    H215111   3.473   2.486   3.247  1.0648  0.3996 -1.6279
 5052TIP3   OH215112   1.367   7.794   5.896  0.0373  0.4318 -0.0271
 5052TIP3    H115113   1.381   7.793   5.801 -0.6785  2.1303 -0.1828
 5052TIP3    H215114   1.400   7.879   5.924  0.9522 -0.3574  1.3965
 5053TIP3   OH215115   7.227   3.911   6.249  0.0098  0.0864  0.0816
 5053TIP3    H115116   7.189   3.984   6.299  0.2543 -0.0067  0.4055
 5053TIP3    H215117   7.152   3.870   6.207 -0.6080 -1.4645  2.4643
 5054TIP3   OH215118   6.707   4.277   0.226  0.1304  0.0461 -0.2526
 5054TIP3    H115119   6.735   4.199   0.274 -0.9137 -1.7156 -2.3117
 5054TIP3    H215120   6.625   4.302   0.267  0.4906  0.0982  0.4547
 5055TIP3   OH215121   3.478   5.771   0.922  0.4803 -0.0830 -0.3222
 5055TIP3    H115122   3.551   5.799   0.977  1.2805  0.0696 -1.4192
 5055TIP3    H215123   3.451   5.687   0.959 -1.2613  1.5069  2.3633
 5056TIP3   OH215124   1.049   4.906   6.556  0.2388  0.1231 -0.3019
 5056TIP3    H115125   1.107   4.982   6.552  1.0309 -0.3472  1.4647
 5056TIP3    H215126   1.098   4.836   6.512 -0.7010  0.6767 -2.3999
 5057TIP3   OH215127   3.668   1.507   5.478 -0.4622 -0.5294 -0.1637
 5057TIP3    H115128   3.627   1.478   5.559  0.7569  1.6123  1.3058
 5057TIP3    H215129   3.595   1.526   5.419 -1.4279 -0.5460  1.0033
 5058TIP3   OH215130   3.907   6.365   4.620  0.3477 -0.3186 -0.1192
 5058TIP3    H115131   3.820   6.377   4.581 -0.1519  0.4284  1.1448
 5058TIP3    H215132   3.954   6.445   4.598  0.5289 -0.4825 -0.3310
 5059TIP3   OH215133   8.106   7.573   3.806 -0.1524 -0.2503  0.1740
 5059TIP3    H115134   8.182   7.559   3.863  0.8978 -2.4368 -1.5808
 5059TIP3    H215135   8.108   7.498   3.746  0.1275  2.8247 -4.0862
 5060TIP3   OH215136   5.794   4.309   2.172 -0.2280  0.0438  0.4299
 5060TIP3    H115137   5.825   4.392   2.207  1.4076  0.3034 -1.4422
 5060TIP3    H215138   5.721   4.334   2.115  0.2132  0.2108 -0.0722
 5061TIP3   OH215139   3.863   1.937   5.105 -0.2102 -0.2150 -0.6221
 5061TIP3    H115140   3.783   1.989   5.100  1.0055  1.6970 -1.2866
 5061TIP3    H215141   3.932   2.002   5.119  1.3593 -1.6967 -1.2470
 5062TIP3   OH215142   4.197   2.823   2.638  0.0083  0.2673 -0.1552
 5062TIP3    H115143   4.227   2.755   2.577 -2.1965  1.1619 -2.3592
 5062TIP3    H215144   4.210   2.905   2.591 -1.6181  0.9977  0.6150
 5063TIP3   OH215145   2.850   7.366   2.678 -0.1612  0.1476  0.0629
 5063TIP3    H115146   2.825   7.446   2.724  0.8675 -0.6602  2.1840
 5063TIP3    H215147   2.817   7.378   2.589 -1.4209  2.2327  0.7304
 5064TIP3   OH215148   0.743   3.108   3.799  0.8612 -0.5215 -0.7509
 5064TIP3    H115149   0.678   3.177   3.812  0.9284 -0.2844 -1.5984
 5064TIP3    H215150   0.692   3.029   3.785  0.7524 -0.3535 -1.3208
 5065TIP3   OH215151   3.348   1.261   5.699 -0.5091  0.0574 -0.3978
 5065TIP3    H115152   3.256   1.237   5.703 -0.5071  0.1193  0.0350
 5065TIP3    H215153   3.351   1.336   5.640 -0.5811 -0.6733 -1.3676
 5066TIP3   OH215154   2.767   6.255   3.398  0.2737  0.0057  0.3508
 5066TIP3    H115155   2.676   6.257   3.426  0.2630  0.3556  0.2987
 5066TIP3    H215156   2.787   6.346   3.375  0.5090 -0.1446 -0.0476
 5067TIP3   OH215157   5.073   1.075   4.700 -0.1860  0.6955  0.2747
 5067TIP3    H115158   4.991   1.117   4.676 -1.7272 -0.9777  2.2496
 5067TIP3    H215159   5.049   0.984   4.721  1.8744  0.5204  2.3191
 5068TIP3   OH215160   6.183   1.320   3.477  0.5905 -0.4083 -0.0486
 5068TIP3    H115161   6.239   1.381   3.524  0.9942 -0.7021 -0.1527
 5068TIP3    H215162   6.222   1.314   3.390  1.6332 -2.2326  0.5032
 5069TIP3   OH215163   0.483   0.020   0.488  0.3793 -0.0202  0.4496
 5069TIP3    H115164   0.418   0.005   0.419  1.9056 -1.3438 -0.7726
 5069TIP3    H215165   0.512   0.110   0.474 -0.9829  0.5134  0.8695
 5070TIP3   OH215166   0.488   1.583   4.236 -0.0501  0.8564 -0.3073
 5070TIP3    H115167   0.543   1.526   4.181  0.3928 -0.2000  1.1680
 5070TIP3    H215168   0.430   1.523   4.282  0.3311  1.5861  1.1876
 5071TIP3   OH215169   5.629   2.131   1.888 -0.2139 -0.1915 -0.1969
 5071TIP3    H115170   5.655   2.217   1.920  1.7717 -0.7065 -0.3023
 5071TIP3    H215171   5.707   2.077   1.897 -1.5110 -2.0975  0.1760
 5072TIP3   OH215172   0.300   2.184   4.076  0.3152 -0.6398 -0.3903
 5072TIP3    H115173   0.343   2.209   4.158  0.4148 -0.1501 -0.5883
 5072TIP3    H215174   0.250   2.106   4.098 -1.4970  0.7456  0.7287
 5073TIP3   OH215175   4.486   3.964   5.225 -0.9406 -0.4370  0.4754
 5073TIP3    H115176   4.546   3.989   5.155  0.4427 -1.1340  1.3626
 5073TIP3    H215177   4.467   3.871   5.208 -0.6184 -0.6013  0.9940
 5074TIP3   OH215178   7.830   4.034   1.223 -0.0046  0.3816  0.6041
 5074TIP3    H115179   7.756   3.978   1.199  0.0555  0.3409  0.5122
 5074TIP3    H215180   7.907   3.987   1.189  0.0515  0.4890  0.5833
 5075TIP3   OH215181   0.154   4.004   0.770 -0.0486  0.4577 -0.0693
 5075TIP3    H115182   0.127   3.984   0.860  1.3351  1.0325  0.4863
 5075TIP3    H215183   0.071   4.007   0.722 -0.6766 -2.5704  0.5900
 5076TIP3   OH215184   1.010   6.463   1.695 -0.3512 -0.0154 -0.4606
 5076TIP3    H115185   1.068   6.525   1.652  2.9463 -2.3725  0.2101
 5076TIP3    H215186   1.017   6.485   1.788 -2.2231  0.9295 -0.5066
 5077TIP3   OH215187   7.023   5.185   6.657 -0.8906  0.2059  0.1662
 5077TIP3    H115188   7.072   5.263   6.629  0.1061 -0.4713 -0.0328
 5077TIP3    H215189   6.948   5.220   6.705 -1.7595  1.3790 -1.8878
 5078TIP3   OH215190   7.194   2.108   0.270  0.0815 -0.0395  0.1633
 5078TIP3    H115191   7.158   2.085   0.356 -0.4408  1.6963  0.4398
 5078TIP3    H215192   7.284   2.133   0.287 -0.0227  0.3072  0.2127
 5079TIP3   OH215193   5.319   7.628   3.491  0.2866 -0.0818 -0.0523
 5079TIP3    H115194   5.247   7.598   3.546  1.5588 -0.5721  1.4184
 5079TIP3    H215195   5.388   7.563   3.502  1.5803  1.2139 -0.0686
 5080TIP3   OH215196   4.726   4.302   0.430 -0.3289 -0.0076 -0.4272
 5080TIP3    H115197   4.734   4.369   0.498  1.3322 -0.9991  0.4238
 5080TIP3    H215198   4.733   4.351   0.348  0.5111  0.9212  0.1625
 5081TIP3   OH215199   4.869   7.670   5.922  0.9285  0.1062 -0.0236
 5081TIP3    H115200   4.784   7.712   5.908  1.1560  1.3722  1.9414
 5081TIP3    H215201   4.918   7.733   5.975  2.4815 -1.3048  0.2969
 5082TIP3   OH215202   7.689   2.771   1.326  0.3822 -0.8068 -0.1105
 5082TIP3    H115203   7.781   2.745   1.315  0.8243  0.5722  0.1848
 5082TIP3    H215204   7.682   2.854   1.279 -0.1491  0.2208  1.7001
 5083TIP3   OH215205   6.218   2.127   6.253 -0.1641 -0.2145 -0.4768
 5083TIP3    H115206   6.238   2.193   6.186 -0.3964  1.3440  0.9126
 5083TIP3    H215207   6.141   2.082   6.221 -3.5606  3.9754  0.8823
 5084TIP3   OH215208   5.674   7.692   5.254 -0.0135  0.1631 -0.3294
 5084TIP3    H115209   5.633   7.608   5.232  1.1241 -0.7799  0.9885
 5084TIP3    H215210   5.767   7.672   5.258  0.4339  1.8494 -1.4471
 5085TIP3   OH215211   2.276   1.723   3.316 -0.0679 -0.2156  0.0381
 5085TIP3    H115212   2.336   1.705   3.243 -1.1739 -0.8070 -0.7476
 5085TIP3    H215213   2.190   1.732   3.275 -1.1128 -2.8418  1.4362
 5086TIP3   OH215214   2.111   0.343   1.309 -0.4410 -0.0240  0.0691
 5086TIP3    H115215   2.092   0.346   1.402 -1.7128 -0.4067 -0.1647
 5086TIP3    H215216   2.123   0.251   1.289 -0.6880  0.0078 -0.2410
 5087TIP3   OH215217   4.348   1.722   4.316  0.1636  0.2143 -0.3592
 5087TIP3    H115218   4.312   1.747   4.401  1.7228 -1.9851  1.0518
 5087TIP3    H215219   4.297   1.645   4.291  1.1138 -0.4133 -0.3778
 5088TIP3   OH215220   2.826   1.647   3.053 -0.0982 -0.3107  0.3877
 5088TIP3    H115221   2.780   1.594   3.119 -0.8434  1.2222  1.1343
 5088TIP3    H215222   2.766   1.718   3.033  0.4427 -0.3125 -1.4169
 5089TIP3   OH215223   0.387   1.329   0.727 -0.1631  0.2696 -0.4426
 5089TIP3    H115224   0.361   1.311   0.636  0.9124  1.1294 -0.9400
 5089TIP3    H215225   0.478   1.301   0.732 -0.1100  0.5591  0.2704
 5090TIP3   OH215226   5.363   2.629   6.590 -0.0125  0.0795 -0.1185
 5090TIP3    H115227   5.370   2.671   6.676  2.1955 -0.5939  0.1088
 5090TIP3    H215228   5.427   2.675   6.536  1.0200 -1.6110 -0.4209
 5091TIP3   OH215229   3.869   2.189   2.480  0.5889  0.3075  0.2659
 5091TIP3    H115230   3.817   2.148   2.411 -0.5345  0.6019  0.9127
 5091TIP3    H215231   3.931   2.121   2.507  0.8588  0.0958 -0.8248
 5092TIP3   OH215232   8.251   1.902   6.239 -1.0931  0.2962  0.0924
 5092TIP3    H115233   8.170   1.948   6.215 -1.7350 -0.9477 -0.2207
 5092TIP3    H215234   8.320   1.966   6.225 -1.9447  1.1152 -0.4792
 5093TIP3   OH215235   7.510   4.852   1.245  0.0528  0.1448 -0.0794
 5093TIP3    H115236   7.464   4.893   1.172 -1.5144 -1.9378 -0.3570
 5093TIP3    H215237   7.460   4.773   1.264  1.4313 -0.2988  2.1154
 5094TIP3   OH215238   5.875   7.631   6.742 -0.0177 -0.1498  0.3784
 5094TIP3    H115239   5.911   7.706   6.696 -0.3757  0.9962  1.9016
 5094TIP3    H215240   5.949   7.592   6.787  0.2904 -1.1376 -0.9255
 5095TIP3   OH215241   2.352   1.091   3.841  0.4654  0.1642 -0.1973
 5095TIP3    H115242   2.430   1.142   3.866 -0.8897  0.8464  3.1378
 5095TIP3    H215243   2.316   1.138   3.766  1.5325  1.7467  0.2352
 5096TIP3   OH215244   5.537   3.535   2.021  0.8719 -1.2009 -0.2495
 5096TIP3    H115245   5.464   3.474   2.030  0.9579 -1.7308 -2.5016
 5096TIP3    H215246   5.498   3.622   2.022  0.1288 -1.4880 -1.7205
 5097TIP3   OH215247   0.054   3.200   2.683  0.3428  0.0170  0.2244
 5097TIP3    H115248   0.035   3.107   2.671  2.6931 -0.6972  1.4085
 5097TIP3    H215249   0.046   3.214   2.777 -0.1318  1.0669  0.0390
 5098TIP3   OH215250   3.954   4.522   6.067 -0.7857  0.0006  0.3348
 5098TIP3    H115251   3.972   4.443   6.017 -0.3490  0.3926 -0.1392
 5098TIP3    H215252   4.001   4.511   6.150 -0.0654  0.1027 -0.0503
 5099TIP3   OH215253   5.487   2.335   6.609  0.0854 -0.4413  0.0591
 5099TIP3    H115254   5.564   2.363   6.559 -0.8521  2.1462 -0.1088
 5099TIP3    H215255   5.429   2.412   6.608 -1.8172 -1.7661  1.5161
 5100TIP3   OH215256   2.635   2.312   4.924  0.2932  0.0342  0.1876
 5100TIP3    H115257   2.574   2.263   4.979  0.1561  0.3471  0.3168
 5100TIP3    H215258   2.687   2.244   4.880 -0.4479 -0.2507 -0.2776
 5101TIP3   OH215259   0.134   4.210   2.556 -0.0840 -0.2533 -0.6741
 5101TIP3    H115260   0.070   4.158   2.605  0.5311 -0.4304 -0.0532
 5101TIP3    H215261   0.126   4.298   2.592  1.9839 -0.8357  1.4384
 5102TIP3   OH215262   7.469   2.288   1.290  0.0438 -0.1637  0.2482
 5102TIP3    H115263   7.487   2.346   1.216  0.6295 -1.9840 -1.0903
 5102TIP3    H215264   7.548   2.235   1.298  0.0335  0.0673  2.2890
 5103TIP3   OH215265   3.935   1.475   1.532  0.0700  0.5311 -0.4240
 5103TIP3    H115266   3.998   1.478   1.604  3.1391  1.2796 -2.9081
 5103TIP3    H215267   3.961   1.398   1.481 -2.8912 -0.7945 -0.1652
 5104TIP3   OH215268   7.433   6.800   6.688  0.2011 -0.2586 -0.6556
 5104TIP3    H115269   7.363   6.819   6.626  0.0346 -2.6073 -1.2557
 5104TIP3    H215270   7.506   6.856   6.659 -1.1372  1.7323 -0.4043
 5105TIP3   OH215271   5.281   0.019   3.700 -0.4416 -0.3027 -0.2076
 5105TIP3    H115272   5.298   0.046   3.790  1.5946  1.9339 -1.1829
 5105TIP3    H215273   5.191   0.049   3.683 -1.4093 -2.0361  1.4448
 5106TIP3   OH215274   1.143   7.438   3.312  0.0079  0.4006 -0.1077
 5106TIP3    H115275   1.165   7.448   3.405 -0.6860  0.0835  0.0973
 5106TIP3    H215276   1.215   7.479   3.266  0.1963  0.8605  0.5826
 5107TIP3   OH215277   1.885   3.725   3.220 -0.7220  0.1142 -0.1876
 5107TIP3    H115278   1.893   3.806   3.169  0.4395  0.3268  0.2965
 5107TIP3    H215279   1.823   3.672   3.170  0.6612  0.1476 -2.0621
 5108TIP3   OH215280   7.968   2.229   4.606  0.9751  0.5404 -0.1547
 5108TIP3    H115281   8.003   2.201   4.521  1.1489 -0.4709  0.2346
 5108TIP3    H215282   7.900   2.293   4.584  3.2562  2.8967 -0.9427
 5109TIP3   OH215283   1.482   2.581   0.340  0.2032  0.5504  0.6203
 5109TIP3    H115284   1.399   2.612   0.375 -0.4977 -0.6907  0.1158
 5109TIP3    H215285   1.502   2.502   0.390 -1.2709 -1.7932 -2.1533
 5110TIP3   OH215286   5.771   2.531   0.158  0.4136 -0.1700  0.1659
 5110TIP3    H115287   5.690   2.485   0.135 -0.1183  0.6605  0.3631
 5110TIP3    H215288   5.789   2.505   0.248  0.3684 -0.3484  0.1242
 5111TIP3   OH215289   1.036   4.621   0.030 -0.5890  0.0966  0.2136
 5111TIP3    H115290   1.017   4.527   0.035  0.8627 -0.2739 -0.6831
 5111TIP3    H215291   0.950   4.663   0.028 -1.2607 -1.1747  1.1250
 5112TIP3   OH215292   6.201   2.626   4.704  0.2484 -0.9087 -0.2035
 5112TIP3    H115293   6.201   2.676   4.622 -0.5812  0.2258  0.4654
 5112TIP3    H215294   6.160   2.542   4.680  2.0403 -1.4936 -1.4316
 5113TIP3   OH215295   0.300   5.568   4.020 -0.6031  0.5140  0.1333
 5113TIP3    H115296   0.367   5.590   4.084  1.2433  2.1763 -2.1702
 5113TIP3    H215297   0.251   5.497   4.060  1.0759  0.7588  2.8999
 5114TIP3   OH215298   2.287   0.720   6.286  0.1169  0.6438 -0.5515
 5114TIP3    H115299   2.229   0.712   6.210  3.0536  0.2165 -2.9056
 5114TIP3    H215300   2.280   0.635   6.330 -2.3545  1.2264  0.3380
 5115TIP3   OH215301   1.239   5.227   6.644  0.2791  0.1977 -0.4579
 5115TIP3    H115302   1.205   5.217   6.733  0.5883  1.4526 -0.1768
 5115TIP3    H215303   1.204   5.311   6.614  1.5280  0.5928 -0.8774
 5116TIP3   OH215304   4.684   1.170   5.583  0.2381 -0.1422 -0.1328
 5116TIP3    H115305   4.687   1.242   5.646 -2.2220 -1.1269  1.2473
 5116TIP3    H215306   4.667   1.212   5.499  1.8459  1.0726  0.0991
 5117TIP3   OH215307   6.240   4.421   5.023  0.2492  0.7127 -0.0586
 5117TIP3    H115308   6.323   4.376   5.039  0.1968  1.0626  1.3264
 5117TIP3    H215309   6.209   4.447   5.110 -0.4151  2.1918 -0.6922
 5118TIP3   OH215310   2.618   1.436   6.003 -0.5597 -0.5112 -0.0204
 5118TIP3    H115311   2.620   1.514   6.059 -3.1197  0.0562 -0.6049
 5118TIP3    H215312   2.676   1.374   6.047 -1.2135  0.4782  2.3937
 5119TIP3   OH215313   6.406   4.355   2.189 -0.4715  0.4258 -0.1467
 5119TIP3    H115314   6.456   4.345   2.270  0.5623  0.6178 -0.7331
 5119TIP3    H215315   6.450   4.427   2.144 -1.0633  0.3494 -0.8498
 5120TIP3   OH215316   3.440   6.215   1.473  0.0424 -0.4299  0.1914
 5120TIP3    H115317   3.410   6.176   1.555 -1.2191 -2.7266 -1.2456
 5120TIP3    H215318   3.533   6.233   1.487  0.0185 -1.4564  1.8751
 5121TIP3   OH215319   5.435   4.789   6.153  0.5564 -0.2729 -0.0839
 5121TIP3    H115320   5.366   4.741   6.199 -1.0141  0.5504 -1.4843
 5121TIP3    H215321   5.441   4.746   6.067  2.6772 -1.0899  0.3984
 5122TIP3   OH215322   3.819   4.378   4.816  0.3107 -0.3506  0.2143
 5122TIP3    H115323   3.888   4.327   4.858 -0.4423  0.2067  2.2675
 5122TIP3    H215324   3.814   4.459   4.868 -1.7370 -0.3037  0.0238
 5123TIP3   OH215325   1.684   2.530   2.667 -0.1258  0.3033 -0.2022
 5123TIP3    H115326   1.652   2.618   2.643 -1.4567  0.1407  0.8265
 5123TIP3    H215327   1.635   2.509   2.746 -0.3085 -1.6444 -0.7953
 5124TIP3   OH215328   4.732   7.543   1.432 -0.0397  0.4883 -0.3010
 5124TIP3    H115329   4.779   7.626   1.437 -1.7829  1.5307 -0.4970
 5124TIP3    H215330   4.668   7.547   1.503  0.8722 -1.3987  0.7093
 5125TIP3   OH215331   0.881   7.409   3.237  0.3033 -0.3222 -0.7244
 5125TIP3    H115332   0.830   7.327   3.242 -0.2524  0.0909  0.5863
 5125TIP3    H215333   0.972   7.381   3.246  0.3317 -1.0133 -2.5662
 5126TIP3   OH215334   3.758   5.387   6.538 -0.1579  0.1480  0.1715
 5126TIP3    H115335   3.782   5.379   6.446  0.8817 -1.2356  0.5359
 5126TIP3    H215336   3.832   5.432   6.578  0.0393 -0.5290  0.5799
 5127TIP3   OH215337   6.308   4.404   3.079  0.2018  0.2815  0.5680
 5127TIP3    H115338   6.345   4.455   3.150 -1.2018  1.8836  0.2075
 5127TIP3    H215339   6.282   4.469   3.014  2.9757 -1.1604 -2.2747
 5128TIP3   OH215340   5.713   2.899   1.171 -0.1366  0.0075 -0.2207
 5128TIP3    H115341   5.738   2.808   1.155 -1.5327 -0.3354 -0.5756
 5128TIP3    H215342   5.659   2.895   1.250 -1.4008  0.3237 -1.0569
 5129TIP3   OH215343   3.053   5.125   3.865  0.4298  0.0577 -0.4379
 5129TIP3    H115344   3.092   5.209   3.888  0.2199 -0.2863  1.2602
 5129TIP3    H215345   3.127   5.064   3.867  0.4162  0.0241 -0.7763
 5130TIP3   OH215346   0.982   0.959   1.071  0.1476 -0.7004  0.0047
 5130TIP3    H115347   1.017   1.037   1.115  1.7337 -1.3519 -0.0678
 5130TIP3    H215348   0.925   0.919   1.137 -0.3885  0.2973  0.1729
 5131TIP3   OH215349   0.877   0.241   0.232  0.1060 -0.8096  0.2622
 5131TIP3    H115350   0.848   0.331   0.244  1.8488 -0.1330 -0.2539
 5131TIP3    H215351   0.839   0.214   0.148 -0.1243 -0.4256  0.2444
 5132TIP3   OH215352   2.280   1.626   0.583 -0.0294  0.3700  0.0996
 5132TIP3    H115353   2.203   1.602   0.635  0.3085 -1.6180 -0.2658
 5132TIP3    H215354   2.244   1.652   0.498 -0.3226 -0.4704 -0.0435
 5133TIP3   OH215355   0.485   7.621   0.441 -0.2736  0.0957 -0.3299
 5133TIP3    H115356   0.428   7.544   0.436  0.3213 -0.3676 -0.1471
 5133TIP3    H215357   0.495   7.649   0.350 -0.7785  0.1690 -0.3633
 5134TIP3   OH215358   4.592   0.044   2.336  0.0748  0.7484 -0.0704
 5134TIP3    H115359   4.542   0.049   2.254 -0.5227 -1.0328  0.1568
 5134TIP3    H215360   4.536   0.086   2.401  0.2467  1.5316 -0.4084
 5135TIP3   OH215361   0.644   3.486   5.309 -0.1870  0.6374 -0.3682
 5135TIP3    H115362   0.689   3.401   5.315 -1.5650 -0.0046  1.8601
 5135TIP3    H215363   0.713   3.551   5.317  0.6282 -0.2998  0.3147
 5136TIP3   OH215364   6.569   6.720   3.892 -0.3531 -0.1277  0.0494
 5136TIP3    H115365   6.655   6.760   3.906 -0.9841  0.8837  1.2383
 5136TIP3    H215366   6.568   6.645   3.953 -0.4035  0.0147  0.2253
 5137TIP3   OH215367   3.118   7.581   2.540 -0.0913 -0.2420  0.4910
 5137TIP3    H115368   3.119   7.488   2.516 -0.4055  0.0265 -0.6389
 5137TIP3    H215369   3.158   7.625   2.465  1.6968  0.3878  1.7658
 5138TIP3   OH215370   5.527   0.997   5.054  0.2624 -0.0328 -0.5378
 5138TIP3    H115371   5.598   0.956   5.006  0.2781 -2.4801  1.4094
 5138TIP3    H215372   5.564   1.017   5.140 -1.3413 -1.4413  0.5565
 5139TIP3   OH215373   4.544   4.281   6.130 -0.0045 -0.1280  0.0868
 5139TIP3    H115374   4.453   4.307   6.144 -0.0305 -0.1094 -0.1198
 5139TIP3    H215375   4.561   4.217   6.200 -0.0110  0.2606  0.4447
 5140TIP3   OH215376   7.993   5.054   5.674  0.6710  0.0233  0.9622
 5140TIP3    H115377   8.013   5.118   5.605  2.5152 -1.4683  0.0460
 5140TIP3    H215378   7.927   5.098   5.728  0.0572  1.7263 -1.0254
 5141TIP3   OH215379   1.396   7.047   1.390 -0.2605  0.2140 -0.1463
 5141TIP3    H115380   1.376   7.130   1.346 -0.1204 -0.0866 -0.7891
 5141TIP3    H215381   1.360   6.980   1.333  0.5379 -0.2191 -0.1573
 5142TIP3   OH215382   4.853   7.054   0.582  0.1331 -0.1970  0.0441
 5142TIP3    H115383   4.912   7.129   0.572  1.4520 -0.9488  1.5665
 5142TIP3    H215384   4.768   7.092   0.602  0.5707  0.9181 -0.1521
 5143TIP3   OH215385   3.342   7.147   6.355 -0.1365 -0.3121  0.2686
 5143TIP3    H115386   3.359   7.069   6.302 -1.1182  0.4017 -1.1745
 5143TIP3    H215387   3.399   7.214   6.317 -0.8805  0.2222  0.0758
 5144TIP3   OH215388   3.733   4.585   5.230  0.0371  0.3869  0.0884
 5144TIP3    H115389   3.691   4.506   5.197 -0.4756  0.4200  0.6420
 5144TIP3    H215390   3.826   4.563   5.234 -0.2185 -0.6239  1.3812
 5145TIP3   OH215391   6.907   6.102   1.522 -0.3577 -0.0942  0.1795
 5145TIP3    H115392   6.973   6.033   1.525  0.3182  0.5592  1.1345
 5145TIP3    H215393   6.882   6.116   1.613 -0.7669  0.6567 -0.0333
 5146TIP3   OH215394   7.400   3.900   5.280  0.3257 -0.3289 -0.0883
 5146TIP3    H115395   7.399   3.898   5.376 -0.0300  0.1056 -0.0811
 5146TIP3    H215396   7.463   3.970   5.258 -1.2248  1.1110 -0.1382
 5147TIP3   OH215397   1.577   6.668   4.171 -0.5400 -0.0466 -0.7555
 5147TIP3    H115398   1.586   6.574   4.152  0.4774 -0.3917  1.2260
 5147TIP3    H215399   1.629   6.711   4.103  1.5634 -1.1236  0.0838
 5148TIP3   OH215400   8.140   7.775   5.844 -0.0810  0.2268  0.0653
 5148TIP3    H115401   8.092   7.772   5.761  0.5789  0.3550 -0.3269
 5148TIP3    H215402   8.161   7.684   5.862 -0.8034  0.1310  0.4365
 5149TIP3   OH215403   7.499   5.669   0.079  0.4438  0.4360 -0.0451
 5149TIP3    H115404   7.546   5.753   0.070  0.7162  0.3711  0.6654
 5149TIP3    H215405   7.568   5.606   0.099  0.2267  0.0563 -0.5027
 5150TIP3   OH215406   2.754   6.158   5.321 -0.0060  0.0402  0.5077
 5150TIP3    H115407   2.835   6.152   5.271  0.3311 -0.9402  1.1307
 5150TIP3    H215408   2.776   6.216   5.394  0.2579 -0.5183  0.8799
 5151TIP3   OH215409   1.234   7.678   4.870 -0.0233 -0.5654  0.3394
 5151TIP3    H115410   1.209   7.644   4.784  0.2470 -0.2685  0.1449
 5151TIP3    H215411   1.180   7.756   4.881  0.6252 -0.0710  0.0329
 5152TIP3   OH215412   0.927   0.199   3.749 -0.3329  0.4204 -0.0866
 5152TIP3    H115413   0.995   0.153   3.700  0.4675  0.9203  0.5397
 5152TIP3    H215414   0.918   0.149   3.830 -0.7145  0.3691 -0.1554
 5153TIP3   OH215415   2.622   3.924   4.351 -0.9720  0.1745  0.0412
 5153TIP3    H115416   2.535   3.936   4.312 -0.5120 -1.7402 -1.7935
 5153TIP3    H215417   2.609   3.855   4.416 -0.9044  0.1481  0.0269
 5154TIP3   OH215418   4.124   3.213   6.478 -0.1691  0.5462  0.0412
 5154TIP3    H115419   4.030   3.195   6.480 -0.0687 -0.0092 -0.1754
 5154TIP3    H215420   4.129   3.309   6.478 -0.6855  0.6148  2.1183
 5155TIP3   OH215421   6.931   1.602   1.577 -0.0439  0.3950 -0.3309
 5155TIP3    H115422   7.019   1.601   1.538  0.3009 -0.6915  0.4288
 5155TIP3    H215423   6.903   1.693   1.570  1.9131  1.1811  1.0531
 5156TIP3   OH215424   7.097   0.557   1.990 -0.1265  0.1225 -0.1786
 5156TIP3    H115425   7.112   0.648   2.018  0.1198  0.3087 -0.8880
 5156TIP3    H215426   7.003   0.545   1.997  0.0788 -0.4954  2.6538
 5157TIP3   OH215427   5.406   2.433   1.984 -0.1053  0.1799  0.0201
 5157TIP3    H115428   5.361   2.432   2.068 -1.9126  1.8479 -0.8483
 5157TIP3    H215429   5.352   2.378   1.928  0.8248 -0.5332 -0.1946
 5158TIP3   OH215430   4.016   1.383   4.841  0.0510 -0.1840  0.6040
 5158TIP3    H115431   4.048   1.386   4.931  0.3949  0.9670  0.4637
 5158TIP3    H215432   3.988   1.473   4.823  1.1223 -0.1064 -0.8363
 5159TIP3   OH215433   0.520   5.320   3.746 -0.3316 -0.0341  0.6290
 5159TIP3    H115434   0.562   5.301   3.662  0.7113 -0.5138  1.2433
 5159TIP3    H215435   0.522   5.416   3.752 -1.8523  0.1180 -0.5869
 5160TIP3   OH215436   5.721   0.692   1.400  0.2751 -0.6909  0.0686
 5160TIP3    H115437   5.690   0.657   1.317  3.1192  0.3614 -1.5919
 5160TIP3    H215438   5.815   0.704   1.387  0.5446  1.1407  2.8692
 5161TIP3   OH215439   2.186   4.489   2.833  0.2760  0.5414 -0.1679
 5161TIP3    H115440   2.234   4.506   2.915 -1.6628  3.1692  0.5837
 5161TIP3    H215441   2.193   4.571   2.785  0.7099 -0.7113 -2.3547
 5162TIP3   OH215442   4.879   0.223   2.051 -0.5771 -0.1307  0.2054
 5162TIP3    H115443   4.837   0.288   2.107 -0.3275 -0.2415  0.5221
 5162TIP3    H215444   4.933   0.171   2.110 -1.4094 -1.1585  0.0948
 5163TIP3   OH215445   4.519   0.591   2.786 -0.2958 -0.1811  0.1527
 5163TIP3    H115446   4.462   0.663   2.813 -0.9970  0.4653 -2.6835
 5163TIP3    H215447   4.506   0.523   2.852 -3.3279  0.4717  0.3502
 5164TIP3   OH215448   2.878   2.905   2.927 -0.3029 -0.1408 -0.2437
 5164TIP3    H115449   2.803   2.940   2.879  0.4590  0.5157 -0.9780
 5164TIP3    H215450   2.839   2.855   2.999 -1.4324  0.5527 -0.3520
 5165TIP3   OH215451   3.916   2.719   5.340 -0.3771 -0.1872 -0.3916
 5165TIP3    H115452   3.844   2.754   5.288  0.1121 -1.7165 -2.1868
 5165TIP3    H215453   3.876   2.652   5.395 -0.5830  0.0670 -0.2320
 5166TIP3   OH215454   1.104   7.768   0.926 -0.0200 -0.2729 -0.2700
 5166TIP3    H115455   1.151   7.735   0.849 -1.0197 -0.0800 -0.9698
 5166TIP3    H215456   1.100   7.693   0.985  1.0139 -0.3399 -0.2635
 5167TIP3   OH215457   6.522   1.834   2.403 -0.2876 -0.4961  0.3613
 5167TIP3    H115458   6.527   1.930   2.402 -0.6276 -0.3949  2.5508
 5167TIP3    H215459   6.478   1.814   2.486  1.6163 -2.6122  0.9632
 5168TIP3   OH215460   2.696   3.410   4.939  0.3412  0.1496  0.3376
 5168TIP3    H115461   2.717   3.317   4.931  1.2041  0.4842 -2.4059
 5168TIP3    H215462   2.606   3.417   4.906  0.6162  0.3837 -0.3838
 5169TIP3   OH215463   6.395   7.743   5.653  0.5585  0.0588 -0.6364
 5169TIP3    H115464   6.477   7.694   5.642  0.6968  0.4551 -1.5609
 5169TIP3    H215465   6.424   7.828   5.687  0.1834 -0.9457  2.4700
 5170TIP3   OH215466   7.581   7.481   4.854  0.0142  0.0282  0.1488
 5170TIP3    H115467   7.645   7.501   4.786  2.3272 -3.4169  1.0550
 5170TIP3    H215468   7.510   7.436   4.809 -0.2063  0.9214 -0.4167
 5171TIP3   OH215469   1.549   6.007   1.635 -0.6788 -0.0558  0.0071
 5171TIP3    H115470   1.601   6.019   1.556 -1.0804  0.3485 -0.2014
 5171TIP3    H215471   1.488   6.081   1.635 -0.4434  0.1533  0.8801
 5172TIP3   OH215472   1.373   3.208   4.493 -0.1661  0.0405 -0.4843
 5172TIP3    H115473   1.361   3.155   4.572  1.6590  0.9725  0.4910
 5172TIP3    H215474   1.289   3.252   4.480 -0.3605  0.2181  1.2127
 5173TIP3   OH215475   2.293   4.386   0.367 -0.0449  0.6173 -0.2426
 5173TIP3    H115476   2.243   4.319   0.413  0.9939  1.2035  1.9147
 5173TIP3    H215477   2.275   4.372   0.275 -2.6356 -0.3664  0.3459
 5174TIP3   OH215478   1.947   5.753   5.458 -0.3522  0.3258  0.0347
 5174TIP3    H115479   1.881   5.822   5.467 -2.3523 -1.5654  0.9300
 5174TIP3    H215480   1.927   5.713   5.373 -0.3925 -0.2891  0.3324
 5175TIP3   OH215481   2.495   7.049   5.279 -0.3361  0.0989  0.1364
 5175TIP3    H115482   2.574   7.058   5.333  0.0244  0.1037 -0.3867
 5175TIP3    H215483   2.423   7.074   5.338  0.0921  0.5410  0.4829
 5176TIP3   OH215484   1.719   0.304   6.531  0.1699 -0.3695 -0.3392
 5176TIP3    H115485   1.781   0.297   6.604 -0.7891 -1.1908  0.4324
 5176TIP3    H215486   1.703   0.213   6.505 -1.8015 -0.2843  0.4414
 5177TIP3   OH215487   4.502   6.404   5.092 -0.5759  0.3821  0.2031
 5177TIP3    H115488   4.480   6.312   5.076 -1.5634  0.9210 -1.8891
 5177TIP3    H215489   4.418   6.448   5.096 -0.0938  1.2865  0.7649
 5178TIP3   OH215490   3.504   1.446   3.467 -0.3246  0.2362 -0.4134
 5178TIP3    H115491   3.563   1.427   3.395 -0.4747 -0.2901 -0.4045
 5178TIP3    H215492   3.504   1.541   3.475 -0.5367  0.3118 -1.2990
 5179TIP3   OH215493   0.104   6.520   3.467 -0.3231  0.3900 -0.2934
 5179TIP3    H115494   0.092   6.427   3.484  2.0627  0.2588  1.1933
 5179TIP3    H215495   0.117   6.525   3.372  0.4488 -0.9410 -0.2896
 5180TIP3   OH215496   2.019   7.518   1.308  0.0472 -0.3948 -0.0289
 5180TIP3    H115497   1.958   7.529   1.382  1.2841  0.6255  0.8807
 5180TIP3    H215498   2.004   7.594   1.253  1.0470  0.3188  0.6412
 5181TIP3   OH215499   2.256   6.600   3.458  0.0422 -0.4248  0.1073
 5181TIP3    H115500   2.242   6.517   3.411 -1.8463  0.1267 -0.3875
 5181TIP3    H215501   2.320   6.578   3.525  2.8790 -1.2740 -2.6445
 5182TIP3   OH215502   7.682   1.819   1.878 -0.4288  0.2818  0.2020
 5182TIP3    H115503   7.633   1.744   1.843 -0.3084  0.6904 -0.8828
 5182TIP3    H215504   7.681   1.805   1.973 -0.1769 -1.2354  0.0174
 5183TIP3   OH215505   3.042   5.529   4.642  0.1856  0.1927  0.5675
 5183TIP3    H115506   2.965   5.541   4.698 -0.2578 -0.1658  0.0402
 5183TIP3    H215507   3.017   5.565   4.557  0.8491  0.7095  0.5798
 5184TIP3   OH215508   2.007   3.891   1.268 -0.1379  0.7107  0.5831
 5184TIP3    H115509   1.994   3.797   1.253  2.7164  0.4458 -0.8919
 5184TIP3    H215510   2.048   3.895   1.354 -1.3558  0.7511  1.1805
 5185TIP3   OH215511   1.450   3.863   4.671  0.2121 -0.0926  0.3494
 5185TIP3    H115512   1.402   3.789   4.635 -0.7782 -0.1374  1.6785
 5185TIP3    H215513   1.452   3.847   4.766 -0.7745  1.9647  0.7775
 5186TIP3   OH215514   0.160   0.598   4.646 -0.1564 -0.3697  0.5328
 5186TIP3    H115515   0.206   0.516   4.664  0.0093 -0.2940  0.4445
 5186TIP3    H215516   0.200   0.662   4.705  0.7904  0.0207 -0.5130
 5187TIP3   OH215517   1.034   3.789   6.647  0.1753 -0.1217  0.2914
 5187TIP3    H115518   1.022   3.694   6.652 -1.5430 -0.1069 -2.0827
 5187TIP3    H215519   0.946   3.824   6.634  0.9359  1.6651 -0.3575
 5188TIP3   OH215520   2.957   7.020   0.880 -0.3441  0.6475 -0.0248
 5188TIP3    H115521   2.998   7.103   0.901  0.9731 -0.1840  0.8479
 5188TIP3    H215522   2.992   6.996   0.795  0.0564  0.5210  0.1727
 5189TIP3   OH215523   5.941   7.595   1.279 -0.7178 -0.8801 -0.4376
 5189TIP3    H115524   5.860   7.631   1.313 -0.9890 -0.6105 -1.3411
 5189TIP3    H215525   6.007   7.662   1.298 -1.0744 -0.2279 -1.4072
 5190TIP3   OH215526   0.583   4.013   3.175 -0.0683  0.1356 -0.1798
 5190TIP3    H115527   0.554   3.971   3.095 -1.3049 -2.0836  1.3166
 5190TIP3    H215528   0.541   4.099   3.174 -2.8073 -1.1018 -0.4254
 5191TIP3   OH215529   1.984   4.531   2.214  0.3053 -0.3615  0.5624
 5191TIP3    H115530   1.983   4.532   2.310  1.4754 -0.2757  0.5819
 5191TIP3    H215531   1.953   4.618   2.189  1.2480  0.0739  0.8843
 5192TIP3   OH215532   1.004   6.300   3.754  0.2698 -0.2092  0.3444
 5192TIP3    H115533   0.975   6.254   3.675  0.6205 -2.3242  1.3732
 5192TIP3    H215534   0.923   6.334   3.792 -0.5236 -2.8036  1.2034
 5193TIP3   OH215535   7.380   7.576   5.020  0.0421 -0.1649 -0.2706
 5193TIP3    H115536   7.354   7.665   4.997  1.3502  0.5163  0.7864
 5193TIP3    H215537   7.455   7.557   4.964  0.0157 -0.4743 -0.2061
 5194TIP3   OH215538   7.628   4.495   5.756  0.1988  0.2208 -0.4198
 5194TIP3    H115539   7.647   4.438   5.681 -2.8432  0.5422 -1.5708
 5194TIP3    H215540   7.607   4.434   5.827  1.5393 -0.0642 -0.2339
 5195TIP3   OH215541   1.760   5.001   2.974 -0.1954  0.1838  0.2599
 5195TIP3    H115542   1.734   4.915   2.942 -1.2701 -0.0726  1.7158
 5195TIP3    H215543   1.792   4.986   3.063  2.6824  0.8730 -0.5324
 5196TIP3   OH215544   0.111   6.576   4.538  0.1697 -0.7074  0.0308
 5196TIP3    H115545   0.166   6.610   4.467 -2.8005 -0.0641 -2.1345
 5196TIP3    H215546   0.098   6.484   4.516  1.1468 -1.1437  1.1414
 5197TIP3   OH215547   4.722   3.869   5.651  0.2028  0.0419 -0.6428
 5197TIP3    H115548   4.770   3.952   5.656  0.0971  0.0510  3.0174
 5197TIP3    H215549   4.790   3.803   5.635  0.7194  0.5462 -0.5717
 5198TIP3   OH215550   5.169   0.417   0.507 -0.5725  0.5569 -0.6180
 5198TIP3    H115551   5.239   0.370   0.553 -0.7655  1.5791  0.7639
 5198TIP3    H215552   5.099   0.352   0.497 -0.1078  0.0186 -0.4271
 5199TIP3   OH215553   2.909   2.327   3.669 -0.5733  0.5523  0.5142
 5199TIP3    H115554   2.978   2.281   3.717 -0.6002  2.3128  2.3496
 5199TIP3    H215555   2.842   2.347   3.734 -2.0081  0.4641 -0.8737
 5200TIP3   OH215556   3.325   0.710   0.709  0.1462  0.3331  0.1717
 5200TIP3    H115557   3.259   0.777   0.696 -0.8533 -0.8041 -0.8367
 5200TIP3    H215558   3.304   0.642   0.645  1.2368 -0.8640  1.0224
 5201TIP3   OH215559   4.600   6.433   1.088 -0.0897  0.3343  0.1912
 5201TIP3    H115560   4.695   6.421   1.092 -0.1092  0.2374  0.3731
 5201TIP3    H215561   4.569   6.409   1.176 -0.3663 -0.3789 -0.0933
 5202TIP3   OH215562   7.538   5.608   5.757 -0.0594  0.3955  0.0522
 5202TIP3    H115563   7.449   5.642   5.754  0.4967  1.9506  0.4695
 5202TIP3    H215564   7.527   5.514   5.774 -1.5882  0.6195  0.4589
 5203TIP3   OH215565   7.040   5.488   5.541  0.6721  0.5450 -0.3014
 5203TIP3    H115566   6.957   5.466   5.499 -0.3871  1.1370  1.3769
 5203TIP3    H215567   7.043   5.584   5.539  0.7317  0.5711  0.6852
 5204TIP3   OH215568   2.097   4.180   6.298 -0.1242  0.6335 -0.7435
 5204TIP3    H115569   2.059   4.203   6.213  0.0427 -0.5593 -1.1599
 5204TIP3    H215570   2.190   4.197   6.288 -0.4362  3.2799  0.1841
 5205TIP3   OH215571   5.495   5.537   0.082  0.2886 -0.2363 -0.5901
 5205TIP3    H115572   5.461   5.592   0.011 -0.5526  0.3791  0.2862
 5205TIP3    H215573   5.422   5.525   0.142  1.1415 -0.2936  0.4699
 5206TIP3   OH215574   4.941   2.333   1.851 -0.1871  0.1907  0.3046
 5206TIP3    H115575   4.872   2.341   1.785 -1.0741 -2.0229  0.8615
 5206TIP3    H215576   4.939   2.415   1.899 -0.6545  1.1830 -1.3356
 5207TIP3   OH215577   7.796   4.268   3.008  0.9463  0.1043 -0.3815
 5207TIP3    H115578   7.711   4.240   3.040  0.8653  1.2233  0.4356
 5207TIP3    H215579   7.853   4.192   3.019 -0.0165 -0.7839 -1.3059
 5208TIP3   OH215580   4.492   5.480   0.981 -0.5158  0.6089  0.0998
 5208TIP3    H115581   4.412   5.489   1.032  0.5494  1.3827  1.7117
 5208TIP3    H215582   4.551   5.429   1.037  0.0944 -0.0827 -1.1192
 5209TIP3   OH215583   5.144   5.320   5.280 -0.1098 -0.0903  0.0609
 5209TIP3    H115584   5.214   5.305   5.344  0.5566  0.7833 -0.4361
 5209TIP3    H215585   5.181   5.291   5.197  0.0559  1.2718 -0.3704
 5210TIP3   OH215586   2.548   4.696   2.807  0.2266  0.2136 -0.2680
 5210TIP3    H115587   2.494   4.723   2.733  1.1978  2.4204 -0.2311
 5210TIP3    H215588   2.596   4.620   2.776  0.8877  1.3167 -2.0614
 5211TIP3   OH215589   8.181   6.268   2.981  0.0363  0.7288  0.3201
 5211TIP3    H115590   8.216   6.296   2.896 -1.9081  3.2863  0.2067
 5211TIP3    H215591   8.239   6.308   3.046  0.8720 -0.2895  0.2217
 5212TIP3   OH215592   1.205   0.566   5.081 -0.3822  0.0314 -0.1240
 5212TIP3    H115593   1.230   0.519   5.160  1.0455  0.5020 -0.2771
 5212TIP3    H215594   1.238   0.512   5.009 -0.3856  0.3374 -0.3591
 5213TIP3   OH215595   6.361   3.375   1.560 -0.1653  0.0659 -0.9074
 5213TIP3    H115596   6.276   3.336   1.580 -0.4668  0.4810 -1.3496
 5213TIP3    H215597   6.425   3.309   1.586 -0.6312 -0.3203 -0.7331
 5214TIP3   OH215598   3.831   0.715   3.780  0.4408  0.0720 -0.2453
 5214TIP3    H115599   3.863   0.629   3.806 -0.3221 -0.4230 -0.9121
 5214TIP3    H215600   3.855   0.722   3.687  0.6475  0.6523 -0.1520
 5215TIP3   OH215601   2.345   0.270   0.903  0.3895  0.1977  0.0591
 5215TIP3    H115602   2.402   0.290   0.829  0.1765 -0.3445 -0.2528
 5215TIP3    H215603   2.328   0.176   0.896 -0.1011  0.2538  0.4646
 5216TIP3   OH215604   1.274   5.490   1.388  0.6645  0.4363  0.3439
 5216TIP3    H115605   1.212   5.419   1.406 -0.6792  1.4972  0.0847
 5216TIP3    H215606   1.227   5.547   1.327  2.1821  0.9231 -0.4032
 5217TIP3   OH215607   4.818   3.662   6.054 -0.1999  0.6891  0.3806
 5217TIP3    H115608   4.760   3.623   5.988 -0.4419 -1.0426  1.5420
 5217TIP3    H215609   4.905   3.627   6.033 -0.0779  1.0304  0.3143
 5218TIP3   OH215610   0.051   0.068   1.981 -0.0736 -0.6145  0.0587
 5218TIP3    H115611   0.045   0.121   2.061 -0.4215 -0.4880 -0.0499
 5218TIP3    H215612  -0.038   0.066   1.947  0.0531 -0.7640 -0.2664
 5219TIP3   OH215613   7.512   3.438   6.348  0.3005 -0.2334 -0.2663
 5219TIP3    H115614   7.562   3.516   6.372 -0.4915  0.0608  0.4924
 5219TIP3    H215615   7.516   3.436   6.252 -0.0731  1.0400 -0.3371
 5220TIP3   OH215616   2.463   0.790   2.888 -0.0866 -0.2907 -0.1337
 5220TIP3    H115617   2.418   0.724   2.835 -1.2623  1.2046 -1.0725
 5220TIP3    H215618   2.519   0.836   2.826 -0.3910  0.5482  0.2055
 5221TIP3   OH215619   0.187   6.095   1.239 -0.5169 -0.0075  0.2047
 5221TIP3    H115620   0.144   6.115   1.322  1.7001 -0.2320  1.4892
 5221TIP3    H215621   0.265   6.046   1.263  0.4706  0.3568 -1.9874
 5222TIP3   OH215622   5.912   5.008   4.570 -0.0629 -0.3431  0.3348
 5222TIP3    H115623   5.819   5.030   4.561 -0.2308 -0.9831  0.4967
 5222TIP3    H215624   5.940   5.053   4.650 -0.2205 -0.1155  0.2626
 5223TIP3   OH215625   1.864   4.498   4.964  0.1041  0.2132 -0.2032
 5223TIP3    H115626   1.837   4.506   4.872  2.1867 -0.1931 -0.9249
 5223TIP3    H215627   1.805   4.433   5.001 -3.5829  3.3673  0.0282
 5224TIP3   OH215628   1.716   2.582   1.824 -0.0130 -0.0342 -0.6272
 5224TIP3    H115629   1.788   2.564   1.884 -1.3354 -0.4884  0.8809
 5224TIP3    H215630   1.701   2.676   1.831 -0.3708 -0.1364  0.0122
 5225TIP3   OH215631   1.579   3.014   4.096  0.2364 -0.6547  0.0342
 5225TIP3    H115632   1.638   3.090   4.103 -0.1916 -0.4439  2.3873
 5225TIP3    H215633   1.504   3.037   4.152 -1.7075 -1.2924 -2.1472
 5226TIP3   OH215634   6.124   5.799   2.579 -0.1516  0.1761  0.3109
 5226TIP3    H115635   6.199   5.830   2.528 -0.7715 -0.1001 -0.7983
 5226TIP3    H215636   6.144   5.707   2.598 -0.1289  0.1493  0.1601
 5227TIP3   OH215637   5.968   0.397   0.567 -0.4394  0.6632  0.5299
 5227TIP3    H115638   6.060   0.395   0.591 -0.5654 -0.5921  0.9612
 5227TIP3    H215639   5.965   0.357   0.479 -0.3343  2.6430 -0.4285
 5228TIP3   OH215640   6.936   3.467   2.405 -0.0074 -0.2708 -0.4935
 5228TIP3    H115641   6.989   3.431   2.476  0.3373 -0.1978 -0.7127
 5228TIP3    H215642   6.943   3.562   2.417 -0.8534 -0.2621  0.0382
 5229TIP3   OH215643   5.048   3.806   4.738  0.1103 -0.5483 -0.6163
 5229TIP3    H115644   5.113   3.736   4.737 -0.6339 -1.2505 -1.3982
 5229TIP3    H215645   5.062   3.853   4.656 -1.0407 -1.3627 -1.3080
 5230TIP3   OH215646   3.465   2.444   1.299 -0.4092  0.1342 -0.3537
 5230TIP3    H115647   3.478   2.406   1.386 -0.2713 -1.3711 -0.9933
 5230TIP3    H215648   3.497   2.377   1.239 -0.7123  1.0517 -1.5776
 5231TIP3   OH215649   5.568   6.731   4.495 -0.4228 -0.3653  0.8998
 5231TIP3    H115650   5.526   6.817   4.495 -2.9469 -1.4721 -1.7968
 5231TIP3    H215651   5.496   6.668   4.501  0.8618 -2.3347 -2.0238
 5232TIP3   OH215652   8.212   0.683   4.575  0.2197 -0.6260  0.1065
 5232TIP3    H115653   8.282   0.644   4.627  1.6959 -0.0409 -1.3855
 5232TIP3    H215654   8.193   0.619   4.507  0.5858 -0.0265 -0.5741
 5233TIP3   OH215655   5.130   5.357   4.982 -0.2467  0.0949 -0.2049
 5233TIP3    H115656   5.197   5.423   4.968 -1.5276  1.3811 -0.5242
 5233TIP3    H215657   5.101   5.333   4.894 -1.3441  0.7837 -0.0471
 5234TIP3   OH215658   1.368   3.353   6.685 -0.5438 -0.0980 -0.0036
 5234TIP3    H115659   1.370   3.392   6.598 -0.8787 -1.5312 -0.6768
 5234TIP3    H215660   1.395   3.262   6.672 -2.8070 -0.9940  1.0040
 5235TIP3   OH215661   3.253   4.091   2.834  0.3625 -0.0276 -0.0621
 5235TIP3    H115662   3.175   4.144   2.845 -0.4930 -0.7791 -2.0474
 5235TIP3    H215663   3.320   4.136   2.885 -1.4182  0.4221  2.0366
 5236TIP3   OH215664   7.115   7.463   0.468 -0.1521  0.2443  0.4212
 5236TIP3    H115665   7.178   7.438   0.401 -0.4332  0.2068  0.1669
 5236TIP3    H215666   7.159   7.532   0.519  0.7410 -0.9497  1.3184
 5237TIP3   OH215667   5.378   7.244   2.305  0.6896 -0.5813 -0.1740
 5237TIP3    H115668   5.337   7.194   2.234  0.6273 -0.4458 -0.2346
 5237TIP3    H215669   5.374   7.186   2.380 -0.9602 -0.0437  0.2061
 5238TIP3   OH215670   6.641   2.020   1.782 -0.3660  0.1069  0.4223
 5238TIP3    H115671   6.563   2.028   1.836 -1.3588  1.5985 -1.1208
 5238TIP3    H215672   6.627   2.081   1.710  2.0587  0.1269 -0.1359
 5239TIP3   OH215673   3.511   7.016   1.793  0.1537 -0.0220  0.1006
 5239TIP3    H115674   3.420   7.042   1.808 -0.0432 -0.9550  0.5967
 5239TIP3    H215675   3.506   6.923   1.771  0.9326  0.0827 -0.5508
 5240TIP3   OH215676   3.750   1.831   3.437 -0.1718  0.3028  0.7187
 5240TIP3    H115677   3.670   1.840   3.384  0.6482 -0.4411 -0.6979
 5240TIP3    H215678   3.814   1.887   3.393  1.2928 -2.3081 -0.7011
 5241TIP3   OH215679   1.386   4.632   5.922 -0.1613 -0.4737  0.6368
 5241TIP3    H115680   1.295   4.610   5.901  0.8148 -2.0071 -2.6656
 5241TIP3    H215681   1.424   4.551   5.955  0.0590  0.1891  2.1295
 5242TIP3   OH215682   7.847   4.855   4.518  0.0783 -0.0365  0.1541
 5242TIP3    H115683   7.765   4.905   4.516 -0.2704 -0.6240 -1.3412
 5242TIP3    H215684   7.895   4.892   4.592 -2.0833 -0.5636  1.9620
 5243TIP3   OH215685   5.141   7.104   1.151  0.3303  0.2506 -0.2934
 5243TIP3    H115686   5.107   7.062   1.072 -0.5044  1.0420 -0.3660
 5243TIP3    H215687   5.233   7.120   1.131  0.0684  0.6748 -1.2158
 5244TIP3   OH215688   4.171   2.102   6.553 -0.1010  0.0243  0.1439
 5244TIP3    H115689   4.116   2.070   6.625 -0.5813 -0.8108 -0.5838
 5244TIP3    H215690   4.186   2.194   6.575  0.0918 -0.3044  1.5181
 5245TIP3   OH215691   6.303   3.691   2.777  0.3735  0.1725  0.6849
 5245TIP3    H115692   6.357   3.671   2.853 -1.3044  2.5854  2.6799
 5245TIP3    H215693   6.284   3.785   2.785 -0.0363  0.4769 -2.6437
 5246TIP3   OH215694   5.201   7.768   2.936  0.0340 -0.8427 -0.7496
 5246TIP3    H115695   5.109   7.790   2.919  0.3278  0.1091 -1.1395
 5246TIP3    H215696   5.242   7.851   2.960  1.1154 -0.9968 -1.9787
 5247TIP3   OH215697   7.698   3.550   0.972  0.1330 -0.1179  0.2667
 5247TIP3    H115698   7.777   3.544   0.918 -0.9689  0.4135 -1.4977
 5247TIP3    H215699   7.646   3.620   0.932 -2.5939 -2.3989 -0.6076
 5248TIP3   OH215700   1.296   7.538   5.446 -0.2852 -0.0227  0.7244
 5248TIP3    H115701   1.331   7.548   5.357 -0.7718 -0.4644  0.4739
 5248TIP3    H215702   1.304   7.444   5.464  1.3451  0.2851  1.8053
 5249TIP3   OH215703   3.941   5.169   3.296 -0.4166  0.4666 -0.3680
 5249TIP3    H115704   3.892   5.126   3.366  2.1710 -0.7110  0.8437
 5249TIP3    H215705   3.949   5.260   3.324 -0.6636  0.3426  0.1179
 5250TIP3   OH215706   2.711   4.936   0.851 -0.8077  0.9342  0.1312
 5250TIP3    H115707   2.762   4.858   0.870 -0.2905  1.5175  1.2176
 5250TIP3    H215708   2.686   4.927   0.759 -0.9936 -0.6298  0.3155
 5251TIP3   OH215709   1.535   7.221   3.262  0.7044  0.4713 -0.0468
 5251TIP3    H115710   1.467   7.274   3.222 -0.9165  0.5844  2.6104
 5251TIP3    H215711   1.494   7.135   3.274  0.9977  0.5165  1.5207
 5252TIP3   OH215712   6.450   5.869   0.921 -0.7250 -0.0340  0.6680
 5252TIP3    H115713   6.422   5.842   1.009 -0.8842 -1.0882  0.3072
 5252TIP3    H215714   6.457   5.787   0.872  1.8368  0.2716  0.3922
 5253TIP3   OH215715   4.322   3.398   0.266  0.4909  0.8599 -0.0176
 5253TIP3    H115716   4.253   3.394   0.200 -0.9286 -2.6754  1.4482
 5253TIP3    H215717   4.310   3.483   0.308  1.2141  3.1030 -3.8530
 5254TIP3   OH215718   4.954   3.137   3.258  0.0934  0.2236  0.3045
 5254TIP3    H115719   4.978   3.227   3.236  0.6611  0.0433  0.1645
 5254TIP3    H215720   4.961   3.089   3.175  1.6794 -0.3417  0.7239
 5255TIP3   OH215721   0.870   2.882   0.482 -0.1534 -0.2615  0.7618
 5255TIP3    H115722   0.866   2.838   0.566  0.7313  0.0691  0.9855
 5255TIP3    H215723   0.791   2.854   0.436  0.5886 -2.4441  0.6987
 5256TIP3   OH215724   5.026   0.767   3.320 -0.3791 -0.1028  0.0613
 5256TIP3    H115725   5.119   0.752   3.301 -0.4749 -1.4508  0.5794
 5256TIP3    H215726   5.003   0.700   3.384 -2.0486 -0.6181 -1.0211
 5257TIP3   OH215727   0.600   0.618   0.696  0.3201 -0.0634  0.0652
 5257TIP3    H115728   0.644   0.599   0.613  3.4247  0.3815  1.4718
 5257TIP3    H215729   0.511   0.585   0.684  0.7476 -0.3459 -3.2808
 5258TIP3   OH215730   6.562   7.404   3.333 -0.3910 -0.2239  0.1279
 5258TIP3    H115731   6.598   7.487   3.303 -1.2059  0.5560  1.2512
 5258TIP3    H215732   6.546   7.354   3.252 -0.7953  1.0695 -0.6154
 5259TIP3   OH215733   6.134   2.164   5.567 -0.6779 -0.1625 -0.1142
 5259TIP3    H115734   6.163   2.074   5.554 -1.0242 -0.1325 -1.1857
 5259TIP3    H215735   6.039   2.159   5.566 -0.7067  0.1057  0.6888
 5260TIP3   OH215736   4.211   7.757   2.040  0.2941  0.9202 -0.1886
 5260TIP3    H115737   4.273   7.816   2.083  0.1010  1.6310 -0.8531
 5260TIP3    H215738   4.262   7.679   2.018  0.1185 -0.0161  2.4091
 5261TIP3   OH215739   7.227   4.278   3.705 -0.0101  0.0146  0.3459
 5261TIP3    H115740   7.278   4.200   3.723  0.2462 -0.1972 -1.1309
 5261TIP3    H215741   7.200   4.268   3.613 -0.4562  1.3788  0.3012
 5262TIP3   OH215742   2.884   5.061   5.800 -0.5004 -0.9256 -0.4365
 5262TIP3    H115743   2.838   5.132   5.846  1.0971 -0.5441  0.6754
 5262TIP3    H215744   2.878   5.084   5.708 -1.8598 -0.5041 -0.2682
 5263TIP3   OH215745   0.322   0.016   4.018 -0.5309 -0.4683 -0.2183
 5263TIP3    H115746   0.412  -0.017   4.016 -0.4280 -0.1533 -1.9455
 5263TIP3    H215747   0.332   0.112   4.021 -0.6999 -0.2192 -3.8531
 5264TIP3   OH215748   4.615   0.195   0.693  0.5479 -0.9754 -0.3372
 5264TIP3    H115749   4.611   0.120   0.634  1.8241 -1.3770  0.0603
 5264TIP3    H215750   4.675   0.256   0.650  0.4801 -0.7146 -0.0660
 5265TIP3   OH215751   3.863   6.408   0.901 -0.1742  0.0649  0.0487
 5265TIP3    H115752   3.892   6.499   0.907 -0.3864  0.0482  1.8898
 5265TIP3    H215753   3.769   6.411   0.918  0.2298 -0.6905  3.2354
 5266TIP3   OH215754   3.305   5.242   4.397 -0.0618 -0.4119 -0.4027
 5266TIP3    H115755   3.342   5.169   4.347  0.0345  0.2135 -1.2438
 5266TIP3    H215756   3.216   5.213   4.418  0.4174 -1.3443  0.4667
 5267TIP3   OH215757   6.039   6.416   3.653  0.1841 -0.0563  0.3485
 5267TIP3    H115758   6.103   6.380   3.715  0.2062  0.6586  0.7496
 5267TIP3    H215759   6.053   6.511   3.656 -1.6282  0.2452  1.3042
 5268TIP3   OH215760   5.791   4.194   5.013 -0.3482  0.0314  0.6345
 5268TIP3    H115761   5.877   4.216   4.977 -0.1513 -0.6864  0.6512
 5268TIP3    H215762   5.811   4.145   5.093 -0.7304 -1.8801 -0.3757
 5269TIP3   OH215763   6.529   7.614   3.169 -0.1545 -0.0259  0.2470
 5269TIP3    H115764   6.476   7.683   3.208 -1.1460 -0.4245 -0.3377
 5269TIP3    H215765   6.566   7.654   3.090  0.4280  0.2572  0.6612
 5270TIP3   OH215766   1.174   4.130   1.416 -0.1808 -0.0723  0.2916
 5270TIP3    H115767   1.257   4.083   1.410  1.4679  2.2271  2.5441
 5270TIP3    H215768   1.113   4.067   1.454  0.6622 -1.6419 -0.8421
 5271TIP3   OH215769   7.759   7.333   2.159  0.5902 -0.2199  0.8527
 5271TIP3    H115770   7.766   7.250   2.110 -2.3193 -0.8272  1.3056
 5271TIP3    H215771   7.769   7.401   2.092  0.7192 -0.9631  0.0984
 5272TIP3   OH215772   2.886   3.014   0.940  0.3828 -0.4196 -0.2522
 5272TIP3    H115773   2.973   3.020   0.901  0.0763 -1.0354 -1.0549
 5272TIP3    H215774   2.834   2.965   0.876 -0.3203 -0.8461  0.6250
 5273TIP3   OH215775   0.236   2.477   4.259 -0.4600 -0.4667 -0.0537
 5273TIP3    H115776   0.286   2.471   4.341  0.1975 -0.0616 -0.4153
 5273TIP3    H215777   0.303   2.491   4.192 -1.0817  0.2613 -0.5275
 5274TIP3   OH215778   4.201   4.101   3.086  0.8701 -0.1982 -0.3228
 5274TIP3    H115779   4.202   4.106   3.182 -0.6733  1.0275 -0.3342
 5274TIP3    H215780   4.286   4.136   3.059 -0.1118  3.1971  0.5387
 5275TIP3   OH215781   1.315   2.110   4.826 -0.2283  0.4362  0.0706
 5275TIP3    H115782   1.304   2.060   4.745 -0.0411  2.2877 -1.1720
 5275TIP3    H215783   1.228   2.147   4.842  0.2246  1.8778 -0.5890
 5276TIP3   OH215784   5.670   2.366   2.010  0.9503  0.2177 -0.2457
 5276TIP3    H115785   5.713   2.450   2.025  1.7242  0.0132 -1.1798
 5276TIP3    H215786   5.577   2.386   2.007  1.1661  1.1663 -1.1904
 5277TIP3   OH215787   6.064   0.897   3.550 -0.3097 -0.3150 -0.2081
 5277TIP3    H115788   6.053   0.860   3.637  1.1140  1.6711  0.8857
 5277TIP3    H215789   5.978   0.931   3.526 -0.7467 -1.0293  0.3175
 5278TIP3   OH215790   8.289   1.489   5.258  0.3384  0.4405  0.1777
 5278TIP3    H115791   8.216   1.448   5.304  1.2168 -2.0998 -0.4838
 5278TIP3    H215792   8.285   1.582   5.281 -2.4139  0.1796  1.0048
 5279TIP3   OH215793   3.990   1.834   0.357  0.1853  0.1515 -0.6062
 5279TIP3    H115794   3.982   1.813   0.450 -1.9831  0.4300 -0.6689
 5279TIP3    H215795   3.954   1.757   0.313 -1.1539  1.0189 -1.0922
 5280TIP3   OH215796   5.097   2.495   0.305  0.0490 -0.4688 -0.7565
 5280TIP3    H115797   5.170   2.441   0.336  0.3349  1.1844  1.7391
 5280TIP3    H215798   5.133   2.583   0.300 -1.4190  0.1534 -0.8471
 5281TIP3   OH215799   0.587   5.816   4.510  0.3517 -0.0957  0.0614
 5281TIP3    H115800   0.625   5.743   4.559 -0.7501 -0.3082  0.6209
 5281TIP3    H215801   0.599   5.892   4.566 -1.7650 -0.5030  1.1418
 5282TIP3   OH215802   4.208   4.904   4.335  0.3663 -0.4404 -0.3044
 5282TIP3    H115803   4.302   4.896   4.352  0.3343  0.2458  0.2452
 5282TIP3    H215804   4.166   4.880   4.418  0.0907 -0.0392 -0.3229
 5283TIP3   OH215805   5.356   3.742   0.138 -0.0354  0.4591 -0.5481
 5283TIP3    H115806   5.373   3.702   0.053 -1.0631  0.3192 -0.6913
 5283TIP3    H215807   5.377   3.835   0.125 -0.2575  0.4525 -0.9709
 5284TIP3   OH215808   5.627   6.651   6.716 -0.2407 -0.3540  0.6587
 5284TIP3    H115809   5.670   6.733   6.739 -1.7292  0.9148 -0.7938
 5284TIP3    H215810   5.560   6.639   6.783 -1.2976  0.6831 -0.1832
 5285TIP3   OH215811   4.138   6.984   5.844  0.0217  0.5441 -0.3511
 5285TIP3    H115812   4.166   6.897   5.816 -0.1620  0.6807 -0.9605
 5285TIP3    H215813   4.071   7.010   5.781 -2.2914 -0.1976  1.6507
 5286TIP3   OH215814   6.262   7.602   3.743 -0.5129  0.0525  0.5459
 5286TIP3    H115815   6.227   7.647   3.666 -0.4645 -1.8741 -0.6659
 5286TIP3    H215816   6.189   7.549   3.776 -0.0289 -0.5324  0.7108
 5287TIP3   OH215817   0.517   0.983   4.203  0.3014  0.4331 -0.4321
 5287TIP3    H115818   0.611   0.994   4.191  0.5177 -1.0573 -0.2530
 5287TIP3    H215819   0.486   0.943   4.122  0.3128 -1.5926  0.5044
 5288TIP3   OH215820   5.367   4.863   0.721  0.4307  0.2966 -0.5453
 5288TIP3    H115821   5.445   4.828   0.765  0.1693 -0.1380 -0.4236
 5288TIP3    H215822   5.369   4.957   0.740  0.5116  0.1661  0.1003
 5289TIP3   OH215823   4.427   6.089   1.324 -0.0154 -0.6418 -0.4218
 5289TIP3    H115824   4.369   6.075   1.399 -0.5243 -0.8151 -0.8456
 5289TIP3    H215825   4.370   6.125   1.256  0.2303 -1.4713 -1.0773
 5290TIP3   OH215826   3.140   4.843   3.941 -0.0113  0.2461 -0.1219
 5290TIP3    H115827   3.054   4.803   3.954  0.4959 -0.6188  0.6734
 5290TIP3    H215828   3.171   4.807   3.857  0.7372 -1.6473  0.9077
 5291TIP3   OH215829   7.588   5.335   0.014  0.1085  0.1404 -0.0214
 5291TIP3    H115830   7.619   5.256   0.059 -0.4771  0.1586  0.4141
 5291TIP3    H215831   7.659   5.398   0.025  1.1203 -0.6953 -1.4182
 5292TIP3   OH215832   8.144   7.680   0.856 -0.3848  0.1321  0.4699
 5292TIP3    H115833   8.200   7.755   0.873  1.4625 -0.5576 -2.1145
 5292TIP3    H215834   8.106   7.696   0.770 -1.6461 -0.9284  0.7883
 5293TIP3   OH215835   3.178   3.421   2.019  0.5958  0.1316  0.3308
 5293TIP3    H115836   3.193   3.515   2.025 -0.2740  0.2504  0.8184
 5293TIP3    H215837   3.098   3.406   2.069 -0.1627 -0.6371 -1.0448
 5294TIP3   OH215838   3.919   4.778   6.302 -0.8191 -0.6953 -0.2379
 5294TIP3    H115839   4.003   4.747   6.336 -0.7683 -1.7422 -1.2310
 5294TIP3    H215840   3.932   4.871   6.286 -0.4403 -0.4604  1.3190
 5295TIP3   OH215841   2.167   5.661   1.276 -0.1549  0.7303  0.6377
 5295TIP3    H115842   2.215   5.644   1.357 -1.5384  1.0238  1.5558
 5295TIP3    H215843   2.219   5.728   1.231 -1.1465  3.2953  3.0133
 5296TIP3   OH215844   5.487   0.170   6.369 -0.3293 -0.1941 -0.4273
 5296TIP3    H115845   5.565   0.123   6.400 -0.5015  0.6626  1.4384
 5296TIP3    H215846   5.497   0.172   6.274  2.5728  0.9558 -0.2255
 5297TIP3   OH215847   2.782   7.633   2.850 -0.5047  1.1673  0.8170
 5297TIP3    H115848   2.707   7.685   2.880 -0.8658 -0.0217  2.0640
 5297TIP3    H215849   2.777   7.553   2.901 -0.0449 -0.1913 -1.1598
 5298TIP3   OH215850   0.618   3.442   6.345 -0.3144 -0.9103  0.3251
 5298TIP3    H115851   0.528   3.412   6.330 -1.2850  1.9317 -0.1370
 5298TIP3    H215852   0.673   3.369   6.315 -2.4500 -1.9194 -1.4080
 5299TIP3   OH215853   1.546   2.592   3.314  0.0126 -0.2435 -0.1160
 5299TIP3    H115854   1.599   2.612   3.236 -0.3579 -1.4543 -0.7018
 5299TIP3    H215855   1.462   2.635   3.297 -0.3183 -1.0973 -0.7471
 5300TIP3   OH215856   3.281   4.373   2.976 -0.3254 -0.1075 -0.4040
 5300TIP3    H115857   3.295   4.437   2.907  1.1038 -0.3720 -0.3970
 5300TIP3    H215858   3.199   4.331   2.954  0.1312 -0.2227 -1.9804
 5301TIP3   OH215859   4.459   7.745  -0.010 -0.1235  0.0671 -0.7247
 5301TIP3    H115860   4.439   7.824  -0.058  0.2355  1.0207  0.6320
 5301TIP3    H215861   4.443   7.767   0.082  2.0280 -0.7073 -0.0762
 5302TIP3   OH215862   4.725   3.595   6.322 -0.6345  0.0085 -0.1334
 5302TIP3    H115863   4.725   3.642   6.239 -0.1997 -0.0285 -0.1590
 5302TIP3    H215864   4.718   3.503   6.298  1.3960 -0.1582 -0.2476
 5303TIP3   OH215865   0.803   3.524   2.154 -0.3419  0.6015  0.2029
 5303TIP3    H115866   0.881   3.550   2.204 -0.2953 -0.7058  0.8403
 5303TIP3    H215867   0.738   3.502   2.221 -0.1392 -1.6173 -0.2471
 5304TIP3   OH215868   1.364   4.196   6.194 -0.2941 -0.1637 -0.2095
 5304TIP3    H115869   1.321   4.266   6.144 -0.6594 -0.6384 -0.5667
 5304TIP3    H215870   1.364   4.121   6.134  0.0031 -0.5014  0.2119
 5305TIP3   OH215871   6.894   3.193   2.318  0.4649  0.0830  0.3455
 5305TIP3    H115872   6.871   3.154   2.402 -1.9038 -1.1214 -0.7706
 5305TIP3    H215873   6.886   3.287   2.332 -0.0387 -0.1073  1.4338
 5306TIP3   OH215874   6.782   5.103   1.172 -0.4222 -0.4237 -0.5275
 5306TIP3    H115875   6.802   5.171   1.107 -0.5757  0.2401  0.1080
 5306TIP3    H215876   6.709   5.139   1.222  0.3757 -0.4467  0.6972
 5307TIP3   OH215877   3.508   3.065   4.547  0.1707  0.0060 -0.3286
 5307TIP3    H115878   3.497   3.013   4.467 -0.4201  1.2503 -1.1000
 5307TIP3    H215879   3.590   3.035   4.585  1.4051  0.6111 -2.3862
 5308TIP3   OH215880   6.618   0.489   4.030  0.5073  0.5278  0.4590
 5308TIP3    H115881   6.561   0.422   3.991  0.2646  0.2389  1.2877
 5308TIP3    H215882   6.636   0.457   4.119  0.3182  1.6005  0.8997
 5309TIP3   OH215883   1.792   1.363   5.544  0.2173 -0.1005  0.7364
 5309TIP3    H115884   1.773   1.358   5.450  1.5719 -0.8045  0.4847
 5309TIP3    H215885   1.764   1.279   5.579  0.7121 -0.2470  0.7760
 5310TIP3   OH215886   3.674   3.074   2.875 -0.3106  0.0899  0.4772
 5310TIP3    H115887   3.581   3.091   2.858 -0.3026 -0.2906  0.0395
 5310TIP3    H215888   3.677   3.051   2.968 -0.6999 -0.2218  0.4167
 5311TIP3   OH215889   3.267   2.609   0.778  0.2642 -0.5281 -0.3698
 5311TIP3    H115890   3.173   2.626   0.776  0.4780  0.7781 -0.1756
 5311TIP3    H215891   3.275   2.526   0.826 -0.7157 -0.0000  0.7575
 5312TIP3   OH215892   5.408   3.176   1.796 -0.6759 -0.3768  0.3999
 5312TIP3    H115893   5.330   3.227   1.775 -1.0727 -1.5598 -1.2464
 5312TIP3    H215894   5.374   3.088   1.815  0.1216 -0.4632  1.5616
 5313TIP3   OH215895   6.204   3.402   4.089 -0.2378 -0.4647  0.2976
 5313TIP3    H115896   6.298   3.412   4.102  0.1611 -0.0655 -2.2719
 5313TIP3    H215897   6.165   3.436   4.169  1.7708  0.6223  0.8936
 5314TIP3   OH215898   0.279   6.138   5.573  0.2207  0.0726  0.1442
 5314TIP3    H115899   0.313   6.151   5.484  2.2948 -1.9947  0.5432
 5314TIP3    H215900   0.311   6.214   5.622  2.2009 -0.5552 -0.0988
 5315TIP3   OH215901   3.201   1.884   5.812 -0.1587  0.8420  0.0833
 5315TIP3    H115902   3.133   1.823   5.841 -0.2076  0.4447 -0.8261
 5315TIP3    H215903   3.252   1.902   5.891 -0.2061 -0.3104  0.3950
 5316TIP3   OH215904   2.008   1.907   0.711 -0.7112  0.0183  0.1974
 5316TIP3    H115905   2.043   1.836   0.765 -1.9997 -1.0084 -0.2813
 5316TIP3    H215906   1.973   1.970   0.773  2.1219  1.2449  0.7274
 5317TIP3   OH215907   5.871   2.915   3.607  0.3694 -0.0336 -0.3315
 5317TIP3    H115908   5.823   2.886   3.685  1.1588 -1.9988 -0.5123
 5317TIP3    H215909   5.944   2.854   3.600  1.1401  0.9961 -1.8155
 5318TIP3   OH215910   5.444   5.729   1.975  0.0198  0.0838 -0.2211
 5318TIP3    H115911   5.436   5.823   1.990  1.4767  0.2444 -0.3187
 5318TIP3    H215912   5.391   5.713   1.896  0.5124  0.9912 -0.7504
 5319TIP3   OH215913   6.735   3.235   2.602  0.1340 -0.3691  0.7313
 5319TIP3    H115914   6.681   3.291   2.657  1.3646  2.0716 -0.3673
 5319TIP3    H215915   6.821   3.237   2.644  0.4777 -0.4506  0.0479
 5320TIP3   OH215916   2.110   3.121   0.941  0.3932  0.3877  0.2960
 5320TIP3    H115917   2.032   3.088   0.898 -0.8469  2.0584  1.1565
 5320TIP3    H215918   2.109   3.080   1.028 -1.1375  2.4906  1.3583
 5321TIP3   OH215919   1.088   3.267   6.141 -0.0356  0.4285 -0.2711
 5321TIP3    H115920   1.092   3.330   6.213 -1.3933 -0.7841  0.9124
 5321TIP3    H215921   1.143   3.194   6.169 -0.8319 -0.1945 -0.2891
 5322TIP3   OH215922   2.663   1.505   3.227  0.0963  0.0092 -0.3103
 5322TIP3    H115923   2.574   1.472   3.215 -0.3805  0.4304  1.7848
 5322TIP3    H215924   2.714   1.429   3.255 -0.1118  0.2098  0.6348
 5323TIP3   OH215925   3.494   0.956   2.619 -0.3727  0.6312  0.0684
 5323TIP3    H115926   3.585   0.986   2.623 -0.4812  1.3408 -1.7456
 5323TIP3    H215927   3.498   0.872   2.572 -0.5608  0.0693  1.0189
 5324TIP3   OH215928   3.575   0.657   0.786 -0.5269  0.3382 -0.5565
 5324TIP3    H115929   3.490   0.675   0.747 -0.4833 -0.2407 -0.9258
 5324TIP3    H215930   3.584   0.724   0.854 -2.0046 -0.5838  0.6105
 5325TIP3   OH215931   7.116   7.065   2.587 -0.0022 -0.2188 -0.3437
 5325TIP3    H115932   7.185   7.117   2.628 -2.5540  2.5321  0.8437
 5325TIP3    H215933   7.123   7.086   2.494  0.4356  0.4692 -0.1651
 5326TIP3   OH215934   0.652   4.777   1.566 -0.3204  0.0652  0.2254
 5326TIP3    H115935   0.605   4.776   1.649  0.6193 -1.3204  0.7599
 5326TIP3    H215936   0.626   4.860   1.526 -2.5702 -0.2478  0.8606
 5327TIP3   OH215937   4.396   3.885   1.550  0.3298  0.2366 -0.4771
 5327TIP3    H115938   4.474   3.836   1.575  0.4679 -0.0006 -1.3653
 5327TIP3    H215939   4.380   3.861   1.459 -1.5398 -0.7543  0.0544
 5328TIP3   OH215940   0.655   1.834   0.882  0.0066  0.2134 -0.0136
 5328TIP3    H115941   0.594   1.762   0.866  1.8462 -1.4259 -0.0140
 5328TIP3    H215942   0.679   1.825   0.974 -1.4927  2.3255  0.6713
 5329TIP3   OH215943   5.625   1.928   4.889  0.0063 -0.0482 -0.4079
 5329TIP3    H115944   5.648   1.869   4.817 -0.5661  0.3329 -0.9110
 5329TIP3    H215945   5.701   1.986   4.898  0.5518 -0.8214  0.0591
 5330TIP3   OH215946   2.180   2.846   3.598 -0.1718 -0.0866 -0.4391
 5330TIP3    H115947   2.167   2.788   3.523  1.3346 -2.9707  1.3392
 5330TIP3    H215948   2.126   2.807   3.667 -0.1758  1.4870  0.4722
 5331TIP3   OH215949   0.870   3.642   3.346  0.3229  0.1217  0.5127
 5331TIP3    H115950   0.817   3.703   3.397 -0.7362 -0.7352  0.4708
 5331TIP3    H215951   0.841   3.555   3.374  1.4366 -0.3736  0.1990
 5332TIP3   OH215952   1.545   6.683   5.124  0.0382 -0.1199  0.0483
 5332TIP3    H115953   1.579   6.695   5.036  2.7154 -2.4664  0.6410
 5332TIP3    H215954   1.602   6.736   5.180  0.4198 -1.1778  0.6884
 5333TIP3   OH215955   2.309   3.397   1.589  0.3279 -0.4293  0.1667
 5333TIP3    H115956   2.257   3.323   1.557  1.1881 -0.9867  0.0186
 5333TIP3    H215957   2.399   3.375   1.565  0.5852  0.7248  0.0310
 5334TIP3   OH215958   7.951   1.704   6.542  0.0265  0.2621  0.2825
 5334TIP3    H115959   7.946   1.781   6.599 -0.0981  0.1491  0.4234
 5334TIP3    H215960   7.895   1.639   6.584 -0.8934  0.5301 -0.5238
 5335TIP3   OH215961   0.851   3.287   5.094 -0.2982  0.0171 -0.4868
 5335TIP3    H115962   0.944   3.285   5.113 -0.1921 -0.1858 -0.9975
 5335TIP3    H215963   0.839   3.368   5.045 -0.6277  0.7144  0.7190
 5336TIP3   OH215964   6.360   6.596   6.528 -0.3081  0.0993  0.0020
 5336TIP3    H115965   6.405   6.513   6.545 -0.2300  0.0171 -0.5615
 5336TIP3    H215966   6.431   6.658   6.509 -0.3430  0.4007  0.8228
 5337TIP3   OH215967   4.053   4.599   0.844 -0.1652  0.0861  0.1956
 5337TIP3    H115968   4.005   4.674   0.808  1.3716  0.8473 -0.3505
 5337TIP3    H215969   4.106   4.637   0.914  1.3257 -0.3080 -0.6952
 5338TIP3   OH215970   1.566   0.515   4.335  0.5425  0.1214 -0.0485
 5338TIP3    H115971   1.656   0.484   4.321  1.3828  0.7005  3.1840
 5338TIP3    H215972   1.576   0.604   4.368 -1.2347  0.3159  0.0719
 5339TIP3   OH215973   6.835   5.245   5.150 -0.4903  0.4810  0.1052
 5339TIP3    H115974   6.920   5.202   5.159 -1.2860 -1.3163 -0.4845
 5339TIP3    H215975   6.855   5.338   5.154  1.3786  0.0988  1.0381
 5340TIP3   OH215976   1.905   5.542   4.822  0.4037 -0.0306 -0.6251
 5340TIP3    H115977   1.942   5.603   4.758  1.9949 -0.2693  0.0129
 5340TIP3    H215978   1.977   5.481   4.841 -0.5778 -1.0026  0.1119
 5341TIP3   OH215979   2.516   7.053   5.813  0.2384 -0.1874 -0.3791
 5341TIP3    H115980   2.578   7.055   5.886 -1.2265  0.5808  0.9139
 5341TIP3    H215981   2.570   7.049   5.735  1.9414  0.9397  0.6828
 5342TIP3   OH215982   5.676   2.951   4.786  0.5113  0.6313 -0.2194
 5342TIP3    H115983   5.669   3.024   4.724  0.2637 -0.2336 -1.2508
 5342TIP3    H215984   5.588   2.940   4.820  0.7761  1.5142  0.7921
 5343TIP3   OH215985   5.677   7.463   2.081 -0.3167 -0.2296 -0.8469
 5343TIP3    H115986   5.612   7.526   2.112 -1.5351 -1.0805 -1.5717
 5343TIP3    H215987   5.717   7.505   2.005 -0.9256 -0.2124 -1.1588
 5344TIP3   OH215988   6.311   5.349   1.100 -0.0727 -0.1015 -0.3860
 5344TIP3    H115989   6.391   5.358   1.152  0.3996 -1.4723 -0.8282
 5344TIP3    H215990   6.246   5.400   1.148 -0.1158 -2.6519  2.5814
 5345TIP3   OH215991   0.198   6.082   3.936  0.3974 -0.6936 -0.3551
 5345TIP3    H115992   0.182   6.105   4.027 -1.2616 -1.6660 -0.3509
 5345TIP3    H215993   0.203   6.166   3.890 -0.6208 -0.2250  0.3576
 5346TIP3   OH215994   1.985   3.822   2.666 -0.3055 -0.4589 -0.5338
 5346TIP3    H115995   2.067   3.868   2.648  0.3081 -1.4080 -0.2380
 5346TIP3    H215996   1.935   3.829   2.585  0.3465 -0.4300 -0.9375
 5347TIP3   OH215997   7.432   7.632   4.226  0.5355 -0.4022 -0.0677
 5347TIP3    H115998   7.464   7.660   4.311  0.6113 -2.3230  0.5916
 5347TIP3    H215999   7.450   7.538   4.224 -1.7914 -0.8921 -1.1490
 5348TIP3   OH216000   1.755   6.824   5.241 -0.0129 -0.3752 -0.0642
 5348TIP3    H116001   1.788   6.876   5.315  0.4493 -0.3461 -0.2837
 5348TIP3    H216002   1.740   6.888   5.171 -2.1927 -0.1362  0.5559
 5349TIP3   OH216003   7.073   4.081   1.471  0.3447 -0.2334  0.8712
 5349TIP3    H116004   7.047   4.049   1.557  2.4561 -0.3241  1.5324
 5349TIP3    H216005   7.165   4.056   1.463 -0.3645 -2.3568 -2.4370
 5350TIP3   OH216006   7.279   3.222   5.580 -0.2033 -0.2686 -0.4653
 5350TIP3    H116007   7.308   3.131   5.585 -1.9145 -0.8317 -0.0682
 5350TIP3    H216008   7.185   3.216   5.566 -0.6320  1.4301  1.2831
 5351TIP3   OH216009   1.826   5.241   0.840 -0.8771 -0.3922  0.1327
 5351TIP3    H116010   1.807   5.157   0.797 -0.2116  0.2336 -1.4650
 5351TIP3    H216011   1.910   5.268   0.804 -1.6558  1.5701 -0.3392
 5352TIP3   OH216012   4.497   3.904   4.623 -0.0963 -0.0214 -0.0297
 5352TIP3    H116013   4.541   3.851   4.689  0.4063 -0.1701 -0.4784
 5352TIP3    H216014   4.531   3.872   4.539 -2.4081 -1.4037 -0.5129
 5353TIP3   OH216015   7.719   5.380   1.909  0.3076  0.0532 -0.4037
 5353TIP3    H116016   7.812   5.382   1.932  0.5557 -1.1070 -1.2467
 5353TIP3    H216017   7.718   5.390   1.814 -0.5064  1.1460 -0.3029
 5354TIP3   OH216018   3.467   6.392   0.642 -0.1045 -0.3550 -0.2288
 5354TIP3    H116019   3.557   6.424   0.647 -0.7463  1.7437 -1.0086
 5354TIP3    H216020   3.465   6.317   0.702  1.8645  0.2525  0.6842
 5355TIP3   OH216021   1.243   6.228   3.875  0.2285  0.6478  0.9636
 5355TIP3    H116022   1.164   6.266   3.836 -0.0824  0.5072  1.4440
 5355TIP3    H216023   1.214   6.193   3.960  0.0168 -2.4735 -0.2537
 5356TIP3   OH216024   1.385   6.330   1.910 -0.2429 -0.0617 -0.5454
 5356TIP3    H116025   1.343   6.247   1.887  1.5818 -0.6777 -1.9021
 5356TIP3    H216026   1.478   6.315   1.894  0.4570  1.4879  1.5898
 5357TIP3   OH216027   7.212   5.496   5.905 -0.0923 -0.3974 -0.8635
 5357TIP3    H116028   7.175   5.542   5.980  1.2800 -1.3803  0.4828
 5357TIP3    H216029   7.193   5.552   5.830 -0.2523  1.3361  0.4086
 5358TIP3   OH216030   6.735   5.112   2.152 -0.1995 -0.3925 -0.6878
 5358TIP3    H116031   6.646   5.109   2.117 -0.5518 -0.0952  0.1672
 5358TIP3    H216032   6.724   5.112   2.247  0.6639  0.7677 -0.5617
 5359TIP3   OH216033   5.431   0.239   0.257  0.2510  0.2926  0.5511
 5359TIP3    H116034   5.439   0.204   0.346  0.0446  0.0252  0.4665
 5359TIP3    H216035   5.504   0.201   0.209  0.6882  0.8721  0.7413
 5360TIP3   OH216036   4.058   1.762   6.153 -0.1548  0.1771  0.0912
 5360TIP3    H116037   4.026   1.839   6.201 -0.7822  0.0105 -0.0509
 5360TIP3    H216038   4.138   1.792   6.110  0.8468  0.1454  1.8145
 5361TIP3   OH216039   7.462   5.535   5.133 -0.4644 -0.2375 -0.3027
 5361TIP3    H116040   7.464   5.625   5.166 -2.1511 -0.5219  0.6836
 5361TIP3    H216041   7.530   5.490   5.183  0.1263  0.3823 -0.5282
 5362TIP3   OH216042   5.916   7.214   6.404  0.5304 -0.1861 -0.2780
 5362TIP3    H116043   5.999   7.256   6.382  0.1827  0.5684 -0.1825
 5362TIP3    H216044   5.881   7.184   6.320 -0.1621  1.5082 -0.6341
 5363TIP3   OH216045   0.552   2.517   6.512  0.0956 -0.1570 -0.2593
 5363TIP3    H116046   0.469   2.564   6.524  0.4890  0.0727  2.0002
 5363TIP3    H216047   0.530   2.425   6.524  0.3777  0.0236  2.0600
 5364TIP3   OH216048   7.198   3.814   1.654  0.0738  0.5720 -0.3592
 5364TIP3    H116049   7.260   3.885   1.637  0.0043  0.3153 -1.8080
 5364TIP3    H216050   7.150   3.842   1.732  0.8751  1.5457 -0.1971
 5365TIP3   OH216051   5.013   6.458   1.369 -0.0497 -0.4577  0.3856
 5365TIP3    H116052   5.031   6.539   1.417 -0.9600 -0.5570  0.9116
 5365TIP3    H216053   5.002   6.392   1.438  0.5989 -1.0187 -0.0338
 5366TIP3   OH216054   0.228   2.604   2.266  0.2613 -0.3146 -0.2799
 5366TIP3    H116055   0.274   2.528   2.230  0.9289 -0.1730  0.2530
 5366TIP3    H216056   0.141   2.571   2.287  0.0576 -0.5490 -1.4381
 5367TIP3   OH216057   2.207   6.734   5.973 -0.4598 -0.4715  0.0510
 5367TIP3    H116058   2.222   6.790   5.897 -0.7323 -0.1861  0.2078
 5367TIP3    H216059   2.256   6.775   6.044  1.2261 -1.6590 -0.3521
 5368TIP3   OH216060   4.167   3.622   5.307 -0.1760 -0.8570 -0.1075
 5368TIP3    H116061   4.077   3.614   5.275  0.5220  0.7239 -2.7457
 5368TIP3    H216062   4.220   3.577   5.242  1.0127 -1.4677  1.2290
 5369TIP3   OH216063   6.412   4.870   2.311 -0.3319 -0.8183  0.2033
 5369TIP3    H116064   6.323   4.869   2.347 -0.6956  0.1750 -0.6015
 5369TIP3    H216065   6.422   4.959   2.277  0.8728 -1.0133  0.0277
 5370TIP3   OH216066   0.224   6.074   4.342  0.4312  0.3659 -0.2407
 5370TIP3    H116067   0.130   6.057   4.337  0.5276 -0.1934 -0.2837
 5370TIP3    H216068   0.264   5.995   4.305  0.9195  0.5245 -0.0592
 5371TIP3   OH216069   1.163   3.388   2.546 -0.0899  0.2817  0.1196
 5371TIP3    H116070   1.077   3.422   2.572 -0.2027  0.4870 -0.5014
 5371TIP3    H216071   1.145   3.299   2.513 -0.1717  0.5835 -0.6668
 5372TIP3   OH216072   5.809   7.172   3.279  0.3593 -0.0736 -0.0102
 5372TIP3    H116073   5.768   7.109   3.220  0.2485  0.3377 -0.3809
 5372TIP3    H216074   5.903   7.163   3.261  0.5485 -1.6865  1.5112
 5373TIP3   OH216075   7.056   6.247   3.305 -0.4812  0.5253 -0.0257
 5373TIP3    H116076   7.070   6.184   3.376  2.5589  0.9779 -0.0692
 5373TIP3    H216077   6.982   6.301   3.334 -1.1021 -1.0395  1.4669
 5374TIP3   OH216078   5.887   4.036   4.675 -0.0786 -0.1591 -0.0728
 5374TIP3    H116079   5.923   4.005   4.592 -0.4950 -0.3373 -0.1930
 5374TIP3    H216080   5.931   4.120   4.691  0.5540 -0.4900 -0.0883
 5375TIP3   OH216081   2.261   0.494   5.101 -0.3208  0.1993  0.2360
 5375TIP3    H116082   2.288   0.571   5.051 -1.0114  1.6543  1.9946
 5375TIP3    H216083   2.175   0.472   5.066  0.6607 -1.0468 -1.5922
 5376TIP3   OH216084   2.187   7.385   5.605 -0.4080 -0.4583  0.0144
 5376TIP3    H116085   2.109   7.408   5.655  1.6201  1.7583  2.4759
 5376TIP3    H216086   2.207   7.463   5.554  2.2496  0.6186  2.4423
 5377TIP3   OH216087   0.134   0.336   6.331  0.0507  0.0423 -0.4508
 5377TIP3    H116088   0.173   0.298   6.252  0.5239  0.7203 -0.5503
 5377TIP3    H216089   0.055   0.284   6.346  0.7165 -1.0112 -0.5452
 5378TIP3   OH216090   3.241   6.986   1.496 -0.6160 -0.0309 -0.6876
 5378TIP3    H116091   3.164   7.000   1.551  0.5918  1.1216  0.7842
 5378TIP3    H216092   3.233   7.050   1.426 -0.4751  0.8620  0.0885
 5379TIP3   OH216093   2.931   7.643   5.183 -0.2695  1.1150 -0.7617
 5379TIP3    H116094   2.964   7.586   5.114  1.9795  0.0983  1.0271
 5379TIP3    H216095   2.981   7.619   5.261 -2.4921  2.3683  1.2080
 5380TIP3   OH216096   4.306   4.766   5.545 -0.2017  0.5273 -0.0889
 5380TIP3    H116097   4.384   4.783   5.599 -0.8024  1.0138  0.6476
 5380TIP3    H216098   4.291   4.672   5.555  0.6319  0.3157 -0.7170
 5381TIP3   OH216099   1.844   1.460   1.774 -0.1664 -0.2387 -0.0826
 5381TIP3    H116100   1.925   1.450   1.724  0.0642  2.8726 -0.5546
 5381TIP3    H216101   1.844   1.552   1.801 -2.4911 -0.6914  1.8216
 5382TIP3   OH216102   0.749   5.455   2.895  0.2101  0.2316  0.6462
 5382TIP3    H116103   0.749   5.366   2.929 -0.5076  0.5112  1.4205
 5382TIP3    H216104   0.754   5.445   2.800  0.2856 -0.6199  0.7360
 5383TIP3   OH216105   3.851   2.428   1.570 -0.3963  0.4807  0.4172
 5383TIP3    H116106   3.917   2.377   1.616  0.5841  0.8939 -0.4957
 5383TIP3    H216107   3.827   2.374   1.494  0.0732  1.0171 -0.1238
 5384TIP3   OH216108   7.996   0.765   0.238  0.2807 -0.4266 -0.2735
 5384TIP3    H116109   7.956   0.748   0.323 -1.0314 -1.0500 -0.9813
 5384TIP3    H216110   7.993   0.860   0.228  0.1711 -0.3740  0.2447
 5385TIP3   OH216111   7.013   3.707   6.510  0.0729  0.2938  0.0841
 5385TIP3    H116112   7.016   3.797   6.477  0.0672 -0.1880 -1.2929
 5385TIP3    H216113   6.925   3.698   6.546  0.2155  0.9582  0.6412
 5386TIP3   OH216114   3.327   1.508   6.029  0.3796 -0.7051  0.0190
 5386TIP3    H116115   3.381   1.581   6.058  0.4191 -0.1683 -1.3502
 5386TIP3    H216116   3.381   1.430   6.044  2.1051 -0.0933 -2.5023
 5387TIP3   OH216117   7.205   6.401   5.422 -0.3084  0.1206  0.3659
 5387TIP3    H116118   7.190   6.312   5.390 -0.3686  0.2865 -0.0734
 5387TIP3    H216119   7.220   6.391   5.515  2.2271 -0.6485 -0.0525
 5388TIP3   OH216120   4.577   1.841   0.883  0.4395  0.4694 -0.0077
 5388TIP3    H116121   4.664   1.802   0.893  0.3182  0.5572  1.6274
 5388TIP3    H216122   4.524   1.771   0.845  1.0395  0.1724 -0.3120
 5389TIP3   OH216123   4.712   2.615   6.288  0.4969 -0.4701  0.8419
 5389TIP3    H116124   4.637   2.561   6.264 -0.6179  0.4127  2.1478
 5389TIP3    H216125   4.783   2.553   6.304  0.3602 -1.2751 -1.3106
 5390TIP3   OH216126   7.856   3.834   1.470 -0.4130 -0.4302  0.2581
 5390TIP3    H116127   7.779   3.823   1.414 -0.2550 -2.4697  0.3646
 5390TIP3    H216128   7.831   3.902   1.532 -2.2991 -1.3222  0.5427
 5391TIP3   OH216129   6.581   2.614   1.937  0.5457 -0.4247  0.8595
 5391TIP3    H116130   6.642   2.627   1.864 -0.9067  0.7423 -0.1942
 5391TIP3    H216131   6.638   2.600   2.013  2.1602  1.0423  0.0034
 5392TIP3   OH216132   2.368   5.669   3.831  0.0197  0.2203 -0.5363
 5392TIP3    H116133   2.287   5.619   3.845  0.0498  0.1801 -0.5026
 5392TIP3    H216134   2.372   5.729   3.905 -0.1975  0.5190 -0.7647
 5393TIP3   OH216135   0.928   1.631   2.686  0.5705 -0.2901  0.0494
 5393TIP3    H116136   0.969   1.716   2.672  2.3825 -0.5578  3.0398
 5393TIP3    H216137   0.850   1.650   2.739 -0.3226 -0.3311 -1.1933
 5394TIP3   OH216138   4.186   1.687   5.160  0.1717 -0.2892  0.8827
 5394TIP3    H116139   4.170   1.592   5.157 -1.8109 -0.0069  1.0376
 5394TIP3    H216140   4.179   1.715   5.069  0.6827 -0.2729  0.8468
 5395TIP3   OH216141   7.678   0.291   4.440  0.3210 -0.2588  0.4014
 5395TIP3    H116142   7.657   0.384   4.453  1.1285  0.0932 -0.6416
 5395TIP3    H216143   7.626   0.265   4.364  0.5793 -0.4809  0.2998
 5396TIP3   OH216144   6.815   0.398   5.820  0.0591 -0.7166 -0.2426
 5396TIP3    H116145   6.884   0.445   5.866 -0.5014 -0.1740  0.0600
 5396TIP3    H216146   6.733   0.434   5.856 -0.3991 -0.0618 -1.8413
 5397TIP3   OH216147   3.149   0.209   0.924 -0.4367 -0.4888 -0.7297
 5397TIP3    H116148   3.226   0.242   0.878 -1.1976 -0.4208 -2.0047
 5397TIP3    H216149   3.120   0.134   0.871 -0.3372 -1.5168  0.6091
 5398TIP3   OH216150   2.854   6.435   1.692  0.3782  0.1171 -0.9728
 5398TIP3    H116151   2.802   6.484   1.629  0.0827 -0.5724 -1.2734
 5398TIP3    H216152   2.930   6.404   1.642  1.2372  1.3476 -0.4750
 5399TIP3   OH216153   7.376   1.500   2.316  0.1328  0.0524  0.0860
 5399TIP3    H116154   7.421   1.426   2.275 -2.0877 -0.7313 -1.0799
 5399TIP3    H216155   7.441   1.571   2.316  1.4264 -1.0754 -1.3022
 5400TIP3   OH216156   6.944   3.260   2.801 -0.5276 -0.7946  0.3049
 5400TIP3    H116157   6.940   3.164   2.799 -0.7567 -0.7820  0.0597
 5400TIP3    H216158   6.988   3.281   2.883 -0.8191 -1.1019  0.5395
 5401TIP3   OH216159   2.839   1.757   5.760 -0.6132 -0.3329 -0.2453
 5401TIP3    H116160   2.763   1.742   5.703 -1.4008  0.1676  0.6275
 5401TIP3    H216161   2.820   1.841   5.802 -0.2668 -0.8930  1.0627
 5402TIP3   OH216162   3.315   4.592   3.832  0.3647  0.3609  0.2054
 5402TIP3    H116163   3.410   4.591   3.844  0.3203  2.9789  1.5456
 5402TIP3    H216164   3.280   4.580   3.920 -0.5394  0.3504 -0.1446
 5403TIP3   OH216165   0.844   0.883   5.087  0.1548 -0.3424 -0.2602
 5403TIP3    H116166   0.874   0.827   5.014 -1.4047  2.7067 -3.5364
 5403TIP3    H216167   0.750   0.866   5.092 -0.0426  0.7452 -0.1934
 5404TIP3   OH216168   1.590   1.584   6.385  0.6873  0.4184  0.3345
 5404TIP3    H116169   1.640   1.505   6.366  0.6815  0.1776  1.2740
 5404TIP3    H216170   1.525   1.557   6.451 -2.4916  0.0769 -2.6598
 5405TIP3   OH216171   0.188   2.095   2.652 -0.1687  0.0787 -0.1241
 5405TIP3    H116172   0.140   2.132   2.726 -0.8445 -0.6015 -0.2132
 5405TIP3    H216173   0.143   2.013   2.633  1.6724 -1.1073  0.4475
 5406TIP3   OH216174   4.670   4.043   1.090  0.4344  0.0436 -0.3573
 5406TIP3    H116175   4.720   4.113   1.049  1.8400 -1.4385 -1.3377
 5406TIP3    H216176   4.711   3.963   1.057 -0.5453 -1.2391  1.3778
 5407TIP3   OH216177   0.219   3.431   5.976 -0.2112 -0.0684  0.1893
 5407TIP3    H116178   0.198   3.504   6.035  0.5902  0.4316 -0.1223
 5407TIP3    H216179   0.227   3.472   5.890 -1.3297 -0.7895 -0.2780
 5408TIP3   OH216180   0.090   1.822   5.879  0.7060  0.0275  0.0570
 5408TIP3    H116181   0.082   1.796   5.971  1.9098 -0.2609  0.0918
 5408TIP3    H216182   0.099   1.917   5.881 -2.5011  0.4341  0.0055
 5409TIP3   OH216183   3.960   4.223   5.193  0.5298 -0.3448 -0.3352
 5409TIP3    H116184   4.046   4.192   5.220  0.7885 -0.1255 -0.8810
 5409TIP3    H216185   3.900   4.191   5.260  0.9050 -1.2814 -0.4320
 5410TIP3   OH216186   5.517   0.531   1.456 -0.8407  0.6182  0.4128
 5410TIP3    H116187   5.557   0.445   1.439 -0.8821  0.2664  1.9711
 5410TIP3    H216188   5.592   0.591   1.463 -0.5433  0.0769  2.6713
 5411TIP3   OH216189  -0.018   3.480   6.418 -0.4715  0.5181  0.3173
 5411TIP3    H116190   0.046   3.437   6.475 -1.0401  1.6284  1.8804
 5411TIP3    H216191  -0.017   3.430   6.337  0.5779 -0.9718  1.2156
 5412TIP3   OH216192   0.453   6.367   2.235  0.5484  0.4137 -0.1008
 5412TIP3    H116193   0.366   6.337   2.210  1.3772 -2.4746  0.1081
 5412TIP3    H216194   0.464   6.451   2.190 -1.5329 -0.1635 -1.8405
 5413TIP3   OH216195   4.666   2.232   1.956 -0.2660 -0.0495 -0.1058
 5413TIP3    H116196   4.754   2.247   1.991  0.3101  0.1056 -1.5665
 5413TIP3    H216197   4.636   2.319   1.930 -1.0956 -0.0179  0.8734
 5414TIP3   OH216198   0.461   2.624   1.476 -0.1250 -0.7290 -0.3259
 5414TIP3    H116199   0.391   2.588   1.421 -0.0112 -0.1760 -0.8537
 5414TIP3    H216200   0.419   2.645   1.559 -0.4908 -0.7939 -0.4938
 5415TIP3   OH216201   1.271   7.330   2.688 -0.2428  0.1489 -0.7413
 5415TIP3    H116202   1.182   7.341   2.721  0.4194  2.3624  0.4982
 5415TIP3    H216203   1.264   7.260   2.623 -2.6173 -0.6765  0.2905
 5416TIP3   OH216204   6.239   6.018   2.093  0.5580 -0.4003 -0.1710
 5416TIP3    H116205   6.194   5.949   2.044  0.7681 -1.0402  0.5189
 5416TIP3    H216206   6.169   6.077   2.120  0.1142 -1.3412  0.8237
 5417TIP3   OH216207   3.357   5.768   2.707 -0.1302  0.2551  0.6034
 5417TIP3    H116208   3.437   5.722   2.731 -0.3511  0.1037  1.0755
 5417TIP3    H216209   3.331   5.814   2.787 -0.7188 -0.0085  0.5684
 5418TIP3   OH216210   4.746   2.651   3.630  0.2316  0.3219  0.2457
 5418TIP3    H116211   4.662   2.608   3.618  0.5190 -0.1409 -0.1176
 5418TIP3    H216212   4.810   2.580   3.631  0.5677  0.6274  1.0455
 5419TIP3   OH216213   3.896   7.169   2.007 -0.4767  0.0603 -0.5824
 5419TIP3    H116214   3.910   7.081   2.042 -0.6469 -0.0660 -0.8311
 5419TIP3    H216215   3.950   7.225   2.062 -1.1519 -0.0596  0.2316
 5420TIP3   OH216216   0.679   0.578   5.127 -0.1517 -0.0873  0.0801
 5420TIP3    H116217   0.692   0.532   5.210 -2.2675  0.7177  0.9406
 5420TIP3    H216218   0.658   0.668   5.152 -3.1330 -0.3215 -1.0813
 5421TIP3   OH216219   4.865   5.959   1.396  0.0008 -0.0881  0.5893
 5421TIP3    H116220   4.901   5.874   1.373 -1.8457 -0.9280  0.6486
 5421TIP3    H216221   4.815   5.985   1.319  1.1536  1.3453  0.2637
 5422TIP3   OH216222   2.927   3.541   5.024  0.0956  0.1088 -0.0872
 5422TIP3    H116223   2.965   3.455   5.038 -0.1334  0.0066 -0.0836
 5422TIP3    H216224   2.847   3.524   4.973  0.7708  0.4424 -1.2957
 5423TIP3   OH216225   6.073   3.921   5.383 -0.2282  0.3097  0.5174
 5423TIP3    H116226   6.120   3.853   5.335 -0.0338  0.7916  0.0179
 5423TIP3    H216227   6.141   3.966   5.434 -0.3525  0.1483  0.8287
 5424TIP3   OH216228   4.877   4.221   4.259 -0.2728  0.0505 -0.0869
 5424TIP3    H116229   4.814   4.157   4.294  1.7934 -1.4026  1.1595
 5424TIP3    H216230   4.935   4.239   4.332  0.4010  1.8825 -1.0186
 5425TIP3   OH216231   0.096   5.171   0.454 -0.5877  0.0900 -0.2894
 5425TIP3    H116232   0.049   5.092   0.427  0.9517 -0.7327 -0.6740
 5425TIP3    H216233   0.110   5.159   0.548 -0.0206 -0.2871 -0.4190
 5426TIP3   OH216234   6.184   0.447   2.596 -0.2830 -0.1373 -0.8321
 5426TIP3    H116235   6.179   0.352   2.603 -1.0135 -0.1876 -1.7486
 5426TIP3    H216236   6.164   0.466   2.504 -0.1525  0.8994 -0.6685
 5427TIP3   OH216237   8.108   0.272   3.322 -0.5417  0.2634  0.1177
 5427TIP3    H116238   8.028   0.324   3.330 -0.0968  0.7242  2.3563
 5427TIP3    H216239   8.166   0.326   3.269 -1.3016  0.4131 -0.5964
 5428TIP3   OH216240   0.146   0.312   5.263  0.0477  0.0902  0.1274
 5428TIP3    H116241   0.218   0.349   5.212 -1.8734  1.3966 -1.8274
 5428TIP3    H216242   0.173   0.323   5.354  1.9130  1.3229 -0.5093
 5429TIP3   OH216243   0.516   7.351   0.349  0.2032  0.1252 -0.0160
 5429TIP3    H116244   0.531   7.289   0.278  1.0421 -0.1401  0.3739
 5429TIP3    H216245   0.423   7.342   0.371  0.2649 -0.8087 -0.1310
 5430TIP3   OH216246   0.834   3.821   0.604  0.2354 -0.0377 -0.4102
 5430TIP3    H116247   0.901   3.756   0.582 -1.6384 -1.5847 -1.9274
 5430TIP3    H216248   0.845   3.890   0.538  0.5443 -0.1132 -0.4403
 5431TIP3   OH216249   5.850   7.228   0.751 -0.0091  0.7922  0.7575
 5431TIP3    H116250   5.939   7.253   0.725 -0.1968  1.2449  0.5504
 5431TIP3    H216251   5.793   7.292   0.708 -0.6841 -1.2486 -1.6106
 5432TIP3   OH216252   4.522   1.555   0.806  0.1919  0.3900 -0.0866
 5432TIP3    H116253   4.602   1.533   0.853  1.2947  0.8984 -1.6294
 5432TIP3    H216254   4.501   1.476   0.756 -0.8721 -0.0901  1.0828
 5433TIP3   OH216255   2.436   4.005   4.997  0.5206  0.4684  0.2919
 5433TIP3    H116256   2.393   3.931   5.039 -0.8923  0.9714 -0.2177
 5433TIP3    H216257   2.424   4.078   5.057 -0.1985  0.8387 -0.2916
 5434TIP3   OH216258   0.722   7.181   6.128 -0.0572  0.4891 -0.7373
 5434TIP3    H116259   0.695   7.242   6.197 -0.4464  0.7235 -1.0919
 5434TIP3    H216260   0.811   7.208   6.106  0.9918 -1.0408  1.2825
 5435TIP3   OH216261   2.030   1.745   3.174  0.0318  0.6617 -0.1504
 5435TIP3    H116262   1.991   1.736   3.261  0.5019  2.9316  0.3477
 5435TIP3    H216263   2.018   1.837   3.151  0.2644  0.2038 -2.3493
 5436TIP3   OH216264   6.467   1.163   6.179 -0.5224  0.0031 -0.4345
 5436TIP3    H116265   6.476   1.233   6.113 -0.6806 -1.7877 -2.4765
 5436TIP3    H216266   6.373   1.160   6.197 -0.6180 -0.1350 -0.9186
 5437TIP3   OH216267   1.868   5.147   0.059 -0.2379  0.2378  0.5403
 5437TIP3    H116268   1.860   5.079  -0.008  2.6969 -0.9634  1.2673
 5437TIP3    H216269   1.872   5.229   0.010  2.3991 -0.6595 -0.8845
 5438TIP3   OH216270   2.842   0.516   2.748  0.2682 -0.3211  0.0571
 5438TIP3    H116271   2.785   0.540   2.675  0.5012 -0.2552 -0.1049
 5438TIP3    H216272   2.797   0.444   2.791 -0.1361  0.0010  0.1747
 5439TIP3   OH216273   0.327   7.029   4.378 -0.2814  0.1711  0.0067
 5439TIP3    H116274   0.405   7.004   4.328 -0.3851  1.5545 -0.8971
 5439TIP3    H216275   0.261   6.965   4.353  0.1613 -0.1677 -0.3065
 5440TIP3   OH216276   1.576   3.596   5.770  0.2926  0.2820  0.5105
 5440TIP3    H116277   1.546   3.539   5.841  0.1602  1.6292  1.5854
 5440TIP3    H216278   1.667   3.571   5.757  0.2064 -0.2554  0.8899
 5441TIP3   OH216279   3.338   5.839   4.774 -0.3095 -0.1369  0.1451
 5441TIP3    H116280   3.249   5.810   4.795  0.0429 -0.5908  1.0756
 5441TIP3    H216281   3.393   5.766   4.802  0.3651  0.1816 -0.3416
 5442TIP3   OH216282   5.383   4.690   2.190  0.1752  0.4166  0.2362
 5442TIP3    H116283   5.435   4.662   2.115  1.2181 -0.8837  1.4032
 5442TIP3    H216284   5.296   4.652   2.174  0.4058  0.0946 -0.2884
 5443TIP3   OH216285   7.911   2.464   4.958 -0.8451  0.2253 -0.0118
 5443TIP3    H116286   7.863   2.498   4.883 -1.3645 -0.1315  0.1501
 5443TIP3    H216287   7.953   2.384   4.926 -0.6091  0.3676 -0.0665
 5444TIP3   OH216288   3.892   7.312   2.448  0.2011  0.1959  0.0609
 5444TIP3    H116289   3.987   7.304   2.463  0.2567  0.2978 -0.2293
 5444TIP3    H216290   3.853   7.259   2.517  0.4534  0.6765  0.5824
 5445TIP3   OH216291   6.521   5.896   0.522 -0.0511 -0.9234  0.0651
 5445TIP3    H116292   6.576   5.951   0.577  0.6005 -0.0305 -1.4119
 5445TIP3    H216293   6.432   5.910   0.555  0.2771 -0.1136  0.6357
 5446TIP3   OH216294   4.605   0.781   3.221 -0.0165 -0.0091 -0.2325
 5446TIP3    H116295   4.636   0.764   3.310 -1.1013  0.1500  0.1936
 5446TIP3    H216296   4.683   0.811   3.174  0.5306  0.0932  0.7082
 5447TIP3   OH216297   7.552   4.670   4.182 -0.1322 -0.1763 -0.1245
 5447TIP3    H116298   7.538   4.627   4.098 -0.7350  0.8218 -0.5499
 5447TIP3    H216299   7.488   4.740   4.185 -0.4576 -0.4848  1.3918
 5448TIP3   OH216300   7.437   0.200   5.582  0.0568  0.3197 -0.5411
 5448TIP3    H116301   7.453   0.188   5.676  0.2970  1.9392 -0.3356
 5448TIP3    H216302   7.380   0.128   5.558 -1.2190  0.6662  1.2026
 5449TIP3   OH216303   0.277   1.151   3.089 -0.0359  0.2338 -0.4324
 5449TIP3    H116304   0.330   1.148   3.010  0.6498  0.1165  0.0243
 5449TIP3    H216305   0.305   1.074   3.140  1.7235  1.9135  1.2956
 5450TIP3   OH216306   4.222   5.890   1.507  0.3332 -0.0163  0.3206
 5450TIP3    H116307   4.191   5.841   1.583  0.7206  0.4936  0.8113
 5450TIP3    H216308   4.268   5.824   1.454 -1.6081 -0.8119 -0.4777
 5451TIP3   OH216309   5.147   6.702   6.363 -0.2227 -0.0010  0.3951
 5451TIP3    H116310   5.085   6.771   6.384  0.1352  0.9042 -1.3807
 5451TIP3    H216311   5.164   6.711   6.269  1.7679 -0.8955  0.6063
 5452TIP3   OH216312   0.421   3.463   3.649 -1.1044 -0.0496 -0.1115
 5452TIP3    H116313   0.352   3.400   3.628 -1.3819 -0.0328  0.7081
 5452TIP3    H216314   0.491   3.443   3.588 -1.8992  0.0462 -1.0762
 5453TIP3   OH216315   3.097   5.924   2.358 -0.1230  0.0595  0.1798
 5453TIP3    H116316   3.007   5.957   2.351 -0.1242  0.0975  0.3787
 5453TIP3    H216317   3.096   5.844   2.305 -0.9494 -1.3116  2.1549
 5454TIP3   OH216318   2.958   5.265   6.511 -0.1541  0.0507 -0.2405
 5454TIP3    H116319   2.941   5.206   6.585  1.6083 -1.0030 -0.6232
 5454TIP3    H216320   2.899   5.236   6.442 -0.9914  0.3009  0.3541
 5455TIP3   OH216321   7.637   6.511   2.485  0.0983 -0.0442  0.2279
 5455TIP3    H116322   7.653   6.587   2.540  1.1727 -0.4626  0.5174
 5455TIP3    H216323   7.652   6.543   2.396 -0.1264  0.2463  0.2917
 5456TIP3   OH216324   3.765   0.022   1.337  0.6079  0.0312 -0.1083
 5456TIP3    H116325   3.842   0.032   1.281  0.7489  0.6372  0.1870
 5456TIP3    H216326   3.704   0.089   1.306  0.8862  0.7185  0.7799
 5457TIP3   OH216327   1.451   4.801   5.101  0.0840 -0.0378 -0.1307
 5457TIP3    H116328   1.448   4.771   5.192  1.2094 -1.7261 -0.6070
 5457TIP3    H216329   1.379   4.864   5.094  0.4052  0.6748  2.0900
 5458TIP3   OH216330   8.059   7.314   0.275  0.5684  0.2310 -0.2052
 5458TIP3    H116331   8.123   7.335   0.343  0.9592  3.1873 -1.3184
 5458TIP3    H216332   7.989   7.379   0.287 -0.3601 -0.5111 -1.3402
 5459TIP3   OH216333   6.913   5.607   2.882  0.1499 -0.3554  0.1790
 5459TIP3    H116334   6.852   5.588   2.953  1.2384 -0.0925  1.2272
 5459TIP3    H216335   6.914   5.703   2.876 -2.0656 -0.3597 -2.1686
 5460TIP3   OH216336   2.956   6.373   4.963 -0.7614  0.2966 -0.6973
 5460TIP3    H116337   3.019   6.335   4.902  0.6637 -0.2641  1.0175
 5460TIP3    H216338   2.905   6.298   4.995 -0.2122  0.2748  0.1780
 5461TIP3   OH216339   3.090   4.765   2.100 -0.4162  0.6480 -0.5239
 5461TIP3    H116340   3.137   4.843   2.071  1.7483 -0.7325 -0.9633
 5461TIP3    H216341   3.128   4.745   2.186 -1.0070  0.1321 -0.3792
 5462TIP3   OH216342   8.112   5.360   1.320  0.1700 -0.2469  0.5787
 5462TIP3    H116343   8.094   5.348   1.413 -3.1559 -0.3878  0.0131
 5462TIP3    H216344   8.167   5.439   1.316 -2.1946  1.6328  2.5152
 5463TIP3   OH216345   5.231   6.774   2.203 -0.0122  0.1009  0.1804
 5463TIP3    H116346   5.308   6.736   2.160 -1.1435  0.5894 -2.4783
 5463TIP3    H216347   5.157   6.722   2.170 -0.9287 -0.1545  2.4283
 5464TIP3   OH216348   7.891   6.251   4.113  0.4342 -0.1259 -0.4016
 5464TIP3    H116349   7.872   6.345   4.116 -0.9681 -0.4006  1.8737
 5464TIP3    H216350   7.807   6.209   4.131  0.8896 -1.8663 -2.0526
 5465TIP3   OH216351   3.182   3.303   3.743  0.0779 -0.1439 -0.6603
 5465TIP3    H116352   3.128   3.347   3.677 -1.0410  0.6956  0.7657
 5465TIP3    H216353   3.135   3.223   3.763 -0.3125  0.2585  0.0831
 5466TIP3   OH216354   7.798   2.147   6.218  0.0297 -0.9487 -0.1955
 5466TIP3    H116355   7.789   2.236   6.185 -0.5914 -0.4878  1.1459
 5466TIP3    H216356   7.758   2.149   6.305  1.4142 -2.1383  0.5238
 5467TIP3   OH216357   3.300   5.504   4.264 -0.0502 -0.1327 -0.0925
 5467TIP3    H116358   3.307   5.414   4.297  0.7808 -0.0283  0.0214
 5467TIP3    H216359   3.208   5.512   4.237 -0.1487 -0.9876 -0.0360
 5468TIP3   OH216360   3.408   6.746   2.654  0.2763  0.5092 -0.2668
 5468TIP3    H116361   3.394   6.664   2.702 -0.4424  0.2805 -0.8541
 5468TIP3    H216362   3.492   6.734   2.610  0.7011  0.5228  0.5125
 5469TIP3   OH216363   2.509   4.595   1.463 -0.0504 -0.1711  0.4233
 5469TIP3    H116364   2.428   4.636   1.494 -0.0351  0.5148 -0.4377
 5469TIP3    H216365   2.483   4.546   1.385  0.7277  1.7677 -1.1074
 5470TIP3   OH216366   6.517   7.605   3.902  0.1419 -0.0969 -0.1090
 5470TIP3    H116367   6.522   7.556   3.984 -0.3630 -0.4025 -0.2567
 5470TIP3    H216368   6.490   7.693   3.928  0.2312 -0.1230  0.0737
 5471TIP3   OH216369   2.465   3.095   3.498 -0.7165  0.1267 -0.0535
 5471TIP3    H116370   2.539   3.116   3.554 -2.4296  3.2791  1.2953
 5471TIP3    H216371   2.503   3.048   3.424  2.3783  0.3810  1.2436
 5472TIP3   OH216372   8.064   5.455   2.949 -0.6110 -0.0606  0.4307
 5472TIP3    H116373   8.033   5.414   2.868  1.1229 -1.3384  0.3465
 5472TIP3    H216374   8.149   5.492   2.925  0.3737 -1.2884  1.8517
 5473TIP3   OH216375   4.639   5.049   0.153 -0.3263 -0.0144 -0.0668
 5473TIP3    H116376   4.730   5.024   0.135  0.0127  0.9923  0.1521
 5473TIP3    H216377   4.587   4.993   0.096  0.4472 -0.4421 -0.3735
 5474TIP3   OH216378   1.585   3.538   2.683  0.1285 -0.0948  0.6226
 5474TIP3    H116379   1.673   3.504   2.674  1.0052  1.9484  0.9213
 5474TIP3    H216380   1.546   3.531   2.596  0.2852 -1.7067  0.6624
 5475TIP3   OH216381   3.972   0.345   5.447  0.1449 -0.3452  0.4700
 5475TIP3    H116382   3.898   0.350   5.387  0.7465 -0.0514 -0.2652
 5475TIP3    H216383   3.975   0.431   5.489 -1.1869 -1.0175  2.0747
 5476TIP3   OH216384   5.639   6.847   0.965  0.3620 -0.1058  0.8877
 5476TIP3    H116385   5.681   6.848   0.879  0.9304 -1.4231  1.1233
 5476TIP3    H216386   5.608   6.936   0.978  2.2653  0.6912  0.2781
 5477TIP3   OH216387   7.360   6.801   1.943 -0.0455 -0.0229 -0.3265
 5477TIP3    H116388   7.424   6.734   1.967  0.3142  0.4458  0.0259
 5477TIP3    H216389   7.394   6.839   1.862  0.2217  0.3548 -0.0387
 5478TIP3   OH216390   6.512   0.837   4.655 -0.4348  0.0693 -0.0724
 5478TIP3    H116391   6.452   0.775   4.695  1.4166 -1.0155  1.2149
 5478TIP3    H216392   6.520   0.908   4.720  1.7419 -1.1667  1.1318
 5479TIP3   OH216393   4.326   6.174   2.708 -0.2688  0.5679  0.5138
 5479TIP3    H116394   4.358   6.224   2.783 -0.6934  0.5001  0.7445
 5479TIP3    H216395   4.328   6.083   2.737 -0.2148  0.5222  0.3636
 5480TIP3   OH216396   6.244   5.808   3.644  0.1957 -0.2601  0.4053
 5480TIP3    H116397   6.315   5.744   3.642  0.1705 -0.2829  0.2505
 5480TIP3    H216398   6.253   5.851   3.729 -1.3024 -2.1612  1.6132
 5481TIP3   OH216399   3.995   7.499   4.429  0.2643 -0.3884 -0.0878
 5481TIP3    H116400   3.983   7.513   4.523  1.8221  2.9328 -0.2398
 5481TIP3    H216401   4.069   7.438   4.423  0.5240 -0.1791  0.8457
 5482TIP3   OH216402   1.560   3.843   5.579  0.0642  0.0333 -0.5822
 5482TIP3    H116403   1.520   3.757   5.567  0.2844 -0.2189  0.4087
 5482TIP3    H216404   1.622   3.831   5.651  0.5088  0.8884 -0.8053
 5483TIP3   OH216405   6.386   0.937   2.627  0.5853 -0.3686  0.3086
 5483TIP3    H116406   6.431   0.971   2.550 -0.7409  1.1225  0.1483
 5483TIP3    H216407   6.325   0.872   2.592  0.7135 -0.4494  0.2319
 5484TIP3   OH216408   6.824   3.836   0.665  0.0521 -0.0148  0.0588
 5484TIP3    H116409   6.846   3.750   0.628  2.4488  0.7157 -0.3671
 5484TIP3    H216410   6.736   3.824   0.702 -0.0079 -2.4089 -0.6765
 5485TIP3   OH216411   0.882   6.549   3.316  0.0528  0.2414  0.4335
 5485TIP3    H116412   0.813   6.614   3.300  0.6791  0.9884  0.6960
 5485TIP3    H216413   0.903   6.558   3.408  0.7915  0.3234  0.2642
 5486TIP3   OH216414   3.723   2.767   2.378 -0.4499 -0.3068  0.6473
 5486TIP3    H116415   3.783   2.744   2.448 -0.4336 -0.8416  0.4591
 5486TIP3    H216416   3.775   2.821   2.318 -0.3063 -0.3322  0.7495
 5487TIP3   OH216417   1.717   3.094   2.327 -0.0314  0.2531 -0.2406
 5487TIP3    H116418   1.663   3.015   2.329 -0.3737  0.4393 -1.3738
 5487TIP3    H216419   1.655   3.165   2.310  0.4897  0.5169 -1.1369
 5488TIP3   OH216420   6.208   7.367   4.636 -0.2295 -0.5317 -0.5514
 5488TIP3    H116421   6.138   7.302   4.644 -0.6867  0.1050  1.3157
 5488TIP3    H216422   6.168   7.449   4.667  1.7341 -0.4939  2.2431
 5489TIP3   OH216423   6.720   3.934   6.295 -0.1172 -0.3027 -0.1956
 5489TIP3    H116424   6.669   3.967   6.369  0.4347  1.1271 -0.4151
 5489TIP3    H216425   6.659   3.882   6.244 -1.3118  1.1940 -0.3478
 5490TIP3   OH216426   3.788   6.857   2.932 -0.0667  0.1203  0.0785
 5490TIP3    H116427   3.734   6.928   2.967 -1.3692  0.1881 -1.9013
 5490TIP3    H216428   3.877   6.879   2.959 -0.7488  1.0622  1.7616
 5491TIP3   OH216429   4.780   5.624   0.694 -0.2549  0.1279  0.6452
 5491TIP3    H116430   4.737   5.705   0.666  0.9767  0.5162 -0.1910
 5491TIP3    H216431   4.716   5.556   0.677 -0.0984  0.5227 -1.8317
 5492TIP3   OH216432   3.651   5.330   2.643 -0.4018  0.0758 -0.1459
 5492TIP3    H116433   3.703   5.265   2.595  0.1740 -0.5793  1.2987
 5492TIP3    H216434   3.611   5.384   2.575  0.2704 -0.8942 -1.3528
 5493TIP3   OH216435   6.085   5.525   5.100 -0.2148  0.1260 -0.6843
 5493TIP3    H116436   6.105   5.439   5.063 -3.1351 -1.6515  1.4055
 5493TIP3    H216437   6.135   5.527   5.182 -1.2102 -0.2488 -0.0496
 5494TIP3   OH216438   1.854   0.663   5.164  0.0055  0.3147  0.1214
 5494TIP3    H116439   1.843   0.725   5.092  0.1994  1.1291  0.7835
 5494TIP3    H216440   1.765   0.650   5.197 -0.2153 -0.7803 -0.8339
 5495TIP3   OH216441   7.002   3.354   5.580 -0.2813 -0.5156  0.4564
 5495TIP3    H116442   7.022   3.409   5.505 -0.9514 -0.3000  0.4319
 5495TIP3    H216443   6.924   3.305   5.555  0.3298 -1.5173  0.4646
 5496TIP3   OH216444   2.087   4.624   6.618  0.3226 -0.4426  0.4119
 5496TIP3    H116445   2.130   4.643   6.702  1.9920  0.6141 -0.6015
 5496TIP3    H216446   2.131   4.683   6.556 -0.6665 -1.3945 -1.2541
 5497TIP3   OH216447   0.567   1.814   4.760 -0.2234  0.3033  0.1970
 5497TIP3    H116448   0.498   1.801   4.825 -1.7392 -1.0171 -1.5628
 5497TIP3    H216449   0.621   1.736   4.766 -0.8658 -0.2277 -0.6472
 5498TIP3   OH216450   3.437   2.023   5.288  0.0869 -0.3350 -0.1178
 5498TIP3    H116451   3.509   2.084   5.297 -1.3341  1.3742  0.1911
 5498TIP3    H216452   3.403   2.011   5.377 -1.0997  0.2993 -0.4627
 5499TIP3   OH216453   6.873   6.040   5.711 -0.1711  0.1330 -0.1526
 5499TIP3    H116454   6.812   6.113   5.721 -0.3919 -0.2096  1.2098
 5499TIP3    H216455   6.863   6.012   5.620  0.4276  2.2301 -0.9288
 5500TIP3   OH216456   0.542   6.105   2.256  0.1903  0.5030 -0.7176
 5500TIP3    H116457   0.502   6.190   2.235 -0.9759  0.3704  0.7962
 5500TIP3    H216458   0.626   6.128   2.297  1.7704  0.7855 -3.8200
 5501TIP3   OH216459   6.125   4.261   0.131 -0.4198 -0.0186  0.3363
 5501TIP3    H116460   6.087   4.174   0.140 -0.7910  0.0175 -0.7282
 5501TIP3    H216461   6.076   4.301   0.059  0.0067  0.9268  0.5567
 5502TIP3   OH216462   0.630   2.867   3.598 -0.3447 -0.1434  0.7198
 5502TIP3    H116463   0.651   2.833   3.685  0.0227  1.5038  1.3084
 5502TIP3    H216464   0.536   2.850   3.588 -0.0897 -1.7666  0.7443
 5503TIP3   OH216465   3.647   2.725   6.581  0.2626  0.0566  0.3583
 5503TIP3    H116466   3.570   2.746   6.634 -0.4618  0.8551 -0.9331
 5503TIP3    H216467   3.623   2.755   6.493  1.1636 -1.7349 -0.5588
 5504TIP3   OH216468   6.519   4.900   4.976  0.5678 -0.2521 -0.0952
 5504TIP3    H116469   6.578   4.965   4.939 -1.3416  0.9736 -1.0851
 5504TIP3    H216470   6.461   4.875   4.904 -0.6706 -0.7715  1.0364
 5505TIP3   OH216471   2.584   6.256   6.397 -0.0519  0.2586  0.0901
 5505TIP3    H116472   2.533   6.212   6.466 -0.9821 -1.8715 -1.8465
 5505TIP3    H216473   2.675   6.239   6.421 -0.3682 -1.2191  0.3597
 5506TIP3   OH216474   6.878   7.085   1.272 -0.1194 -0.4434  0.0759
 5506TIP3    H116475   6.913   7.157   1.220  0.2583 -0.8696 -0.2688
 5506TIP3    H216476   6.807   7.125   1.324  0.7621  0.4002  0.6772
 5507TIP3   OH216477   0.068   2.774   0.598  0.0981 -0.9098 -0.4116
 5507TIP3    H116478   0.024   2.690   0.611 -0.1734 -0.8934 -1.1938
 5507TIP3    H216479   0.085   2.778   0.504  0.1356 -0.1040 -0.3766
 5508TIP3   OH216480   5.150   6.140   5.986  0.0394 -0.5606  0.0068
 5508TIP3    H116481   5.111   6.054   5.971 -0.9609 -0.1933  0.4694
 5508TIP3    H216482   5.079   6.194   6.020  1.2429 -0.2733  2.3221
 5509TIP3   OH216483   6.327   2.953   3.115 -0.6027 -0.2039 -0.1490
 5509TIP3    H116484   6.307   2.862   3.137 -1.6915 -0.1131 -0.7114
 5509TIP3    H216485   6.243   2.992   3.093 -0.1974  1.0433  0.4117
 5510TIP3   OH216486   0.446   2.327   3.745 -0.0414 -0.0526  0.5957
 5510TIP3    H116487   0.456   2.267   3.671 -0.6804  0.8167 -0.2291
 5510TIP3    H216488   0.422   2.271   3.819 -1.4820 -0.7544 -0.3466
 5511TIP3   OH216489   6.963   2.679   5.852 -0.0622 -0.2643 -0.6491
 5511TIP3    H116490   6.868   2.690   5.845 -0.1310  0.2351  0.8397
 5511TIP3    H216491   6.997   2.768   5.859  0.5918 -0.4069 -1.8033
 5512TIP3   OH216492   7.346   4.054   3.521 -0.5544 -0.1027  0.1503
 5512TIP3    H116493   7.291   3.981   3.494 -0.4292 -0.6950  1.4173
 5512TIP3    H216494   7.303   4.131   3.484 -3.2928 -0.3363  2.4633
 5513TIP3   OH216495   1.300   1.295   3.900  0.1541 -0.5360  0.0073
 5513TIP3    H116496   1.244   1.217   3.897  0.8101 -1.0467  0.7855
 5513TIP3    H216497   1.389   1.260   3.900  0.4494  0.1970  0.7007
 5514TIP3   OH216498   0.291   6.221   6.557  0.2090 -0.0846 -0.0367
 5514TIP3    H116499   0.336   6.305   6.571 -2.2543  1.5964 -1.3455
 5514TIP3    H216500   0.297   6.207   6.462 -2.5975  0.6959 -0.4272
 5515TIP3   OH216501   5.244   3.268   5.906 -0.2771 -0.1804  0.4011
 5515TIP3    H116502   5.244   3.359   5.937  0.4576 -0.5223  1.4767
 5515TIP3    H216503   5.160   3.257   5.863 -1.8477  0.0773  3.1474
 5516TIP3   OH216504   0.812   0.207   1.368  0.5174  0.1393  0.7316
 5516TIP3    H116505   0.902   0.190   1.340 -0.1205 -2.3013 -0.0670
 5516TIP3    H216506   0.766   0.229   1.287  0.1678  0.2932  0.9736
 5517TIP3   OH216507   7.136   5.784   3.363 -0.0547  0.4897  0.2183
 5517TIP3    H116508   7.157   5.712   3.303  2.6528 -0.7802  2.4317
 5517TIP3    H216509   7.146   5.863   3.311 -0.6541 -0.6418 -1.6919
 5518TIP3   OH216510   3.547   3.028   1.411 -0.2231  0.1499  0.2167
 5518TIP3    H116511   3.592   3.027   1.326  0.1806  0.7022  0.4190
 5518TIP3    H216512   3.454   3.026   1.388 -0.1889  2.0224 -0.3293
 5519TIP3   OH216513   5.808   7.003   3.614 -0.1328  0.5410 -0.1924
 5519TIP3    H116514   5.873   6.982   3.548 -0.6463  2.0407 -1.2296
 5519TIP3    H216515   5.856   7.052   3.681 -0.1103  1.3463 -0.7875
 5520TIP3   OH216516   4.297   2.305   0.107 -0.2464 -0.1306  0.4321
 5520TIP3    H116517   4.375   2.259   0.140  0.1247 -0.3165 -0.6426
 5520TIP3    H216518   4.318   2.323   0.015 -1.3289  0.1466  0.2290
 5521TIP3   OH216519   7.810   7.140   3.474  0.6704  0.2153 -0.0376
 5521TIP3    H116520   7.799   7.200   3.548  1.2625 -0.7509  0.8584
 5521TIP3    H216521   7.721   7.114   3.451  0.2608  2.5272 -1.4191
 5522TIP3   OH216522   6.579   5.794   5.350  0.5370 -0.3114  0.0496
 5522TIP3    H116523   6.556   5.713   5.306  1.1030  0.5003 -1.8748
 5522TIP3    H216524   6.506   5.853   5.332  0.3749 -0.2035  0.9831
 5523TIP3   OH216525   3.019   0.717   0.572  0.0693 -0.4926  0.0468
 5523TIP3    H116526   3.041   0.624   0.563 -0.0139 -0.3727 -1.7306
 5523TIP3    H216527   2.924   0.719   0.579  0.1257 -0.5887  0.8372
 5524TIP3   OH216528   6.259   1.408   1.422 -0.2634 -0.3644  0.6672
 5524TIP3    H116529   6.248   1.498   1.454 -1.1582 -0.5767  0.9900
 5524TIP3    H216530   6.327   1.371   1.477 -0.4266 -0.1167  1.0434
 5525TIP3   OH216531   7.725   3.044   4.734  0.4634  0.6588 -0.1862
 5525TIP3    H116532   7.716   3.133   4.699  1.6353  0.3250 -1.4462
 5525TIP3    H216533   7.645   2.999   4.706  0.9850  0.6461 -1.7670
 5526TIP3   OH216534   8.196   6.297   4.418  0.5834  0.1464  0.2645
 5526TIP3    H116535   8.289   6.322   4.413  0.7208 -0.3608  0.0792
 5526TIP3    H216536   8.179   6.255   4.333 -0.2896  1.7398 -0.3985
 5527TIP3   OH216537   0.790   3.729   5.353 -0.4093 -0.5205 -0.5807
 5527TIP3    H116538   0.786   3.776   5.436  1.1169 -0.8558 -0.2835
 5527TIP3    H216539   0.845   3.783   5.297  0.5017 -1.4254 -0.5811
 5528TIP3   OH216540   6.459   5.535   2.557 -0.2610  0.0185 -0.6905
 5528TIP3    H116541   6.511   5.566   2.631 -2.1489  1.0679  0.2960
 5528TIP3    H216542   6.411   5.459   2.591  0.8108 -1.1427 -1.6756
 5529TIP3   OH216543   5.673   5.094   4.506  0.7808 -0.0678 -0.4991
 5529TIP3    H116544   5.649   5.177   4.463  0.1954 -0.4554 -0.9435
 5529TIP3    H216545   5.636   5.027   4.449 -0.5226 -0.5992  0.8920
 5530TIP3   OH216546   1.024   4.633   1.972  0.3834 -0.4907  0.3931
 5530TIP3    H116547   1.087   4.638   1.901  0.1668 -0.0904  0.2247
 5530TIP3    H216548   0.945   4.595   1.932 -0.9241  2.8180 -0.4683
 5531TIP3   OH216549   7.180   7.040   0.149  0.5155 -0.3877  0.3126
 5531TIP3    H116550   7.167   7.023   0.056  1.9996 -0.1534  0.0248
 5531TIP3    H216551   7.124   7.115   0.169 -1.6520 -1.9009  0.2155
 5532TIP3   OH216552   5.637   1.011   5.582  0.0670 -0.3523  0.0700
 5532TIP3    H116553   5.622   1.104   5.602 -0.3314 -0.2068 -0.8381
 5532TIP3    H216554   5.567   0.988   5.522  1.7008 -0.4679 -1.9292
 5533TIP3   OH216555   1.081   7.524   5.710  0.4496 -0.3616 -0.0718
 5533TIP3    H116556   1.135   7.523   5.631 -1.7397  0.5055 -1.6668
 5533TIP3    H216557   1.036   7.440   5.710  1.7975 -1.1400  1.3274
 5534TIP3   OH216558   7.547   7.623   6.176 -0.3027  0.4690 -0.5484
 5534TIP3    H116559   7.604   7.639   6.100  0.2987 -0.3688 -0.2905
 5534TIP3    H216560   7.605   7.584   6.242 -0.9426  0.6454  0.1325
 5535TIP3   OH216561   1.395   2.960   2.610 -0.0758  0.4266 -0.2575
 5535TIP3    H116562   1.393   3.047   2.652  0.1178 -0.1709  1.0382
 5535TIP3    H216563   1.334   2.908   2.661  1.9825 -1.0036  0.8919
 5536TIP3   OH216564   7.847   5.823   2.613 -0.0749 -0.1990  0.3290
 5536TIP3    H116565   7.834   5.817   2.518 -0.3531  4.0913 -0.1237
 5536TIP3    H216566   7.797   5.900   2.639  1.7388  0.0666  3.5940
 5537TIP3   OH216567   5.587   4.570   2.041  0.6550  0.1667 -0.2434
 5537TIP3    H116568   5.612   4.478   2.030 -1.2002 -0.5920  1.3376
 5537TIP3    H216569   5.635   4.598   2.119 -1.2966 -0.5637  1.3249
 5538TIP3   OH216570   3.230   2.232   3.265  0.1381 -0.4676  0.0970
 5538TIP3    H116571   3.272   2.295   3.324  1.4463  0.0838 -1.3687
 5538TIP3    H216572   3.183   2.172   3.324 -2.1553  2.4765  1.5547
 5539TIP3   OH216573   8.011   6.947   3.468 -0.3646 -0.0263  0.0042
 5539TIP3    H116574   7.933   7.002   3.475 -0.6354 -0.5303  1.4653
 5539TIP3    H216575   8.014   6.900   3.551  1.3651 -0.2232 -0.1294
 5540TIP3   OH216576   1.955   3.655   0.236  0.1422 -0.0868  0.1149
 5540TIP3    H116577   2.039   3.701   0.235  0.1372 -0.0725  0.2672
 5540TIP3    H216578   1.978   3.562   0.240  0.1516 -0.0879  0.0306
 5541TIP3   OH216579   6.387   5.010   3.319  0.1902 -0.1547  0.2950
 5541TIP3    H116580   6.445   4.978   3.389 -0.1623  0.5661  0.9352
 5541TIP3    H216581   6.356   5.095   3.351 -1.6986 -0.7838  0.2468
 5542TIP3   OH216582   1.599   7.081   5.182  0.3516 -0.1540 -0.6720
 5542TIP3    H116583   1.507   7.065   5.159 -0.5115  2.8114  0.3171
 5542TIP3    H216584   1.635   7.129   5.108  0.6495  0.0205 -0.4183
 5543TIP3   OH216585   5.821   0.612   2.040  0.3033  0.1231 -0.1006
 5543TIP3    H116586   5.892   0.627   1.977  0.3147 -0.5383 -0.2492
 5543TIP3    H216587   5.861   0.627   2.125  0.7774 -0.8004 -0.1521
 5544TIP3   OH216588   2.701   1.007   0.524  0.4748 -0.0046  0.5688
 5544TIP3    H116589   2.779   1.062   0.514 -0.2758  0.9734 -0.2472
 5544TIP3    H216590   2.648   1.027   0.446 -0.8732 -0.1515  1.4060
 5545TIP3   OH216591   4.161   4.585   4.032  0.4457  0.2940 -0.1704
 5545TIP3    H116592   4.209   4.661   4.065 -0.7713  0.2582  1.8910
 5545TIP3    H216593   4.229   4.526   4.000  1.6654  0.9719  1.0285
 5546TIP3   OH216594   4.717   5.671   1.860  0.1692  0.0883 -0.1122
 5546TIP3    H116595   4.800   5.636   1.829  0.9841  0.3027  1.7029
 5546TIP3    H216596   4.718   5.763   1.832  1.0667  0.3816  0.7999
 5547TIP3   OH216597   6.189   0.171   1.484  0.0450  0.1835 -0.4348
 5547TIP3    H116598   6.197   0.110   1.558 -1.7041  0.2916 -0.1093
 5547TIP3    H216599   6.252   0.139   1.420  0.5640 -0.7901  0.5146
 5548TIP3   OH216600   0.214   4.537   3.639  0.8028 -0.1582 -0.4847
 5548TIP3    H116601   0.279   4.571   3.578 -1.1997  0.1568 -2.6004
 5548TIP3    H216602   0.179   4.459   3.597 -0.9795  0.3245  0.0008
 5549TIP3   OH216603   2.635   4.365   6.022 -1.1973  0.5719 -0.3475
 5549TIP3    H116604   2.603   4.275   6.017 -0.6682  0.3998 -0.8220
 5549TIP3    H216605   2.622   4.391   6.113  0.7123 -0.7826  0.3802
 5550TIP3   OH216606   6.772   5.142   0.804  0.0890 -0.0123 -0.8089
 5550TIP3    H116607   6.801   5.097   0.725  0.0324 -1.9269  0.2185
 5550TIP3    H216608   6.699   5.090   0.837 -0.2110  1.0263  0.2538
 5551TIP3   OH216609   7.935   0.997   6.170  0.0042 -0.0411  0.4251
 5551TIP3    H116610   7.964   1.053   6.241 -0.4228  0.8900 -0.1159
 5551TIP3    H216611   8.011   0.940   6.152  1.0651  1.4750 -0.1074
 5552TIP3   OH216612   1.563   4.995   4.691 -0.1184 -0.0616  0.4985
 5552TIP3    H116613   1.503   4.942   4.638  1.2102 -0.0758 -1.0553
 5552TIP3    H216614   1.506   5.038   4.755 -1.8062 -0.0515 -0.9257
 5553TIP3   OH216615   6.814   6.240   6.738  0.5631  0.0698  0.2569
 5553TIP3    H116616   6.892   6.203   6.779  0.2864 -1.4063 -0.5002
 5553TIP3    H216617   6.763   6.164   6.710 -0.5855  1.0201 -0.3107
 5554TIP3   OH216618   7.752   3.127   6.183  0.5970  0.3785  0.1298
 5554TIP3    H116619   7.839   3.149   6.218  2.2177 -2.2598 -1.8756
 5554TIP3    H216620   7.717   3.063   6.244  0.5893  0.5314  0.2877
 5555TIP3   OH216621   1.105   0.955   2.557 -0.2816 -0.5693 -0.2468
 5555TIP3    H116622   1.159   0.974   2.634 -1.6108 -2.3226  1.2076
 5555TIP3    H216623   1.168   0.931   2.489  0.8680 -0.5705  0.7834
 5556TIP3   OH216624   6.062   0.778   2.630  0.9392 -0.2096 -0.2888
 5556TIP3    H116625   6.070   0.774   2.725 -1.9998  0.4939  0.0752
 5556TIP3    H216626   5.988   0.837   2.614  0.8425 -0.9209 -2.9794
 5557TIP3   OH216627   0.443   4.774   3.920  0.1798  0.4231 -0.1041
 5557TIP3    H116628   0.464   4.864   3.945 -0.7477  1.7512 -3.4797
 5557TIP3    H216629   0.378   4.746   3.984  1.7803  1.4382  2.0802
 5558TIP3   OH216630   3.181   6.838   2.904 -0.2429  0.1608 -0.1529
 5558TIP3    H116631   3.230   6.888   2.839  0.8054  0.1034  0.5721
 5558TIP3    H216632   3.104   6.891   2.922 -0.0407  0.6561 -0.7015
 5559TIP3   OH216633   5.660   7.358   5.722  0.0755 -0.2373  0.6263
 5559TIP3    H116634   5.675   7.447   5.691 -0.2769 -0.8985 -1.6092
 5559TIP3    H216635   5.565   7.345   5.712  0.2065 -1.0378  0.3660
 5560TIP3   OH216636   4.142   5.352   0.640 -0.2231 -0.0235  0.4064
 5560TIP3    H116637   4.185   5.436   0.626 -0.5551  0.7393  3.3894
 5560TIP3    H216638   4.147   5.338   0.735 -1.9329 -2.4240  0.2220
 5561TIP3   OH216639   1.225   6.900   3.717 -0.1020  0.0641  0.2741
 5561TIP3    H116640   1.310   6.938   3.697 -0.2931  0.9203  1.0195
 5561TIP3    H216641   1.244   6.827   3.776  0.0188  1.2792  1.7919
 5562TIP3   OH216642   6.169   5.816   3.375  0.3976 -0.0122 -0.4257
 5562TIP3    H116643   6.100   5.754   3.396 -0.3481  0.6750 -0.8231
 5562TIP3    H216644   6.217   5.827   3.457 -0.6097  0.3080  0.1287
 5563TIP3   OH216645   2.245   6.074   1.471  0.1259 -0.2217  0.7150
 5563TIP3    H116646   2.164   6.104   1.430  0.4442 -0.5667 -0.2013
 5563TIP3    H216647   2.314   6.116   1.420  0.5328 -0.0626  1.3866
 5564TIP3   OH216648   0.824   4.407   0.161  0.2441  0.3776 -0.2836
 5564TIP3    H116649   0.839   4.379   0.251  0.9107  0.3891 -0.3913
 5564TIP3    H216650   0.747   4.357   0.133  1.5464 -1.5691 -0.5643
 5565TIP3   OH216651   2.659   1.379   4.151  0.2395 -0.4800  0.1641
 5565TIP3    H116652   2.723   1.450   4.148 -0.5683  0.2756  0.2335
 5565TIP3    H216653   2.677   1.334   4.234  0.4009 -0.0012  0.3971
 5566TIP3   OH216654   7.810   1.446   1.216 -0.4338 -0.1958 -0.1464
 5566TIP3    H116655   7.753   1.385   1.168  0.5990 -0.6243 -0.8670
 5566TIP3    H216656   7.882   1.392   1.247 -1.1831  0.0272  2.1524
 5567TIP3   OH216657   2.274   5.573   3.323 -0.3052 -0.5057  0.3140
 5567TIP3    H116658   2.211   5.573   3.395 -0.6536 -1.9119  0.0194
 5567TIP3    H216659   2.299   5.665   3.315 -0.7548 -0.2168  1.7927
 5568TIP3   OH216660   2.047   0.613   1.565 -0.3416 -0.1686  0.1204
 5568TIP3    H116661   2.058   0.521   1.590 -0.1687  0.0061  0.6887
 5568TIP3    H216662   2.040   0.611   1.469  1.3243 -0.6131 -0.0228
 5569TIP3   OH216663   3.092   4.829   0.620 -0.5275  0.0845 -0.1613
 5569TIP3    H116664   3.062   4.812   0.709  0.7305  0.1200  0.2790
 5569TIP3    H216665   3.104   4.923   0.615 -0.7198  0.0984 -0.4161
 5570TIP3   OH216666   4.620   0.902   6.700  0.6900 -0.3960 -0.1049
 5570TIP3    H116667   4.600   0.992   6.675  0.3758 -0.9167 -1.8233
 5570TIP3    H216668   4.534   0.859   6.707  0.8589 -0.6809  0.2776
 5571TIP3   OH216669   8.263   1.949   0.939 -0.7162 -0.2581 -0.1799
 5571TIP3    H116670   8.245   1.864   0.897 -0.2879 -0.4857  0.1010
 5571TIP3    H216671   8.354   1.968   0.917 -0.7289  0.0018 -0.0077
 5572TIP3   OH216672   0.097   4.648   1.944  0.3664 -0.0265  0.3809
 5572TIP3    H116673   0.128   4.583   2.006  0.4572  0.5021  0.8958
 5572TIP3    H216674   0.156   4.723   1.954  1.2931 -0.4684 -1.3815
 5573TIP3   OH216675   2.775   3.558   3.910 -0.0007 -0.1927  0.2155
 5573TIP3    H116676   2.740   3.550   3.999  0.1735 -1.5071  0.1898
 5573TIP3    H216677   2.770   3.469   3.875 -1.6699  0.5740 -1.7058
 5574TIP3   OH216678   1.254   1.178   6.391 -0.0889 -0.1559 -0.3554
 5574TIP3    H116679   1.219   1.261   6.423  0.4865 -0.2309  0.5097
 5574TIP3    H216680   1.338   1.200   6.353  1.3970 -0.6381  2.3351
 5575TIP3   OH216681   4.974   4.539   2.728  0.0263 -0.1173 -0.5197
 5575TIP3    H116682   4.911   4.528   2.657 -0.2401  2.4011 -0.7665
 5575TIP3    H216683   5.023   4.618   2.705  0.4141  0.3622  1.7145
 5576TIP3   OH216684   2.814   3.295   4.467 -0.6230  0.6736 -0.3260
 5576TIP3    H116685   2.735   3.325   4.423 -0.2995 -0.8328 -2.0437
 5576TIP3    H216686   2.844   3.220   4.415  1.0947  0.2618  1.1483
 5577TIP3   OH216687   5.955   0.729   5.971  0.2811  0.2081 -0.5268
 5577TIP3    H116688   5.880   0.711   6.027 -0.7726 -0.7379 -2.1388
 5577TIP3    H216689   5.931   0.691   5.886  1.6115  1.8732 -1.7367
 5578TIP3   OH216690   2.273   4.608   2.530 -0.4347 -0.2000  0.4358
 5578TIP3    H116691   2.222   4.651   2.599 -1.1920 -0.4206  0.0197
 5578TIP3    H216692   2.216   4.608   2.454 -0.2615 -1.4733  0.2785
 5579TIP3   OH216693   3.926   4.132   1.787  0.3990 -0.2491  0.6048
 5579TIP3    H116694   3.926   4.199   1.719  0.9800  0.7727  1.5716
 5579TIP3    H216695   3.956   4.053   1.743  1.3897  0.5429 -0.1845
 5580TIP3   OH216696   3.355   6.491   3.679 -0.4549 -0.1386  0.4989
 5580TIP3    H116697   3.396   6.571   3.712 -2.1139  0.7912  0.4115
 5580TIP3    H216698   3.340   6.438   3.758 -1.3151  0.6076  0.8599
 5581TIP3   OH216699   2.472   4.018   6.333 -0.2722 -1.1719  0.0718
 5581TIP3    H116700   2.557   4.061   6.339 -0.5617 -0.6478  0.4036
 5581TIP3    H216701   2.450   4.023   6.240  0.1275 -1.4479 -0.0423
 5582TIP3   OH216702   3.902   4.782   6.709  0.3840 -0.2405  0.3840
 5582TIP3    H116703   3.897   4.738   6.624  1.5926 -1.6044  0.9852
 5582TIP3    H216704   3.993   4.809   6.717 -0.2552  2.2695  0.1416
 5583TIP3   OH216705   1.489   0.342   1.471  0.0711  0.5495  0.2812
 5583TIP3    H116706   1.418   0.357   1.534  0.5054  2.0132  0.4537
 5583TIP3    H216707   1.569   0.365   1.518  0.5590  0.0826 -0.2945
 5584TIP3   OH216708   5.601   4.879   0.872 -0.4919 -0.3170 -0.7520
 5584TIP3    H116709   5.627   4.806   0.928  1.5528  1.6650  1.0951
 5584TIP3    H216710   5.675   4.892   0.813  0.4141  1.8122  0.7144
 5585TIP3   OH216711   5.024   3.083   6.254  0.0484  0.0422 -0.0141
 5585TIP3    H116712   5.120   3.078   6.250  0.2128  0.8829  1.7244
 5585TIP3    H216713   4.995   2.992   6.246  1.1600 -0.5200  1.7011
 5586TIP3   OH216714   3.300   3.875   6.210 -0.7322 -0.0926  0.0995
 5586TIP3    H116715   3.259   3.792   6.187 -1.3468  0.2977 -0.2353
 5586TIP3    H216716   3.267   3.938   6.145  2.0234 -0.1669 -1.5679
 5587TIP3   OH216717   3.327   1.151   5.439  0.4734  0.5635  0.2229
 5587TIP3    H116718   3.370   1.220   5.490  1.9718  0.2079 -0.5041
 5587TIP3    H216719   3.294   1.090   5.505  2.1480  0.2400  0.8059
 5588TIP3   OH216720   6.551   4.189   6.150  0.3841 -0.4402  0.3176
 5588TIP3    H116721   6.582   4.112   6.197  0.8498 -0.1511  0.4896
 5588TIP3    H216722   6.480   4.224   6.204 -0.4565 -1.2659 -0.2182
 5589TIP3   OH216723   2.668   1.618   4.797 -0.1706  0.0673 -0.5633
 5589TIP3    H116724   2.603   1.664   4.743  0.4619 -0.1409 -1.5382
 5589TIP3    H216725   2.619   1.587   4.873 -1.1179  0.2835 -1.0699
 5590TIP3   OH216726   5.882   6.225   5.185 -0.1395  0.2718 -0.2657
 5590TIP3    H116727   5.944   6.153   5.176 -1.3728 -0.9387  0.4853
 5590TIP3    H216728   5.932   6.294   5.229  1.4799  0.4905 -2.2756
 5591TIP3   OH216729   5.036   3.475   3.865  0.4408  0.2177 -0.4015
 5591TIP3    H116730   4.951   3.483   3.821  0.9157  0.3797 -1.3153
 5591TIP3    H216731   5.096   3.447   3.796  1.3444  1.1130 -0.0078
 5592TIP3   OH216732   2.298   2.616   3.765 -0.3396  0.7536 -0.3948
 5592TIP3    H116733   2.234   2.565   3.715  1.0095 -1.2289 -0.2025
 5592TIP3    H216734   2.382   2.595   3.726  0.4241  1.7533  0.6340
 5593TIP3   OH216735   4.582   4.779   5.408 -0.0944 -0.5301  0.3700
 5593TIP3    H116736   4.516   4.847   5.414  0.3936 -0.1328  1.3279
 5593TIP3    H216737   4.657   4.812   5.458  1.1156 -0.6567 -1.2646
 5594TIP3   OH216738   5.467   5.263   2.003  0.1996  0.0708 -0.4696
 5594TIP3    H116739   5.436   5.223   2.084 -2.1202 -1.6812 -2.0809
 5594TIP3    H216740   5.558   5.234   1.994 -0.3245 -1.9403  0.2176
 5595TIP3   OH216741   6.672   5.664   4.174 -0.3571  0.4686 -0.1453
 5595TIP3    H116742   6.761   5.629   4.166 -0.6571 -0.0784 -1.5968
 5595TIP3    H216743   6.674   5.720   4.251  1.1155  0.0836  0.1253
 5596TIP3   OH216744   7.419   0.077   3.326 -0.0714  0.2118  0.0095
 5596TIP3    H116745   7.449   0.015   3.260  1.2612  0.9646 -0.1313
 5596TIP3    H216746   7.490   0.079   3.391  0.1179  1.8408 -0.1834
 5597TIP3   OH216747   0.535   3.329   0.960 -0.2224 -0.0984  0.1987
 5597TIP3    H116748   0.618   3.370   0.936  1.4435 -2.7681  0.8831
 5597TIP3    H216749   0.475   3.351   0.888  1.7677  0.0755 -1.5034
 5598TIP3   OH216750   3.466   5.036   0.764 -0.3942 -0.7399  0.4911
 5598TIP3    H116751   3.462   4.991   0.679 -0.8420 -1.3094  0.8063
 5598TIP3    H216752   3.549   5.007   0.801 -0.6974 -1.3548  0.7089
 5599TIP3   OH216753   2.593   2.164   0.582  0.3348  0.0881  0.1879
 5599TIP3    H116754   2.517   2.163   0.524  0.4944  2.1800 -0.1275
 5599TIP3    H216755   2.560   2.199   0.665  0.6508 -0.4136  0.5307
 5600TIP3   OH216756   7.492   7.586   1.016 -0.0617  0.7542 -0.5232
 5600TIP3    H116757   7.476   7.653   0.949  0.5974  1.0765 -0.3716
 5600TIP3    H216758   7.531   7.513   0.967  0.9346  1.2008 -0.4306
 5601TIP3   OH216759   0.069   7.443   6.087 -0.1261 -0.1828 -0.0575
 5601TIP3    H116760   0.057   7.350   6.105  0.1543 -0.1990  0.0504
 5601TIP3    H216761   0.040   7.487   6.167 -2.7310 -0.0128 -0.9969
 5602TIP3   OH216762   7.167   6.240   0.570 -0.4418  0.0174 -0.2409
 5602TIP3    H116763   7.239   6.267   0.627 -1.4293  0.3824  0.8523
 5602TIP3    H216764   7.144   6.152   0.599  0.7715 -0.8735 -1.8283
 5603TIP3   OH216765   1.713   2.144   4.297  0.1055 -0.1045  0.1038
 5603TIP3    H116766   1.675   2.148   4.210 -2.6630  0.9835  1.2466
 5603TIP3    H216767   1.739   2.234   4.317  0.2314 -0.2434  0.5988
 5604TIP3   OH216768   0.422   3.771   6.085 -0.8371 -0.1423 -0.0154
 5604TIP3    H116769   0.418   3.865   6.067 -0.6583 -0.7036 -3.7176
 5604TIP3    H216770   0.514   3.754   6.106 -0.3102  0.1797 -1.9344
 5605TIP3   OH216771   6.849   0.513   3.903 -0.1520  0.4057  0.5667
 5605TIP3    H116772   6.819   0.541   3.817 -1.6485 -1.9879  0.1965
 5605TIP3    H216773   6.771   0.521   3.959  0.3701  0.4399  1.2945
 5606TIP3   OH216774   0.326   4.047   1.645  0.2895 -0.0785 -0.5325
 5606TIP3    H116775   0.412   4.085   1.630  0.7804 -0.0326  1.9709
 5606TIP3    H216776   0.339   3.985   1.717 -1.6721 -0.4077 -0.4048
 5607TIP3   OH216777   7.189   2.579   4.654  0.0264  0.5971  0.1365
 5607TIP3    H116778   7.236   2.540   4.581 -1.4213 -1.4455  0.2114
 5607TIP3    H216779   7.230   2.542   4.732 -1.4305 -0.9916  0.2076
 5608TIP3   OH216780   6.501   1.528   3.285 -0.1328 -0.2845  0.2679
 5608TIP3    H116781   6.437   1.457   3.293  0.7368 -1.0971  0.2819
 5608TIP3    H216782   6.571   1.490   3.232  0.2142  0.6798  0.0152
 5609TIP3   OH216783   6.828   0.523   4.845 -0.1301  0.1936  0.4843
 5609TIP3    H116784   6.735   0.502   4.847 -0.7135  2.2539  3.7291
 5609TIP3    H216785   6.849   0.544   4.936  2.5725  3.3551 -0.6569
 5610TIP3   OH216786   1.386   3.068   5.805 -0.2454 -0.0036 -0.5111
 5610TIP3    H116787   1.417   3.002   5.867  0.3090  0.3913 -0.3625
 5610TIP3    H216788   1.462   3.123   5.788 -1.4534  2.6241  1.8755
 5611TIP3   OH216789   7.165   1.776   5.193 -0.1556 -0.5673  0.1315
 5611TIP3    H116790   7.234   1.785   5.259 -0.7554  1.7087  0.5139
 5611TIP3    H216791   7.152   1.681   5.185  3.2276 -1.1109 -0.2187
 5612TIP3   OH216792   3.535   7.174   0.133  0.1694  0.0803  0.4774
 5612TIP3    H116793   3.619   7.197   0.172  0.6893 -1.2939  0.1895
 5612TIP3    H216794   3.547   7.086   0.099 -1.6423 -0.4575  1.1474
 5613TIP3   OH216795   5.956   4.376   0.539 -0.0044  0.0725 -0.3831
 5613TIP3    H116796   5.925   4.296   0.581  0.7067  0.3044  0.6140
 5613TIP3    H216797   6.020   4.346   0.475 -1.1093 -0.2840 -1.3656
 5614TIP3   OH216798   5.615   0.082   5.894  0.1766  0.3846  0.2079
 5614TIP3    H116799   5.574   0.140   5.830  1.6251  0.6749 -0.4869
 5614TIP3    H216800   5.636   0.003   5.844  0.4173  0.2260  0.5578
 5615TIP3   OH216801   6.363   2.808   3.998 -0.5539 -0.0062  0.2026
 5615TIP3    H116802   6.424   2.800   4.071  1.1009 -1.1157 -1.2226
 5615TIP3    H216803   6.351   2.903   3.988 -1.1840  0.1775  2.1266
 5616TIP3   OH216804   1.619   3.373   3.767  0.2453  0.3274  0.7352
 5616TIP3    H116805   1.570   3.455   3.767 -0.2510  0.0613 -0.6118
 5616TIP3    H216806   1.618   3.345   3.676  2.6623  0.1427  0.7013
 5617TIP3   OH216807   2.654   4.195   3.753 -0.1407 -0.1652 -0.0194
 5617TIP3    H116808   2.599   4.148   3.815 -0.2181  0.2452  0.2266
 5617TIP3    H216809   2.623   4.285   3.756 -0.3052 -0.1855 -0.8419
 5618TIP3   OH216810   7.810   4.308   1.054  0.4403  0.1320 -0.0777
 5618TIP3    H116811   7.802   4.289   1.148  2.6520  0.9160  0.3275
 5618TIP3    H216812   7.829   4.402   1.051  1.4511 -0.0902 -1.2163
 5619TIP3   OH216813   2.322   3.185   2.656  0.0159  0.0172  0.2513
 5619TIP3    H116814   2.357   3.196   2.744 -0.4321 -1.6823  0.6752
 5619TIP3    H216815   2.399   3.173   2.600  0.2922  0.9411  0.4215
 5620TIP3   OH216816   1.546   2.464   2.031 -0.2167 -0.4245 -0.2787
 5620TIP3    H116817   1.614   2.486   1.968 -0.2824 -1.2062 -0.6431
 5620TIP3    H216818   1.476   2.527   2.014  0.4731  0.5037  0.2240
 5621TIP3   OH216819   1.179   6.932   0.078  0.0759  0.3639  0.9986
 5621TIP3    H116820   1.206   7.020   0.104  0.3576 -0.1120  2.4145
 5621TIP3    H216821   1.226   6.917  -0.004 -2.9439  2.9583 -1.4690
 5622TIP3   OH216822   5.544   2.988   4.392 -0.9473  0.3956  0.0513
 5622TIP3    H116823   5.464   2.943   4.364  0.2282 -0.5374 -2.1161
 5622TIP3    H216824   5.609   2.918   4.398 -0.2869  1.1006  1.9918
 5623TIP3   OH216825   0.764   6.969   5.833  0.1877 -0.0394 -0.4604
 5623TIP3    H116826   0.753   7.060   5.803 -2.7234 -0.1969 -0.1647
 5623TIP3    H216827   0.849   6.943   5.798  0.9103  2.6322 -0.9591
 5624TIP3   OH216828   1.222   2.116   5.296 -0.5646 -0.4689  0.5062
 5624TIP3    H116829   1.287   2.173   5.335  0.1516 -0.9404  0.0210
 5624TIP3    H216830   1.221   2.038   5.352 -1.9916  0.2360  1.5390
 5625TIP3   OH216831   0.174   1.000   0.780  0.1448  0.6926 -0.5045
 5625TIP3    H116832   0.168   0.930   0.845 -0.3778  1.9442  0.8340
 5625TIP3    H216833   0.235   0.966   0.714  2.0888  0.0345  1.4996
 5626TIP3   OH216834   7.393   4.524   0.184 -0.0412 -0.0906 -0.0317
 5626TIP3    H116835   7.455   4.451   0.187  1.3763  1.0963  1.4638
 5626TIP3    H216836   7.448   4.602   0.183 -1.5076  1.0000  0.7672
 5627TIP3   OH216837   0.373   0.844   1.474 -0.5134 -0.5009  0.7239
 5627TIP3    H116838   0.281   0.815   1.477 -0.0528 -2.1194  0.1262
 5627TIP3    H216839   0.423   0.765   1.492  0.7889  0.4212  1.2838
 5628TIP3   OH216840   0.013   5.403   3.129  0.2809  0.0344  0.6229
 5628TIP3    H116841  -0.048   5.439   3.063 -0.2077  0.7957  1.4723
 5628TIP3    H216842   0.098   5.402   3.085  0.3299  2.3305  0.5725
 5629TIP3   OH216843   5.802   1.100   4.465 -0.2320 -0.6409 -0.1007
 5629TIP3    H116844   5.890   1.129   4.440 -0.7623  0.4540 -0.7726
 5629TIP3    H216845   5.791   1.129   4.555 -0.8961  1.6881 -0.8800
 5630TIP3   OH216846   4.397   0.926   0.569 -0.1817  0.3485 -0.1988
 5630TIP3    H116847   4.363   0.968   0.490 -0.5102  1.5757  0.5635
 5630TIP3    H216848   4.416   0.999   0.629 -0.8712 -0.5922  1.2317
 5631TIP3   OH216849   8.056   2.988   4.096 -0.0072 -0.0512  0.3225
 5631TIP3    H116850   8.079   3.019   4.009 -0.4460 -0.8570 -0.0893
 5631TIP3    H216851   8.020   3.065   4.140  0.3855  0.4029 -0.1404
 5632TIP3   OH216852   6.224   5.431   6.343 -0.3838  0.5076 -0.2344
 5632TIP3    H116853   6.193   5.500   6.402 -1.0498 -0.5412  0.6839
 5632TIP3    H216854   6.312   5.411   6.375 -0.8194 -0.1947  0.5385
 5633TIP3   OH216855   1.099   2.405   0.172 -0.3842  0.1540  0.3075
 5633TIP3    H116856   1.006   2.405   0.154 -0.9597 -0.2485  2.8386
 5633TIP3    H216857   1.126   2.496   0.163 -0.8230  0.1520 -1.1862
 5634TIP3   OH216858   0.544   5.211   3.396 -0.0541  0.2610 -0.0560
 5634TIP3    H116859   0.605   5.151   3.440 -0.0512  0.6708  0.5089
 5634TIP3    H216860   0.505   5.159   3.326  2.9416  0.7203 -2.2513
 5635TIP3   OH216861   0.707   3.846   1.431  0.0634 -0.3170  0.8078
 5635TIP3    H116862   0.661   3.763   1.421  1.0191 -0.8494  0.7267
 5635TIP3    H216863   0.764   3.851   1.354 -1.1337  1.1890 -0.0561
 5636TIP3   OH216864   6.716   6.690   1.587 -0.2488 -0.1642 -0.0235
 5636TIP3    H116865   6.807   6.718   1.593 -0.0262 -0.7485 -0.5755
 5636TIP3    H216866   6.671   6.739   1.656  0.0549  1.7656 -1.1008
 5637TIP3   OH216867   3.187   6.136   0.647 -0.1804  0.7674 -0.0578
 5637TIP3    H116868   3.263   6.083   0.671  0.5394  1.3040 -1.0761
 5637TIP3    H216869   3.121   6.072   0.622  0.6544  0.3021 -1.1903
 5638TIP3   OH216870   7.408   1.434   2.955  0.0177  0.3241  0.4434
 5638TIP3    H116871   7.334   1.429   2.895 -0.9649  2.6416  1.3450
 5638TIP3    H216872   7.460   1.355   2.936 -1.1972  0.0379 -2.1316
 5639TIP3   OH216873   6.744   4.231   2.801 -0.4753  0.2068  0.1544
 5639TIP3    H116874   6.666   4.180   2.781  1.0928 -1.7757 -1.3804
 5639TIP3    H216875   6.759   4.283   2.722 -1.0568  1.7534  1.0295
 5640TIP3   OH216876  -0.012   0.982   0.552 -0.1275 -0.1285  0.0892
 5640TIP3    H116877  -0.023   1.074   0.528  0.5170  0.3854  1.6461
 5640TIP3    H216878   0.040   0.984   0.633  0.9107 -1.9138 -0.4736
 5641TIP3   OH216879   1.837   0.520   1.019 -0.5007 -0.0032  0.2681
 5641TIP3    H116880   1.920   0.472   1.032 -0.2444 -0.4014 -2.3199
 5641TIP3    H216881   1.789   0.506   1.100  1.5810 -0.5400  1.5001
 5642TIP3   OH216882   1.314   0.917   3.114  0.2761 -0.5514  0.2234
 5642TIP3    H116883   1.240   0.865   3.145  0.1302  0.3760  1.5177
 5642TIP3    H216884   1.289   1.008   3.133 -0.1732  0.2549 -3.3797
 5643TIP3   OH216885   0.608   6.711   3.754 -0.1642 -0.2419 -0.4020
 5643TIP3    H116886   0.656   6.647   3.807 -0.4463  0.1526  0.3526
 5643TIP3    H216887   0.662   6.724   3.676  1.3533  0.7327  0.7446
 5644TIP3   OH216888   6.607   5.965   2.743 -0.3342 -0.1454 -0.3724
 5644TIP3    H116889   6.612   5.989   2.836 -0.3515  1.9345 -0.8568
 5644TIP3    H216890   6.522   5.999   2.714 -1.3736 -2.7476 -0.6944
 5645TIP3   OH216891   3.009   0.188   3.618  0.1506  0.0346 -0.0428
 5645TIP3    H116892   3.054   0.231   3.690  1.2666  1.3623 -1.4693
 5645TIP3    H216893   2.926   0.237   3.609 -1.7110 -2.3521  2.5220
 5646TIP3   OH216894   5.066   4.350   4.931  0.6488  0.3778  0.1365
 5646TIP3    H116895   5.124   4.412   4.888  0.0957 -0.6372 -2.1990
 5646TIP3    H216896   5.113   4.324   5.010  1.9908  1.8310 -0.1408
 5647TIP3   OH216897   3.100   2.706   5.217 -0.0832 -0.0509  0.1535
 5647TIP3    H116898   3.074   2.751   5.297  0.3446  1.2761 -0.4272
 5647TIP3    H216899   3.070   2.764   5.146  0.3545 -0.7517 -0.6244
 5648TIP3   OH216900   1.366   3.901   6.705  0.6894  0.0783  0.1472
 5648TIP3    H116901   1.298   3.849   6.749 -0.0515 -1.0532 -2.1855
 5648TIP3    H216902   1.415   3.837   6.653  2.0042  1.2488 -0.1081
 5649TIP3   OH216903   6.827   7.543   0.544 -0.4942 -0.2596  0.1113
 5649TIP3    H116904   6.904   7.487   0.533 -1.6428 -1.5262 -2.6153
 5649TIP3    H216905   6.762   7.488   0.587 -1.1156 -0.5538 -1.1552
 5650TIP3   OH216906   1.719   2.715   2.181 -0.0290 -1.1797 -0.3003
 5650TIP3    H116907   1.719   2.805   2.214 -1.3363 -0.9976 -0.7280
 5650TIP3    H216908   1.706   2.661   2.259 -0.3534 -0.9183 -0.1693
 5651TIP3   OH216909   5.666   0.891   4.462 -0.0912  0.1581  0.2818
 5651TIP3    H116910   5.717   0.972   4.463 -2.3876  1.7387  1.6346
 5651TIP3    H216911   5.729   0.822   4.481  2.0468  1.5378 -1.3812
 5652TIP3   OH216912   8.078   2.789   0.870 -0.4733  0.2434  0.5244
 5652TIP3    H116913   8.056   2.839   0.792 -1.2588 -1.0846 -0.1522
 5652TIP3    H216914   8.167   2.816   0.892  0.1322 -0.0076 -1.3865
 5653TIP3   OH216915   0.884   1.065   4.575 -0.9424 -0.3001 -0.0675
 5653TIP3    H116916   0.876   1.103   4.488  3.0207  1.7522  0.1959
 5653TIP3    H216917   0.954   1.000   4.567  0.3395  0.7445  1.6670
 5654TIP3   OH216918   5.872   3.923   3.649  0.0465  0.5413 -0.3268
 5654TIP3    H116919   5.930   3.931   3.726 -0.9009  0.7067  0.3875
 5654TIP3    H216920   5.923   3.960   3.577  2.1753 -2.3133 -0.4748
 5655TIP3   OH216921   7.404   6.982   2.686  0.2515  0.0226 -0.9516
 5655TIP3    H116922   7.470   6.915   2.668 -0.2385 -0.5822 -0.5253
 5655TIP3    H216923   7.448   7.065   2.664  1.2543 -0.3433 -0.4250
 5656TIP3   OH216924   6.845   6.521   0.584 -0.1668  0.4158  0.0510
 5656TIP3    H116925   6.851   6.608   0.623  2.5814 -0.7634  2.7019
 5656TIP3    H216926   6.796   6.470   0.649 -0.8741 -0.2655 -1.0010
 5657TIP3   OH216927   4.393   6.914   0.542  0.5595  0.2278  0.3064
 5657TIP3    H116928   4.465   6.900   0.604 -1.2475 -1.2551  2.2195
 5657TIP3    H216929   4.367   6.826   0.515 -2.1615  0.4853  1.7244
 5658TIP3   OH216930   2.507   6.359   1.537 -0.1782 -0.5452 -0.0190
 5658TIP3    H116931   2.496   6.296   1.608  2.1060 -0.1519  0.7613
 5658TIP3    H216932   2.487   6.309   1.458  0.1057 -1.8422  0.6934
 5659TIP3   OH216933   3.458   4.274   5.749  0.3539 -0.5276  0.4184
 5659TIP3    H116934   3.522   4.316   5.807  0.1205  0.4211 -0.0036
 5659TIP3    H216935   3.507   4.256   5.669  0.2877 -0.5171  0.3763
 5660TIP3   OH216936   4.636   4.652   4.623  0.4968 -0.1985  0.2184
 5660TIP3    H116937   4.723   4.663   4.662  0.1736  1.7097  0.5156
 5660TIP3    H216938   4.576   4.667   4.696 -0.0991  2.0489 -0.6443
 5661TIP3   OH216939   2.106   1.395   1.662 -0.4075  0.0151  0.2152
 5661TIP3    H116940   2.151   1.420   1.743 -1.0238 -0.2302  0.6365
 5661TIP3    H216941   2.174   1.352   1.610  0.8027  2.7638 -0.6818
 5662TIP3   OH216942   2.116   5.328   0.840  0.3970  0.1579  0.1540
 5662TIP3    H116943   2.198   5.279   0.838 -0.5897 -1.6308  0.9817
 5662TIP3    H216944   2.142   5.417   0.862  2.2313 -0.0458 -1.0019
 5663TIP3   OH216945   0.962   7.278   5.727 -0.0793  0.1957  0.0863
 5663TIP3    H116946   0.870   7.291   5.706 -0.0317 -0.6014 -0.7180
 5663TIP3    H216947   0.962   7.216   5.799 -0.1709 -0.6526 -0.6211
 5664TIP3   OH216948   1.247   2.529   1.607 -0.3101 -0.6526 -0.1167
 5664TIP3    H116949   1.160   2.504   1.576  0.0292  0.5016 -2.1497
 5664TIP3    H216950   1.308   2.477   1.554  0.2687  0.1595 -0.2603
 5665TIP3   OH216951   0.626   0.253   1.168 -0.4290  0.5676 -0.4112
 5665TIP3    H116952   0.544   0.298   1.152 -1.1781 -0.9135 -0.9309
 5665TIP3    H216953   0.626   0.179   1.107  0.2781 -0.7184  1.0517
 5666TIP3   OH216954   5.127   5.668   6.530 -0.0778 -0.1612 -0.5549
 5666TIP3    H116955   5.174   5.744   6.495  1.3504 -0.5272  0.4538
 5666TIP3    H216956   5.194   5.600   6.537 -1.3129 -1.4920 -1.3151
 5667TIP3   OH216957   5.611   6.038   4.824 -0.0282 -0.2046  0.0837
 5667TIP3    H116958   5.646   5.958   4.786  2.8809  0.9048  0.1851
 5667TIP3    H216959   5.583   6.013   4.912  3.1586 -0.7330  1.0755
 5668TIP3   OH216960   0.131   3.685   4.184 -0.0381 -0.1569 -0.4926
 5668TIP3    H116961   0.084   3.729   4.113 -0.0741  1.8815  0.7064
 5668TIP3    H216962   0.118   3.742   4.259  0.2841 -2.0734  1.0914
 5669TIP3   OH216963   6.031   4.913   3.013  0.0773  0.5703  0.4742
 5669TIP3    H116964   6.065   4.901   3.101  0.1710 -1.0979  0.2491
 5669TIP3    H216965   6.074   4.992   2.980  1.8356 -0.0934  1.0804
 5670TIP3   OH216966   1.466   4.920   2.994 -0.2212 -0.0506 -0.1474
 5670TIP3    H116967   1.553   4.885   3.010 -0.5635 -0.5512  0.6744
 5670TIP3    H216968   1.464   5.001   3.045 -0.9851 -1.1708  1.7162
 5671TIP3   OH216969   2.894   1.159   4.071 -0.4858  0.1007 -0.4454
 5671TIP3    H116970   2.828   1.098   4.038  1.1677 -2.0482 -0.0409
 5671TIP3    H216971   2.976   1.109   4.069  0.9846  2.3350 -0.0502
 5672TIP3   OH216972   1.497   3.288   2.291  0.0985  0.0210 -0.0262
 5672TIP3    H116973   1.475   3.359   2.352 -1.2227 -0.5435  0.1814
 5672TIP3    H216974   1.471   3.321   2.205 -1.6747 -0.6393  0.2169
 5673TIP3   OH216975   1.633   0.358   3.788 -0.5286  0.1920 -0.2060
 5673TIP3    H116976   1.573   0.374   3.715  0.4778 -2.1725 -1.6512
 5673TIP3    H216977   1.699   0.427   3.781 -0.6240  0.1845 -1.3666
 5674TIP3   OH216978   7.888   6.259   1.514  0.0925  0.0756  0.0253
 5674TIP3    H116979   7.875   6.319   1.440 -0.4921 -0.8132 -0.6131
 5674TIP3    H216980   7.881   6.172   1.476  0.8976 -0.4119  0.9495
 5675TIP3   OH216981   0.341   5.800   3.541 -0.3790 -0.0681  0.4350
 5675TIP3    H116982   0.255   5.759   3.539 -0.3976 -0.0077 -0.7996
 5675TIP3    H216983   0.402   5.730   3.521 -0.2748  0.1934 -0.1660
 5676TIP3   OH216984   1.568   1.269   1.887 -0.9583  0.0532 -0.1016
 5676TIP3    H116985   1.507   1.314   1.946 -1.4933 -2.0974  1.0719
 5676TIP3    H216986   1.654   1.279   1.927 -0.8417  1.1779 -0.5908
 5677TIP3   OH216987   4.800   0.056   2.893 -0.1964  0.0153 -0.0698
 5677TIP3    H116988   4.850  -0.025   2.887  2.4732  1.4739  0.7343
 5677TIP3    H216989   4.711   0.028   2.912  0.8249 -2.7063  1.2598
 5678TIP3   OH216990   1.463   0.461   2.301 -0.1078  0.0342  0.3120
 5678TIP3    H116991   1.455   0.464   2.397 -0.1810  4.3414  0.3419
 5678TIP3    H216992   1.509   0.541   2.278 -2.0358  0.2847 -3.4401
 5679TIP3   OH216993   4.167   7.617   4.129 -0.2408 -0.0470 -0.1394
 5679TIP3    H116994   4.120   7.597   4.048  1.1817 -1.9600 -0.5804
 5679TIP3    H216995   4.117   7.688   4.170 -1.6297  0.1868 -2.1225
 5680TIP3   OH216996   6.916   4.070   4.111  0.0576 -0.5786 -0.3204
 5680TIP3    H116997   6.885   4.121   4.036  1.4196 -0.9390 -1.1705
 5680TIP3    H216998   6.893   4.122   4.187  0.8187  1.0203 -1.1204
 5681TIP3   OH216999   7.553   0.316   5.379  0.3391 -0.0591  0.9304
 5681TIP3    H117000   7.519   0.279   5.461 -0.4879 -0.8778  0.2350
 5681TIP3    H217001   7.593   0.398   5.405 -2.0378  0.8994  1.8281
 5682TIP3   OH217002   4.952   7.712   1.819 -0.2220  0.6001 -0.5802
 5682TIP3    H117003   5.038   7.686   1.854  0.4194  1.2474 -1.6478
 5682TIP3    H217004   4.972   7.760   1.739 -1.6444 -0.6556 -1.7454
 5683TIP3   OH217005   1.476   2.859  -0.004  0.3363 -0.3965 -0.2026
 5683TIP3    H117006   1.555   2.847  -0.056 -0.0875 -2.5226 -0.4478
 5683TIP3    H217007   1.507   2.862   0.086  0.8327  0.4994 -0.3970
 5684TIP3   OH217008   3.723   5.110   6.608  0.5605  0.2675  0.6626
 5684TIP3    H117009   3.731   5.205   6.599  1.9276  0.4278  2.7585
 5684TIP3    H217010   3.691   5.080   6.523  0.8523  2.5136 -0.3039
 5685TIP3   OH217011   1.928   6.111   4.724 -0.4614  0.3444 -0.2257
 5685TIP3    H117012   1.886   6.171   4.786  0.9083 -0.2345  1.3353
 5685TIP3    H217013   1.948   6.166   4.648 -0.4399  1.5659  0.6317
 5686TIP3   OH217014   3.945   5.174   1.185 -0.1584  0.2423 -0.1687
 5686TIP3    H117015   3.918   5.266   1.189  0.1055  0.2856  0.6725
 5686TIP3    H217016   3.991   5.159   1.267 -0.3552 -0.6943 -0.2247
 5687TIP3   OH217017   2.474   2.078   1.070  0.7786  0.3515  0.3681
 5687TIP3    H117018   2.455   2.051   1.160 -1.5679  0.7951  0.0532
 5687TIP3    H217019   2.432   2.163   1.061 -0.3682 -0.3628 -1.5975
 5688TIP3   OH217020   0.609   6.838   0.208  0.0535  0.5325  0.6888
 5688TIP3    H117021   0.583   6.775   0.275  0.5690  1.3232  1.6454
 5688TIP3    H217022   0.682   6.796   0.163  0.4877  0.4976  1.4121
 5689TIP3   OH217023   6.059   2.083   1.323  0.0002  0.0530 -0.0277
 5689TIP3    H117024   6.056   2.151   1.390  1.0649  0.1646 -0.0698
 5689TIP3    H217025   6.121   2.117   1.257 -1.3350  0.1385 -1.2896
 5690TIP3   OH217026   4.770   4.999   4.703  0.3306  0.0134 -1.2964
 5690TIP3    H117027   4.860   4.985   4.733 -0.3614 -0.9278  0.5575
 5690TIP3    H217028   4.742   4.913   4.670 -0.3197 -0.1009 -0.4959
 5691TIP3   OH217029   8.211   6.782   2.203 -0.4480  0.3683 -0.1839
 5691TIP3    H117030   8.159   6.702   2.210  0.7474 -0.4285  0.0615
 5691TIP3    H217031   8.260   6.771   2.122  2.5209 -0.9805  1.6072
 5692TIP3   OH217032   7.711   3.013   0.028  0.3062  0.0647  0.0316
 5692TIP3    H117033   7.751   3.081   0.083  2.2239 -2.8558  2.5802
 5692TIP3    H217034   7.769   3.006  -0.047  1.9023 -0.7484  1.2729
 5693TIP3   OH217035   0.422   3.170   2.596  0.3078 -0.0461 -0.0999
 5693TIP3    H117036   0.347   3.129   2.553  0.5636 -3.3443  2.2087
 5693TIP3    H217037   0.481   3.192   2.524 -1.2605 -0.9233 -1.7378
 5694TIP3   OH217038   3.339   3.031   3.817  0.1255 -0.2809  0.0616
 5694TIP3    H117039   3.343   2.940   3.848  0.7038 -0.6461 -1.0194
 5694TIP3    H217040   3.246   3.048   3.807  0.0300 -1.0365 -0.4681
 5695TIP3   OH217041   4.972   6.917   3.394  0.2442  0.0025 -0.0403
 5695TIP3    H117042   4.877   6.913   3.383  0.1398 -1.6735  1.0564
 5695TIP3    H217043   5.007   6.900   3.307 -0.4659 -0.6353 -0.2082
 5696TIP3   OH217044   4.005   7.642   5.690 -0.3512 -0.2400 -0.1941
 5696TIP3    H117045   4.030   7.598   5.609 -0.6920  0.2790 -0.5915
 5696TIP3    H217046   3.920   7.683   5.670 -0.5513 -0.3023  0.4955
 5697TIP3   OH217047   4.350   5.732   4.663  0.9059  0.1743  0.5614
 5697TIP3    H117048   4.332   5.778   4.581  2.1360 -0.0452  0.1413
 5697TIP3    H217049   4.290   5.771   4.727 -0.5833 -0.1591 -0.5901
 5698TIP3   OH217050   6.771   7.324   6.296  0.0550 -0.4327 -0.0178
 5698TIP3    H117051   6.698   7.321   6.357  0.8059 -1.8014  0.8606
 5698TIP3    H217052   6.760   7.248   6.240  0.0205  0.1644 -0.8387
 5699TIP3   OH217053   6.452   1.033   1.766 -0.4223  0.8059  0.3908
 5699TIP3    H117054   6.460   0.962   1.703 -1.2618 -0.4098  1.5823
 5699TIP3    H217055   6.491   0.999   1.847 -0.5817  1.8076  0.9184
 5700TIP3   OH217056   1.059   2.277   2.177  0.3071 -0.3484  0.0515
 5700TIP3    H117057   0.965   2.261   2.168  0.1729  0.0720  0.6542
 5700TIP3    H217058   1.065   2.361   2.223  0.9776 -0.3894  0.0516
 5701TIP3   OH217059   5.592   5.264   0.088 -0.1180  0.0622 -0.1096
 5701TIP3    H117060   5.559   5.251  -0.001 -0.2573  1.0192 -0.2046
 5701TIP3    H217061   5.555   5.348   0.116  2.2559  1.2220 -0.2426
 5702TIP3   OH217062   5.159   2.935   1.097 -0.7598  0.0170  0.3469
 5702TIP3    H117063   5.101   2.886   1.156 -0.3053  2.1685  2.7057
 5702TIP3    H217064   5.224   2.870   1.068 -0.7882 -1.0475  2.5072
 5703TIP3   OH217065   1.530   0.975   5.948 -0.2783  0.6060  0.5601
 5703TIP3    H117066   1.622   0.998   5.961  0.7330 -2.2585 -0.5468
 5703TIP3    H217067   1.502   1.025   5.871  1.2669 -0.4759 -0.7763
 5704TIP3   OH217068   1.378   4.092   2.831 -0.3228  0.1152  0.2474
 5704TIP3    H117069   1.314   4.059   2.893 -1.1939  1.2753 -0.0206
 5704TIP3    H217070   1.431   4.015   2.809 -0.6614 -0.5336  1.5956
 5705TIP3   OH217071   7.355   7.411   2.846  0.4626  0.1099 -0.2570
 5705TIP3    H117072   7.353   7.322   2.809 -1.4929  0.7242 -1.7894
 5705TIP3    H217073   7.440   7.446   2.817  1.4489 -1.3455  0.7062
 5706TIP3   OH217074   0.201   2.758   5.425 -0.4358 -0.2995 -0.4653
 5706TIP3    H117075   0.266   2.697   5.460 -0.8691 -0.4680  0.0435
 5706TIP3    H217076   0.153   2.708   5.360 -1.5414 -0.8612  0.7417
 5707TIP3   OH217077   7.757   3.142   0.663 -0.0282  0.1489 -0.0125
 5707TIP3    H117078   7.772   3.190   0.744 -0.9331  0.0184  0.2514
 5707TIP3    H217079   7.669   3.168   0.636  0.3533  0.3723 -1.0890
 5708TIP3   OH217080   2.527   1.013   3.376  0.3264 -0.1702 -0.0182
 5708TIP3    H117081   2.614   0.983   3.404  0.4379 -0.0646 -0.2443
 5708TIP3    H217082   2.516   0.975   3.289 -0.8133 -2.0536  0.9075
 5709TIP3   OH217083   0.760   0.335   4.489  0.3077  0.0369  0.1861
 5709TIP3    H117084   0.710   0.282   4.427  0.7058  0.7628 -0.7830
 5709TIP3    H217085   0.695   0.365   4.553 -0.1092 -0.7289  0.1305
 5710TIP3   OH217086   5.036   6.783   3.141  0.1803  0.2247 -1.0186
 5710TIP3    H117087   4.989   6.709   3.180  1.0249 -1.5908 -3.1890
 5710TIP3    H217088   4.972   6.822   3.081 -0.4802  1.7643  0.6018
 5711TIP3   OH217089   7.016   0.790   4.124 -0.0853  0.6745 -0.7477
 5711TIP3    H117090   6.954   0.838   4.179 -1.3172 -0.0563 -1.4376
 5711TIP3    H217091   6.962   0.756   4.052  1.4342  1.4729 -2.3380
 5712TIP3   OH217092   3.372   7.645   2.633  0.2774  0.2635 -0.1092
 5712TIP3    H117093   3.325   7.678   2.557 -0.7956  2.5357  1.4517
 5712TIP3    H217094   3.365   7.550   2.626 -0.9996  0.4556 -2.0857
 5713TIP3   OH217095   4.560   0.524   5.029  0.3274  0.0227  0.1163
 5713TIP3    H117096   4.570   0.619   5.027  0.9458 -0.0393  0.2126
 5713TIP3    H217097   4.532   0.504   5.118 -0.8650  0.2126 -0.2009
 5714TIP3   OH217098   3.044   1.841   3.080  0.1419  0.1442 -0.4371
 5714TIP3    H117099   2.970   1.781   3.088 -0.7943  1.0800 -1.6849
 5714TIP3    H217100   3.006   1.922   3.047  1.4068  1.3860  0.9872
 5715TIP3   OH217101   3.040   2.020   0.131 -0.1556  0.6521 -0.3638
 5715TIP3    H117102   3.116   1.986   0.179 -0.7348  0.3757  0.3723
 5715TIP3    H217103   2.964   1.983   0.177 -0.7347  0.7944 -1.1921
 5716TIP3   OH217104   3.254   5.872   6.579  0.6679 -0.1705  0.6139
 5716TIP3    H117105   3.255   5.777   6.568 -0.1252 -0.0311 -0.8884
 5716TIP3    H217106   3.162   5.894   6.594  0.5964  0.4953 -0.6649
 5717TIP3   OH217107   7.178   1.408   6.734 -0.0803 -0.1732 -0.4124
 5717TIP3    H117108   7.105   1.387   6.792  0.0812 -1.5126 -0.6529
 5717TIP3    H217109   7.193   1.501   6.747 -0.2540 -0.3603  1.4710
 5718TIP3   OH217110   2.660   1.792   3.274 -0.0920  0.6707  0.2958
 5718TIP3    H117111   2.661   1.697   3.261  1.1805  0.5115  1.2776
 5718TIP3    H217112   2.591   1.806   3.339  0.5528  0.2439  1.0998
 5719TIP3   OH217113   5.393   0.912   1.421 -0.5867 -0.4490 -0.2452
 5719TIP3    H117114   5.464   0.871   1.372 -1.4524 -1.5129 -0.6345
 5719TIP3    H217115   5.323   0.924   1.357 -0.7244  0.7429  0.0942
 5720TIP3   OH217116   2.162   6.777   2.478 -0.7695  0.0669  0.4057
 5720TIP3    H117117   2.103   6.845   2.444  0.2070  1.0453  0.5981
 5720TIP3    H217118   2.148   6.702   2.421 -0.2668  1.1744 -1.2375
 5721TIP3   OH217119   7.139   7.568   1.436  0.3524 -0.2607 -0.2038
 5721TIP3    H117120   7.197   7.590   1.364  2.3363 -0.5189  1.2327
 5721TIP3    H217121   7.184   7.601   1.514 -1.1155 -1.0789  1.0491
 5722TIP3   OH217122   2.887   6.861   3.290 -0.3319  0.7209 -0.1609
 5722TIP3    H117123   2.952   6.884   3.224 -0.3592 -0.5001 -0.6500
 5722TIP3    H217124   2.930   6.792   3.342 -0.8862  0.5667  0.0992
 5723TIP3   OH217125   7.105   7.761   3.044  0.1163 -0.0580  0.2193
 5723TIP3    H117126   7.148   7.727   3.122  1.2443  0.8498  0.0185
 5723TIP3    H217127   7.162   7.734   2.972 -1.2011 -1.3786 -0.3903
 5724TIP3   OH217128   1.388   0.731   6.018  0.0927 -0.4150  0.2274
 5724TIP3    H117129   1.444   0.807   6.009  0.6561 -0.5621  2.1461
 5724TIP3    H217130   1.351   0.738   6.106 -2.2271 -0.7948 -0.6336
 5725TIP3   OH217131   0.993   0.855   0.798  0.0254  0.4201 -0.2325
 5725TIP3    H117132   0.965   0.838   0.888 -1.2166 -0.3786 -0.7453
 5725TIP3    H217133   1.085   0.880   0.805  0.2995 -0.8917  1.1299
 5726TIP3   OH217134   1.707   2.483   0.698  0.3119  0.4412  0.1216
 5726TIP3    H117135   1.717   2.432   0.618  1.0985  1.0001 -0.1437
 5726TIP3    H217136   1.742   2.427   0.768  0.3572  0.2700 -0.0391
 5727TIP3   OH217137   1.098   1.623   1.496  0.0550 -0.2579  0.5572
 5727TIP3    H117138   1.100   1.531   1.469  0.4216  0.1949 -1.0983
 5727TIP3    H217139   1.037   1.664   1.435  2.0650  1.1208 -0.6331
 5728TIP3   OH217140   3.152   6.875   3.633  0.4739  0.2565 -0.5246
 5728TIP3    H117141   3.140   6.823   3.554  3.8271 -2.2529  0.4036
 5728TIP3    H217142   3.189   6.958   3.602 -0.3492  0.2109 -1.6922
 5729TIP3   OH217143   7.726   7.171   2.923  0.1464  0.4843 -0.1639
 5729TIP3    H117144   7.648   7.159   2.978  0.9278  3.3377  1.8229
 5729TIP3    H217145   7.787   7.105   2.954 -0.7100 -0.3543 -0.2118
 5730TIP3   OH217146   7.891   2.485   2.793 -0.0059 -0.3589 -0.1332
 5730TIP3    H117147   7.828   2.422   2.757 -0.5675  0.4104 -0.5179
 5730TIP3    H217148   7.975   2.440   2.787 -0.4211 -1.1427 -0.2378
 5731TIP3   OH217149   4.443   3.535   3.389 -0.5240 -0.4258 -0.2979
 5731TIP3    H117150   4.452   3.473   3.316  0.5297 -0.5832 -0.0453
 5731TIP3    H217151   4.455   3.482   3.468 -1.1816 -0.1729 -0.0231
 5732TIP3   OH217152   5.545   4.314   5.411  0.2523  0.3844 -0.1660
 5732TIP3    H117153   5.564   4.273   5.327 -1.8495  0.1211 -0.5652
 5732TIP3    H217154   5.625   4.361   5.434  1.2758 -0.5471 -1.7130
 5733TIP3   OH217155   5.438   0.837   2.342  0.0315  0.3861  0.4039
 5733TIP3    H117156   5.368   0.777   2.367 -0.5714  1.0275  0.2818
 5733TIP3    H217157   5.417   0.864   2.253  1.6207 -1.0855 -0.4591
 5734TIP3   OH217158   6.622   2.065   0.781 -0.0207 -0.2158  0.1978
 5734TIP3    H117159   6.710   2.086   0.749  0.3222  0.8864  1.7486
 5734TIP3    H217160   6.570   2.052   0.701  0.7366  2.6084 -0.9022
 5735TIP3   OH217161   8.117   5.679   6.488  0.5712  0.0520  0.7220
 5735TIP3    H117162   8.152   5.768   6.491  0.4382  0.1072  3.4511
 5735TIP3    H217163   8.152   5.637   6.566 -0.5346 -1.8511  0.2650
 5736TIP3   OH217164   4.422   5.119   3.119  0.1808 -0.4293  0.3750
 5736TIP3    H117165   4.365   5.054   3.078 -0.2651 -0.7696  1.4973
 5736TIP3    H217166   4.363   5.176   3.169  0.7070 -0.0397  0.5738
 5737TIP3   OH217167   8.154   7.630   4.299  0.1958 -0.2889 -0.0854
 5737TIP3    H117168   8.221   7.698   4.291 -1.5539  1.4152 -0.7966
 5737TIP3    H217169   8.132   7.629   4.391 -0.2977  0.6426 -0.1889
 5738TIP3   OH217170   7.540   7.341   4.080  0.0094 -0.9814  0.7147
 5738TIP3    H117171   7.545   7.340   3.985  1.3730  0.7495  0.7124
 5738TIP3    H217172   7.526   7.249   4.105  2.0268 -1.8421 -1.0700
 5739TIP3   OH217173   3.877   1.226   5.277 -0.3203 -0.0741 -0.2184
 5739TIP3    H117174   3.785   1.245   5.258 -1.0921 -1.4106  1.8469
 5739TIP3    H217175   3.881   1.130   5.277  0.3196 -0.1269  2.7097
 5740TIP3   OH217176   6.562   4.507   4.027  0.0975 -0.2738 -0.1616
 5740TIP3    H117177   6.501   4.511   4.100 -0.0121  1.1051 -0.3139
 5740TIP3    H217178   6.646   4.487   4.067  0.1000  0.7889  0.3827
 5741TIP3   OH217179   2.482   3.936   2.718  1.0020 -0.3283  0.0923
 5741TIP3    H117180   2.541   4.001   2.680  3.3550 -2.0507  0.5832
 5741TIP3    H217181   2.417   3.920   2.650  0.2484  2.5585  0.0073
 5742TIP3   OH217182   4.731   2.391   2.267  0.1100  0.1052 -0.3808
 5742TIP3    H117183   4.678   2.433   2.200 -0.2902 -0.2046 -0.2625
 5742TIP3    H217184   4.748   2.460   2.332 -3.8112 -0.7126  1.8412
 5743TIP3   OH217185   7.654   1.973   4.671 -0.2758 -0.4819  0.2411
 5743TIP3    H117186   7.701   1.972   4.755  1.3293 -0.9628 -0.6232
 5743TIP3    H217187   7.603   1.892   4.672 -0.0465 -0.6259  0.6356
 5744TIP3   OH217188   7.954   7.155   5.464  0.6832 -0.0029 -0.0776
 5744TIP3    H117189   7.905   7.073   5.470 -0.9289  1.0063  1.3192
 5744TIP3    H217190   8.046   7.128   5.464  0.3065 -1.7321  3.2031
 5745TIP3   OH217191   4.424   1.709   3.968  0.6828 -0.4265 -0.0902
 5745TIP3    H117192   4.355   1.679   3.908  1.3315  0.4689 -1.3494
 5745TIP3    H217193   4.377   1.757   4.036 -0.0911 -1.5966  0.2165
 5746TIP3   OH217194   1.658   6.022   5.113  0.2613 -0.8440 -0.4052
 5746TIP3    H117195   1.640   6.010   5.206 -0.8328  0.5292 -0.4120
 5746TIP3    H217196   1.739   5.973   5.098  1.3798  0.2535  1.6084
 5747TIP3   OH217197   1.338   3.802   3.294  0.4082 -0.6977 -0.0561
 5747TIP3    H117198   1.274   3.872   3.285  0.2872 -0.6201  1.1774
 5747TIP3    H217199   1.339   3.758   3.209  1.5399  1.6781 -1.3733
 5748TIP3   OH217200   6.750   7.081   4.519 -0.1209  0.1168 -0.5651
 5748TIP3    H117201   6.678   7.069   4.581  0.6481  0.1269  0.3486
 5748TIP3    H217202   6.713   7.137   4.451 -0.2155  2.5848  1.3379
 5749TIP3   OH217203   7.007   3.994   2.517  0.2926  0.0213 -0.0874
 5749TIP3    H117204   6.952   4.061   2.476  0.4597  1.1097  1.3538
 5749TIP3    H217205   7.043   4.038   2.595  2.2529 -1.0257 -0.3397
 5750TIP3   OH217206   0.023   5.396   1.016  0.2473 -0.0393 -0.1221
 5750TIP3    H117207   0.107   5.390   0.971  0.1471  0.1707 -0.3415
 5750TIP3    H217208  -0.006   5.305   1.025  0.5586 -0.1171  0.0705
 5751TIP3   OH217209   0.382   1.952   0.585 -0.1773  0.8464  0.5327
 5751TIP3    H117210   0.432   1.910   0.515 -0.7851  1.9136 -0.5920
 5751TIP3    H217211   0.318   1.886   0.611 -0.7531  0.8416 -0.8119
 5752TIP3   OH217212   4.113   5.626   5.016  0.5302  0.4475 -0.1819
 5752TIP3    H117213   4.065   5.565   5.072 -1.1703  0.2288 -1.8013
 5752TIP3    H217214   4.205   5.612   5.040 -0.0403 -0.3455  1.8046
 5753TIP3   OH217215   6.743   5.471   3.464 -0.4526  0.0693 -0.2751
 5753TIP3    H117216   6.698   5.490   3.382  0.4970  1.1671 -0.5648
 5753TIP3    H217217   6.815   5.534   3.467  0.4419 -0.9676  0.6706
 5754TIP3   OH217218   4.444   0.485   4.248 -0.2024 -0.6544 -0.1221
 5754TIP3    H117219   4.368   0.460   4.302 -0.3393  0.5747  0.2868
 5754TIP3    H217220   4.468   0.405   4.203 -1.5402 -1.1606  0.0044
 5755TIP3   OH217221   8.169   7.248   3.952  0.1741 -0.0388 -0.6516
 5755TIP3    H117222   8.148   7.282   4.039  0.5983 -0.6575 -0.2994
 5755TIP3    H217223   8.259   7.277   3.937  1.3346 -2.7351  0.5599
 5756TIP3   OH217224   2.297   4.238   1.549 -0.2883 -0.1688  0.0765
 5756TIP3    H117225   2.327   4.213   1.461 -0.9998  1.0851 -0.5595
 5756TIP3    H217226   2.235   4.309   1.533  0.0188  0.4880  1.6431
 5757TIP3   OH217227   0.151   1.468   3.644  0.1776  0.2679 -0.2595
 5757TIP3    H117228   0.088   1.464   3.572 -0.4578  0.2054  0.2931
 5757TIP3    H217229   0.098   1.455   3.723  0.8641  0.3539  0.2208
 5758TIP3   OH217230   3.288   4.052   6.002  0.1652 -0.2279 -0.6388
 5758TIP3    H117231   3.294   4.139   6.041 -0.2549  0.0593 -1.2010
 5758TIP3    H217232   3.201   4.051   5.960  0.1106 -0.9652 -0.5105
 5759TIP3   OH217233   7.289   5.818   2.935 -0.4376 -0.0208 -0.3381
 5759TIP3    H117234   7.242   5.742   2.969 -0.4663 -0.0571 -0.4580
 5759TIP3    H217235   7.379   5.788   2.926 -0.4864 -0.1011 -0.5686
 5760TIP3   OH217236   0.304   2.299   6.085  0.5397  0.0389 -0.0972
 5760TIP3    H117237   0.330   2.266   6.171 -2.0724 -1.3875  0.2389
 5760TIP3    H217238   0.242   2.369   6.103  2.3670  2.0024 -0.8876
 5761TIP3   OH217239   7.475   6.013   6.673  0.1156 -0.2099  0.0552
 5761TIP3    H117240   7.448   5.934   6.626  0.5361  0.3929 -1.2545
 5761TIP3    H217241   7.523   5.980   6.749 -0.1544 -1.2200 -0.1935
 5762TIP3   OH217242   4.475   2.484   0.704  0.0755 -0.1399  0.1782
 5762TIP3    H117243   4.508   2.572   0.687 -2.1894  0.9677  1.0994
 5762TIP3    H217244   4.441   2.455   0.619 -0.0800  0.3124  0.0817
 5763TIP3   OH217245   6.671   5.029   5.933  0.5015 -0.2717 -0.1490
 5763TIP3    H117246   6.691   5.031   6.026  0.0698 -0.3112 -0.0510
 5763TIP3    H217247   6.596   4.970   5.926  0.0556  0.3118 -0.4249
 5764TIP3   OH217248   0.291   2.354   3.164 -0.6918 -0.4609  0.5013
 5764TIP3    H117249   0.279   2.443   3.132  1.5004 -0.6172 -0.9775
 5764TIP3    H217250   0.334   2.364   3.249  0.0460 -0.0845  0.0954
 5765TIP3   OH217251   1.763   3.953   2.169  0.0092  0.4403 -0.5425
 5765TIP3    H117252   1.782   4.043   2.196 -0.9155  0.5433 -0.2282
 5765TIP3    H217253   1.668   3.951   2.156  0.0672 -0.4024 -0.8830
 5766TIP3   OH217254   1.742   7.230   4.188  0.2128 -0.2407 -0.1122
 5766TIP3    H117255   1.756   7.282   4.267  0.9492 -0.9038  0.1950
 5766TIP3    H217256   1.694   7.289   4.130 -0.2680  0.2806  0.7891
 5767TIP3   OH217257   6.223   7.600   2.418  0.1693 -0.2323  0.3618
 5767TIP3    H117258   6.282   7.528   2.396 -0.0125 -0.1582 -0.3776
 5767TIP3    H217259   6.223   7.602   2.514  0.5677 -0.8886  0.3811
 5768TIP3   OH217260   8.000   3.094   0.296  0.6581  0.3509  0.1625
 5768TIP3    H117261   7.912   3.080   0.331  0.0496 -0.9276 -1.7012
 5768TIP3    H217262   8.013   3.189   0.302 -0.8599  0.5760  0.4315
 5769TIP3   OH217263   6.026   4.686   3.209 -0.1345  0.0345  0.0475
 5769TIP3    H117264   5.985   4.609   3.170 -1.3827  0.5175  0.3616
 5769TIP3    H217265   6.037   4.663   3.301 -2.0106  0.7967  0.4970
 5770TIP3   OH217266   4.695   4.480   4.411  0.3035  0.1950  0.0814
 5770TIP3    H117267   4.787   4.453   4.419  0.0932 -0.1899  1.4398
 5770TIP3    H217268   4.676   4.524   4.494 -0.2177  1.9416 -0.9229
 5771TIP3   OH217269   4.112   7.773   0.272 -0.1150 -0.4177  0.0664
 5771TIP3    H117270   4.110   7.868   0.270 -1.3684 -0.3899  1.1719
 5771TIP3    H217271   4.147   7.751   0.358 -0.8349 -0.9393  0.2381
 5772TIP3   OH217272   3.121   1.120   5.264 -0.2146  0.0475 -0.1149
 5772TIP3    H117273   3.189   1.162   5.317  0.0197  0.8056 -0.9914
 5772TIP3    H217274   3.140   1.026   5.271 -1.3876 -0.0905  2.7519
 5773TIP3   OH217275   5.511   4.151   4.613 -0.5108 -0.5439 -0.7505
 5773TIP3    H117276   5.469   4.067   4.628 -1.7461  0.5275  2.8898
 5773TIP3    H217277   5.453   4.197   4.553 -1.3018 -1.3261 -0.6011
 5774TIP3   OH217278   4.464   0.254   4.096 -0.4744  0.0841  0.0668
 5774TIP3    H117279   4.516   0.178   4.070 -2.1929 -0.6490 -1.4846
 5774TIP3    H217280   4.373   0.222   4.098 -1.2722  2.0979 -0.7611
 5775TIP3   OH217281   5.625   0.141   0.065 -0.5514 -0.3721  0.3329
 5775TIP3    H117282   5.644   0.061   0.114 -3.0769 -0.9674  0.4489
 5775TIP3    H217283   5.628   0.113  -0.027 -0.1154 -0.2723  0.3143
 5776TIP3   OH217284   6.544   3.320   5.130  0.5421 -0.0338 -0.2001
 5776TIP3    H117285   6.514   3.382   5.197  0.3383 -0.7393  0.3661
 5776TIP3    H217286   6.463   3.283   5.094  0.6227  0.7024 -1.2108
 5777TIP3   OH217287   1.652   7.037   4.508  0.7712  1.0329 -0.2177
 5777TIP3    H117288   1.742   7.069   4.509  1.7490 -1.2082 -2.9153
 5777TIP3    H217289   1.655   6.959   4.452 -2.6965  0.3400  0.3397
 5778TIP3   OH217290   3.781   1.481   4.170 -0.4539  0.4492  0.0666
 5778TIP3    H117291   3.728   1.549   4.128 -0.0183  0.9769  0.3384
 5778TIP3    H217292   3.739   1.467   4.255  1.1300  2.6116  1.3193
 5779TIP3   OH217293   5.114   7.060   5.936 -0.0263  0.2209  0.4211
 5779TIP3    H117294   5.206   7.081   5.949 -0.1262  1.3333 -0.5104
 5779TIP3    H217295   5.099   6.982   5.990  0.9630  1.1350  2.1016
 5780TIP3   OH217296   4.896   1.931   6.737 -0.8174  0.5514  0.2897
 5780TIP3    H117297   4.982   1.938   6.697 -1.2500 -2.7100 -1.5825
 5780TIP3    H217298   4.835   1.927   6.664 -2.3918  1.0266  1.5141
 5781TIP3   OH217299   7.929   2.741   1.206 -0.6101  0.0340 -0.2791
 5781TIP3    H117300   7.989   2.781   1.268  0.4597 -1.9828  0.0507
 5781TIP3    H217301   7.926   2.803   1.133  0.1105  1.2214  0.6530
 5782TIP3   OH217302   0.361   5.153   5.364 -0.1396 -0.1119 -0.0869
 5782TIP3    H117303   0.437   5.193   5.407 -0.3749  2.4031 -1.7729
 5782TIP3    H217304   0.301   5.226   5.348 -2.4036 -1.8254  0.0600
 5783TIP3   OH217305   3.702   6.899   4.944 -0.6413  0.4620 -0.1876
 5783TIP3    H117306   3.618   6.871   4.980 -1.1217  3.0199  0.8390
 5783TIP3    H217307   3.683   6.981   4.899  0.9921  0.1120 -1.6539
 5784TIP3   OH217308   6.349   5.440   2.325 -0.1352  0.4671  0.4081
 5784TIP3    H117309   6.369   5.487   2.244 -3.3235  1.1504 -0.1067
 5784TIP3    H217310   6.371   5.502   2.394  2.1248  0.0676  0.1338
 5785TIP3   OH217311   6.266   3.539   1.788  0.0292  0.0739 -0.5161
 5785TIP3    H117312   6.322   3.615   1.799  1.9089 -1.2750 -0.2891
 5785TIP3    H217313   6.277   3.513   1.697 -1.6625  0.7970 -0.9820
 5786TIP3   OH217314   8.293   5.815   4.527  0.6210  0.1510  0.3769
 5786TIP3    H117315   8.290   5.903   4.564 -1.9403  0.8204 -1.1096
 5786TIP3    H217316   8.297   5.829   4.432 -0.6979 -1.2516  0.0548
 5787TIP3   OH217317   1.802   0.912   3.195  0.6234 -0.4191 -0.5317
 5787TIP3    H117318   1.895   0.927   3.210  0.5000 -0.3507  0.1862
 5787TIP3    H217319   1.799   0.854   3.119  1.2301  0.0199 -0.9028
 5788TIP3   OH217320   2.429   7.086   4.627 -0.2785 -0.3519  0.3258
 5788TIP3    H117321   2.429   7.027   4.702 -0.6084 -0.2234  0.4289
 5788TIP3    H217322   2.488   7.044   4.564  0.0720 -0.4116  0.6902
 5789TIP3   OH217323   1.345   1.549   1.602  0.3901  0.1547 -0.1594
 5789TIP3    H117324   1.262   1.583   1.569  1.0611 -0.3683 -2.5847
 5789TIP3    H217325   1.372   1.484   1.537  1.2612 -1.9253  2.1201
 5790TIP3   OH217326   0.166   5.825   3.827  0.0556 -0.3275  0.5872
 5790TIP3    H117327   0.175   5.913   3.863  0.1337  1.1150 -2.5849
 5790TIP3    H217328   0.078   5.824   3.789 -0.9667 -2.6159  2.7857
 5791TIP3   OH217329   1.247   1.980   6.501 -0.0029  0.3080 -0.7845
 5791TIP3    H117330   1.170   1.944   6.545  0.3660 -0.1394 -0.4773
 5791TIP3    H217331   1.310   1.994   6.573  0.9115 -1.2065 -1.2367
 5792TIP3   OH217332   0.089   2.022   2.214  0.4118  0.0922 -0.1580
 5792TIP3    H117333   0.036   1.948   2.243  0.0305  0.2933 -0.3321
 5792TIP3    H217334   0.079   2.087   2.282 -0.7965  0.7143 -0.8911
 5793TIP3   OH217335   8.259   7.159   3.583  0.1579  0.5791  0.0238
 5793TIP3    H117336   8.261   7.125   3.494 -1.0655  0.3490  0.0633
 5793TIP3    H217337   8.336   7.122   3.625  0.3198  0.0647 -0.7163
 5794TIP3   OH217338   3.627   0.221   6.359 -0.1191  1.0097  1.2700
 5794TIP3    H117339   3.717   0.210   6.389 -0.2129 -1.4565  0.8577
 5794TIP3    H217340   3.576   0.234   6.439  0.0414 -2.4178  2.0872
 5795TIP3   OH217341   5.653   3.739   6.696  0.1293  0.6845  0.5829
 5795TIP3    H117342   5.741   3.743   6.735  0.8847 -0.6768 -0.8761
 5795TIP3    H217343   5.607   3.674   6.749  0.6836 -0.0915  0.1421
 5796TIP3   OH217344   4.561   4.705   2.593 -0.0263  0.3079 -0.6605
 5796TIP3    H117345   4.528   4.782   2.638  0.7413 -0.4976  1.4199
 5796TIP3    H217346   4.499   4.636   2.615  0.4160 -0.1211 -0.7413
 5797TIP3   OH217347   7.941   5.479   3.764 -0.2491 -0.2637  0.9216
 5797TIP3    H117348   7.974   5.408   3.819  0.0881 -0.3901  0.5590
 5797TIP3    H217349   7.907   5.435   3.686  0.8077  0.0305  0.2708
 5798TIP3   OH217350   1.717   3.357   0.344 -0.0153 -0.2037  0.5397
 5798TIP3    H117351   1.691   3.289   0.282  1.8694 -1.0233  0.5851
 5798TIP3    H217352   1.760   3.424   0.290  0.1849 -0.1452  0.7702
 5799TIP3   OH217353   4.367   7.747   3.258 -0.3734  0.0598 -0.4855
 5799TIP3    H117354   4.397   7.743   3.348 -0.0840 -2.6783 -0.6164
 5799TIP3    H217355   4.357   7.840   3.240 -0.6709  0.6757  2.4155
 5800TIP3   OH217356   1.021   0.359   6.760 -0.3808  0.0609 -0.8885
 5800TIP3    H117357   1.068   0.333   6.681 -0.4581 -0.3931 -0.7887
 5800TIP3    H217358   1.076   0.328   6.832 -1.6745 -2.1484 -0.7560
 5801TIP3   OH217359   4.152   6.792   1.280 -0.5310 -0.5558 -0.2886
 5801TIP3    H117360   4.104   6.758   1.355  0.2605  1.4329  1.2020
 5801TIP3    H217361   4.241   6.757   1.290 -0.1512  0.5375  0.3262
 5802TIP3   OH217362   5.224   1.809   5.768  0.2850  0.0040  0.6925
 5802TIP3    H117363   5.280   1.884   5.746 -0.6231  0.4604 -0.1192
 5802TIP3    H217364   5.139   1.848   5.790  0.4410 -0.6148  2.6453
 5803TIP3   OH217365   1.925   0.058   1.406 -0.1891  0.5506 -0.0285
 5803TIP3    H117366   2.004   0.086   1.451  0.1799  0.5438 -0.6560
 5803TIP3    H217367   1.956   0.004   1.333 -0.8710 -1.2798  0.9707
 5804TIP3   OH217368   0.650   7.168   4.919 -0.0156  0.0211  0.0276
 5804TIP3    H117369   0.645   7.249   4.969  1.7185  0.3134 -0.2160
 5804TIP3    H217370   0.631   7.099   4.984 -0.2719  0.5356  0.5072
 5805TIP3   OH217371   4.477   7.771   2.336  0.3191 -0.1801 -0.1567
 5805TIP3    H117372   4.510   7.813   2.256  1.4358  2.3249  1.5003
 5805TIP3    H217373   4.438   7.842   2.386 -0.2096 -1.6587  1.6302
 5806TIP3   OH217374   1.064   2.199   5.997  0.2065 -0.2263  0.4850
 5806TIP3    H117375   1.054   2.256   5.921  0.2981 -0.4893  0.2739
 5806TIP3    H217376   1.010   2.123   5.976 -1.7357  0.7360  1.7314
 5807TIP3   OH217377   2.653   6.575   5.177  0.7082  0.0689 -0.1312
 5807TIP3    H117378   2.746   6.572   5.152  0.6182 -0.5586 -0.3983
 5807TIP3    H217379   2.625   6.484   5.176  0.2134  0.2062  0.4448
 5808TIP3   OH217380   4.112   0.419   5.748 -0.7032  0.5423 -0.9783
 5808TIP3    H117381   4.118   0.491   5.686 -0.7038  1.4405  0.0273
 5808TIP3    H217382   4.019   0.411   5.766 -0.8777 -0.8225 -2.3154
 5809TIP3   OH217383   1.646   4.606   3.241 -0.0124 -0.6773 -0.3392
 5809TIP3    H117384   1.612   4.691   3.268  0.1890 -0.1299 -1.6983
 5809TIP3    H217385   1.734   4.626   3.208 -0.3344 -1.2471 -1.5737
 5810TIP3   OH217386   0.792   1.261   2.357 -0.0986  0.6268 -0.1063
 5810TIP3    H117387   0.722   1.221   2.409  0.8757  0.0160  0.7632
 5810TIP3    H217388   0.814   1.195   2.291 -0.3015  0.8053 -0.3571
 5811TIP3   OH217389   4.574   6.352   3.407  0.0720  0.2073  0.1626
 5811TIP3    H117390   4.654   6.301   3.406  0.1839  0.3440  1.4223
 5811TIP3    H217391   4.505   6.289   3.429  0.3022  0.6777  2.4109
 5812TIP3   OH217392   1.871   0.403   0.705  0.0225  0.9399 -0.8274
 5812TIP3    H117393   1.886   0.389   0.799  0.4428  1.2083 -0.8514
 5812TIP3    H217394   1.924   0.336   0.662 -1.1560 -0.0086 -0.8558
 5813TIP3   OH217395   1.107   6.709   0.934 -0.1681  0.2574 -0.0966
 5813TIP3    H117396   1.033   6.768   0.948 -0.8763 -1.0104  2.1231
 5813TIP3    H217397   1.119   6.705   0.840  0.0424  4.0418 -0.3503
 5814TIP3   OH217398   1.215   7.610   3.861  0.0200 -0.1248 -0.6409
 5814TIP3    H117399   1.164   7.533   3.835  1.7042 -1.4892 -0.1098
 5814TIP3    H217400   1.267   7.632   3.784 -1.2196  1.2013 -1.1482
 5815TIP3   OH217401   6.328   7.087   5.955 -0.4949  0.7390  0.3439
 5815TIP3    H117402   6.345   7.083   5.861 -1.4884  0.7757  0.1524
 5815TIP3    H217403   6.396   7.144   5.989  0.8367 -0.5223 -0.1104
 5816TIP3   OH217404   1.284   3.849   3.648 -0.2360  0.3875 -0.3357
 5816TIP3    H117405   1.255   3.793   3.719 -1.4864  1.2095 -0.1633
 5816TIP3    H217406   1.208   3.857   3.590  0.3803  0.6949 -1.1389
 5817TIP3   OH217407   3.938   0.027   3.202  0.8236  0.0207  0.5048
 5817TIP3    H117408   3.972   0.116   3.192  0.6458  0.0594  0.2164
 5817TIP3    H217409   3.963  -0.018   3.121 -2.4568  0.9399 -1.2285
 5818TIP3   OH217410   2.813   2.655   2.244  0.3269  0.3746 -0.3923
 5818TIP3    H117411   2.733   2.618   2.282  1.2140 -0.1162  1.0828
 5818TIP3    H217412   2.874   2.661   2.318  1.6930  0.6162 -1.5004
 5819TIP3   OH217413   6.510   1.852   4.332 -0.3138 -0.2789  0.0468
 5819TIP3    H117414   6.432   1.802   4.354  0.1988 -0.2836  2.0272
 5819TIP3    H217415   6.477   1.935   4.299 -1.1947 -0.0432  1.4343
 5820TIP3   OH217416   5.292   3.501   4.340 -0.2902  0.2017 -0.0388
 5820TIP3    H117417   5.220   3.455   4.295 -1.3703 -0.1636  1.9530
 5820TIP3    H217418   5.272   3.491   4.433  1.6190  1.3216  0.5364
 5821TIP3   OH217419   1.241   3.704   4.577 -0.0681 -0.3509  0.1022
 5821TIP3    H117420   1.193   3.637   4.627 -0.1317 -1.0646 -0.8914
 5821TIP3    H217421   1.173   3.751   4.529 -0.0637  0.7190  1.1091
 5822TIP3   OH217422   6.104   5.867   0.953 -0.0298 -0.1675  0.3422
 5822TIP3    H117423   6.079   5.788   0.904 -1.8524  0.3855  0.3150
 5822TIP3    H217424   6.108   5.838   1.044 -0.6053 -0.3277  0.3227
 5823TIP3   OH217425   7.364   5.335   6.340  0.0239 -0.8857  0.0291
 5823TIP3    H117426   7.439   5.355   6.284  0.3719 -1.2814  0.3529
 5823TIP3    H217427   7.333   5.250   6.309  0.6492 -1.4406  0.8810
 5824TIP3   OH217428   0.375   5.132   0.292  0.1341  0.4867  0.2042
 5824TIP3    H117429   0.424   5.214   0.302  1.5870 -0.3048 -0.1285
 5824TIP3    H217430   0.325   5.144   0.211  1.1086  0.6943 -0.3874
 5825TIP3   OH217431   1.118   6.118   0.483 -0.3389  0.4374 -0.5216
 5825TIP3    H117432   1.145   6.207   0.461  0.8463  0.5726  1.2733
 5825TIP3    H217433   1.185   6.087   0.544  0.0338 -2.1875 -2.1114
 5826TIP3   OH217434   0.666   7.794   4.392  0.4799  0.0912  0.0337
 5826TIP3    H117435   0.668   7.804   4.487 -1.6079  2.2841 -0.0644
 5826TIP3    H217436   0.755   7.765   4.370  1.3082  0.4087  2.5351
 5827TIP3   OH217437   0.398   3.152   3.518 -0.1974 -0.1109 -0.0435
 5827TIP3    H117438   0.457   3.129   3.447  0.3944 -0.2149  0.4779
 5827TIP3    H217439   0.401   3.078   3.578  1.4326  1.0636  1.4517
 5828TIP3   OH217440   5.447   0.231   2.443 -0.1457 -0.1278  0.5610
 5828TIP3    H117441   5.399   0.155   2.412 -2.1941  0.8137  1.2248
 5828TIP3    H217442   5.395   0.263   2.517 -0.0326  2.5772 -0.4276
 5829TIP3   OH217443   1.115   2.466   4.349 -0.2276 -1.2770 -0.0356
 5829TIP3    H117444   1.169   2.452   4.271  0.5522 -0.6048  0.3613
 5829TIP3    H217445   1.160   2.536   4.397 -1.4088 -0.7751  0.3668
 5830TIP3   OH217446   4.198   2.413   5.401 -0.0606  0.6150 -0.0277
 5830TIP3    H117447   4.281   2.365   5.399 -0.7784 -0.6511 -1.3562
 5830TIP3    H217448   4.147   2.370   5.469 -1.7778 -2.6045 -3.0106
 5831TIP3   OH217449   6.024   1.104   0.152  0.8231 -0.0015 -0.7562
 5831TIP3    H117450   6.031   1.017   0.113 -0.8541 -0.4271 -0.2081
 5831TIP3    H217451   6.111   1.123   0.186  1.8211 -0.4482 -2.8994
 5832TIP3   OH217452   7.335   3.310   1.399 -0.2495  0.6643  0.1665
 5832TIP3    H117453   7.305   3.344   1.315 -0.4929 -0.5648 -0.2633
 5832TIP3    H217454   7.410   3.364   1.422 -0.4042  1.2423 -0.6628
 5833TIP3   OH217455   0.493   2.129   0.118 -0.1113 -0.3853 -0.1383
 5833TIP3    H117456   0.516   2.040   0.093  1.3246 -0.3109  0.8391
 5833TIP3    H217457   0.402   2.123   0.147 -0.0091 -1.5337 -0.0273
 5834TIP3   OH217458   7.707   4.615   2.478  0.2034 -0.3945 -0.1088
 5834TIP3    H117459   7.746   4.634   2.564 -0.5670  0.3765  0.0971
 5834TIP3    H217460   7.613   4.609   2.496  0.0676 -0.5644 -0.8464
 5835TIP3   OH217461   2.469   7.768   0.355  0.1587  0.1878 -0.2616
 5835TIP3    H117462   2.377   7.787   0.371  0.0356  0.2158 -0.9548
 5835TIP3    H217463   2.486   7.805   0.269  0.7110 -0.1721 -0.3115
 5836TIP3   OH217464   0.914   2.045   0.095  0.5351  0.0820 -0.5970
 5836TIP3    H117465   1.007   2.024   0.082  0.2116 -1.0682 -1.2973
 5836TIP3    H217466   0.889   2.093   0.016  0.2439 -0.7477 -1.0270
 5837TIP3   OH217467   4.153   6.943   1.056  0.1425  0.6669 -0.5175
 5837TIP3    H117468   4.232   6.997   1.059 -1.1634  2.5860  1.8273
 5837TIP3    H217469   4.155   6.892   1.137 -0.9465  0.6018 -0.5169
 5838TIP3   OH217470   4.014   3.359   0.756  0.2211  0.0806  0.3840
 5838TIP3    H117471   4.085   3.394   0.809  0.6698 -1.0355  0.5337
 5838TIP3    H217472   4.057   3.320   0.680 -0.1293 -1.4173  0.9141
 5839TIP3   OH217473   7.930   3.839   4.716 -0.0352 -0.8082  0.4689
 5839TIP3    H117474   7.843   3.862   4.684  0.2536  0.0631  0.2735
 5839TIP3    H217475   7.974   3.800   4.641  0.0956 -0.2528  0.2465
 5840TIP3   OH217476   0.594   3.191   4.552 -0.5873 -0.3528  0.0034
 5840TIP3    H117477   0.672   3.163   4.600 -0.8106  0.7968  1.0952
 5840TIP3    H217478   0.624   3.265   4.499 -0.8894 -0.0378  0.2724
 5841TIP3   OH217479   5.009   3.970   2.489  0.0732  0.3028  0.0043
 5841TIP3    H117480   4.988   3.878   2.472  2.0202 -0.0410 -0.8412
 5841TIP3    H217481   5.067   3.967   2.566  1.0776  0.6749 -0.7086
 5842TIP3   OH217482   5.460   0.882   1.847 -0.2707 -0.7730 -0.1414
 5842TIP3    H117483   5.458   0.879   1.752  0.1519 -0.4463 -0.1663
 5842TIP3    H217484   5.472   0.975   1.868 -0.4263 -0.8344  0.2280
 5843TIP3   OH217485   5.446   6.938   0.512  0.5337 -0.7461  0.2381
 5843TIP3    H117486   5.521   6.960   0.567  0.5574 -1.3701  0.4642
 5843TIP3    H217487   5.370   6.960   0.567  0.5161  1.0196 -0.4342
 5844TIP3   OH217488   5.037   6.028   3.511 -0.1694  0.3775 -0.3537
 5844TIP3    H117489   5.082   5.944   3.497  0.0597  0.4841 -0.2582
 5844TIP3    H217490   5.104   6.094   3.492 -0.0739  0.5344  0.5229
 5845TIP3   OH217491   6.998   0.235   6.575 -0.2535  0.2095 -0.4792
 5845TIP3    H117492   7.014   0.183   6.496 -0.7862  0.5364 -0.8131
 5845TIP3    H217493   7.051   0.194   6.643 -0.8987 -0.9549 -0.6661
 5846TIP3   OH217494   0.733   6.333   0.130  0.0064 -0.2554 -0.4925
 5846TIP3    H117495   0.760   6.312   0.041  3.2880  2.0802 -0.2534
 5846TIP3    H217496   0.804   6.299   0.186 -1.2854 -0.4633  1.1085
 5847TIP3   OH217497   1.092   3.367   0.947 -0.4544 -0.5736  0.4928
 5847TIP3    H117498   1.058   3.349   1.035 -1.8411 -0.9942 -0.1104
 5847TIP3    H217499   1.082   3.462   0.936 -2.0066 -0.7501  0.1254
 5848TIP3   OH217500   6.797   2.113   1.012 -0.6653  0.6441 -0.4702
 5848TIP3    H117501   6.729   2.143   0.953 -1.2840  0.0398 -0.0754
 5848TIP3    H217502   6.795   2.018   1.007 -0.5148  0.5877  0.2706
 5849TIP3   OH217503   8.014   1.846   2.470  0.0934  0.2045  0.0217
 5849TIP3    H117504   7.997   1.775   2.531 -1.9685  1.5281  1.0977
 5849TIP3    H217505   8.064   1.910   2.521  2.7372 -0.7444 -1.1934
 5850TIP3   OH217506   4.092   3.284   1.318 -0.0467  0.5320 -0.0298
 5850TIP3    H117507   4.024   3.217   1.323  0.6013 -0.3023 -1.6491
 5850TIP3    H217508   4.048   3.365   1.340 -1.2212 -0.1922  0.3849
 5851TIP3   OH217509   0.304   4.899   1.778 -0.0784 -0.7093  0.0446
 5851TIP3    H117510   0.339   4.959   1.844 -1.2627  0.4071 -0.3166
 5851TIP3    H217511   0.210   4.912   1.780 -0.1804 -0.9004 -1.6196
 5852TIP3   OH217512   7.689   5.109   2.960 -0.1244  0.0944  0.3615
 5852TIP3    H117513   7.640   5.037   2.999 -1.2096 -0.0721 -1.2080
 5852TIP3    H217514   7.630   5.185   2.968 -0.1377  0.1751 -0.4240
 5853TIP3   OH217515   4.875   5.795   2.135 -0.0667 -0.0358  0.4355
 5853TIP3    H117516   4.962   5.821   2.105  0.5540 -2.2579  0.1462
 5853TIP3    H217517   4.815   5.856   2.092  1.3292  1.7945  0.9484
 5854TIP3   OH217518   7.914   4.261   6.327  0.0357  0.1722 -0.5928
 5854TIP3    H117519   7.885   4.351   6.345  3.6640  1.1155  1.5609
 5854TIP3    H217520   7.849   4.206   6.370 -0.0415  1.9663  1.8005
 5855TIP3   OH217521   1.279   6.856   6.137  0.0385  0.5442  0.1649
 5855TIP3    H117522   1.357   6.896   6.100  0.3722 -0.1606  0.0895
 5855TIP3    H217523   1.299   6.845   6.230 -0.0834  0.6284  0.2015
 5856TIP3   OH217524   3.526   7.704   2.399  0.0994 -0.2641  0.4069
 5856TIP3    H117525   3.545   7.784   2.448  1.7678 -1.8269  2.4681
 5856TIP3    H217526   3.593   7.702   2.331 -0.0319  0.1425  0.2611
 5857TIP3   OH217527   5.161   1.180   2.357 -0.0343  0.0313 -0.2219
 5857TIP3    H117528   5.186   1.264   2.395  0.0961  0.5515 -1.4284
 5857TIP3    H217529   5.235   1.156   2.301 -0.8114 -0.0086 -1.2678
 5858TIP3   OH217530   4.499   1.776   5.088 -0.4164  0.0430 -0.2548
 5858TIP3    H117531   4.500   1.691   5.044 -1.7557  0.0146 -0.2643
 5858TIP3    H217532   4.497   1.840   5.017  1.2566  0.1313 -0.2606
 5859TIP3   OH217533   7.078   0.074   6.377 -0.1031  0.1242  0.0942
 5859TIP3    H117534   7.056   0.011   6.445 -1.9665  0.9381  0.3077
 5859TIP3    H217535   7.040   0.038   6.297  1.0081 -0.2204 -0.3036
 5860TIP3   OH217536   6.486   1.661   1.598  0.4554  0.3964  0.3000
 5860TIP3    H117537   6.538   1.601   1.651 -2.3973 -1.1711  1.5518
 5860TIP3    H217538   6.476   1.739   1.653  0.3759  0.1754  0.5968
 5861TIP3   OH217539   8.055   3.364   4.113  0.3547 -0.0619 -0.0213
 5861TIP3    H117540   7.995   3.313   4.166 -1.7875  1.1278 -1.1540
 5861TIP3    H217541   8.089   3.431   4.173 -2.2400  1.4393 -0.0483
 5862TIP3   OH217542   8.303   7.602   5.420 -1.2767  0.1308  0.4693
 5862TIP3    H117543   8.284   7.509   5.410  0.4398 -0.2914  0.7869
 5862TIP3    H217544   8.310   7.636   5.331 -0.5175 -0.3826  0.3200
 5863TIP3   OH217545   2.875   3.650   2.924  0.2264  0.4971  0.6450
 5863TIP3    H117546   2.881   3.603   2.841 -3.6805 -1.6183  1.2976
 5863TIP3    H217547   2.804   3.713   2.912  0.3315  0.9238  2.0252
 5864TIP3   OH217548   5.619   2.600   4.548  0.3971  0.5918 -0.9897
 5864TIP3    H117549   5.656   2.513   4.561  1.7684  1.0246 -1.7179
 5864TIP3    H217550   5.583   2.624   4.634  2.3699  0.3499 -0.0219
 5865TIP3   OH217551   0.819   0.581   2.720  0.3738  0.0859 -0.3059
 5865TIP3    H117552   0.820   0.619   2.631  0.9407 -0.7052 -0.6455
 5865TIP3    H217553   0.783   0.494   2.708 -0.4603  0.3249  0.4039
 5866TIP3   OH217554   0.369   0.545   6.385  1.2894 -0.1391  0.7642
 5866TIP3    H117555   0.429   0.521   6.315  0.5737  0.0385  0.0655
 5866TIP3    H217556   0.352   0.638   6.372  0.1057 -0.3917  0.3296
 5867TIP3   OH217557   1.936   7.438   5.754  0.8128 -0.2127 -0.3156
 5867TIP3    H117558   1.976   7.524   5.767  1.9056 -0.5251 -1.4135
 5867TIP3    H217559   1.898   7.416   5.839 -1.8387  2.4855 -0.6053
 5868TIP3   OH217560   2.544   4.516   2.204  0.6151 -0.5534  0.3826
 5868TIP3    H117561   2.472   4.453   2.196  0.4326 -0.2723 -0.2650
 5868TIP3    H217562   2.559   4.524   2.299 -0.3196 -0.4897  0.5327
 5869TIP3   OH217563   5.132   7.678   2.033 -0.3494  0.1682 -0.0940
 5869TIP3    H117564   5.112   7.744   2.100  3.2188  0.2882  1.0495
 5869TIP3    H217565   5.135   7.595   2.081 -0.1656 -0.1301 -0.6126
 5870TIP3   OH217566   4.744   6.768   5.353 -0.4207 -0.2115 -0.4202
 5870TIP3    H117567   4.735   6.818   5.434 -0.5490 -0.0439 -0.5379
 5870TIP3    H217568   4.661   6.782   5.307 -1.3481 -2.2687  0.5178
 5871TIP3   OH217569   3.770   7.763   2.228  0.1724 -0.1004  0.0705
 5871TIP3    H117570   3.775   7.686   2.285 -0.5517  0.3988  0.8400
 5871TIP3    H217571   3.820   7.830   2.274 -1.3481  0.6451  0.7202
 5872TIP3   OH217572   1.049   7.272   1.128  0.1131 -0.2084  0.3315
 5872TIP3    H117573   1.128   7.268   1.182 -0.5947 -1.6505  1.3416
 5872TIP3    H217574   1.072   7.224   1.048 -0.5090 -3.2753  1.8149
 5873TIP3   OH217575   3.886   6.991   2.374 -0.0481 -0.2078 -0.2202
 5873TIP3    H117576   3.829   7.025   2.443 -0.2457  1.9448 -1.3550
 5873TIP3    H217577   3.915   7.069   2.326  0.8828 -1.5414 -1.9544
 5874TIP3   OH217578   0.781   5.140   1.786 -0.1843  0.7904 -0.4320
 5874TIP3    H117579   0.779   5.215   1.846 -0.1779  0.4682 -0.0259
 5874TIP3    H217580   0.751   5.066   1.838  1.3771  0.1730 -0.3332
 5875TIP3   OH217581   4.890   1.754   3.741 -0.0926 -0.4877 -0.5687
 5875TIP3    H117582   4.888   1.727   3.650 -0.8750  0.0541 -0.7241
 5875TIP3    H217583   4.816   1.707   3.781 -0.0322 -0.3691 -0.3176
 5876TIP3   OH217584   5.772   3.764   5.578 -0.2361 -0.2668  0.0901
 5876TIP3    H117585   5.863   3.746   5.602 -0.0285 -0.2495 -0.6792
 5876TIP3    H217586   5.771   3.856   5.552 -0.3095 -0.4836 -0.6828
 5877TIP3   OH217587   2.324   6.230   0.877 -0.0175 -0.2741 -0.2919
 5877TIP3    H117588   2.397   6.172   0.900  1.5831  1.3250 -1.0672
 5877TIP3    H217589   2.365   6.315   0.862 -2.2864  1.1286  0.9276
 5878TIP3   OH217590   7.098   5.137   1.211 -0.6528 -0.1037  0.3709
 5878TIP3    H117591   7.108   5.113   1.119 -0.9139  0.4617  0.1887
 5878TIP3    H217592   7.012   5.180   1.215 -0.3478  0.4742  0.7473
 5879TIP3   OH217593   6.414   7.551   2.905 -0.3330 -0.0409 -0.0194
 5879TIP3    H117594   6.453   7.464   2.894  0.4413  0.4547 -1.5227
 5879TIP3    H217595   6.397   7.559   2.998  1.2180 -1.1296  0.3884
 5880TIP3   OH217596   1.818   2.725   1.428  0.6752 -0.2173 -0.1147
 5880TIP3    H117597   1.740   2.754   1.475  0.8465  2.0037 -1.0955
 5880TIP3    H217598   1.887   2.723   1.495 -0.2036 -2.5105  0.8297
 5881TIP3   OH217599   5.355   5.234   4.802  0.7487  0.4229 -0.4903
 5881TIP3    H117600   5.288   5.271   4.744  1.2642 -0.4794 -1.7019
 5881TIP3    H217601   5.362   5.143   4.775  1.0377 -0.0199  0.9986
 5882TIP3   OH217602   2.857   7.795   2.635  0.4998 -0.2572 -0.8312
 5882TIP3    H117603   2.826   7.804   2.725 -0.4681 -0.8239 -1.0888
 5882TIP3    H217604   2.929   7.857   2.628  1.0298 -0.6994  0.5190
 5883TIP3   OH217605   3.950   0.275   6.103 -0.3041 -0.3524 -0.3835
 5883TIP3    H117606   3.966   0.365   6.132 -0.2659 -0.7021  0.7347
 5883TIP3    H217607   3.866   0.279   6.058 -0.1914  0.2870 -0.5523
 5884TIP3   OH217608   4.643   3.919   2.268 -0.5296  0.0207 -0.0498
 5884TIP3    H117609   4.572   3.947   2.210 -0.2258  1.7906  0.3812
 5884TIP3    H217610   4.600   3.885   2.345 -0.9242 -1.5027 -0.9002
 5885TIP3   OH217611   7.405   3.268   6.525  0.2174  0.4176 -0.1721
 5885TIP3    H117612   7.410   3.313   6.441  0.9960  0.3113 -0.1885
 5885TIP3    H217613   7.373   3.180   6.504  2.5106 -0.3663 -0.6730
 5886TIP3   OH217614   5.679   2.219   5.099 -0.3984  0.0369 -0.5476
 5886TIP3    H117615   5.745   2.182   5.040  1.7342  0.6186  1.3053
 5886TIP3    H217616   5.664   2.151   5.164 -0.0564  0.6437  0.1876
 5887TIP3   OH217617   3.053   3.582   1.634 -0.2750 -0.2408 -0.0874
 5887TIP3    H117618   2.996   3.506   1.646  1.4166 -1.6568 -0.6051
 5887TIP3    H217619   3.053   3.598   1.539  0.3951 -0.4620 -0.1360
 5888TIP3   OH217620   1.337   0.025   3.716  0.2934  0.1303 -0.0600
 5888TIP3    H117621   1.431   0.026   3.697  0.2588  0.0808 -0.2345
 5888TIP3    H217622   1.331   0.044   3.810  0.5574 -1.3800  0.2862
 5889TIP3   OH217623   4.150   1.505   3.602 -0.3005  0.2666 -0.0242
 5889TIP3    H117624   4.110   1.450   3.669  0.1520  0.1656  0.1696
 5889TIP3    H217625   4.088   1.577   3.589  0.1541  0.9584  1.3959
 5890TIP3   OH217626   3.548   0.074   6.152 -0.3174 -0.1707 -0.4003
 5890TIP3    H117627   3.473   0.028   6.190  0.4711 -0.6162  0.6524
 5890TIP3    H217628   3.583   0.127   6.223 -0.1706  0.7567 -1.1358
 5891TIP3   OH217629   4.974   1.141   3.980  0.2774  0.0790 -0.0899
 5891TIP3    H117630   5.068   1.121   3.971  0.8485  2.4989 -0.2389
 5891TIP3    H217631   4.972   1.220   4.034 -1.9014 -1.5421  2.4753
 5892TIP3   OH217632   6.279   6.523   6.177  0.1700 -0.4704  0.0951
 5892TIP3    H117633   6.368   6.496   6.156  0.3859 -1.1802  1.7648
 5892TIP3    H217634   6.286   6.568   6.261 -0.8767  0.6544 -0.3821
 5893TIP3   OH217635   4.602   5.858   2.929 -0.2272 -0.0997 -0.2184
 5893TIP3    H117636   4.567   5.818   3.009 -1.1475 -0.5957 -0.8549
 5893TIP3    H217637   4.602   5.952   2.948  0.1530 -0.2528  0.5857
 5894TIP3   OH217638   8.054   2.603   5.795 -0.1448  0.3387 -0.1316
 5894TIP3    H117639   8.022   2.534   5.853 -0.9863  1.6290  0.9869
 5894TIP3    H217640   8.088   2.556   5.719 -0.0129 -1.3454  0.9152
 5895TIP3   OH217641   3.372   3.484   0.428 -0.0862  0.3515 -0.1454
 5895TIP3    H117642   3.439   3.417   0.444 -0.2498  0.2674  0.2108
 5895TIP3    H217643   3.380   3.504   0.335 -1.0333 -1.2379 -0.6077
 5896TIP3   OH217644   4.618   5.111   1.848 -0.5174 -0.0503  0.1679
 5896TIP3    H117645   4.643   5.033   1.897  1.6923  0.9190  0.6801
 5896TIP3    H217646   4.535   5.087   1.806 -0.3815 -2.3209  1.0619
 5897TIP3   OH217647   0.231   1.328   2.500  0.3582 -0.1901  0.3827
 5897TIP3    H117648   0.313   1.371   2.474  0.9573 -0.7897  1.2181
 5897TIP3    H217649   0.208   1.369   2.584 -1.0623  1.0774 -0.5659
 5898TIP3   OH217650   4.814   0.910   1.400 -0.3291 -0.1070  0.1892
 5898TIP3    H117651   4.788   0.890   1.490 -1.0386  0.1609  0.0496
 5898TIP3    H217652   4.840   1.002   1.403  2.4982 -0.8420  0.7344
 5899TIP3   OH217653   4.270   6.196   2.226 -0.1777 -0.3306  0.4534
 5899TIP3    H117654   4.251   6.104   2.248  0.5697 -0.5611  0.1612
 5899TIP3    H217655   4.323   6.228   2.298 -0.0947 -0.2521  0.3582
 5900TIP3   OH217656   2.415   7.590   0.637  0.2222  0.2338 -0.3343
 5900TIP3    H117657   2.373   7.531   0.575  0.9518 -0.2875 -0.3510
 5900TIP3    H217658   2.421   7.674   0.591  1.4431 -0.3388 -1.2821
 5901TIP3   OH217659   6.798   3.063   6.566 -0.2972  0.0191  0.4400
 5901TIP3    H117660   6.893   3.071   6.570 -0.1216 -2.0430  1.9575
 5901TIP3    H217661   6.781   3.000   6.496 -0.6116  0.9658 -0.3496
 5902TIP3   OH217662   1.530   6.653   3.503  0.0653 -0.0651 -0.9013
 5902TIP3    H117663   1.614   6.608   3.493 -0.0285 -0.7371  0.8545
 5902TIP3    H217664   1.471   6.586   3.538 -0.5690  0.9584  0.0566
 5903TIP3   OH217665   0.171   3.345   0.494  0.3447  0.9876  0.3309
 5903TIP3    H117666   0.256   3.316   0.527 -0.0259  0.5120  0.8840
 5903TIP3    H217667   0.180   3.340   0.399  0.6566  0.0959  0.3942
 5904TIP3   OH217668   1.519   7.408   6.433 -0.0744  0.1375  0.1630
 5904TIP3    H117669   1.541   7.419   6.341  0.5477  1.5563  0.4480
 5904TIP3    H217670   1.561   7.482   6.477 -2.4541  0.9542  1.2584
 5905TIP3   OH217671   1.234   3.218   2.992  0.6639  0.1186 -0.1903
 5905TIP3    H117672   1.195   3.190   2.910  0.4002 -1.3179  0.3967
 5905TIP3    H217673   1.322   3.247   2.968 -0.6889  3.7219 -1.5841
 5906TIP3   OH217674   6.550   4.612   2.336 -0.2734  0.4273 -0.2229
 5906TIP3    H117675   6.532   4.706   2.331  2.4935  0.9756 -2.0942
 5906TIP3    H217676   6.556   4.585   2.244  1.6840 -0.9388  0.2533
 5907TIP3   OH217677   2.566   2.287   2.513 -0.4447  0.5001  0.3040
 5907TIP3    H117678   2.604   2.290   2.601 -2.0019 -0.6480  1.0728
 5907TIP3    H217679   2.622   2.226   2.465 -0.6379 -0.3030  1.0748
 5908TIP3   OH217680   6.496   1.387   0.817 -0.2786 -0.0195 -0.5558
 5908TIP3    H117681   6.486   1.318   0.884  1.3776 -0.7267 -0.9919
 5908TIP3    H217682   6.428   1.451   0.839  0.6019  0.1022  2.2092
 5909TIP3   OH217683   1.399   4.445   4.870  0.1839 -0.5999  0.3590
 5909TIP3    H117684   1.455   4.427   4.946 -1.1899 -0.1569  1.5109
 5909TIP3    H217685   1.438   4.394   4.799  1.3134 -1.2811  1.4376
 5910TIP3   OH217686   0.933   4.399   2.628  0.1106  0.5231 -0.3324
 5910TIP3    H117687   0.842   4.375   2.609 -0.3173  1.5521  0.3291
 5910TIP3    H217688   0.961   4.446   2.550  0.6690 -1.2656 -1.2657
 5911TIP3   OH217689   4.504   6.517   2.150 -0.4060 -0.1573 -0.0429
 5911TIP3    H117690   4.549   6.479   2.225 -0.0233 -0.8331 -0.6037
 5911TIP3    H217691   4.568   6.576   2.110 -0.6337  0.2592  0.1975
 5912TIP3   OH217692   1.508   3.806   4.939  0.3696  0.0224 -0.4321
 5912TIP3    H117693   1.457   3.845   5.011 -0.5049 -0.8318 -0.5759
 5912TIP3    H217694   1.584   3.766   4.983  0.9521  1.3161 -0.2205
 5913TIP3   OH217695   8.146   3.912   2.269  0.3895 -0.3102  0.2078
 5913TIP3    H117696   8.068   3.930   2.217  0.1943  0.3819  0.7223
 5913TIP3    H217697   8.133   3.823   2.302  0.0876 -0.4076 -0.1738
 5914TIP3   OH217698   5.945   6.199   4.756  0.2025 -0.3277  0.1224
 5914TIP3    H117699   5.995   6.221   4.835 -0.1657  1.8893 -0.1898
 5914TIP3    H217700   5.991   6.124   4.718  0.2723 -1.5758  2.5073
 5915TIP3   OH217701   4.030   7.376   2.757 -0.8142  0.5082  0.0368
 5915TIP3    H117702   4.031   7.430   2.678 -3.0070  0.5455 -0.0270
 5915TIP3    H217703   4.065   7.292   2.730  0.0385  1.0315 -0.5364
 5916TIP3   OH217704   4.096   6.029   2.563 -0.6486  0.0978 -0.2585
 5916TIP3    H117705   4.180   5.991   2.538 -0.8080 -1.2882  1.1839
 5916TIP3    H217706   4.085   6.005   2.655 -0.7984  3.6390  0.7921
 5917TIP3   OH217707   2.403   2.247   5.079  0.1756 -0.2913  0.0478
 5917TIP3    H117708   2.437   2.239   5.168  0.0606  1.5196  0.2752
 5917TIP3    H217709   2.312   2.220   5.085 -0.9264  3.1848  1.3070
 5918TIP3   OH217710   1.857   6.739   3.657  0.6108 -0.5461 -0.4119
 5918TIP3    H117711   1.842   6.731   3.563 -1.3277  1.2090 -0.3151
 5918TIP3    H217712   1.952   6.748   3.665  0.9134 -1.6973 -2.0860
 5919TIP3   OH217713   3.287   5.656   1.891  0.0088 -0.2130 -0.2159
 5919TIP3    H117714   3.192   5.658   1.903  0.2830 -0.0242  2.4678
 5919TIP3    H217715   3.320   5.609   1.967  2.2138  1.5189  0.0036
 5920TIP3   OH217716   1.703   2.128   1.127 -0.5892  0.1111  0.1079
 5920TIP3    H117717   1.640   2.167   1.065  0.2681  1.4562  0.0389
 5920TIP3    H217718   1.661   2.137   1.212 -0.5821  0.8588  0.0417
 5921TIP3   OH217719   8.223   7.099   5.437  0.6540  0.4839  0.7919
 5921TIP3    H117720   8.293   7.040   5.466 -0.1345 -0.6096  0.5042
 5921TIP3    H217721   8.259   7.141   5.358  0.6319 -0.8177  0.0637
 5922TIP3   OH217722   7.904   2.958   6.410  0.3049  0.1234 -0.4139
 5922TIP3    H117723   7.813   2.981   6.429  0.7632  0.0650  2.2938
 5922TIP3    H217724   7.906   2.862   6.419  0.7540  0.1933  0.3043
 5923TIP3   OH217725   4.200   2.942   3.503 -0.7191 -0.6928 -0.4637
 5923TIP3    H117726   4.180   2.877   3.570  1.8327 -0.3127  0.7672
 5923TIP3    H217727   4.258   2.896   3.442  0.9142  0.2746  0.2909
 5924TIP3   OH217728   2.678   5.840   5.902  0.1081 -0.0447  0.1474
 5924TIP3    H117729   2.664   5.745   5.901  0.4872 -0.1038 -1.0349
 5924TIP3    H217730   2.764   5.851   5.944  0.2578 -0.2546 -0.1038
 5925TIP3   OH217731   2.110   1.774   6.297  0.7515  0.1820  0.4896
 5925TIP3    H117732   2.120   1.784   6.392  0.2081 -0.7947  0.6616
 5925TIP3    H217733   2.160   1.696   6.276  1.5564  0.8505 -0.1782
 5926TIP3   OH217734   2.840   1.219   1.643 -0.1113  0.1268 -0.2935
 5926TIP3    H117735   2.816   1.277   1.715  0.6499  1.9726 -1.4529
 5926TIP3    H217736   2.759   1.208   1.593 -0.5434 -0.8276  0.5900
 5927TIP3   OH217737   4.376   3.765   6.349 -0.5262  0.3435  0.3774
 5927TIP3    H117738   4.406   3.677   6.372  1.2449  0.6709 -0.4938
 5927TIP3    H217739   4.408   3.778   6.259 -0.6256  1.9153  0.5472
 5928TIP3   OH217740   6.026   2.686   3.660  0.3941  0.4422  0.2125
 5928TIP3    H117741   6.069   2.667   3.576 -0.2796  3.8907 -1.0915
 5928TIP3    H217742   6.097   2.691   3.723  1.0801 -0.7144 -0.4308
 5929TIP3   OH217743   7.649   0.808   6.406 -0.6451 -0.0674  0.6009
 5929TIP3    H117744   7.731   0.774   6.370 -1.6248 -1.9310  0.0095
 5929TIP3    H217745   7.675   0.884   6.458  1.2075  0.7349 -1.3440
 5930TIP3   OH217746   6.652   7.760   2.963  0.1348  0.4390  0.0557
 5930TIP3    H117747   6.653   7.729   2.872  0.7050 -0.8957  0.4852
 5930TIP3    H217748   6.646   7.855   2.956  0.1380  0.3610 -1.3785
 5931TIP3   OH217749   1.170   0.143   0.476 -0.2703 -0.2910 -0.2051
 5931TIP3    H117750   1.241   0.085   0.449 -1.3272 -1.7352 -0.0019
 5931TIP3    H217751   1.208   0.231   0.471  1.1826 -0.9289 -1.1495
 5932TIP3   OH217752   3.928   0.154   4.566  0.1724  0.1624 -0.5551
 5932TIP3    H117753   4.006   0.184   4.612 -0.3101  0.8625 -0.1926
 5932TIP3    H217754   3.959   0.138   4.476  1.1372 -1.3215 -0.0095
 5933TIP3   OH217755   7.439   5.905   4.466  0.0499  0.3203  0.1332
 5933TIP3    H117756   7.498   5.962   4.515  0.6016 -0.3983  0.3220
 5933TIP3    H217757   7.415   5.836   4.528  0.5743 -0.4727 -0.5190
 5934TIP3   OH217758   3.799   0.621   5.475 -0.4081  0.1500  0.1778
 5934TIP3    H117759   3.740   0.607   5.401 -1.7975  0.2449  1.2226
 5934TIP3    H217760   3.828   0.711   5.466  1.6705 -0.6075 -1.7482
 5935TIP3   OH217761   1.100   2.431   5.088 -0.5815  0.3928 -0.1349
 5935TIP3    H117762   1.184   2.462   5.124  0.2977 -1.0855 -0.8347
 5935TIP3    H217763   1.067   2.506   5.039  1.1509  0.5192 -1.2132
 5936TIP3   OH217764   4.836   4.227   0.976  0.6093  0.1610  0.0369
 5936TIP3    H117765   4.826   4.323   0.976  2.9690  0.4721 -0.0971
 5936TIP3    H217766   4.857   4.205   0.885  0.6259 -0.4018  0.1739
 5937TIP3   OH217767   4.285   2.796   6.039  0.4623  0.1652 -0.0237
 5937TIP3    H117768   4.361   2.840   6.076  0.4177  0.8918 -0.7667
 5937TIP3    H217769   4.286   2.821   5.947  0.0151 -0.8123 -0.3010
 5938TIP3   OH217770   1.999   4.659   0.627  0.0003 -0.3274  0.1644
 5938TIP3    H117771   2.018   4.573   0.664  0.1920 -1.5465 -2.5376
 5938TIP3    H217772   1.909   4.678   0.655 -0.0761 -1.4177  0.7274
 5939TIP3   OH217773   2.749   1.365   4.970 -0.0654 -0.2147 -0.4449
 5939TIP3    H117774   2.667   1.415   4.973 -1.5148 -2.3713 -1.0703
 5939TIP3    H217775   2.783   1.369   5.059  0.0944  2.1500 -0.5693
 5940TIP3   OH217776   5.096   6.701   4.173  0.0333  0.3819  0.7062
 5940TIP3    H117777   5.157   6.764   4.211 -0.8723  0.6476  1.7681
 5940TIP3    H217778   5.057   6.748   4.099  1.0722  0.2143  0.0302
 5941TIP3   OH217779   5.518   0.180   6.109  0.8520  0.2811 -0.6637
 5941TIP3    H117780   5.556   0.149   6.026  1.2340  1.1731 -0.8304
 5941TIP3    H217781   5.473   0.261   6.085 -1.5317 -0.9062 -0.5563
 5942TIP3   OH217782   4.197   0.315   0.483  0.4358  0.1602  0.1676
 5942TIP3    H117783   4.254   0.362   0.421 -0.6872 -2.5453 -3.2573
 5942TIP3    H217784   4.113   0.311   0.438 -0.7080 -1.2297  2.3346
 5943TIP3   OH217785   0.059   4.449   4.079 -0.3902 -0.7903  0.1270
 5943TIP3    H117786   0.145   4.468   4.043 -0.9351 -1.0501 -1.3711
 5943TIP3    H217787   0.069   4.462   4.173  0.8102  0.9474 -0.2055
 5944TIP3   OH217788   0.282   7.653   3.039 -0.1617 -0.2905 -0.3862
 5944TIP3    H117789   0.351   7.662   3.105 -1.3628  0.6420  0.8169
 5944TIP3    H217790   0.275   7.559   3.024 -1.6700 -0.8219  2.9047
 5945TIP3   OH217791   6.631   6.971   3.637 -0.0570 -0.0244  0.1713
 5945TIP3    H117792   6.725   6.954   3.643 -0.0499  0.5784  2.8630
 5945TIP3    H217793   6.624   7.061   3.605  0.2356 -0.3243 -0.7633
 5946TIP3   OH217794   4.541   5.165   4.467 -0.4295  0.2350  0.5027
 5946TIP3    H117795   4.548   5.096   4.533  2.2349  0.5442  0.6538
 5946TIP3    H217796   4.507   5.241   4.514 -0.9444 -0.2547  0.9312
 5947TIP3   OH217797   1.871   7.438   2.702  0.3854 -0.3811  0.1576
 5947TIP3    H117798   1.931   7.491   2.649  0.4183 -2.0907 -1.6155
 5947TIP3    H217799   1.788   7.485   2.698  0.6839  0.1175 -0.4541
 5948TIP3   OH217800   2.311   2.187   0.431 -0.2872 -0.7782 -0.2859
 5948TIP3    H117801   2.270   2.264   0.470 -1.1997 -0.6207 -1.4813
 5948TIP3    H217802   2.336   2.216   0.343 -1.6639 -2.1307 -1.1702
 5949TIP3   OH217803   8.234   3.380   5.961 -0.0104  0.0736  0.4301
 5949TIP3    H117804   8.189   3.375   5.877 -1.8064  1.5598  1.2147
 5949TIP3    H217805   8.327   3.369   5.940 -0.2614  1.7372 -1.9316
 5950TIP3   OH217806   4.830   2.057   0.129 -0.3024  0.4188 -0.3514
 5950TIP3    H117807   4.838   2.150   0.151 -1.5353  0.6732 -0.8832
 5950TIP3    H217808   4.829   2.012   0.214 -0.2401  0.9475 -0.0654
 5951TIP3   OH217809   5.161   2.477   0.628 -0.0701  0.4441  0.3925
 5951TIP3    H117810   5.233   2.455   0.569  1.3139  0.7025  1.8933
 5951TIP3    H217811   5.089   2.502   0.571  1.2503  0.8369 -1.1631
 5952TIP3   OH217812   6.589   2.230   3.815  0.1312 -0.4674  0.1717
 5952TIP3    H117813   6.571   2.169   3.887  0.4738 -2.7352 -1.5574
 5952TIP3    H217814   6.639   2.300   3.856 -1.2625 -0.7132  2.4823
 5953TIP3   OH217815   2.955   4.831   3.335  0.1609 -0.0324  0.4854
 5953TIP3    H117816   2.900   4.893   3.382 -0.8302 -0.0415 -0.6123
 5953TIP3    H217817   3.002   4.783   3.404 -0.2792  0.8161  1.3959
 5954TIP3   OH217818   2.379   4.428   1.247 -0.0768  0.6153 -0.5562
 5954TIP3    H117819   2.370   4.340   1.210 -1.1441  0.4477  0.0521
 5954TIP3    H217820   2.443   4.471   1.191  0.1396 -0.4101 -1.1277
 5955TIP3   OH217821   0.954   2.512   2.318 -0.8191  0.5116  0.2481
 5955TIP3    H117822   0.881   2.476   2.368 -0.5301 -1.2235 -0.5111
 5955TIP3    H217823   0.913   2.562   2.248 -1.2391  1.1676  0.9445
 5956TIP3   OH217824   8.151   5.595   4.756  0.2052  0.1946  0.2977
 5956TIP3    H117825   8.113   5.515   4.793 -3.6705  1.5727 -0.1862
 5956TIP3    H217826   8.162   5.575   4.663 -1.2022  0.3075  0.0883
 5957TIP3   OH217827   7.854   0.681   1.282  0.0753 -0.0827  0.0490
 5957TIP3    H117828   7.871   0.745   1.351  1.0233 -0.5988  0.3082
 5957TIP3    H217829   7.866   0.730   1.201  1.4869 -0.0814  0.2377
 5958TIP3   OH217830   2.799   2.959   3.757 -0.0068 -0.0799  0.7111
 5958TIP3    H117831   2.728   3.019   3.778  0.1730  0.1119  0.7765
 5958TIP3    H217832   2.761   2.898   3.694 -0.7339 -1.0390  2.0218
 5959TIP3   OH217833   5.677   1.006   2.268 -0.1614 -0.2719 -0.3237
 5959TIP3    H117834   5.746   0.986   2.204 -0.8705 -0.5660 -1.0207
 5959TIP3    H217835   5.628   0.924   2.276  0.5840 -0.5948  1.4890
 5960TIP3   OH217836   3.532   2.715   2.788 -0.3840 -0.2666  0.0414
 5960TIP3    H117837   3.488   2.631   2.776 -0.2880 -0.1849 -0.8968
 5960TIP3    H217838   3.493   2.773   2.723 -1.0898  0.6872  1.2584
 5961TIP3   OH217839   1.026   7.392   6.121 -0.2735  0.1432 -0.1541
 5961TIP3    H117840   1.051   7.327   6.186  1.3258  1.5585  0.7260
 5961TIP3    H217841   1.085   7.378   6.048 -0.3353  0.2225 -0.2198
 5962TIP3   OH217842   1.493   5.433   5.521 -0.0326  0.0763 -0.0273
 5962TIP3    H117843   1.409   5.476   5.537 -1.2021 -1.1968 -2.2575
 5962TIP3    H217844   1.518   5.397   5.606 -2.2931 -0.4092  0.4805
 5963TIP3   OH217845   3.093   7.345   2.381  0.3633  0.1622 -0.3775
 5963TIP3    H117846   3.056   7.402   2.315 -0.6403  0.2810  0.2699
 5963TIP3    H217847   3.184   7.331   2.352 -0.1099  0.0244 -1.8724
 5964TIP3   OH217848   0.215   5.535   3.713  0.2738  0.1702 -0.4207
 5964TIP3    H117849   0.207   5.441   3.726 -0.5783  0.2084 -0.6475
 5964TIP3    H217850   0.212   5.547   3.618  2.4924  0.2555 -0.5361
 5965TIP3   OH217851   2.258   6.610   1.345  0.3689 -0.1338  0.1169
 5965TIP3    H117852   2.330   6.639   1.400  1.1340 -0.6110 -0.6214
 5965TIP3    H217853   2.202   6.688   1.335  0.7601  0.2260  0.7060
 5966TIP3   OH217854   5.107   7.105   4.256  0.6106 -0.1023 -0.1228
 5966TIP3    H117855   5.133   7.066   4.173  0.8502 -0.4800  0.1242
 5966TIP3    H217856   5.132   7.197   4.248  1.7688 -0.3829 -0.0184
 5967TIP3   OH217857   8.267   5.964   4.294  0.2852 -0.6296  0.0896
 5967TIP3    H117858   8.183   5.920   4.306 -0.5437  1.0284  0.7424
 5967TIP3    H217859   8.249   6.029   4.226  0.3620  1.2795  1.8068
 5968TIP3   OH217860   1.606   0.108   4.797  0.0671 -0.5068  0.3058
 5968TIP3    H117861   1.595   0.157   4.715  0.7289 -2.2658 -0.8924
 5968TIP3    H217862   1.520   0.109   4.837 -0.9208 -1.6495 -1.6373
 5969TIP3   OH217863  -0.010   5.267   2.661  0.5486  0.0646  0.0408
 5969TIP3    H117864  -0.012   5.233   2.750 -0.6039 -1.3674 -0.4800
 5969TIP3    H217865   0.074   5.312   2.654  2.3983 -2.9917  0.7495
 5970TIP3   OH217866   7.464   7.802   5.415  0.0552  0.3900  0.0388
 5970TIP3    H117867   7.559   7.795   5.407 -0.0952  0.1150 -2.4057
 5970TIP3    H217868   7.441   7.883   5.370 -0.9773 -0.5183 -1.1755
 5971TIP3   OH217869   5.815   1.418   4.837 -0.2473 -0.1778 -0.4794
 5971TIP3    H117870   5.748   1.473   4.877  0.1569  1.0717 -1.4563
 5971TIP3    H217871   5.821   1.342   4.894 -0.1419  1.2200  1.4629
 5972TIP3   OH217872   6.746   3.228   3.542 -0.0280 -0.1123 -0.1159
 5972TIP3    H117873   6.671   3.286   3.536 -0.9393 -1.1966  0.4183
 5972TIP3    H217874   6.822   3.284   3.522 -1.0230  0.8257 -1.4721
 5973TIP3   OH217875   7.958   1.172   3.630 -0.5821  0.3838  0.0036
 5973TIP3    H117876   7.975   1.104   3.565  1.1845  1.3885 -0.6355
 5973TIP3    H217877   7.937   1.250   3.578 -1.4381  0.6500  0.7147
 5974TIP3   OH217878   8.260   6.277   6.266 -0.2536 -0.7440  0.2567
 5974TIP3    H117879   8.281   6.318   6.182  0.3746 -0.2154  0.6556
 5974TIP3    H217880   8.174   6.238   6.253  0.0549 -1.1049 -0.7826
 5975TIP3   OH217881   3.926   5.355   3.999  0.1523  0.4695 -0.6270
 5975TIP3    H117882   3.955   5.268   4.027  0.2339 -0.4555 -3.2961
 5975TIP3    H217883   3.872   5.387   4.071  1.8075 -0.8676  1.3286
 5976TIP3   OH217884   7.699   5.798   3.383  0.5116 -0.4910  0.1447
 5976TIP3    H117885   7.792   5.779   3.371  1.4195  1.5096  2.9182
 5976TIP3    H217886   7.690   5.890   3.359 -0.3114 -0.1722  1.5512
 5977TIP3   OH217887   2.547   3.834   2.452  0.7003  0.4942 -0.3448
 5977TIP3    H117888   2.569   3.927   2.462 -0.9488  0.9110 -0.3663
 5977TIP3    H217889   2.469   3.834   2.397 -0.3904 -0.7974  1.1438
 5978TIP3   OH217890   4.608   4.678   2.193 -0.1223  0.5536  0.6835
 5978TIP3    H117891   4.635   4.728   2.270  2.6364  0.1365  0.1096
 5978TIP3    H217892   4.627   4.735   2.119  0.0008 -0.1107  0.1897
 5979TIP3   OH217893   2.713   6.437   0.657  0.0934  0.9428  0.2699
 5979TIP3    H117894   2.761   6.368   0.701 -1.2850  0.5868  1.2770
 5979TIP3    H217895   2.644   6.462   0.718 -0.1703  2.3930 -0.5543
 5980TIP3   OH217896   6.081   6.830   3.835 -0.0241 -0.0911  0.3222
 5980TIP3    H117897   6.079   6.922   3.809 -0.4207 -0.2657 -0.2648
 5980TIP3    H217898   6.043   6.783   3.762  0.0952 -0.7208  0.6574
 5981TIP3   OH217899   7.775   4.668   5.451  0.0530 -0.4274 -0.1725
 5981TIP3    H117900   7.759   4.578   5.481  0.7951 -1.0538 -1.5288
 5981TIP3    H217901   7.687   4.706   5.440 -0.2493 -0.3138  2.2140
 5982TIP3   OH217902   3.728   1.390   4.428  0.6469 -0.0779 -0.6931
 5982TIP3    H117903   3.661   1.452   4.455  1.1166  1.5768 -3.0202
 5982TIP3    H217904   3.755   1.346   4.509 -1.9303  0.4649  0.5563
 5983TIP3   OH217905   2.795   3.118   1.860 -0.2314  0.2324 -0.1506
 5983TIP3    H117906   2.875   3.171   1.858 -1.4078  2.1287  0.3015
 5983TIP3    H217907   2.803   3.064   1.938  0.1758  1.1598  0.4585
 5984TIP3   OH217908   7.053   1.261   1.501  0.2336  0.5179  0.5344
 5984TIP3    H117909   7.045   1.244   1.595 -3.1029 -4.4723 -0.2170
 5984TIP3    H217910   6.971   1.303   1.477  0.0897 -0.2246 -0.3534
 5985TIP3   OH217911   3.505   5.008   5.467 -0.1025 -0.0742  0.6263
 5985TIP3    H117912   3.586   5.046   5.502  1.0127 -1.8433  0.0464
 5985TIP3    H217913   3.532   4.927   5.425 -2.1514 -0.5571  0.1401
 5986TIP3   OH217914   3.337   6.414   3.432 -0.1314  0.3432 -0.6293
 5986TIP3    H117915   3.366   6.323   3.428 -1.8418 -0.2510 -0.3943
 5986TIP3    H217916   3.346   6.438   3.524  1.1243  0.7353 -0.8229
 5987TIP3   OH217917   3.447   0.041   1.206 -0.1415 -0.0784  0.2427
 5987TIP3    H117918   3.430   0.113   1.267 -0.4621 -0.5626  0.7268
 5987TIP3    H217919   3.445   0.082   1.120  0.4317  0.6339  0.5577
 5988TIP3   OH217920   3.627   6.013   3.798 -0.2563  0.1734  0.4000
 5988TIP3    H117921   3.571   5.938   3.820 -0.6176  0.0502 -0.8608
 5988TIP3    H217922   3.716   5.981   3.813 -0.4222 -0.3811  0.2351
 5989TIP3   OH217923   0.206   6.299   2.492 -0.4357  0.0897 -0.1622
 5989TIP3    H117924   0.128   6.249   2.517  0.3879 -0.1657  2.0737
 5989TIP3    H217925   0.171   6.377   2.448 -1.8241 -1.1764 -1.4243
 5990TIP3   OH217926   3.195   7.212   3.720  0.4941  0.1443  0.0669
 5990TIP3    H117927   3.176   7.306   3.716  3.2404  0.7234 -2.4222
 5990TIP3    H217928   3.203   7.193   3.813  2.4217  2.9926  0.5908
 5991TIP3   OH217929   5.605   0.607   3.328  0.3893 -0.1665  0.1469
 5991TIP3    H117930   5.628   0.635   3.416  1.7719 -0.3198 -0.1375
 5991TIP3    H217931   5.562   0.683   3.289  0.0067 -0.0094  0.8608
 5992TIP3   OH217932   2.479   4.109   0.416 -0.5157 -0.3260 -0.0925
 5992TIP3    H117933   2.417   4.178   0.441 -0.5664 -0.7528  1.0073
 5992TIP3    H217934   2.460   4.092   0.323 -3.1151 -1.5104  0.5702
 5993TIP3   OH217935   7.647   6.416   0.759 -0.9472 -0.6623  1.0719
 5993TIP3    H117936   7.586   6.343   0.750  0.6874 -2.1727  1.7223
 5993TIP3    H217937   7.723   6.379   0.802 -0.1057  1.4884  1.5707
 5994TIP3   OH217938   7.703   6.985   4.802 -0.5277 -0.1352  0.3579
 5994TIP3    H117939   7.785   7.025   4.772 -0.7995 -0.3592 -0.7002
 5994TIP3    H217940   7.634   7.034   4.758 -0.8687 -1.8836 -1.2077
 5995TIP3   OH217941   8.208   5.672   1.811  0.1463 -0.1078  0.0251
 5995TIP3    H117942   8.165   5.738   1.757  0.2197  0.1618  0.2957
 5995TIP3    H217943   8.300   5.699   1.812 -0.1772  1.0821  1.9910
 5996TIP3   OH217944   5.112   3.888   3.993 -0.0563  0.3951  0.6332
 5996TIP3    H117945   5.033   3.838   4.012 -0.4985  0.4360 -1.0226
 5996TIP3    H217946   5.130   3.935   4.074  0.0401 -1.9621  2.0862
 5997TIP3   OH217947   6.431   0.319   5.381 -0.1303 -0.1024 -0.0410
 5997TIP3    H117948   6.378   0.365   5.446 -0.7714 -0.4191 -0.3290
 5997TIP3    H217949   6.464   0.389   5.324 -0.4762  0.0762 -0.0277
 5998TIP3   OH217950   0.441   4.869   3.642  0.3127 -0.0383 -0.5985
 5998TIP3    H117951   0.449   4.793   3.699 -0.8945 -0.0971 -0.4991
 5998TIP3    H217952   0.397   4.935   3.696 -2.6029 -0.7064 -1.9713
 5999TIP3   OH217953   8.188   6.496   5.943  0.2706  0.6090 -0.3135
 5999TIP3    H117954   8.197   6.576   5.892 -0.0831  1.6960  1.2601
 5999TIP3    H217955   8.255   6.438   5.908  0.1620  1.3594 -1.8647
 6000TIP3   OH217956   0.773   0.562   0.465 -0.1360 -0.0800  0.0498
 6000TIP3    H117957   0.767   0.532   0.374 -0.1742  2.7877 -1.0179
 6000TIP3    H217958   0.844   0.511   0.503 -0.2927 -1.5447 -1.5111
 6001TIP3   OH217959   3.584   5.502   4.713  0.1872  0.1124  0.3939
 6001TIP3    H117960   3.555   5.554   4.638  0.0000  1.4181  1.3371
 6001TIP3    H217961   3.609   5.418   4.675 -1.3435  0.1993 -0.9389
 6002TIP3   OH217962   6.588   4.502   3.483 -0.0949 -0.8103 -0.3909
 6002TIP3    H117963   6.574   4.423   3.431 -1.2983  0.2389 -1.7363
 6002TIP3    H217964   6.662   4.480   3.540 -0.9485 -3.1857 -0.0862
 6003TIP3   OH217965   5.680   4.467   2.511 -0.1915 -0.1807 -0.3301
 6003TIP3    H117966   5.637   4.479   2.595 -0.1410 -0.7116 -0.2292
 6003TIP3    H217967   5.771   4.491   2.526  0.1766 -1.8261  0.1744
 6004TIP3   OH217968   0.341   7.778   3.482  0.0760 -0.2831  0.4931
 6004TIP3    H117969   0.303   7.856   3.523  0.0382 -0.0142 -0.0442
 6004TIP3    H217970   0.295   7.770   3.399  0.6832 -0.3748  0.1577
 6005TIP3   OH217971   1.701   1.614   0.340 -0.1601 -0.3846 -0.3920
 6005TIP3    H117972   1.619   1.571   0.363 -0.6217  0.6229 -0.1013
 6005TIP3    H217973   1.754   1.609   0.420 -0.0072 -0.8636 -0.5201
 6006TIP3   OH217974   0.498   0.558   2.750  0.2801  0.7834  0.2936
 6006TIP3    H117975   0.584   0.591   2.775  1.6057 -1.9442 -0.2138
 6006TIP3    H217976   0.468   0.509   2.827 -0.9556  1.8755  0.5381
 6007TIP3   OH217977   1.588   4.745   0.585  0.0905 -0.3008  0.1384
 6007TIP3    H117978   1.516   4.686   0.564 -0.8529  0.0988  2.0184
 6007TIP3    H217979   1.651   4.690   0.631  0.4619 -0.3907 -0.4628
 6008TIP3   OH217980   7.954   1.131   1.933 -0.4292  0.4270  0.4882
 6008TIP3    H117981   8.032   1.170   1.973  0.7425 -1.7008  0.3979
 6008TIP3    H217982   7.899   1.105   2.007 -0.1880  0.2566  0.6083
 6009TIP3   OH217983   6.713   0.419   0.372 -0.7005  0.1495 -0.0166
 6009TIP3    H117984   6.628   0.388   0.341  0.1049 -0.4444 -1.7619
 6009TIP3    H217985   6.738   0.486   0.308  0.6644 -0.5078 -0.1904
 6010TIP3   OH217986   6.802   7.522   2.120  0.0069  0.0968 -0.1753
 6010TIP3    H117987   6.822   7.529   2.213 -1.1615  1.6442  0.0049
 6010TIP3    H217988   6.832   7.604   2.083 -3.9347  1.7570 -0.2018
 6011TIP3   OH217989   5.802   0.877   1.128 -0.3400 -0.3237  0.1997
 6011TIP3    H117990   5.850   0.812   1.180 -1.2713  0.1328  1.6696
 6011TIP3    H217991   5.807   0.958   1.179 -0.8425  0.2726 -0.6749
 6012TIP3   OH217992   1.797   4.583   3.753  0.4735  0.1791 -0.0767
 6012TIP3    H117993   1.819   4.490   3.747 -1.8882 -0.4527  0.1858
 6012TIP3    H217994   1.749   4.602   3.673  0.2863  0.9871  0.2129
 6013TIP3   OH217995   7.142   1.789   2.905 -0.3342 -0.3658 -0.2451
 6013TIP3    H117996   7.059   1.769   2.948 -0.1220 -2.5273 -0.7075
 6013TIP3    H217997   7.123   1.779   2.811  0.4412 -0.9217 -0.3522
 6014TIP3   OH217998   6.381   4.763   6.360  0.6038  0.2303 -0.1052
 6014TIP3    H117999   6.436   4.803   6.293  0.2451  1.2577  0.2057
 6014TIP3    H218000   6.346   4.684   6.318  0.1435  1.0077 -1.2479
 6015TIP3   OH218001   1.942   0.905   5.042  0.5100  0.8076  0.2215
 6015TIP3    H118002   2.003   0.865   4.980 -0.4045 -0.2535 -0.0130
 6015TIP3    H218003   1.861   0.917   4.992 -0.6376 -1.1756  1.4938
 6016TIP3   OH218004   4.006   5.993   1.875 -0.3776  0.1458  0.2287
 6016TIP3    H118005   3.952   6.068   1.850 -1.5278 -0.3187  1.2111
 6016TIP3    H218006   4.004   5.994   1.971  1.6567  0.2937  0.3052
 6017TIP3   OH218007   7.382   4.394   3.330  0.7855  0.4750  0.0243
 6017TIP3    H118008   7.349   4.484   3.335  1.2848  0.8081 -1.8319
 6017TIP3    H218009   7.443   4.387   3.403 -0.5379  1.0658  1.2294
 6018TIP3   OH218010   7.211   3.227   0.671 -0.1893 -0.1116 -0.3225
 6018TIP3    H118011   7.174   3.302   0.717 -1.3078 -0.4792 -0.5859
 6018TIP3    H218012   7.269   3.186   0.735 -2.7842 -1.4559  1.3472
 6019TIP3   OH218013   5.734   1.917   3.025  0.3158  0.0048 -0.2030
 6019TIP3    H118014   5.774   1.997   3.058  0.1932  0.1182 -0.3288
 6019TIP3    H218015   5.641   1.938   3.017  0.2284 -0.2627  0.1006
 6020TIP3   OH218016   7.302   4.662   1.019 -0.5501 -0.1582  0.5899
 6020TIP3    H118017   7.230   4.636   0.962 -0.7373  1.2501  0.1364
 6020TIP3    H218018   7.379   4.618   0.984 -0.6371  0.7884 -0.8554
 6021TIP3   OH218019   0.943   1.859   2.371 -0.3091  0.6575  0.2626
 6021TIP3    H118020   0.911   1.916   2.301 -1.1797 -0.5487 -0.3631
 6021TIP3    H218021   0.864   1.818   2.406  0.3699 -0.8558  0.0728
 6022TIP3   OH218022   3.518   4.188   0.189 -0.1340 -0.1149 -0.0402
 6022TIP3    H118023   3.496   4.227   0.274 -0.2668  0.6398 -0.4148
 6022TIP3    H218024   3.531   4.262   0.131  0.9140 -0.5964 -0.4578
 6023TIP3   OH218025   6.808   4.774   2.327  0.1698 -0.2746 -0.2575
 6023TIP3    H118026   6.765   4.803   2.246 -3.5641 -1.4442  1.0943
 6023TIP3    H218027   6.817   4.679   2.316 -1.6002 -0.6594  1.0881
 6024TIP3   OH218028   3.178   4.719   1.418  0.0392 -0.3030  0.0467
 6024TIP3    H118029   3.229   4.799   1.401 -0.6651  0.1585  0.0482
 6024TIP3    H218030   3.168   4.717   1.513  0.3416 -0.5762  0.0733
 6025TIP3   OH218031   2.223   4.881   3.040 -0.3312 -0.5251 -0.4811
 6025TIP3    H118032   2.205   4.925   3.122 -0.0556 -2.3046  0.5900
 6025TIP3    H218033   2.278   4.942   2.991 -1.2510  0.9351  0.2487
 6026TIP3   OH218034   4.207   2.888   4.431 -0.4647 -0.1594  0.1598
 6026TIP3    H118035   4.209   2.981   4.450 -2.1372  0.4673 -2.2328
 6026TIP3    H218036   4.116   2.862   4.445 -0.6873 -0.7041 -1.9679
 6027TIP3   OH218037   7.922   5.254   2.086  0.0247  0.5351 -0.0453
 6027TIP3    H118038   7.986   5.232   2.017  1.6548  2.7784  0.6549
 6027TIP3    H218039   7.902   5.170   2.127 -1.7731 -1.1128 -3.7445
 6028TIP3   OH218040   2.091   2.034   2.998  0.0570 -0.1371  0.0166
 6028TIP3    H118041   2.041   2.076   3.068 -1.2800  0.8003 -1.4306
 6028TIP3    H218042   2.181   2.034   3.030 -0.3333  1.3333  1.2613
 6029TIP3   OH218043   0.714   0.287   2.748  0.2052 -0.6915 -0.3891
 6029TIP3    H118044   0.646   0.222   2.732 -1.2360  0.6308  0.0754
 6029TIP3    H218045   0.751   0.263   2.832  0.5340 -1.5913 -0.7777
 6030TIP3   OH218046   3.583   5.192   1.195 -0.3730 -0.1540 -0.2470
 6030TIP3    H118047   3.627   5.112   1.169 -0.3246 -0.9581  2.1251
 6030TIP3    H218048   3.649   5.261   1.184  0.3858 -0.8255  0.0706
 6031TIP3   OH218049   1.220   6.924   6.709  0.1948  0.4572  0.3078
 6031TIP3    H118050   1.212   6.993   6.643 -1.2773 -0.2563 -0.3002
 6031TIP3    H218051   1.184   6.962   6.789 -1.0837  0.2520 -0.1517
 6032TIP3   OH218052   3.109   5.427   3.029 -0.0326 -0.2381 -0.0745
 6032TIP3    H118053   3.063   5.507   3.056  0.5634 -0.1022  0.5819
 6032TIP3    H218054   3.047   5.357   3.048 -0.2402  0.0023  0.1556
 6033TIP3   OH218055   8.165   4.144   6.266 -0.0859 -0.0570 -0.5897
 6033TIP3    H118056   8.071   4.157   6.277  0.1225  0.9611  0.1601
 6033TIP3    H218057   8.201   4.233   6.262  0.8473 -0.4342 -0.8171
 6034TIP3   OH218058   0.353   3.629   1.320  0.4431 -0.2370  0.5176
 6034TIP3    H118059   0.329   3.678   1.399 -0.6737 -1.7517  1.1635
 6034TIP3    H218060   0.333   3.688   1.248  0.6856  0.8616  1.3176
 6035TIP3   OH218061   2.455   0.342   6.383  0.3886  0.0220 -0.1606
 6035TIP3    H118062   2.396   0.334   6.308 -0.9664 -1.5937  0.9716
 6035TIP3    H218063   2.515   0.268   6.374  0.0645 -0.3295  0.4220
 6036TIP3   OH218064   6.432   6.771   3.631  0.0267 -0.3684  0.4464
 6036TIP3    H118065   6.481   6.852   3.616  2.4941 -1.8465 -0.0863
 6036TIP3    H218066   6.483   6.724   3.696 -1.6199 -1.3139  1.1023
 6037TIP3   OH218067   6.354   3.997   5.481 -0.1309  0.0760 -0.1112
 6037TIP3    H118068   6.327   4.065   5.420 -1.7957 -0.9552 -0.5820
 6037TIP3    H218069   6.311   4.021   5.564  1.6735  1.1650  0.5848
 6038TIP3   OH218070   6.248   7.254   6.626 -0.3016  0.2992 -0.1307
 6038TIP3    H118071   6.194   7.330   6.645 -1.5267 -0.5688 -0.0042
 6038TIP3    H218072   6.244   7.246   6.530  0.7133  1.0088 -0.2423
 6039TIP3   OH218073   7.748   4.561   1.569 -0.3351 -0.2209 -0.1859
 6039TIP3    H118074   7.697   4.525   1.642  1.5226  0.4002  1.5096
 6039TIP3    H218075   7.768   4.651   1.595  2.2794 -0.6761 -0.3662
 6040TIP3   OH218076   7.192   1.000   0.574 -0.0596 -0.1772  0.6942
 6040TIP3    H118077   7.275   1.042   0.550 -0.3024 -0.0309  0.1071
 6040TIP3    H218078   7.201   0.981   0.668  0.5132  0.1198  0.7021
 6041TIP3   OH218079   0.927   3.032   0.138  0.5412  0.5026 -0.5124
 6041TIP3    H118080   0.976   3.016   0.057  0.0781  0.8561 -0.8637
 6041TIP3    H218081   0.995   3.055   0.202  0.7780  1.8500 -1.2096
 6042TIP3   OH218082   3.754   6.533   5.605 -0.3516  0.1608  0.3702
 6042TIP3    H118083   3.770   6.439   5.609  0.1845  0.2511  0.4617
 6042TIP3    H218084   3.666   6.541   5.567  0.0746 -0.3584 -0.7959
 6043TIP3   OH218085   1.036   7.294   2.804  0.1791  0.0378 -0.1062
 6043TIP3    H118086   0.943   7.285   2.782  0.5113  1.1946 -2.1982
 6043TIP3    H218087   1.040   7.374   2.856 -0.0261 -0.3069  0.4623
 6044TIP3   OH218088   2.866   3.727   0.043  0.5239  0.1716 -0.1340
 6044TIP3    H118089   2.865   3.660   0.110 -0.9456  1.2319  0.9586
 6044TIP3    H218090   2.956   3.726   0.010  0.7645 -1.6985  0.4473
 6045TIP3   OH218091   1.455   0.095   4.452 -0.4119  0.3170 -0.9943
 6045TIP3    H118092   1.546   0.107   4.426  0.0041  0.6748  0.5017
 6045TIP3    H218093   1.431   0.178   4.494 -0.3826 -0.8428  1.4697
 6046TIP3   OH218094   7.083   3.676   4.844 -0.3906 -0.2612  0.2395
 6046TIP3    H118095   7.075   3.732   4.921  0.1477 -0.5375  0.4971
 6046TIP3    H218096   7.166   3.630   4.855 -1.8862 -2.9571  1.2612
 6047TIP3   OH218097   0.039   2.155   6.182  0.2438 -0.3439  0.0978
 6047TIP3    H118098  -0.034   2.158   6.121 -0.8461 -1.2532  1.2929
 6047TIP3    H218099   0.087   2.236   6.167 -2.7611  1.8653  1.3471
 6048TIP3   OH218100   3.324   6.297   4.985  0.2995  0.1094  0.2741
 6048TIP3    H118101   3.241   6.295   4.937  0.2756  1.0271  0.2631
 6048TIP3    H218102   3.390   6.314   4.918  0.8279 -2.7599 -0.0992
 6049TIP3   OH218103   0.979   6.799   2.910 -0.5196 -0.1248 -0.0731
 6049TIP3    H118104   1.002   6.754   2.991 -2.1107  0.3008  0.6685
 6049TIP3    H218105   1.043   6.870   2.902 -0.5788  0.0568  1.0195
 6050TIP3   OH218106   5.155   7.774   2.556 -0.1572  0.1523  0.1813
 6050TIP3    H118107   5.087   7.839   2.536 -0.8461 -0.1850  1.3501
 6050TIP3    H218108   5.213   7.819   2.618  0.3446  0.2303 -0.3411
 6051TIP3   OH218109   4.622   1.830   5.859 -0.1418  0.2209 -0.2499
 6051TIP3    H118110   4.538   1.794   5.831 -0.2287  1.1757 -1.2621
 6051TIP3    H218111   4.603   1.877   5.940 -0.5928  0.4519 -0.4867
 6052TIP3   OH218112   2.806   2.126   2.265  0.4055 -0.3283  0.4889
 6052TIP3    H118113   2.820   2.102   2.173 -0.7964  0.1275  0.1646
 6052TIP3    H218114   2.734   2.069   2.294  1.6798 -1.4525  1.5894
 6053TIP3   OH218115   3.958   3.519   3.282 -0.3963  0.1736 -0.7601
 6053TIP3    H118116   3.956   3.556   3.370  0.9245  2.4228 -1.5668
 6053TIP3    H218117   4.040   3.552   3.244 -1.3782  0.1109 -3.1304
 6054TIP3   OH218118   7.391   6.034   4.227 -0.5996 -0.5251  0.0518
 6054TIP3    H118119   7.397   6.001   4.316  1.5141 -2.6616 -0.7478
 6054TIP3    H218120   7.306   6.003   4.196 -0.0841 -2.4980  0.4300
 6055TIP3   OH218121   3.914   4.044   0.640 -0.0715 -0.6414  0.1956
 6055TIP3    H118122   3.843   4.107   0.625  0.2596  0.0638  1.4211
 6055TIP3    H218123   3.958   4.038   0.556 -1.1019 -0.4877 -0.3763
 6056TIP3   OH218124   1.727   1.404   1.126  0.3160  0.0161 -0.0423
 6056TIP3    H118125   1.654   1.398   1.065  0.0215 -0.2040  0.3307
 6056TIP3    H218126   1.703   1.473   1.187 -1.4451 -2.6026  2.5133
 6057TIP3   OH218127   3.983   1.355   2.747 -0.4725 -0.3549  0.0601
 6057TIP3    H118128   4.004   1.428   2.689  1.5807  0.0286  1.2054
 6057TIP3    H218129   3.962   1.283   2.688 -0.5270  0.5839 -1.1090
 6058TIP3   OH218130   3.717   5.625   5.628  0.1118  0.0934 -0.0949
 6058TIP3    H118131   3.741   5.548   5.575  0.5816  0.9195 -1.1191
 6058TIP3    H218132   3.801   5.665   5.652 -0.0958 -0.2697  1.3204
 6059TIP3   OH218133   0.454   4.492   5.666  0.2503  0.3381  0.2773
 6059TIP3    H118134   0.443   4.457   5.577  2.1376 -2.3656  0.9547
 6059TIP3    H218135   0.500   4.574   5.653 -1.5048  1.1556 -1.3011
 6060TIP3   OH218136   0.679   1.035   4.732 -0.3205  0.2839 -0.2330
 6060TIP3    H118137   0.763   1.051   4.689  0.1186 -1.4342 -0.1131
 6060TIP3    H218138   0.631   0.980   4.671 -0.1633 -1.1793  0.8836
 6061TIP3   OH218139   4.531   0.683   4.055  0.3743  0.0442  0.0720
 6061TIP3    H118140   4.512   0.772   4.086  1.1310  0.4483 -0.5986
 6061TIP3    H218141   4.498   0.626   4.125 -0.0558  0.8484  0.5417
 6062TIP3   OH218142   7.957   6.288   2.260 -0.3898  0.5232  0.1504
 6062TIP3    H118143   8.047   6.318   2.273 -1.0071  1.5855  2.4247
 6062TIP3    H218144   7.951   6.208   2.313 -0.9465  0.8274  0.5563
 6063TIP3   OH218145   3.812   3.738   4.954  0.1492  0.0343  0.6204
 6063TIP3    H118146   3.795   3.644   4.950  0.1765  0.0116  0.9956
 6063TIP3    H218147   3.727   3.779   4.939  0.5467  0.0045 -2.1754
 6064TIP3   OH218148   6.893   2.792   0.056 -0.4941  0.1219 -0.4039
 6064TIP3    H118149   6.853   2.874   0.026  1.2687  1.4332  0.6603
 6064TIP3    H218150   6.971   2.782   0.001 -1.2018 -1.4145 -1.1965
 6065TIP3   OH218151   6.897   1.674   0.778  0.2831  0.2646  0.1986
 6065TIP3    H118152   6.990   1.664   0.759  0.9109  0.8599  2.6433
 6065TIP3    H218153   6.866   1.585   0.793  1.0712  0.2163  1.7596
 6066TIP3   OH218154   0.448   1.132   6.477  0.6440  0.3476 -0.3467
 6066TIP3    H118155   0.357   1.159   6.469 -0.5858 -2.6852  1.6135
 6066TIP3    H218156   0.478   1.170   6.560  1.0980  1.0662 -0.8270
 6067TIP3   OH218157   5.094   0.096   1.476 -0.2015 -0.3714 -0.8380
 6067TIP3    H118158   5.109   0.181   1.516 -1.0225 -0.9147  0.7157
 6067TIP3    H218159   5.139   0.034   1.533 -1.1807 -1.1488 -0.8832
 6068TIP3   OH218160   7.134   7.123   5.051  0.4632 -0.1858  0.6451
 6068TIP3    H118161   7.161   7.206   5.089 -0.2095 -0.6815  2.3055
 6068TIP3    H218162   7.214   7.087   5.013  1.5013 -0.2216  2.7372
 6069TIP3   OH218163   1.058   5.823   1.907  0.4488 -0.1585 -0.6573
 6069TIP3    H118164   1.128   5.768   1.943  1.1620  0.5693 -0.9158
 6069TIP3    H218165   1.082   5.836   1.816 -0.9595 -1.3531 -1.2441
 6070TIP3   OH218166   3.062   2.286   5.745  0.4917 -0.1331  0.3469
 6070TIP3    H118167   3.023   2.361   5.790 -0.1011 -0.6242  0.6713
 6070TIP3    H218168   3.149   2.276   5.785  1.5113  1.7634 -1.2728
 6071TIP3   OH218169   6.022   6.310   4.368 -0.2425 -0.8475 -0.5049
 6071TIP3    H118170   5.927   6.315   4.371 -0.2884 -0.2241 -2.1125
 6071TIP3    H218171   6.052   6.401   4.375  0.3320 -1.1270  1.3720
 6072TIP3   OH218172   2.213   5.744   5.406  0.3121  0.4381 -0.2280
 6072TIP3    H118173   2.221   5.662   5.356 -1.0787 -0.4252  0.8794
 6072TIP3    H218174   2.120   5.751   5.425  0.6615  1.2518  1.3672
 6073TIP3   OH218175   2.532   5.406   1.072 -0.0255  0.5209  0.2393
 6073TIP3    H118176   2.565   5.483   1.117 -0.4560  0.6514  0.3362
 6073TIP3    H218177   2.516   5.436   0.982 -1.0536  0.7946  0.5002
 6074TIP3   OH218178   5.417   2.287   3.420 -0.4493  0.7955  0.6027
 6074TIP3    H118179   5.335   2.291   3.371 -0.7176  0.2621  1.0033
 6074TIP3    H218180   5.465   2.215   3.379 -0.5103  0.6036  0.8667
 6075TIP3   OH218181   4.751   5.485   0.011 -0.1129  0.3090  0.8617
 6075TIP3    H118182   4.701   5.426   0.068  1.1602  0.6532  2.3759
 6075TIP3    H218183   4.686   5.518  -0.051 -1.6383  0.2509  2.3648
 6076TIP3   OH218184   0.646   5.604   5.148 -0.0943 -0.2932 -0.2763
 6076TIP3    H118185   0.646   5.520   5.194  1.4808 -0.6538 -0.8780
 6076TIP3    H218186   0.690   5.664   5.209 -1.3133  0.1541  0.1996
 6077TIP3   OH218187   2.148   1.303   0.390 -0.1084 -0.0779 -0.0842
 6077TIP3    H118188   2.097   1.383   0.383 -0.1122 -0.0387  0.3655
 6077TIP3    H218189   2.114   1.259   0.468  2.7164  1.5524  2.2651
 6078TIP3   OH218190   4.999   2.358   2.780  0.0604 -0.3437 -0.1955
 6078TIP3    H118191   5.082   2.377   2.825  0.2270  0.1973 -0.7195
 6078TIP3    H218192   4.931   2.388   2.841  0.3034  2.1581 -1.0320
 6079TIP3   OH218193   4.849   1.829   1.007 -0.3668  0.0752 -0.2768
 6079TIP3    H118194   4.882   1.918   0.996  0.4605 -0.1831  0.0675
 6079TIP3    H218195   4.796   1.833   1.086  1.2092 -0.1462  0.8264
 6080TIP3   OH218196   4.702   7.785   6.439  0.1083  0.0383 -0.4708
 6080TIP3    H118197   4.675   7.838   6.513  0.3098  1.4453 -1.3729
 6080TIP3    H218198   4.632   7.720   6.429 -0.2392  0.2449  0.5176
 6081TIP3   OH218199   0.117   0.635   3.179 -0.5788 -0.0632  0.0698
 6081TIP3    H118200   0.150   0.658   3.266 -0.8296 -2.5241  0.9052
 6081TIP3    H218201   0.187   0.659   3.119  0.9206 -1.0970  1.3205
 6082TIP3   OH218202   0.083   5.162   2.882 -0.1322 -0.1401 -0.5469
 6082TIP3    H118203   0.151   5.130   2.822 -0.5935  0.2836 -1.3059
 6082TIP3    H218204   0.089   5.104   2.958  0.5498 -0.6025 -0.9418
 6083TIP3   OH218205   5.633   1.370   5.287  0.3573  0.2326  0.1525
 6083TIP3    H118206   5.575   1.442   5.264 -0.4435 -0.7893 -1.1875
 6083TIP3    H218207   5.718   1.412   5.303  0.7828  1.2899 -3.7472
 6084TIP3   OH218208   4.625   3.005   0.756 -0.2517 -0.2282 -0.0742
 6084TIP3    H118209   4.622   3.098   0.730 -3.2119 -0.2481 -0.1413
 6084TIP3    H218210   4.618   2.957   0.673  1.0800 -0.5367 -0.0227
 6085TIP3   OH218211   2.760   1.236   0.029  0.1192 -0.2359  0.3522
 6085TIP3    H118212   2.670   1.266   0.023  0.0527 -0.4292  0.3810
 6085TIP3    H218213   2.766   1.194   0.115 -0.3394 -2.1175 -0.4997
 6086TIP3   OH218214   6.159   5.926   0.020  0.3474  0.4929 -0.0098
 6086TIP3    H118215   6.242   5.906   0.064 -0.1776  0.6367  1.0960
 6086TIP3    H218216   6.113   5.982   0.082 -0.9276 -0.2665 -0.2415
 6087TIP3   OH218217   2.066   2.931   4.521  0.1616  0.2252 -0.3714
 6087TIP3    H118218   2.054   2.989   4.446 -0.0516 -0.0202 -0.5307
 6087TIP3    H218219   1.998   2.864   4.511  0.6636 -0.2857 -0.4166
 6088TIP3   OH218220   2.142   3.235   2.114 -0.0877 -0.2913  0.0108
 6088TIP3    H118221   2.054   3.240   2.151 -0.5129 -1.6054 -0.7326
 6088TIP3    H218222   2.195   3.198   2.185 -0.3600 -0.4749  0.1205
 6089TIP3   OH218223   2.681   7.703   5.092  0.6543 -0.4798  0.6334
 6089TIP3    H118224   2.766   7.687   5.133  1.0974 -0.0996 -0.1203
 6089TIP3    H218225   2.685   7.658   5.008 -0.1805 -1.1005  0.9100
 6090TIP3   OH218226   7.786   6.108   6.723  0.3792  0.2676 -0.0142
 6090TIP3    H118227   7.695   6.079   6.724  1.1045 -2.3972 -1.1357
 6090TIP3    H218228   7.820   6.082   6.809  0.5832 -0.7694 -0.3870
 6091TIP3   OH218229   2.515   2.750   3.324  0.1180  0.3439 -0.6482
 6091TIP3    H118230   2.509   2.778   3.415  0.8245  0.1949 -0.5514
 6091TIP3    H218231   2.569   2.817   3.282  0.3673  0.0529 -0.7972
 6092TIP3   OH218232   7.498   7.070   6.304  0.4473  0.0619  0.3771
 6092TIP3    H118233   7.440   6.994   6.310  2.5903 -1.7930 -0.9561
 6092TIP3    H218234   7.442   7.140   6.272 -1.4438 -1.1072  0.9337
 6093TIP3   OH218235   5.716   3.647   4.304 -0.6138  0.1200  0.0994
 6093TIP3    H118236   5.694   3.571   4.359  0.5774 -1.1583 -1.1060
 6093TIP3    H218237   5.696   3.723   4.359 -1.7111 -1.0503  1.4043
 6094TIP3   OH218238   5.645   2.656   2.164  0.2148  0.6864  0.5350
 6094TIP3    H118239   5.568   2.707   2.139  0.7121  1.1432 -0.0814
 6094TIP3    H218240   5.620   2.614   2.247 -0.2699  1.7590  0.9452
 6095TIP3   OH218241   7.892   7.302   5.228  0.0812 -0.1106  0.5434
 6095TIP3    H118242   7.898   7.239   5.299  0.1539  1.2031  1.7419
 6095TIP3    H218243   7.799   7.302   5.203  0.1527 -0.9689  0.2456
 6096TIP3   OH218244   7.416   4.675   4.870  0.2038 -0.0532  0.4643
 6096TIP3    H118245   7.475   4.724   4.813 -1.6430  1.0129 -0.6390
 6096TIP3    H218246   7.412   4.588   4.832 -0.0926  0.3127 -0.3718
 6097TIP3   OH218247   3.752   2.676   2.945  0.1098  0.2128  0.2094
 6097TIP3    H118248   3.720   2.740   3.008  0.2253 -1.4685  2.0729
 6097TIP3    H218249   3.679   2.663   2.884 -0.7487  0.4305  1.1683
 6098TIP3   OH218250   6.656   6.573   6.357 -0.6664 -0.0315 -1.1125
 6098TIP3    H118251   6.752   6.572   6.356 -0.6464 -2.1193 -0.7102
 6098TIP3    H218252   6.633   6.607   6.443 -0.3106  0.5307 -1.2321
 6099TIP3   OH218253   2.368   6.967   5.056 -0.0271 -0.1498 -0.2547
 6099TIP3    H118254   2.319   7.048   5.061  1.8636  1.0062  0.6178
 6099TIP3    H218255   2.418   6.964   5.137 -0.3152 -2.3956 -0.0856
 6100TIP3   OH218256   6.864   1.887   4.128  0.4250 -0.0684 -0.1739
 6100TIP3    H118257   6.954   1.886   4.096  0.4772  0.5056 -0.0620
 6100TIP3    H218258   6.816   1.828   4.069  0.7583  0.0520 -0.5681
 6101TIP3   OH218259   2.352   6.882   6.621 -0.7594  0.1919  0.0774
 6101TIP3    H118260   2.347   6.786   6.622  0.1703  0.1288  0.1679
 6101TIP3    H218261   2.432   6.901   6.670 -0.9387  1.0192  0.0556
 6102TIP3   OH218262   8.175   4.981   2.110 -0.0092  0.0597 -0.2476
 6102TIP3    H118263   8.167   4.904   2.054  0.6582  0.1487 -0.4747
 6102TIP3    H218264   8.106   4.971   2.175 -0.6165 -0.1857 -0.9213
 6103TIP3   OH218265   7.409   7.627   3.856 -0.7107  0.1936  0.1694
 6103TIP3    H118266   7.485   7.666   3.812 -0.8399 -1.3077 -1.5573
 6103TIP3    H218267   7.427   7.533   3.853 -2.0769 -0.1082  0.8721
 6104TIP3   OH218268   5.659   3.895   0.765  0.1672 -0.6532  0.4996
 6104TIP3    H118269   5.666   3.976   0.715 -3.9319  0.4770  1.3454
 6104TIP3    H218270   5.639   3.828   0.699  1.3488 -0.5371  0.0160
 6105TIP3   OH218271   3.484   0.673   1.137  0.1049  0.2456 -0.0867
 6105TIP3    H118272   3.490   0.758   1.093 -0.1429 -0.3406 -1.2757
 6105TIP3    H218273   3.424   0.689   1.210  0.1381  1.1099 -0.2345
 6106TIP3   OH218274   6.916   1.213   6.566  0.2040 -0.4006 -0.0584
 6106TIP3    H118275   6.888   1.276   6.500 -0.5156  0.4289  1.0099
 6106TIP3    H218276   6.982   1.160   6.522  1.9480  2.0340 -0.5706
 6107TIP3   OH218277   2.013   7.692   5.901 -0.6861  0.7343 -0.1181
 6107TIP3    H118278   2.063   7.760   5.855  0.3820  0.5284  0.6925
 6107TIP3    H218279   2.079   7.646   5.953 -1.2999 -1.2481 -1.0156
 6108TIP3   OH218280   5.920   6.388   1.458 -0.3348 -0.4913 -0.7361
 6108TIP3    H118281   5.980   6.427   1.395 -1.3992  1.6699 -0.5168
 6108TIP3    H218282   5.885   6.463   1.507 -2.3879 -1.7367 -0.1678
 6109TIP3   OH218283   5.951   5.404   0.327  0.5145 -0.3504 -0.1299
 6109TIP3    H118284   5.898   5.388   0.248 -0.5355 -1.7002  0.7937
 6109TIP3    H218285   5.886   5.418   0.396  1.4064  0.1341  0.6243
 6110TIP3   OH218286   7.822   5.294   1.524  0.1789  0.4788 -0.2995
 6110TIP3    H118287   7.896   5.349   1.547 -0.2622  1.0027 -0.1156
 6110TIP3    H218288   7.859   5.206   1.515  0.3683  0.1666  2.6538
 6111TIP3   OH218289   7.023   1.015   5.309 -0.9167 -0.3655 -0.2956
 6111TIP3    H118290   6.957   1.001   5.377  0.0677 -2.0347  0.3722
 6111TIP3    H218291   7.075   0.935   5.309 -1.1799 -0.6557 -3.3990
 6112TIP3   OH218292   6.773   7.362   2.943  0.8129  0.5036 -0.1713
 6112TIP3    H118293   6.763   7.457   2.939  3.4241  0.8116 -1.2100
 6112TIP3    H218294   6.710   7.329   2.878 -1.8977  1.2487  1.8921
 6113TIP3   OH218295   7.233   7.696   4.046 -0.0039  0.1748  0.1150
 6113TIP3    H118296   7.285   7.683   4.125 -0.7408 -2.0814  0.2933
 6113TIP3    H218297   7.294   7.675   3.975  0.2549  0.8379  0.1293
 6114TIP3   OH218298   2.947   6.426   6.754 -0.2288  0.1201 -0.3961
 6114TIP3    H118299   2.862   6.389   6.778 -0.2549  0.5907  0.2640
 6114TIP3    H218300   2.936   6.521   6.763  1.2686  0.1361  3.0171
 6115TIP3   OH218301   1.304   6.737   2.546  0.6731 -0.5630  0.2924
 6115TIP3    H118302   1.335   6.647   2.545  2.5249  0.0345 -0.6160
 6115TIP3    H218303   1.381   6.789   2.571  0.7876  1.0881 -3.0028
 6116TIP3   OH218304   5.725   3.848   2.749  0.6113 -0.1671 -0.3960
 6116TIP3    H118305   5.721   3.866   2.655 -0.1253 -0.1287 -0.3672
 6116TIP3    H218306   5.774   3.766   2.756  1.7821  0.4770 -0.7147
 6117TIP3   OH218307   2.470   2.475   3.436 -0.2946 -0.0235  0.5409
 6117TIP3    H118308   2.528   2.403   3.412  0.5181  0.9820 -0.7025
 6117TIP3    H218309   2.526   2.553   3.431 -1.9071  1.0900 -1.5125
 6118TIP3   OH218310   5.228   1.416   2.537 -0.0938  0.4674  0.5969
 6118TIP3    H118311   5.304   1.408   2.594  0.6155  0.8946 -0.2656
 6118TIP3    H218312   5.153   1.403   2.595  0.5284  2.4797  1.9622
 6119TIP3   OH218313   0.699   5.989   1.688 -0.0107 -0.1954 -0.0792
 6119TIP3    H118314   0.759   5.917   1.710  0.6780  0.5079  0.3662
 6119TIP3    H218315   0.754   6.067   1.688  0.2386 -0.0737 -4.6251
 6120TIP3   OH218316   6.693   2.697   0.764  0.0092 -0.5810  0.6060
 6120TIP3    H118317   6.745   2.761   0.812  1.1961 -0.4003 -0.8343
 6120TIP3    H218318   6.608   2.698   0.807  0.3982  1.0434  1.4194
 6121TIP3   OH218319   7.790   3.452   4.300  0.0074 -0.1981 -0.2054
 6121TIP3    H118320   7.822   3.516   4.237  0.9353  1.2118  1.6214
 6121TIP3    H218321   7.839   3.372   4.279 -0.3014 -0.0125 -1.7514
 6122TIP3   OH218322   1.008   5.959   5.033  0.3651  0.8335 -0.0950
 6122TIP3    H118323   0.915   5.949   5.010  0.3642  1.1747 -0.2540
 6122TIP3    H218324   1.014   5.928   5.123  0.0917  0.8180 -0.0806
 6123TIP3   OH218325   1.293   6.565   5.169  0.2099  0.1081 -0.0369
 6123TIP3    H118326   1.314   6.473   5.158  1.6992  0.4658 -0.4132
 6123TIP3    H218327   1.378   6.610   5.168 -0.3612  1.3478  1.5496
 6124TIP3   OH218328   2.980   3.463   3.620 -0.2371 -0.5693  0.9195
 6124TIP3    H118329   2.988   3.557   3.636 -1.2388 -0.4952  1.0419
 6124TIP3    H218330   2.896   3.454   3.574  0.4119 -1.2733 -0.1565
 6125TIP3   OH218331   0.825   1.773   0.377 -0.3138 -0.1589 -0.4864
 6125TIP3    H118332   0.909   1.764   0.421 -0.1578 -0.3796 -0.8268
 6125TIP3    H218333   0.792   1.859   0.405  0.0015 -0.0892 -0.3246
 6126TIP3   OH218334   7.315   7.551   5.434 -0.0968 -0.4297 -0.2060
 6126TIP3    H118335   7.350   7.463   5.446  1.7128  0.1047 -1.1655
 6126TIP3    H218336   7.392   7.606   5.420 -1.0747  1.5684  1.6857
 6127TIP3   OH218337   0.267   2.654   5.019 -0.0085  0.5502 -0.0630
 6127TIP3    H118338   0.293   2.738   4.982  0.0248  0.0732 -1.1485
 6127TIP3    H218339   0.330   2.591   4.984 -0.8154 -0.1363 -0.3153
 6128TIP3   OH218340   1.949   1.839   2.871  0.9419  0.3883 -0.2651
 6128TIP3    H118341   2.002   1.762   2.889  1.7921 -0.0635 -3.8077
 6128TIP3    H218342   1.993   1.910   2.918  2.0155 -0.7544  0.5282
 6129TIP3   OH218343   5.356   1.197   1.170  0.4060  0.2725  0.1168
 6129TIP3    H118344   5.391   1.109   1.155  0.6675  0.2903  0.5924
 6129TIP3    H218345   5.414   1.254   1.119  0.8676  0.2648  0.6159
 6130TIP3   OH218346   1.689   2.446   4.382 -0.1312  0.0834  0.5220
 6130TIP3    H118347   1.748   2.421   4.453  0.0370  0.2809  0.4519
 6130TIP3    H218348   1.695   2.542   4.378  0.7981  0.0022 -0.5572
 6131TIP3   OH218349   5.095   6.829   6.095 -0.7687 -0.1064  0.4305
 6131TIP3    H118350   5.172   6.801   6.045 -0.4897  1.0283  0.1815
 6131TIP3    H218351   5.021   6.811   6.038 -0.5089  0.5301 -0.1291
 6132TIP3   OH218352   7.015   2.437   5.202  0.5147 -0.9196  0.0946
 6132TIP3    H118353   6.972   2.436   5.288  0.9596 -1.3239  0.3124
 6132TIP3    H218354   7.001   2.527   5.170 -1.1068 -1.2305 -0.1596
 6133TIP3   OH218355   7.089   2.863   1.891  0.2481 -0.5006  0.2815
 6133TIP3    H118356   7.126   2.866   1.979  0.2810  2.0163  0.2734
 6133TIP3    H218357   7.164   2.845   1.834  0.8828  1.0265  0.5664
 6134TIP3   OH218358   5.068   1.190   6.418 -0.7826 -0.0578 -0.2127
 6134TIP3    H118359   4.981   1.208   6.382 -1.0684  0.9548  0.9452
 6134TIP3    H218360   5.058   1.200   6.512  0.0847 -2.1332  0.1613
 6135TIP3   OH218361   1.739   3.747   0.355  0.3937 -0.1368  0.0278
 6135TIP3    H118362   1.682   3.749   0.279  0.2934 -0.8192  0.0782
 6135TIP3    H218363   1.819   3.705   0.324  1.0571  1.2044 -0.1576
 6136TIP3   OH218364   2.816   3.554   2.670  0.3050  0.2407 -0.5748
 6136TIP3    H118365   2.829   3.566   2.576  4.4771 -1.1159 -0.3799
 6136TIP3    H218366   2.783   3.464   2.678 -0.8446  0.6393 -0.7504
 6137TIP3   OH218367   1.447   6.232   0.848  0.2821  0.6243 -0.3476
 6137TIP3    H118368   1.413   6.245   0.760  2.6825  0.9527 -1.2928
 6137TIP3    H218369   1.514   6.300   0.859  2.0954 -1.1858  0.5651
 6138TIP3   OH218370   8.221   3.098   0.611 -0.2139 -0.0526  0.7391
 6138TIP3    H118371   8.245   3.084   0.519  1.6885 -1.8322  1.4513
 6138TIP3    H218372   8.146   3.040   0.625 -0.0937 -0.2679  0.4934
 6139TIP3   OH218373   6.337   3.590   1.351 -0.6312 -0.0057 -0.4347
 6139TIP3    H118374   6.290   3.659   1.399  1.3588  0.2633  1.2581
 6139TIP3    H218375   6.333   3.514   1.409 -1.3452 -0.8327 -1.5343
 6140TIP3   OH218376   5.434   3.396   5.417 -0.7973  0.2800 -0.6880
 6140TIP3    H118377   5.467   3.310   5.390  0.2524  0.4807 -0.1280
 6140TIP3    H218378   5.512   3.442   5.449 -1.4660  1.1740 -0.3008
 6141TIP3   OH218379   2.174   3.156   6.035 -0.0157 -0.2753 -0.2084
 6141TIP3    H118380   2.225   3.133   6.112 -0.4024 -0.7424 -0.0863
 6141TIP3    H218381   2.185   3.082   5.975 -0.3309 -0.2608 -0.2889
 6142TIP3   OH218382   5.410   3.885   6.670  0.2420  0.5344 -0.0360
 6142TIP3    H118383   5.438   3.800   6.705 -0.0319 -0.1678 -1.4398
 6142TIP3    H218384   5.440   3.884   6.580  1.7257  2.6734  0.3796
 6143TIP3   OH218385   6.209   3.067   2.271 -0.1066  0.3593  0.7470
 6143TIP3    H118386   6.248   3.146   2.308  0.3530 -0.8365  3.0084
 6143TIP3    H218387   6.167   3.023   2.345 -2.0687 -0.5729 -0.8012
 6144TIP3   OH218388   7.452   0.954   4.430  0.5918  0.5500  0.3450
 6144TIP3    H118389   7.454   1.050   4.426 -0.0710  0.6418  1.6006
 6144TIP3    H218390   7.401   0.928   4.353 -1.1719  1.3610  1.1776
 6145TIP3   OH218391   2.213   0.927   0.754 -0.4408  0.8736 -0.5337
 6145TIP3    H118392   2.175   0.949   0.838  0.2266  2.1361 -0.5396
 6145TIP3    H218393   2.204   0.832   0.747 -1.8734  0.9339  0.2668
 6146TIP3   OH218394   7.741   6.114   1.878  0.6633 -0.2610 -0.7835
 6146TIP3    H118395   7.790   6.193   1.898 -0.7976  0.9284 -1.6964
 6146TIP3    H218396   7.676   6.141   1.812 -1.6679 -1.5520  0.8221
 6147TIP3   OH218397   5.238   5.758   4.494  0.4634 -0.2400 -0.0424
 6147TIP3    H118398   5.161   5.815   4.504  0.6605  0.1054 -0.4329
 6147TIP3    H218399   5.211   5.674   4.531 -0.9345 -0.8558 -2.2311
 6148TIP3   OH218400   1.555   5.009   2.734  0.1749 -0.0316  0.1046
 6148TIP3    H118401   1.565   4.969   2.821  2.3269  0.1143 -0.0046
 6148TIP3    H218402   1.629   5.071   2.729  0.7311 -0.8045 -2.2217
 6149TIP3   OH218403   1.470   0.191   3.108 -0.1074 -0.4382 -0.3786
 6149TIP3    H118404   1.496   0.099   3.099 -0.5736 -0.3979 -2.7261
 6149TIP3    H218405   1.540   0.241   3.066 -0.3184  0.2178  0.0261
 6150TIP3   OH218406   6.014   3.989   0.883 -0.4604  0.5430 -0.5270
 6150TIP3    H118407   6.090   4.009   0.827  0.9394 -0.1884  1.0312
 6150TIP3    H218408   6.010   3.893   0.884 -1.5300  0.5710 -0.7057
 6151TIP3   OH218409   5.495   1.562   2.124 -0.0050  0.0012  0.7930
 6151TIP3    H118410   5.551   1.511   2.183 -0.9545  0.2185  1.9065
 6151TIP3    H218411   5.417   1.508   2.112  0.6904 -0.6244 -1.3296
 6152TIP3   OH218412   5.604   4.889   3.980 -0.0969  0.4605 -0.0360
 6152TIP3    H118413   5.609   4.812   3.924  0.1488  1.7334 -1.8560
 6152TIP3    H218414   5.511   4.901   3.997 -0.6059  2.0829 -3.2745
 6153TIP3   OH218415   5.477   1.456   2.744 -0.0700 -0.0668 -0.4736
 6153TIP3    H118416   5.434   1.490   2.823 -0.4427  1.4739 -1.3140
 6153TIP3    H218417   5.513   1.371   2.772  0.7370  0.9028  1.6396
 6154TIP3   OH218418   3.932   1.928   4.743 -0.6424  0.4568  0.1378
 6154TIP3    H118419   3.966   1.982   4.814 -0.0015 -0.6661  0.7090
 6154TIP3    H218420   3.994   1.940   4.671 -1.8521  2.4173 -0.6467
 6155TIP3   OH218421   5.406   2.084   6.615  0.5191  0.5125  0.1808
 6155TIP3    H118422   5.449   2.168   6.607  1.4766 -0.0379 -0.7735
 6155TIP3    H218423   5.345   2.081   6.541  0.7611  0.2318 -0.0145
 6156TIP3   OH218424   5.256   4.874   1.535  0.1760  0.5143 -0.5994
 6156TIP3    H118425   5.289   4.947   1.483 -1.2632  0.7446 -1.2247
 6156TIP3    H218426   5.241   4.911   1.622  1.6899  0.3547 -0.2408
 6157TIP3   OH218427   8.188   1.627   6.231  0.0789 -0.4920 -0.0346
 6157TIP3    H118428   8.131   1.641   6.155 -1.2248 -0.7585  0.8769
 6157TIP3    H218429   8.221   1.714   6.252 -0.3741 -0.2585 -0.2672
 6158TIP3   OH218430   8.002   6.622   0.302 -0.3080 -1.0980  0.1167
 6158TIP3    H118431   8.091   6.591   0.321  0.0887  0.1415  0.3281
 6158TIP3    H218432   7.970   6.652   0.387  0.0317  0.8480 -0.4143
 6159TIP3   OH218433   3.549   1.326   0.677  0.4179 -0.2724 -0.0911
 6159TIP3    H118434   3.618   1.261   0.692  0.6160 -0.1542 -0.4628
 6159TIP3    H218435   3.471   1.288   0.716  0.8331 -0.1144  0.9097
 6160TIP3   OH218436   6.317   6.224   3.295 -0.0191  0.0611  0.4968
 6160TIP3    H118437   6.376   6.258   3.227  0.9194 -0.4057  1.0523
 6160TIP3    H218438   6.336   6.277   3.372  0.4736 -0.7959  0.9816
 6161TIP3   OH218439   6.329   5.048   4.112  0.5694 -0.4415  1.0337
 6161TIP3    H118440   6.285   5.060   4.196 -0.8777 -1.6329  0.4783
 6161TIP3    H218441   6.260   5.022   4.051  1.7318 -0.4946 -0.3344
 6162TIP3   OH218442   2.879   7.104   6.146  0.0239 -0.7146 -0.0065
 6162TIP3    H118443   2.891   7.198   6.156 -0.3153 -0.3251 -2.5812
 6162TIP3    H218444   2.785   7.092   6.135  0.1277 -1.2477 -0.3959
 6163TIP3   OH218445   4.914   5.061   1.870 -0.4108  0.0059  0.3485
 6163TIP3    H118446   4.965   5.121   1.925 -0.3251 -0.7111  1.0693
 6163TIP3    H218447   4.841   5.114   1.838 -0.2374  0.5440  0.8315
 6164TIP3   OH218448   5.651   1.702   6.748  0.1369 -0.6020  0.5099
 6164TIP3    H118449   5.681   1.615   6.721  2.3362  0.3178 -0.2478
 6164TIP3    H218450   5.665   1.704   6.842  0.6795 -0.8483  0.4371
 6165TIP3   OH218451   5.939   6.020   3.970  0.6309 -0.0979 -0.0839
 6165TIP3    H118452   5.865   6.017   3.910 -0.6795  0.5413  1.4218
 6165TIP3    H218453   5.954   6.113   3.987 -1.1246 -0.2119  2.9140
 6166TIP3   OH218454   4.554   0.138   1.354 -0.5733  0.2626 -0.4246
 6166TIP3    H118455   4.523   0.226   1.376  2.3069  1.5372 -0.8816
 6166TIP3    H218456   4.554   0.135   1.258  1.2814  0.6287 -0.4766
 6167TIP3   OH218457   1.976   5.574   2.390 -0.1309  0.3096  0.2029
 6167TIP3    H118458   2.052   5.618   2.429 -0.1931  0.5892  0.0088
 6167TIP3    H218459   1.988   5.482   2.412  0.2564  0.3557  0.1939
 6168TIP3   OH218460   2.604   0.286   3.347 -0.7796 -0.0081  0.1317
 6168TIP3    H118461   2.570   0.343   3.277  3.8237  0.1447 -2.4106
 6168TIP3    H218462   2.690   0.259   3.315 -0.0699 -3.3301  4.0963
 6169TIP3   OH218463   7.602   7.384   3.372  0.1879  0.0651 -0.5264
 6169TIP3    H118464   7.597   7.378   3.276 -1.1405  0.1689 -0.4806
 6169TIP3    H218465   7.576   7.298   3.403  1.6501 -0.3086 -0.2500
 6170TIP3   OH218466   2.407   4.463   1.816 -0.3793  0.3221 -0.2823
 6170TIP3    H118467   2.339   4.431   1.875 -0.5342 -0.2981 -0.7954
 6170TIP3    H218468   2.370   4.454   1.729 -0.0466  0.9862 -0.4963
 6171TIP3   OH218469   1.824   1.340   4.834  0.5656 -0.1849  0.1068
 6171TIP3    H118470   1.829   1.432   4.858 -1.5958 -0.0493  0.2505
 6171TIP3    H218471   1.827   1.293   4.918 -0.7785 -0.0767  0.2322
 6172TIP3   OH218472   3.115   4.447   2.215  0.5614 -0.3791  0.2681
 6172TIP3    H118473   3.082   4.449   2.125  0.7017  0.6926  0.2364
 6172TIP3    H218474   3.171   4.369   2.218  0.7894 -0.2628 -0.6611
 6173TIP3   OH218475   6.825   4.564   2.013 -0.2138  0.3459 -0.3217
 6173TIP3    H118476   6.897   4.505   2.038 -0.4507 -0.1588 -0.8083
 6173TIP3    H218477   6.860   4.617   1.942  0.0126  0.8252  0.1432
 6174TIP3   OH218478   1.800   1.113   5.979  1.0632 -0.4034  0.0280
 6174TIP3    H118479   1.830   1.110   5.888 -0.8047 -1.3224 -0.6282
 6174TIP3    H218480   1.749   1.193   5.985 -2.8979 -2.5241 -1.2884
 6175TIP3   OH218481   0.407   1.676   0.421  0.0752 -0.0436 -0.7181
 6175TIP3    H118482   0.443   1.678   0.332  1.4341  0.4979 -0.1827
 6175TIP3    H218483   0.477   1.639   0.474 -0.4117  0.4245  0.2715
 6176TIP3   OH218484   1.445   4.635   2.764 -0.2277 -0.3545  0.1780
 6176TIP3    H118485   1.424   4.632   2.670 -0.6719  0.1013  0.2628
 6176TIP3    H218486   1.433   4.545   2.794  0.0724 -0.5354 -0.2367
 6177TIP3   OH218487   4.129   2.735   1.379  0.0668  0.5541  0.0272
 6177TIP3    H118488   4.035   2.741   1.393  0.1355  0.3996  0.5897
 6177TIP3    H218489   4.139   2.666   1.314 -0.1318 -0.5508  1.1297
 6178TIP3   OH218490   3.959   1.237   3.619 -0.3847 -0.3663  0.4397
 6178TIP3    H118491   3.914   1.157   3.646  0.8181 -0.7864  1.2927
 6178TIP3    H218492   4.052   1.217   3.629 -0.0549  1.1477  0.6820
 6179TIP3   OH218493   2.429   5.147   2.515  0.0954 -0.4458 -0.0488
 6179TIP3    H118494   2.519   5.113   2.518 -0.2016 -1.2843 -0.3522
 6179TIP3    H218495   2.406   5.160   2.607  0.7179  0.3233  0.0139
 6180TIP3   OH218496   4.115   7.634   5.023  0.1845  0.3886 -0.0197
 6180TIP3    H118497   4.094   7.548   4.986  1.5471 -0.1310  0.3496
 6180TIP3    H218498   4.142   7.687   4.948 -1.0340  0.6347 -0.3018
 6181TIP3   OH218499   5.865   2.223   5.363 -0.0502 -0.0394 -0.3490
 6181TIP3    H118500   5.816   2.299   5.393 -0.3537 -0.6304  0.7497
 6181TIP3    H218501   5.800   2.152   5.363  0.0963 -0.1972 -1.8786
 6182TIP3   OH218502   7.876   2.418   6.659 -0.1034 -0.0397  0.1892
 6182TIP3    H118503   7.829   2.478   6.716 -0.6995 -0.7641  0.4833
 6182TIP3    H218504   7.820   2.408   6.582  0.3906  0.4281 -0.2387
 6183TIP3   OH218505   6.789   2.639   4.333 -0.3718 -0.0948  0.5585
 6183TIP3    H118506   6.813   2.644   4.425 -0.9381 -0.0082  0.7063
 6183TIP3    H218507   6.719   2.573   4.330  0.0039 -0.4787  0.1139
 6184TIP3   OH218508   5.851   2.283   5.869 -0.5204  0.3581  0.6589
 6184TIP3    H118509   5.863   2.273   5.964 -0.1100  0.0854  0.5792
 6184TIP3    H218510   5.765   2.325   5.860 -0.2476  1.0486  1.1797
 6185TIP3   OH218511   4.498   0.162   6.604 -0.5104 -0.2475 -0.3106
 6185TIP3    H118512   4.488   0.069   6.583  2.0371 -0.1995 -2.2037
 6185TIP3    H218513   4.431   0.205   6.551  1.8244 -0.6852 -4.0442
 6186TIP3   OH218514   3.810   4.102   2.664 -0.2364 -0.2070 -0.0482
 6186TIP3    H118515   3.849   4.168   2.721 -0.0311 -0.4431  0.0819
 6186TIP3    H218516   3.830   4.133   2.575 -0.3337  0.0217  0.0067
 6187TIP3   OH218517   7.302   6.137   5.134  0.6039  0.3252  0.2213
 6187TIP3    H118518   7.347   6.181   5.062 -1.1253  0.9559 -0.5174
 6187TIP3    H218519   7.253   6.067   5.092  0.3952  0.0317  0.9378
 6188TIP3   OH218520   5.915   6.465   1.039 -0.4836 -0.6331 -0.5827
 6188TIP3    H118521   5.935   6.444   0.948 -1.0322  0.4081 -0.9499
 6188TIP3    H218522   5.840   6.409   1.061 -0.3738 -0.8551 -0.7735
 6189TIP3   OH218523   6.589   5.348   4.808 -0.1005  0.7028 -0.3113
 6189TIP3    H118524   6.562   5.347   4.716  1.2205 -0.2070 -0.7130
 6189TIP3    H218525   6.682   5.328   4.806 -0.2797 -0.5348  1.3039
 6190TIP3   OH218526   7.380   2.882   3.174 -0.2300 -0.0218 -0.0682
 6190TIP3    H118527   7.326   2.948   3.216  0.7662 -0.4611  2.0229
 6190TIP3    H218528   7.347   2.799   3.207 -1.2636 -0.6459 -2.4261
 6191TIP3   OH218529   1.670   2.355   6.331  0.8517  0.2231 -0.5974
 6191TIP3    H118530   1.684   2.430   6.272  0.6998  0.0434 -0.8633
 6191TIP3    H218531   1.583   2.323   6.309  1.2730 -0.5931 -1.1131
 6192TIP3   OH218532   0.434   6.742   5.110 -0.4632  0.8367  0.1813
 6192TIP3    H118533   0.399   6.709   5.027 -1.6771 -1.1976  1.4191
 6192TIP3    H218534   0.528   6.748   5.095 -0.2795 -2.1163 -0.6101
 6193TIP3   OH218535   6.246   5.171   6.001 -0.5338 -0.8205 -0.2726
 6193TIP3    H118536   6.171   5.212   5.958  0.3145  0.3501 -0.6842
 6193TIP3    H218537   6.224   5.078   6.003 -2.0487 -0.5028 -0.2716
 6194TIP3   OH218538   2.933   6.394   3.772  0.4489  0.2800 -0.1385
 6194TIP3    H118539   2.974   6.423   3.853  0.6404  0.5865 -0.3411
 6194TIP3    H218540   2.933   6.472   3.716 -1.3605  0.5706  0.2179
 6195TIP3   OH218541   7.876   4.980   1.085 -0.1332 -0.2134  0.5632
 6195TIP3    H118542   7.888   5.049   1.150  0.9536  1.3027 -1.1427
 6195TIP3    H218543   7.795   5.003   1.040 -1.6438 -2.0225  2.1779
 6196TIP3   OH218544   4.145   2.393   6.706 -0.4712  0.4339 -0.1989
 6196TIP3    H118545   4.137   2.428   6.795  0.3969 -0.6158  0.3128
 6196TIP3    H218546   4.124   2.467   6.649  0.8336  1.6531  0.8524
 6197TIP3   OH218547   8.132   4.439   5.964  0.2387  0.2367 -0.5442
 6197TIP3    H118548   8.069   4.461   6.032  1.2107 -0.2639  0.5466
 6197TIP3    H218549   8.161   4.524   5.930 -1.2096  0.4726 -1.2794
 6198TIP3   OH218550   4.091   2.259   6.278 -0.1478  0.3171 -0.2072
 6198TIP3    H118551   4.151   2.200   6.231  0.3190 -0.8674  1.7325
 6198TIP3    H218552   4.004   2.228   6.253  0.0793  0.0052 -0.6396
 6199TIP3   OH218553   3.876   0.711   1.661 -0.1363  0.0641  0.2188
 6199TIP3    H118554   3.823   0.749   1.731  1.5098  1.6444  0.7043
 6199TIP3    H218555   3.877   0.617   1.679  0.5529  0.4494  2.6044
 6200TIP3   OH218556   5.354   5.275   3.338 -0.1860 -0.3752 -0.3665
 6200TIP3    H118557   5.351   5.245   3.247  0.6216 -0.1059 -0.4877
 6200TIP3    H218558   5.298   5.353   3.339 -1.6400 -1.3851 -0.2245
 6201TIP3   OH218559   1.654   5.996   4.806  0.4089 -0.2079  0.6001
 6201TIP3    H118560   1.665   5.975   4.899  1.7065 -1.6330  0.1720
 6201TIP3    H218561   1.741   6.023   4.777 -0.4043  2.2402  0.2168
 6202TIP3   OH218562   5.566   0.938   0.272  0.4385  0.9713  0.1209
 6202TIP3    H118563   5.484   0.964   0.232  0.1717  0.3076  0.2103
 6202TIP3    H218564   5.633   0.991   0.229  0.3046 -0.4899 -2.0275
 6203TIP3   OH218565   0.542   0.002   4.388 -0.2157  0.1373 -0.1473
 6203TIP3    H118566   0.610  -0.045   4.338  0.5908 -0.2154  1.2360
 6203TIP3    H218567   0.543   0.090   4.351 -0.2411 -0.3282 -1.3250
 6204TIP3   OH218568   0.265   2.866   5.996 -0.0761  0.4827 -0.2697
 6204TIP3    H118569   0.214   2.793   5.961  1.5012 -1.0057  0.3603
 6204TIP3    H218570   0.247   2.939   5.938 -1.8277 -0.3552 -0.8477
 6205TIP3   OH218571   3.771   6.026   3.521  0.2881 -0.0152  0.5283
 6205TIP3    H118572   3.701   6.069   3.571 -1.9314 -0.8652 -1.6461
 6205TIP3    H218573   3.818   6.098   3.480  0.3894  0.5592  1.6204
 6206TIP3   OH218574   1.477   1.824   3.202 -0.6161  0.2218 -0.3749
 6206TIP3    H118575   1.431   1.749   3.238 -2.2460  2.0595  1.6472
 6206TIP3    H218576   1.566   1.816   3.236 -0.9245 -0.4882  0.2861
 6207TIP3   OH218577   0.105   2.230   4.530  0.2773 -0.2134  0.5763
 6207TIP3    H118578   0.066   2.317   4.535  1.5649  0.3173  2.2466
 6207TIP3    H218579   0.193   2.241   4.565  1.1890 -1.8101 -1.0792
 6208TIP3   OH218580   8.051   1.082   6.411  0.0246  0.0986  0.1529
 6208TIP3    H118581   8.081   1.146   6.476  0.7553  1.3082 -1.3015
 6208TIP3    H218582   8.077   0.997   6.447 -1.8613  0.4531  2.6236
 6209TIP3   OH218583   6.658   7.185   2.717  0.4240  0.2436  0.2387
 6209TIP3    H118584   6.582   7.149   2.762  0.9704 -1.1128  0.0989
 6209TIP3    H218585   6.728   7.122   2.731  1.3319  1.0914 -0.2851
 6210TIP3   OH218586   2.422   5.054   6.421  0.1167  0.0259 -0.3491
 6210TIP3    H118587   2.435   5.105   6.342  0.6978  0.1856 -0.1564
 6210TIP3    H218588   2.360   5.105   6.473  0.5741  0.4582 -0.2257
 6211TIP3   OH218589   6.282   1.257   5.425 -0.2588  0.1773  0.7387
 6211TIP3    H118590   6.312   1.346   5.407 -1.5739  0.5595  0.3837
 6211TIP3    H218591   6.358   1.214   5.464  0.5887  1.2676  0.3393
 6212TIP3   OH218592   7.652   2.271   5.081  0.1138 -0.0259 -0.2318
 6212TIP3    H118593   7.698   2.210   5.139  0.8722  1.6165  0.9890
 6212TIP3    H218594   7.705   2.273   5.001  0.0314 -1.0078 -0.3165
 6213TIP3   OH218595   4.829   4.257   4.773 -0.1921 -0.1396  0.5660
 6213TIP3    H118596   4.907   4.243   4.827 -1.1156 -0.4737  1.8606
 6213TIP3    H218597   4.826   4.352   4.760  0.3812 -0.1178  0.5710
 6214TIP3   OH218598   4.309   1.690   1.088 -0.6229  0.3778 -0.1161
 6214TIP3    H118599   4.271   1.686   1.001 -0.2875  1.0916 -0.3081
 6214TIP3    H218600   4.382   1.627   1.086 -0.7281  0.2619 -0.2902
 6215TIP3   OH218601   3.125   6.112   0.308 -0.8095  0.2717  0.1901
 6215TIP3    H118602   3.167   6.131   0.224  0.9563 -0.4833  0.8558
 6215TIP3    H218603   3.185   6.145   0.374 -0.4476 -2.2135  1.2237
 6216TIP3   OH218604   7.261   7.064   5.312  0.1998 -0.2875  0.2584
 6216TIP3    H118605   7.283   6.976   5.341 -2.1093 -1.3242 -0.8793
 6216TIP3    H218606   7.201   7.051   5.238  0.9951  2.2470 -0.9574
 6217TIP3   OH218607   7.213   0.178   3.723 -0.8691  0.5330 -0.0641
 6217TIP3    H118608   7.210   0.091   3.684  0.1755  0.9154 -1.0247
 6217TIP3    H218609   7.159   0.232   3.665 -0.8904  0.6890  0.0995
 6218TIP3   OH218610   8.172   7.351   4.195  0.2125 -0.2222 -0.2745
 6218TIP3    H118611   8.199   7.321   4.281  0.7618 -1.3364 -0.8089
 6218TIP3    H218612   8.197   7.443   4.192  0.1114 -0.1570  0.7752
 6219TIP3   OH218613   5.842   7.136   1.400 -0.1590 -0.3416 -0.0033
 6219TIP3    H118614   5.891   7.217   1.384  0.3318 -0.9572 -1.8974
 6219TIP3    H218615   5.809   7.146   1.489  1.0932  1.3050  0.3438
 6220TIP3   OH218616   7.073   2.270   4.885 -0.0666 -0.5027  0.0880
 6220TIP3    H118617   7.168   2.267   4.897 -0.3249 -3.2850  2.3148
 6220TIP3    H218618   7.037   2.256   4.972 -2.6556  2.7578 -0.2527
 6221TIP3   OH218619   7.258   4.697   1.299 -0.7978 -0.3554 -0.2476
 6221TIP3    H118620   7.170   4.668   1.323 -2.5067  1.8147 -3.2279
 6221TIP3    H218621   7.263   4.681   1.205  1.6313  0.5847 -0.3539
 6222TIP3   OH218622   3.639   1.406   0.093 -0.0968  0.4678 -0.1266
 6222TIP3    H118623   3.545   1.409   0.110  0.0644  1.0021  0.7678
 6222TIP3    H218624   3.657   1.485   0.043 -0.4358 -0.6857 -2.1713
 6223TIP3   OH218625   4.228   7.404   6.236 -0.5561 -0.0609  0.3181
 6223TIP3    H118626   4.204   7.460   6.161  0.7657 -0.4991 -0.4668
 6223TIP3    H218627   4.281   7.334   6.198  2.0141  0.8854  1.9032
 6224TIP3   OH218628   7.923   4.562   1.062  0.2079  0.0704 -0.1183
 6224TIP3    H118629   7.844   4.609   1.088 -0.6459 -0.3692 -1.8300
 6224TIP3    H218630   7.968   4.544   1.145 -0.9488  1.2314  0.8026
 6225TIP3   OH218631   2.917   4.537   1.804 -0.7260  0.2444  0.2965
 6225TIP3    H118632   2.943   4.475   1.871 -1.8669  0.0575  0.5783
 6225TIP3    H218633   2.826   4.559   1.824 -1.3845 -0.4383 -1.6295
 6226TIP3   OH218634   2.084   5.605   3.830 -0.2409 -0.0840  0.1377
 6226TIP3    H118635   2.033   5.678   3.866  0.9053 -0.1184  1.9492
 6226TIP3    H218636   2.027   5.529   3.839 -0.6084  0.2062  0.2892
 6227TIP3   OH218637   4.917   0.034   5.422  0.6464  0.3201 -0.2505
 6227TIP3    H118638   4.823   0.045   5.406  0.8162  1.0763 -0.7629
 6227TIP3    H218639   4.937   0.097   5.492  0.6346 -0.3825  0.4066
 6228TIP3   OH218640   5.696   3.267   6.199 -0.1141  0.1877 -0.0589
 6228TIP3    H118641   5.655   3.184   6.173 -1.2505  1.1000 -1.3530
 6228TIP3    H218642   5.668   3.279   6.290 -1.0610 -0.2107 -0.2788
 6229TIP3   OH218643   1.801   0.980   3.902 -0.1553  0.5328 -0.3168
 6229TIP3    H118644   1.763   0.911   3.847  0.3996 -1.1153  1.2989
 6229TIP3    H218645   1.811   0.940   3.988 -0.8589  2.9975  0.9995
 6230TIP3   OH218646   6.953   4.010   2.097  0.3607 -0.2907  0.2667
 6230TIP3    H118647   6.870   3.969   2.121  0.6104 -0.9650  0.0017
 6230TIP3    H218648   7.017   3.967   2.154  0.8316 -1.2829 -0.9680
 6231TIP3   OH218649   3.262   5.382   2.811 -0.2396  0.1871  0.5631
 6231TIP3    H118650   3.196   5.406   2.877 -0.4177  0.9201  0.1374
 6231TIP3    H218651   3.318   5.460   2.804 -0.7599  0.4733 -0.7754
 6232TIP3   OH218652   8.107   2.271   6.366 -0.1323 -0.0980  0.1858
 6232TIP3    H118653   8.038   2.325   6.328 -0.6227  0.2663  1.5555
 6232TIP3    H218654   8.178   2.333   6.383 -0.4506  0.0130  1.1543
 6233TIP3   OH218655   2.844   3.236   2.830 -0.0196 -0.3605 -0.0149
 6233TIP3    H118656   2.765   3.201   2.871 -0.1532  0.8631  0.8159
 6233TIP3    H218657   2.895   3.274   2.902  1.9414 -2.1655 -0.3353
 6234TIP3   OH218658   7.911   3.783   3.866  0.5529 -0.1968  0.1691
 6234TIP3    H118659   7.873   3.732   3.794 -0.0854 -0.5882  0.7691
 6234TIP3    H218660   7.894   3.874   3.843  0.0252 -0.3341  0.0011
 6235TIP3   OH218661   6.329   1.508   3.584 -0.4684  0.0797 -0.3917
 6235TIP3    H118662   6.266   1.550   3.643 -2.2339  0.1942 -2.2440
 6235TIP3    H218663   6.370   1.581   3.537 -1.7769 -0.0813 -1.8786
 6236TIP3   OH218664   6.881   0.852   5.495 -0.3346  0.0686 -0.0011
 6236TIP3    H118665   6.786   0.840   5.494 -0.3578  0.3163 -0.6067
 6236TIP3    H218666   6.902   0.864   5.588 -0.6849 -1.6707  0.3422
 6237TIP3   OH218667   0.194   2.410   2.874 -0.3835  0.1176  0.4691
 6237TIP3    H118668   0.238   2.448   2.798 -1.0053  0.6210  0.3508
 6237TIP3    H218669   0.253   2.429   2.948  0.9819 -1.7059 -0.0698
 6238TIP3   OH218670   3.189   3.089   4.538 -0.4941 -0.5540  0.0824
 6238TIP3    H118671   3.284   3.089   4.546 -0.5986 -1.3983  2.1390
 6238TIP3    H218672   3.171   3.131   4.454  1.7271 -1.5478 -0.9593
 6239TIP3   OH218673   4.868   5.607   2.784  0.0228 -0.1163 -0.7206
 6239TIP3    H118674   4.890   5.689   2.738  0.4765 -0.1532 -0.5733
 6239TIP3    H218675   4.777   5.619   2.812  0.8056  1.3685  1.4558
 6240TIP3   OH218676   8.249   6.270   3.942  0.3174 -0.2266 -0.0543
 6240TIP3    H118677   8.193   6.345   3.923 -0.4639 -0.8973 -0.4963
 6240TIP3    H218678   8.330   6.288   3.896  0.6920  1.0234  1.0412
 6241TIP3   OH218679   8.077   6.318   5.648 -0.2437 -0.3917  0.1903
 6241TIP3    H118680   8.047   6.311   5.557  0.0818  0.2342  0.0310
 6241TIP3    H218681   8.172   6.328   5.641 -0.3897  1.4595  0.5050
 6242TIP3   OH218682   3.985   4.279   5.885 -0.3258  0.0405  0.5069
 6242TIP3    H118683   3.895   4.249   5.892  0.2245 -1.3126  3.6092
 6242TIP3    H218684   4.030   4.210   5.837 -0.7822  0.3279 -0.3389
 6243TIP3   OH218685   6.042   4.009   0.196 -0.2416  0.1649 -0.5533
 6243TIP3    H118686   5.950   4.001   0.223 -0.2739 -0.0784 -0.7278
 6243TIP3    H218687   6.091   3.965   0.265 -0.1460  1.4120  0.1999
 6244TIP3   OH218688   1.236   6.108   1.063 -0.5360 -0.0912  0.3179
 6244TIP3    H118689   1.319   6.064   1.045 -1.1398 -0.6490 -1.2016
 6244TIP3    H218690   1.257   6.202   1.061  0.1853 -0.2381  0.6942
 6245TIP3   OH218691   3.574   0.829   4.393 -0.1781 -0.2675 -0.0602
 6245TIP3    H118692   3.555   0.901   4.454  2.0665 -1.2852  1.9931
 6245TIP3    H218693   3.608   0.873   4.315  1.3001  0.9602  1.2003
 6246TIP3   OH218694   5.387   7.350   5.015 -0.0941  0.0148 -0.1695
 6246TIP3    H118695   5.354   7.312   5.097  0.7227 -1.0699 -0.3133
 6246TIP3    H218696   5.354   7.291   4.947 -1.2807  1.2535 -0.6955
 6247TIP3   OH218697   5.938   5.057   4.286  0.1549 -0.9813  0.4516
 6247TIP3    H118698   5.911   5.147   4.267  0.6519 -1.2214 -1.6318
 6247TIP3    H218699   5.984   5.063   4.370  2.5644  1.2488 -0.8860
 6248TIP3   OH218700   7.129   2.242   4.582 -0.1788 -0.0317 -0.0323
 6248TIP3    H118701   7.199   2.200   4.532  0.6598  0.8084  0.4063
 6248TIP3    H218702   7.148   2.220   4.674  0.7173  1.8728  0.2831
 6249TIP3   OH218703   2.357   3.436   5.153  0.4405 -0.4563 -0.1094
 6249TIP3    H118704   2.353   3.467   5.244 -0.6658  2.0923 -0.9356
 6249TIP3    H218705   2.305   3.356   5.152  0.2659 -0.3921  1.4485
 6250TIP3   OH218706   2.246   5.438   1.482  0.4132  0.0833 -0.4298
 6250TIP3    H118707   2.227   5.357   1.436 -0.0073 -0.6750  1.0166
 6250TIP3    H218708   2.175   5.447   1.546  0.2162  1.8198 -0.8394
 6251TIP3   OH218709   3.498   2.568   3.710  0.5082 -0.4722  0.3434
 6251TIP3    H118710   3.574   2.623   3.696 -0.7594  1.5454  0.8750
 6251TIP3    H218711   3.522   2.512   3.784  1.9075 -0.7958 -0.3326
 6252TIP3   OH218712   1.887   6.040   1.613 -0.1257 -0.2006  0.4141
 6252TIP3    H118713   1.814   6.080   1.565 -0.8134 -0.1431  1.4686
 6252TIP3    H218714   1.879   6.075   1.702  1.5699  0.2764  0.3998
 6253TIP3   OH218715   7.097   0.366   4.840 -0.2904  0.7549 -0.3327
 6253TIP3    H118716   7.172   0.306   4.831  0.0579  1.0768  0.3645
 6253TIP3    H218717   7.033   0.334   4.776 -1.1293 -1.8783  1.6636
 6254TIP3   OH218718   2.295   1.408   0.173  0.3620 -0.8067  0.1251
 6254TIP3    H118719   2.218   1.396   0.117 -0.4560  1.4172  0.6602
 6254TIP3    H218720   2.276   1.356   0.251  0.0249 -1.3460 -0.3089
 6255TIP3   OH218721   4.551   5.512   5.577  0.5190 -0.1771 -0.3573
 6255TIP3    H118722   4.582   5.600   5.597  1.7302 -0.8554  0.8838
 6255TIP3    H218723   4.630   5.460   5.565 -0.1186 -1.5668  1.0953
 6256TIP3   OH218724   4.559   4.048   6.272  0.6194  0.2622 -0.1033
 6256TIP3    H118725   4.604   3.967   6.296  0.3809  0.2246  0.2236
 6256TIP3    H218726   4.480   4.049   6.327 -0.0278  0.0943 -1.0032
 6257TIP3   OH218727   6.810   6.526   4.696  0.4909  0.0308 -0.0582
 6257TIP3    H118728   6.877   6.460   4.715  0.0797 -0.3746 -0.0038
 6257TIP3    H218729   6.735   6.499   4.748 -0.3290 -0.5586 -1.4743
 6258TIP3   OH218730   6.633   3.007   2.503 -0.0252  0.2472  0.2890
 6258TIP3    H118731   6.541   2.997   2.528  0.2971 -1.0252  1.0695
 6258TIP3    H218732   6.652   3.100   2.517 -0.6562  0.1419  2.0929
 6259TIP3   OH218733   6.568   3.736   1.252 -0.1215  0.0854  0.3995
 6259TIP3    H118734   6.558   3.829   1.273  2.0643  0.0202  2.0460
 6259TIP3    H218735   6.506   3.692   1.310 -0.9369  0.4597 -0.1625
 6260TIP3   OH218736   8.011   4.071   4.480 -0.4189  0.1287 -0.0541
 6260TIP3    H118737   8.077   4.066   4.549 -0.3336 -1.8106 -0.2128
 6260TIP3    H218738   8.032   3.997   4.422 -2.3128 -0.1191 -0.4789
 6261TIP3   OH218739   7.696   6.039   2.669 -0.7753  0.2035 -0.1886
 6261TIP3    H118740   7.717   6.131   2.653  0.1838 -0.4806 -3.6398
 6261TIP3    H218741   7.740   6.018   2.752  2.2259  1.9357 -1.2005
 6262TIP3   OH218742   2.477   2.015   3.742  0.2856  0.1010  0.1526
 6262TIP3    H118743   2.399   1.997   3.793  0.4678 -0.8266  0.1137
 6262TIP3    H218744   2.474   2.110   3.726 -1.2851 -0.0400 -0.5934
 6263TIP3   OH218745   6.458   7.486   2.153  0.0443  0.2377  0.1788
 6263TIP3    H118746   6.370   7.523   2.147 -0.2351 -0.2588  0.9546
 6263TIP3    H218747   6.484   7.469   2.062 -1.3074 -1.0603 -0.0111
 6264TIP3   OH218748   0.372   4.979   6.536 -0.0436  0.2508  0.1312
 6264TIP3    H118749   0.314   5.033   6.590 -2.3067 -0.7622 -1.1590
 6264TIP3    H218750   0.319   4.956   6.459  2.1339 -0.6366 -1.1895
 6265TIP3   OH218751   1.660   0.359   2.693  0.4309  0.1022  0.1793
 6265TIP3    H118752   1.596   0.415   2.650 -1.1667 -2.6991 -1.3602
 6265TIP3    H218753   1.617   0.332   2.774  1.4866  1.5397  1.2781
 6266TIP3   OH218754   5.179   6.248   5.590 -0.0725 -0.9072 -0.2505
 6266TIP3    H118755   5.250   6.252   5.654 -0.1868 -0.7584 -0.1322
 6266TIP3    H218756   5.116   6.314   5.619  0.0694 -0.5443 -0.7512
 6267TIP3   OH218757   2.984   6.962   4.504  0.2758  0.2429  0.4020
 6267TIP3    H118758   2.942   7.041   4.539  0.3059 -0.0183  1.0471
 6267TIP3    H218759   2.957   6.959   4.412 -0.0719  0.7752  0.4825
 6268TIP3   OH218760   6.592   6.277   3.120 -0.0359 -0.1725 -0.0116
 6268TIP3    H118761   6.675   6.321   3.102  0.6476 -2.0966 -1.9617
 6268TIP3    H218762   6.528   6.322   3.066 -0.0938  0.6796  0.7430
 6269TIP3   OH218763   6.682   6.822   0.519 -0.5765 -0.1954  0.5133
 6269TIP3    H118764   6.592   6.838   0.490 -0.8503 -0.6777  1.0655
 6269TIP3    H218765   6.672   6.792   0.610  0.2346  1.0801  1.0467
 6270TIP3   OH218766   2.920   0.586   5.341 -0.1062  0.3266 -0.4983
 6270TIP3    H118767   2.892   0.548   5.424  1.4051  0.5400  0.1369
 6270TIP3    H218768   2.846   0.639   5.313 -0.5081  0.5501  0.9030
 6271TIP3   OH218769   0.737   0.521   1.516  0.4282  0.3339 -0.3894
 6271TIP3    H118770   0.723   0.437   1.561 -0.3172  1.0026  0.6727
 6271TIP3    H218771   0.832   0.531   1.514  0.6359 -1.3251 -2.0930
 6272TIP3   OH218772   6.780   4.348   5.142 -0.4077 -0.3465  0.5686
 6272TIP3    H118773   6.856   4.339   5.201 -0.2392 -1.6639  0.1917
 6272TIP3    H218774   6.771   4.261   5.102 -0.6467  0.4570 -1.2000
 6273TIP3   OH218775   5.941   7.413   5.014  0.0491  0.4693 -0.0628
 6273TIP3    H118776   5.919   7.428   5.106  1.5042 -0.6076  0.5011
 6273TIP3    H218777   6.036   7.402   5.014 -0.2391 -4.4010 -0.8620
 6274TIP3   OH218778   2.635   1.106   2.561 -0.5424 -0.2877  0.0202
 6274TIP3    H118779   2.594   1.153   2.488 -0.5396 -0.3848 -0.0443
 6274TIP3    H218780   2.723   1.085   2.529  0.4139  1.9271  0.9773
 6275TIP3   OH218781   1.615   4.609   4.766 -0.5470 -0.1906 -0.0552
 6275TIP3    H118782   1.585   4.641   4.682 -0.3242  3.2809  1.0294
 6275TIP3    H218783   1.541   4.560   4.802 -1.1180 -0.5359 -1.6413
 6276TIP3   OH218784   2.700   2.639   2.995  0.1297 -0.0488 -0.1656
 6276TIP3    H118785   2.739   2.630   3.082  0.4337 -0.2520 -0.3216
 6276TIP3    H218786   2.607   2.622   3.009  0.1455  0.1246  0.1565
 6277TIP3   OH218787   1.879   2.375   3.154 -0.6301  0.3535 -0.0163
 6277TIP3    H118788   1.890   2.384   3.059  0.6125  0.5240  0.1393
 6277TIP3    H218789   1.857   2.463   3.184  2.2412  1.0416  0.2639
 6278TIP3   OH218790   0.790   1.904   0.633 -0.4080  0.1973 -0.1653
 6278TIP3    H118791   0.828   1.992   0.631 -0.5264  0.3027  1.3267
 6278TIP3    H218792   0.758   1.894   0.722 -1.4136 -0.9404 -0.6297
 6279TIP3   OH218793   3.767   1.904   5.482 -0.6115  0.3592 -0.0640
 6279TIP3    H118794   3.830   1.848   5.436  0.5930  0.4308  1.4070
 6279TIP3    H218795   3.791   1.993   5.456 -0.5108  0.3533  0.0082
 6280TIP3   OH218796   0.206   7.654   2.026  0.2056 -0.3063  0.0222
 6280TIP3    H118797   0.127   7.644   1.973  1.1678 -0.2201 -1.5026
 6280TIP3    H218798   0.278   7.653   1.962  1.3469  1.1534  1.1886
 6281TIP3   OH218799   2.810   5.075   3.989  0.3894  0.0446  0.3800
 6281TIP3    H118800   2.850   5.003   4.037 -0.6968 -0.7823  0.0658
 6281TIP3    H218801   2.884   5.118   3.945  0.8656 -1.9407 -0.8473
 6282TIP3   OH218802   1.846   5.132   6.504  0.0954 -0.6706 -0.3814
 6282TIP3    H118803   1.778   5.185   6.545 -1.1364 -0.7847 -2.1721
 6282TIP3    H218804   1.839   5.046   6.545 -2.4483 -1.3752 -2.0921
 6283TIP3   OH218805   5.102   5.637   0.701 -0.3721  1.0201 -0.0569
 6283TIP3    H118806   5.020   5.591   0.719  0.9134 -0.5659  2.3371
 6283TIP3    H218807   5.095   5.718   0.751 -0.9786  1.5405 -0.9533
 6284TIP3   OH218808   0.530   5.747   1.938  0.0390  0.0289  0.6764
 6284TIP3    H118809   0.540   5.842   1.931  2.2093 -0.1087  1.0961
 6284TIP3    H218810   0.464   5.735   2.006  0.3500  1.2305  1.2243
 6285TIP3   OH218811   4.557   5.283   4.921 -0.5045 -0.4975  0.2677
 6285TIP3    H118812   4.621   5.272   4.992 -1.1008 -1.1953  0.7107
 6285TIP3    H218813   4.484   5.330   4.962  0.2103  1.4112 -0.5428
 6286TIP3   OH218814   2.303   1.661   3.575  0.4083  0.1757 -0.5532
 6286TIP3    H118815   2.337   1.682   3.488  1.2036  1.0477 -0.0505
 6286TIP3    H218816   2.373   1.610   3.616  0.3811  0.4818 -0.1295
 6287TIP3   OH218817   5.077   2.793   2.376 -0.3968  0.2039 -0.4444
 6287TIP3    H118818   5.039   2.722   2.428 -2.2824  1.3384 -0.1473
 6287TIP3    H218819   5.131   2.842   2.438  0.2760 -0.5084 -0.4595
 6288TIP3   OH218820   4.780   2.883   4.938  0.0572  0.1956 -0.2059
 6288TIP3    H118821   4.743   2.925   5.016  1.0527  1.7114 -0.5192
 6288TIP3    H218822   4.827   2.807   4.972 -0.0029  0.5090  0.6072
 6289TIP3   OH218823   6.230   2.966   5.142  0.1692 -0.4029 -0.3514
 6289TIP3    H118824   6.209   2.886   5.093  2.8317 -2.2205  1.1820
 6289TIP3    H218825   6.221   2.941   5.234  0.4143  1.2717  0.1627
 6290TIP3   OH218826   6.262   2.883   0.768  0.0290 -0.0522  0.1901
 6290TIP3    H118827   6.170   2.866   0.789  0.5648 -0.7404  2.1784
 6290TIP3    H218828   6.288   2.953   0.827  0.3796  1.3525 -1.5336
 6291TIP3   OH218829   2.116   7.494   5.136  0.3478 -0.1714  0.8347
 6291TIP3    H118830   2.121   7.588   5.118  0.3815 -0.3603 -0.2117
 6291TIP3    H218831   2.046   7.486   5.201  0.0444  0.5400  0.6069
 6292TIP3   OH218832   6.454   5.526   2.079 -0.6132  0.5674 -0.2049
 6292TIP3    H118833   6.415   5.542   1.993  0.0809 -1.1606 -0.9070
 6292TIP3    H218834   6.525   5.463   2.061 -1.2277 -0.7916  1.7696
 6293TIP3   OH218835   4.856   7.453   3.238  0.7233  0.0562 -0.1021
 6293TIP3    H118836   4.856   7.369   3.283 -2.0306 -0.1939 -0.3705
 6293TIP3    H218837   4.932   7.450   3.180  1.6272 -1.5241  1.0848
 6294TIP3   OH218838   6.894   6.647   3.141 -0.1106 -0.4624 -0.1857
 6294TIP3    H118839   6.854   6.689   3.065 -0.3448  0.6773  0.5504
 6294TIP3    H218840   6.857   6.693   3.216 -0.5044 -2.0961  0.6675
 6295TIP3   OH218841   0.387   7.508   5.821  0.6212  0.1037  0.7251
 6295TIP3    H118842   0.444   7.573   5.779 -0.6798  2.4224  2.2997
 6295TIP3    H218843   0.413   7.509   5.913 -1.5160  0.8522  1.3893
 6296TIP3   OH218844   5.992   6.682   2.891  0.0325  0.3912 -0.1537
 6296TIP3    H118845   5.926   6.751   2.897  0.6543  0.8866  1.6356
 6296TIP3    H218846   5.969   6.621   2.961  1.6982  0.8204  0.8337
 6297TIP3   OH218847   5.926   1.602   0.082 -0.4564  0.0828 -0.4031
 6297TIP3    H118848   6.019   1.594   0.061  0.1055  0.5995  1.6700
 6297TIP3    H218849   5.912   1.695   0.096 -0.2426 -0.2843  3.2518
 6298TIP3   OH218850   4.642   5.932   4.806  0.3410 -0.0080  0.1134
 6298TIP3    H118851   4.734   5.945   4.826  0.5574 -2.9380  1.5855
 6298TIP3    H218852   4.638   5.930   4.710  1.7438  0.3312  0.0267
 6299TIP3   OH218853   8.109   5.556   4.220 -0.2689 -0.4960  0.4065
 6299TIP3    H118854   8.124   5.571   4.126 -0.3615 -1.5557  0.2075
 6299TIP3    H218855   8.014   5.558   4.229 -0.2316  0.9050  0.7259
 6300TIP3   OH218856   5.191   6.440   1.116 -0.1964  0.0322 -0.0924
 6300TIP3    H118857   5.265   6.483   1.158 -0.9197  0.9106  0.3304
 6300TIP3    H218858   5.172   6.495   1.040 -0.2762 -0.3097 -0.3221
 6301TIP3   OH218859   1.605   3.311   3.508 -0.2838 -0.0868  0.4329
 6301TIP3    H118860   1.606   3.356   3.424  0.5598  1.5220  1.2542
 6301TIP3    H218861   1.530   3.252   3.503  0.4098 -0.8807 -1.8505
 6302TIP3   OH218862   6.510   5.678   4.939 -0.0142 -0.2952 -0.6440
 6302TIP3    H118863   6.587   5.626   4.963 -0.5643 -1.4297 -1.2675
 6302TIP3    H218864   6.436   5.617   4.948 -0.8821  0.8449  0.2019
 6303TIP3   OH218865   5.742   0.679   5.477 -0.2218  0.1514 -0.2322
 6303TIP3    H118866   5.831   0.707   5.495 -0.9441  0.7197  3.0634
 6303TIP3    H218867   5.687   0.741   5.525 -2.5497  0.6332 -3.1884
 6304TIP3   OH218868   4.006   1.044   4.887  0.0610  0.2473 -0.6377
 6304TIP3    H118869   4.032   1.012   4.973  1.0378  0.5772 -0.7990
 6304TIP3    H218870   4.075   1.106   4.862 -0.3473  0.3605 -1.5384
 6305TIP3   OH218871   2.050   7.669   3.237 -0.6617  0.0482 -0.0664
 6305TIP3    H118872   2.105   7.733   3.190 -1.8915  1.5524  0.4581
 6305TIP3    H218873   1.963   7.680   3.198 -0.7705 -1.8370 -0.4328
 6306TIP3   OH218874   0.488   6.038   4.029 -0.2092 -0.0256  0.6282
 6306TIP3    H118875   0.474   5.995   4.113 -0.0873 -0.5509  0.3808
 6306TIP3    H218876   0.404   6.034   3.985  0.1530 -1.3180  0.0072
 6307TIP3   OH218877   3.746   2.487   5.078  0.3974  0.0944  0.7814
 6307TIP3    H118878   3.672   2.527   5.123  0.7125 -1.1147  2.4882
 6307TIP3    H218879   3.823   2.528   5.118  0.6757 -0.7324  1.1227
 6308TIP3   OH218880   4.562   2.983   0.474 -0.0403  0.1427  0.0417
 6308TIP3    H118881   4.577   2.935   0.392  0.9486 -0.9922  0.8537
 6308TIP3    H218882   4.557   3.074   0.447 -0.4937 -0.2729 -1.3824
 6309TIP3   OH218883   7.386   0.735   2.176 -0.3431  0.1500  0.2394
 6309TIP3    H118884   7.301   0.723   2.218 -0.7243 -1.2612 -0.8673
 6309TIP3    H218885   7.408   0.827   2.192 -2.8801  1.0336 -0.9014
 6310TIP3   OH218886   1.415   4.293   1.486  0.3480  0.2034 -0.4456
 6310TIP3    H118887   1.336   4.298   1.433  0.2597 -0.0458 -0.3388
 6310TIP3    H218888   1.456   4.211   1.461 -1.3790 -1.6330  2.1875
 6311TIP3   OH218889   1.467   4.160   0.649  0.2429 -0.3962  0.3755
 6311TIP3    H118890   1.456   4.181   0.556  0.5068 -1.4542  0.0924
 6311TIP3    H218891   1.379   4.143   0.681  0.3215 -2.2651 -0.2580
 6312TIP3   OH218892   8.310   0.455   3.823 -0.3181 -0.2231 -0.5124
 6312TIP3    H118893   8.246   0.507   3.872  1.1304  2.6523 -1.4448
 6312TIP3    H218894   8.269   0.441   3.738  0.1387  1.3869 -1.0203
 6313TIP3   OH218895   5.376   5.381   5.828  0.1861 -0.0950  0.1503
 6313TIP3    H118896   5.452   5.429   5.795  1.1554 -1.8093 -0.2185
 6313TIP3    H218897   5.314   5.382   5.755  1.3099 -1.6938 -0.9067
 6314TIP3   OH218898   3.886   6.619   2.663 -0.5882 -0.2498  0.1012
 6314TIP3    H118899   3.807   6.605   2.715  0.1078 -0.4367  1.1455
 6314TIP3    H218900   3.958   6.604   2.724  0.2592  0.3862 -0.7052
 6315TIP3   OH218901   4.692   0.721   3.478  0.2892  0.5033  0.0102
 6315TIP3    H118902   4.689   0.813   3.507 -2.2292  0.5477 -0.1067
 6315TIP3    H218903   4.698   0.671   3.560  1.5990  0.7319  0.0792
 6316TIP3   OH218904   1.178   7.185   6.164 -0.1571  0.4205 -0.0177
 6316TIP3    H118905   1.208   7.094   6.154 -0.3575  0.4330 -0.8454
 6316TIP3    H218906   1.258   7.237   6.153 -0.1959  0.3812 -0.5109
 6317TIP3   OH218907   6.768   1.448   0.880  0.0391  0.1291 -0.3850
 6317TIP3    H118908   6.676   1.425   0.874  0.0612  0.4433 -3.2603
 6317TIP3    H218909   6.815   1.368   0.856  0.5424  0.0171  0.8949
 6318TIP3   OH218910   3.101   1.843   4.009 -0.3345  0.3118  0.2371
 6318TIP3    H118911   3.073   1.855   3.918  0.6529  2.0035  0.1170
 6318TIP3    H218912   3.156   1.765   4.007 -1.1575 -0.2708 -0.4033
 6319TIP3   OH218913   2.103   6.422   1.487  0.5868  0.2887 -0.6791
 6319TIP3    H118914   2.071   6.344   1.441  2.1833 -1.2559  0.6993
 6319TIP3    H218915   2.169   6.458   1.429  1.0416 -0.3777 -0.5799
 6320TIP3   OH218916   0.354   2.545   2.680 -0.2799 -0.0167 -0.2316
 6320TIP3    H118917   0.402   2.469   2.647 -0.3221  0.3079 -1.0571
 6320TIP3    H218918   0.361   2.610   2.610 -0.6542  0.5686  0.2673
 6321TIP3   OH218919   8.046   1.411   3.205  0.4401 -0.0618  0.4422
 6321TIP3    H118920   8.073   1.436   3.117 -0.2851  0.0024  0.2310
 6321TIP3    H218921   7.962   1.455   3.218  0.9107  0.5855  1.4730
 6322TIP3   OH218922   0.180   5.331   1.426 -0.0590 -0.2702 -0.0139
 6322TIP3    H118923   0.128   5.250   1.419 -1.6067  0.7659 -1.2947
 6322TIP3    H218924   0.182   5.365   1.337 -0.2967  1.6132  0.6722
 6323TIP3   OH218925   7.942   0.091   5.794 -0.3416 -0.0683 -0.0985
 6323TIP3    H118926   8.036   0.102   5.807 -0.6706  2.0192  0.8062
 6323TIP3    H218927   7.901   0.142   5.863 -2.1457  1.2727 -2.0194
 6324TIP3   OH218928   6.787   0.390   4.259 -0.2023  0.1351 -1.0128
 6324TIP3    H118929   6.880   0.397   4.279  0.1622 -0.3978 -2.4275
 6324TIP3    H218930   6.776   0.301   4.225 -1.5407 -0.3694  0.6124
 6325TIP3   OH218931   6.913   7.209   1.651 -0.3670  0.1692  0.3312
 6325TIP3    H118932   6.864   7.264   1.712  1.7782  2.7199 -0.0399
 6325TIP3    H218933   6.916   7.261   1.570  1.2145 -0.7833 -0.2698
 6326TIP3   OH218934   7.046   7.636   4.437 -0.0745 -0.5024  0.2295
 6326TIP3    H118935   6.990   7.696   4.487  0.9979  0.2692  0.5358
 6326TIP3    H218936   7.016   7.645   4.347 -0.6871 -0.3810  0.4433
 6327TIP3   OH218937   0.895   3.290   2.294 -0.1641 -0.5472 -0.1780
 6327TIP3    H118938   0.930   3.379   2.286 -1.1351 -0.3082 -2.3778
 6327TIP3    H218939   0.962   3.243   2.344  0.4830  1.3313  0.8512
 6328TIP3   OH218940   3.155   1.077   0.038  0.1166 -0.0022  0.1668
 6328TIP3    H118941   3.092   1.034   0.095 -0.4750 -1.5395 -1.5511
 6328TIP3    H218942   3.232   1.021   0.039  0.1377  0.0045 -0.4561
 6329TIP3   OH218943   0.609   0.523   4.870 -0.0306 -0.6194 -0.0558
 6329TIP3    H118944   0.649   0.556   4.950 -1.0865  0.0143  0.2320
 6329TIP3    H218945   0.624   0.429   4.872 -1.1328 -0.7868  1.5214
 6330TIP3   OH218946   7.362   1.819   3.067  0.2731  0.1956  0.2585
 6330TIP3    H118947   7.315   1.788   2.990  0.0725 -0.5000  0.6492
 6330TIP3    H218948   7.302   1.803   3.140 -1.0553  4.0289  0.2602
 6331TIP3   OH218949   2.811   1.944   5.465  0.0477  0.4476 -0.3492
 6331TIP3    H118950   2.842   1.999   5.393  0.3911 -0.0543 -0.5891
 6331TIP3    H218951   2.865   1.969   5.539  0.6814 -0.0505 -0.6345
 6332TIP3   OH218952   7.742   5.523   0.147 -0.4529  0.9736  0.2276
 6332TIP3    H118953   7.806   5.561   0.087  0.9817 -1.1698  0.2683
 6332TIP3    H218954   7.793   5.466   0.204 -2.0151  1.6771  2.4400
 6333TIP3   OH218955   5.609   5.025   4.900  0.6975 -0.7760 -0.0151
 6333TIP3    H118956   5.633   5.116   4.884  1.1315 -1.0368 -0.9732
 6333TIP3    H218957   5.534   5.009   4.842 -1.4211 -0.1861  2.4026
 6334TIP3   OH218958   6.648   7.773   4.797 -0.5004  0.0127  0.0748
 6334TIP3    H118959   6.645   7.725   4.715 -1.2947  0.9522 -0.4676
 6334TIP3    H218960   6.691   7.856   4.775  0.4744 -0.2495  0.9020
 6335TIP3   OH218961   2.943   5.659   3.079  0.6220 -0.4558 -0.4241
 6335TIP3    H118962   2.972   5.682   3.167 -0.7824 -1.4446  0.3330
 6335TIP3    H218963   2.927   5.743   3.036 -0.4475  0.0433  0.8882
 6336TIP3   OH218964   3.272   4.953   0.313 -0.1258  0.1991 -0.2706
 6336TIP3    H118965   3.183   4.984   0.295 -1.0942 -1.3606  1.4405
 6336TIP3    H218966   3.285   4.881   0.252  0.8184  1.6920 -1.9242
 6337TIP3   OH218967   8.126   3.949   5.993  0.1895 -0.5149  0.6736
 6337TIP3    H118968   8.131   4.033   5.946  0.2853 -1.3513 -0.8897
 6337TIP3    H218969   8.214   3.912   5.983 -0.5537 -1.9910 -1.0596
 6338TIP3   OH218970   0.992   7.210   5.451 -0.0868  0.3057  0.2996
 6338TIP3    H118971   0.912   7.159   5.442  0.4388 -0.4417 -0.2870
 6338TIP3    H218972   1.010   7.211   5.545 -1.1157  1.0276  0.5120
 6339TIP3   OH218973   7.612   4.338   3.469  0.2840 -0.6946  0.4305
 6339TIP3    H118974   7.675   4.352   3.398 -1.7612  0.5124 -1.2760
 6339TIP3    H218975   7.636   4.252   3.505  3.1719 -0.0863  0.2628
 6340TIP3   OH218976   5.971   6.147   1.595 -0.1545 -0.4605 -0.7017
 6340TIP3    H118977   6.030   6.105   1.533  0.3484 -0.9699  0.0966
 6340TIP3    H218978   5.955   6.234   1.559  1.3107 -0.2120 -0.8006
 6341TIP3   OH218979   2.773   5.539   4.741  0.0989 -0.1785  0.2546
 6341TIP3    H118980   2.721   5.475   4.790  0.4272  0.6600  1.7943
 6341TIP3    H218981   2.708   5.602   4.709  0.0580  0.6092  1.7695
 6342TIP3   OH218982   8.034   0.497   4.132  0.2859  0.3309 -0.0027
 6342TIP3    H118983   7.983   0.431   4.086 -0.4158  0.3860  0.6744
 6342TIP3    H218984   7.973   0.570   4.144 -0.3004 -0.5124  2.9459
 6343TIP3   OH218985   1.942   0.765   2.541 -0.4599  0.3164  0.2206
 6343TIP3    H118986   1.973   0.739   2.454  1.9473 -0.1242  1.1181
 6343TIP3    H218987   1.853   0.730   2.546 -0.1261 -0.9435 -1.5052
 6344TIP3   OH218988   8.297   4.247   4.598  0.1173 -0.0158  0.2803
 6344TIP3    H118989   8.308   4.229   4.505  0.8658  0.5646  0.2516
 6344TIP3    H218990   8.211   4.289   4.604 -0.1908 -0.5823 -0.0649
 6345TIP3   OH218991   6.187   5.558   1.601 -0.1841  0.0782 -0.6368
 6345TIP3    H118992   6.091   5.558   1.596 -0.2830  1.7914  0.3818
 6345TIP3    H218993   6.211   5.647   1.574  1.0063  0.2078  0.7858
 6346TIP3   OH218994   2.093   5.231   4.005  0.0123 -0.1972 -0.5491
 6346TIP3    H118995   2.140   5.212   4.087  0.6285  0.9516 -0.6180
 6346TIP3    H218996   2.154   5.284   3.954 -0.9080  0.3002 -1.1621
 6347TIP3   OH218997   2.691   7.743   5.475 -0.1389  0.0812 -0.2674
 6347TIP3    H118998   2.641   7.663   5.462 -0.1447 -0.0639  0.5962
 6347TIP3    H218999   2.711   7.773   5.387  0.0132 -0.9654 -0.6035
 6348TIP3   OH219000   5.074   3.198   1.709 -0.2493  0.0100 -1.2120
 6348TIP3    H119001   5.035   3.111   1.721  1.4614 -0.9446 -2.1302
 6348TIP3    H219002   5.010   3.246   1.656 -2.0035 -0.0478  0.7305
 6349TIP3   OH219003   6.336   1.397   0.397 -0.4115  0.2484  0.1194
 6349TIP3    H119004   6.356   1.479   0.352  0.3336 -1.0282 -2.0261
 6349TIP3    H219005   6.246   1.408   0.428 -1.6527  0.6422 -3.2180
 6350TIP3   OH219006   1.912   0.186   1.101  0.3754 -0.3199 -0.7389
 6350TIP3    H119007   1.972   0.241   1.052  1.4206 -0.0902  0.7323
 6350TIP3    H219008   1.957   0.102   1.109  1.0604  0.1814  1.3003
 6351TIP3   OH219009   0.819   0.214   1.878 -0.2547  0.4358 -0.2539
 6351TIP3    H119010   0.879   0.159   1.928  0.2695 -0.3447 -1.6838
 6351TIP3    H219011   0.736   0.206   1.923  0.2799  0.0353  0.6881
 6352TIP3   OH219012   5.682   6.909   5.099  0.5786  0.2346  0.2239
 6352TIP3    H119013   5.777   6.898   5.097  0.7110  1.2490  0.3815
 6352TIP3    H219014   5.652   6.873   5.016  1.1123 -0.0371  0.1443
 6353TIP3   OH219015   0.991   1.871   3.183 -0.4082  0.0272  0.6150
 6353TIP3    H119016   0.911   1.906   3.222 -0.4567 -0.2472  0.7615
 6353TIP3    H219017   1.062   1.905   3.238 -0.3887  0.6372  0.2228
 6354TIP3   OH219018   1.028   2.024   6.323 -0.4739 -0.1411  0.1013
 6354TIP3    H119019   0.965   2.004   6.393 -0.5018 -0.0323  0.1074
 6354TIP3    H219020   1.113   1.998   6.360 -0.2161  1.7880  0.9725
 6355TIP3   OH219021   3.793   4.889   2.676 -0.5719 -0.2065  0.0847
 6355TIP3    H119022   3.768   4.797   2.688 -0.8373 -0.0552  0.7564
 6355TIP3    H219023   3.885   4.886   2.650 -0.3037 -0.6348  1.0125
 6356TIP3   OH219024   3.363   6.210   3.769  0.1603  0.3529  0.1691
 6356TIP3    H119025   3.324   6.243   3.850 -1.3057 -0.2873 -0.2470
 6356TIP3    H219026   3.314   6.131   3.749  1.1954 -0.0654 -0.8041
 6357TIP3   OH219027   7.456   7.385   5.203 -0.0505  0.2984 -0.1036
 6357TIP3    H119028   7.432   7.461   5.151  0.1596 -0.2199 -0.9731
 6357TIP3    H219029   7.373   7.339   5.218 -0.0652  0.2745 -0.2592
 6358TIP3   OH219030   2.824   3.540   6.615  0.3240  0.6688  0.1925
 6358TIP3    H119031   2.762   3.555   6.686 -0.3521  1.2999 -0.5235
 6358TIP3    H219032   2.883   3.616   6.618  1.5741 -0.2992  1.3633
 6359TIP3   OH219033   4.401   2.819   0.634  0.1441 -0.6142 -0.2025
 6359TIP3    H119034   4.446   2.758   0.692  0.4821 -0.1347  0.0455
 6359TIP3    H219035   4.469   2.849   0.573  0.1741  0.1152  0.1735
 6360TIP3   OH219036   4.683   4.998   2.642 -0.1934  0.4824 -0.4166
 6360TIP3    H119037   4.692   5.075   2.586 -2.4475  0.8466 -0.3885
 6360TIP3    H219038   4.589   4.993   2.661  0.0452 -1.6198  0.5323
 6361TIP3   OH219039   8.152   1.788   4.141 -0.0635  0.1275 -0.7852
 6361TIP3    H119040   8.142   1.696   4.117 -1.3447  0.3826 -1.3177
 6361TIP3    H219041   8.207   1.787   4.220 -2.1036 -1.2909  0.7027
 6362TIP3   OH219042   3.082   1.297   1.522 -0.3512  0.2752 -0.1683
 6362TIP3    H119043   3.014   1.284   1.588 -1.0518 -0.9518 -1.0666
 6362TIP3    H219044   3.060   1.380   1.480  0.4738  1.3956  1.5226
 6363TIP3   OH219045   1.091   0.148   0.731  0.2553  0.5368  0.5127
 6363TIP3    H119046   1.015   0.205   0.726 -0.8626 -0.9145  0.1873
 6363TIP3    H219047   1.127   0.147   0.643 -0.8549 -0.7001  0.0453
 6364TIP3   OH219048   7.124   7.640   4.828 -0.0971  0.1298 -0.0858
 6364TIP3    H119049   7.183   7.606   4.761  0.6707  0.5203  0.3658
 6364TIP3    H219050   7.153   7.731   4.840 -1.0600  0.4468 -0.1389
 6365TIP3   OH219051   3.246   7.008   2.043 -0.8621  0.3562  0.5323
 6365TIP3    H119052   3.247   7.052   1.958 -2.4582  0.1540  0.3850
 6365TIP3    H219053   3.162   7.033   2.082 -0.0803  0.5822  2.1337
 6366TIP3   OH219054   5.345   5.383   1.779  0.0228  0.9992  0.0686
 6366TIP3    H119055   5.399   5.460   1.761  1.9293 -0.2015  0.3941
 6366TIP3    H219056   5.385   5.343   1.856 -1.8855  0.4985  0.8650
 6367TIP3   OH219057   1.803   7.688   5.121  0.0678  0.2561 -0.1166
 6367TIP3    H119058   1.846   7.669   5.038 -0.5333 -2.5948  0.1238
 6367TIP3    H219059   1.724   7.736   5.097  0.7302  0.9587 -0.9910
 6368TIP3   OH219060   0.052   1.358   4.402  0.5387 -0.2094  0.2868
 6368TIP3    H119061  -0.005   1.316   4.466  0.1659 -0.5258 -0.2575
 6368TIP3    H219062  -0.004   1.374   4.326  0.9666  0.2211  0.0565
 6369TIP3   OH219063   1.233   1.660   2.739  0.1458 -0.4705  0.4556
 6369TIP3    H119064   1.176   1.583   2.736 -1.4959  0.7043 -2.1565
 6369TIP3    H219065   1.211   1.704   2.821 -2.9460  0.0019 -0.4976
 6370TIP3   OH219066   5.757   5.333   5.559  0.4731  0.3336  0.0944
 6370TIP3    H119067   5.735   5.264   5.622  0.1928  0.2574 -0.0865
 6370TIP3    H219068   5.799   5.401   5.611 -0.5521  0.6605  0.5154
 6371TIP3   OH219069   0.009   3.836   2.973 -0.4244 -0.0329 -0.2745
 6371TIP3    H119070   0.102   3.855   2.960  0.0022 -1.6229  0.1780
 6371TIP3    H219071  -0.032   3.922   2.983  0.9594  0.7076 -0.6385
 6372TIP3   OH219072   4.090   7.470   1.155 -0.5664 -0.1313  0.2820
 6372TIP3    H119073   4.180   7.454   1.180 -0.7697 -1.2426  0.3216
 6372TIP3    H219074   4.048   7.384   1.157 -1.3055  0.1644 -1.0104
 6373TIP3   OH219075   5.440   5.609   2.508  0.0209 -0.3632  0.5593
 6373TIP3    H119076   5.420   5.633   2.417 -0.6054 -0.3284  0.6990
 6373TIP3    H219077   5.510   5.544   2.500  0.8492  0.5550  0.1220
 6374TIP3   OH219078   6.148   6.574   0.761 -0.0276 -0.3549 -0.4445
 6374TIP3    H119079   6.170   6.512   0.691 -0.8360 -1.3601  0.1597
 6374TIP3    H219080   6.056   6.555   0.781 -0.2976  1.0792 -0.2631
 6375TIP3   OH219081   6.070   1.092   2.291  0.1030  0.1929 -0.1975
 6375TIP3    H119082   6.101   1.089   2.200 -1.8143  0.0706 -0.8897
 6375TIP3    H219083   6.053   1.001   2.314  0.9890  0.1766  0.4699
 6376TIP3   OH219084   0.470   2.303   5.682 -0.4182 -0.6081 -0.0927
 6376TIP3    H119085   0.518   2.296   5.600 -1.1696  2.4642 -0.9101
 6376TIP3    H219086   0.378   2.292   5.658 -0.7620  1.5265  0.0352
 6377TIP3   OH219087   1.480   6.250   3.740 -0.6605  0.3753 -0.4893
 6377TIP3    H119088   1.552   6.293   3.787  0.1620 -1.4018 -0.0285
 6377TIP3    H219089   1.412   6.239   3.806 -0.3759 -0.1541 -0.2841
 6378TIP3   OH219090   0.887   5.388   0.560 -0.0202 -0.5233 -0.2503
 6378TIP3    H119091   0.868   5.396   0.653  1.7377  0.5239  0.0657
 6378TIP3    H219092   0.822   5.444   0.517  0.2348  0.3767  0.4994
 6379TIP3   OH219093   8.170   5.801   2.056 -0.1700  0.0222 -0.7833
 6379TIP3    H119094   8.096   5.855   2.081  0.8384  0.0608  2.4823
 6379TIP3    H219095   8.132   5.733   2.000 -2.5006  0.5876  0.0076
 6380TIP3   OH219096   3.728   0.798   3.103 -0.2610 -0.0335 -0.7352
 6380TIP3    H119097   3.722   0.863   3.173  0.5351 -0.7301  0.0162
 6380TIP3    H219098   3.663   0.825   3.038 -0.1802  1.3003 -0.2792
 6381TIP3   OH219099   1.911   4.636   3.192 -0.1117 -0.4346  0.0423
 6381TIP3    H119100   1.948   4.549   3.175 -0.1954 -0.2675 -1.0178
 6381TIP3    H219101   1.905   4.640   3.288 -1.9683 -2.3740  0.0783
 6382TIP3   OH219102   3.557   7.310   6.266 -0.5683  0.1792  0.0335
 6382TIP3    H119103   3.566   7.405   6.274  0.5105  0.0312  0.9662
 6382TIP3    H219104   3.570   7.293   6.173  0.3187  0.8757  0.0036
 6383TIP3   OH219105   2.062   4.046   4.386  0.1338 -0.4282 -0.0369
 6383TIP3    H119106   2.095   4.028   4.474  0.6592 -0.2421 -0.1941
 6383TIP3    H219107   1.978   3.999   4.382 -0.2705  0.1974  0.8250
 6384TIP3   OH219108   6.706   0.172   1.079 -0.3940 -0.2878 -0.0085
 6384TIP3    H119109   6.764   0.103   1.046 -0.7422 -0.4677 -0.2425
 6384TIP3    H219110   6.690   0.148   1.170 -0.1848 -0.2939  0.0277
 6385TIP3   OH219111   1.071   1.153   3.408  0.3770  0.2233  0.0699
 6385TIP3    H119112   1.019   1.183   3.483  0.5746  1.6120 -0.3338
 6385TIP3    H219113   1.010   1.153   3.335  0.8641  1.6227 -0.3538
 6386TIP3   OH219114   7.168   1.476   6.449  0.0844  0.5041 -0.1266
 6386TIP3    H119115   7.146   1.437   6.534 -1.6400  1.8324  0.0918
 6386TIP3    H219116   7.084   1.498   6.410  0.8966  1.1795 -1.5997
 6387TIP3   OH219117   1.621   5.439   0.354  0.4512  0.7356 -0.1319
 6387TIP3    H119118   1.593   5.363   0.304  0.3916  0.2050  0.6893
 6387TIP3    H219119   1.698   5.409   0.403  3.2746  2.4138 -3.1113
 6388TIP3   OH219120   1.738   3.347   1.837 -0.1689 -0.2448 -0.3272
 6388TIP3    H119121   1.811   3.343   1.776 -1.0861  1.7740 -1.6658
 6388TIP3    H219122   1.771   3.305   1.917  2.5398  0.8318 -0.7701
 6389TIP3   OH219123   4.836   2.284   4.216  0.2077 -0.5991  0.2755
 6389TIP3    H119124   4.888   2.271   4.296 -1.6540 -0.9556  1.5085
 6389TIP3    H219125   4.839   2.200   4.171 -1.4064 -1.4910  1.7150
 6390TIP3   OH219126   1.039   1.812   1.009 -0.1088 -0.1960  0.6251
 6390TIP3    H119127   0.981   1.830   1.083  0.0133  0.7777  0.4995
 6390TIP3    H219128   1.119   1.862   1.029 -0.6313  1.3474 -0.8762
 6391TIP3   OH219129   4.132   6.143   4.943 -0.3825  0.2514 -0.4799
 6391TIP3    H119130   4.151   6.135   5.036  0.2034 -1.3037 -0.7141
 6391TIP3    H219131   4.127   6.237   4.928  1.7103  0.6090  0.6835
 6392TIP3   OH219132   5.537   4.281   4.844 -0.0394 -0.0655  0.3094
 6392TIP3    H119133   5.599   4.248   4.780 -1.0158  0.7938 -1.1338
 6392TIP3    H219134   5.460   4.305   4.793 -0.4687  1.6258  1.6529
 6393TIP3   OH219135   3.276   3.199   3.419  0.0239  0.0345  0.0879
 6393TIP3    H119136   3.207   3.248   3.375  0.0187 -0.2647 -0.2433
 6393TIP3    H219137   3.328   3.265   3.464  0.4219  0.4220 -0.9026
 6394TIP3   OH219138   4.450   5.976   5.592  0.1545 -0.3979  0.3196
 6394TIP3    H119139   4.366   5.943   5.625 -0.0343  0.2263  0.4805
 6394TIP3    H219140   4.437   5.984   5.497 -0.4417  0.9968  0.4980
 6395TIP3   OH219141   4.240   1.997   3.456 -0.5819 -0.1732 -0.0347
 6395TIP3    H119142   4.315   1.974   3.401 -1.3460  0.7349 -1.5078
 6395TIP3    H219143   4.266   1.969   3.544  2.1799  1.5125 -0.1892
 6396TIP3   OH219144   2.099   1.757   4.739  0.3902  0.4519  0.7341
 6396TIP3    H119145   2.096   1.818   4.813 -1.0288  0.4449  0.7079
 6396TIP3    H219146   2.060   1.677   4.773  0.4879  0.1796  0.2136
 6397TIP3   OH219147   7.774   5.199   3.917 -0.0619 -0.4254  0.6445
 6397TIP3    H119148   7.742   5.121   3.961  0.9936 -0.8944  0.6084
 6397TIP3    H219149   7.705   5.264   3.931 -0.9748 -1.3616  0.6435
 6398TIP3   OH219150   3.917   5.674   0.988 -0.5580  0.5109 -0.2357
 6398TIP3    H119151   3.858   5.641   0.920 -1.5155  2.2867 -0.3455
 6398TIP3    H219152   3.991   5.711   0.939  1.4262 -2.8296 -0.0671
 6399TIP3   OH219153   6.125   4.776   0.298 -0.0269  0.4808 -0.2828
 6399TIP3    H119154   6.067   4.852   0.296  0.0968  0.5639 -1.1524
 6399TIP3    H219155   6.213   4.812   0.284  0.1469  0.2816  0.2942
 6400TIP3   OH219156   8.085   2.061   4.389  0.0516  0.6934 -0.0429
 6400TIP3    H119157   8.166   2.078   4.341  0.7746  1.2404  1.3291
 6400TIP3    H219158   8.093   1.970   4.418 -0.0143  0.6227 -0.2432
 6401TIP3   OH219159   0.622   3.644   4.841 -0.0993 -0.1781  0.7021
 6401TIP3    H119160   0.633   3.610   4.753 -0.0377  2.2759 -0.3200
 6401TIP3    H219161   0.680   3.591   4.895 -0.9719 -2.4713 -0.4766
 6402TIP3   OH219162   4.057   1.449   5.136 -0.1742  0.5919  0.2600
 6402TIP3    H119163   4.028   1.360   5.158  1.6167  0.4896  2.7375
 6402TIP3    H219164   3.981   1.504   5.153 -1.2742 -0.4167 -1.1925
 6403TIP3   OH219165   5.381   5.125   5.660 -0.6384  0.2345 -0.2849
 6403TIP3    H119166   5.371   5.180   5.582 -0.4028  0.6770 -0.0082
 6403TIP3    H219167   5.293   5.122   5.698 -0.7845 -0.1038 -0.6438
 6404TIP3   OH219168   0.893   3.183   2.055  0.0917 -0.0140 -0.2480
 6404TIP3    H119169   0.882   3.230   2.137 -0.5163  1.9433 -1.3845
 6404TIP3    H219170   0.981   3.208   2.024  0.4488 -0.9887 -0.0716
 6405TIP3   OH219171   6.123   4.812   6.737  0.0947  0.4513  0.0334
 6405TIP3    H119172   6.217   4.799   6.752  0.0201  0.8324  0.9037
 6405TIP3    H219173   6.095   4.735   6.687  0.2043 -1.4167  2.6782
 6406TIP3   OH219174   3.165   2.993   6.372 -0.4662 -1.0747  0.6989
 6406TIP3    H119175   3.137   3.025   6.286 -0.5503  1.4506  1.5792
 6406TIP3    H219176   3.259   2.978   6.363 -0.2449  0.3290  0.4500
 6407TIP3   OH219177   8.175   7.801   3.129 -0.3103  0.3076 -0.0995
 6407TIP3    H119178   8.154   7.753   3.210  1.0990 -0.5903 -0.2413
 6407TIP3    H219179   8.233   7.743   3.081  0.0306  1.4441 -1.1040
 6408TIP3   OH219180   5.940   1.919   5.199 -0.0625 -0.2981 -0.4588
 6408TIP3    H119181   5.903   1.911   5.287  1.0833  0.5861  0.1216
 6408TIP3    H219182   5.997   1.995   5.204  1.0718 -1.0456 -1.5919
 6409TIP3   OH219183   2.086   6.662   1.647 -0.8661  0.4466 -0.0200
 6409TIP3    H119184   2.170   6.708   1.643 -0.4735 -0.3157 -1.0593
 6409TIP3    H219185   2.097   6.588   1.587 -1.6341 -0.7597  1.2898
 6410TIP3   OH219186   4.611   6.329   5.372 -0.2892  0.5999  0.1875
 6410TIP3    H119187   4.531   6.359   5.416 -0.2627 -0.2998  0.8780
 6410TIP3    H219188   4.590   6.331   5.279 -1.1650  0.2458  0.3737
 6411TIP3   OH219189   2.613   4.094   3.493  0.0118  0.2901 -0.4434
 6411TIP3    H119190   2.699   4.067   3.462  0.2066  3.2257 -2.9182
 6411TIP3    H219191   2.626   4.117   3.585  2.1260  1.3302 -0.9397
 6412TIP3   OH219192   7.335   3.181   3.463 -0.2785 -0.1252  0.0409
 6412TIP3    H119193   7.321   3.096   3.506 -0.1093  0.0552  0.4492
 6412TIP3    H219194   7.378   3.235   3.528  3.4877 -0.9827 -1.4562
 6413TIP3   OH219195   7.746   0.114   0.047  0.1878 -0.2492 -0.0960
 6413TIP3    H119196   7.798   0.133  -0.031  1.6502 -2.7858  0.1414
 6413TIP3    H219197   7.670   0.067   0.014  0.2412 -0.3423 -0.0861
 6414TIP3   OH219198   3.683   0.133   3.821 -0.0052 -0.5031  0.3722
 6414TIP3    H119199   3.729   0.101   3.899  0.5323 -1.1264 -0.1801
 6414TIP3    H219200   3.591   0.116   3.838 -0.1239  1.1864  1.7001
 6415TIP3   OH219201   8.232   3.898   5.392  0.2416 -0.0828 -0.4675
 6415TIP3    H119202   8.244   3.804   5.406  2.0332  0.2269  0.3474
 6415TIP3    H219203   8.304   3.923   5.334 -0.1204  0.8324 -0.5445
 6416TIP3   OH219204   7.270   3.182   4.328 -0.2198  0.4707 -0.0927
 6416TIP3    H119205   7.223   3.254   4.285  0.2065  1.0401  0.3724
 6416TIP3    H219206   7.286   3.119   4.258 -0.2730  1.0038 -0.5946
 6417TIP3   OH219207   1.013   3.540   2.336 -0.0597 -0.3546  0.2294
 6417TIP3    H119208   0.990   3.617   2.388 -0.0036  0.6784 -1.2084
 6417TIP3    H219209   1.089   3.503   2.381  0.2386  0.7329  0.6736
 6418TIP3   OH219210   2.977   1.205   6.604 -0.1054  0.7012 -0.2908
 6418TIP3    H119211   3.021   1.147   6.667 -0.3288  1.8108  0.9246
 6418TIP3    H219212   2.977   1.156   6.522  1.7458 -0.0742  0.1366
 6419TIP3   OH219213   7.280   0.919   5.168 -0.0678 -0.4346  0.2019
 6419TIP3    H119214   7.271   0.849   5.233  0.5396 -2.8861 -2.1644
 6419TIP3    H219215   7.324   0.877   5.094 -1.4043  1.9673 -2.1114
 6420TIP3   OH219216   2.263   6.901   5.781  0.1230 -0.0225 -0.0669
 6420TIP3    H119217   2.347   6.934   5.812 -0.3980  1.1919  0.1270
 6420TIP3    H219218   2.238   6.961   5.712 -0.4911 -0.4974 -0.2688
 6421TIP3   OH219219   1.758   6.178   1.221 -0.7355 -0.3431  0.1310
 6421TIP3    H119220   1.777   6.270   1.203 -0.7083 -0.4415 -0.3727
 6421TIP3    H219221   1.737   6.141   1.135  1.3018 -1.2901 -0.0292
 6422TIP3   OH219222   7.679   5.736   4.894  1.0353  0.1756 -0.6617
 6422TIP3    H119223   7.716   5.772   4.975  2.3961  0.2393 -1.2782
 6422TIP3    H219224   7.742   5.669   4.867 -0.1113 -0.8075 -0.9486
 6423TIP3   OH219225   2.715   6.835   5.254 -0.1801  0.2699 -0.6276
 6423TIP3    H119226   2.699   6.755   5.204  0.0853  0.1746 -0.5568
 6423TIP3    H219227   2.684   6.816   5.342  0.9746 -0.1606 -0.3022
 6424TIP3   OH219228   7.169   2.042   2.041 -0.1074 -0.2980 -0.0503
 6424TIP3    H119229   7.197   1.951   2.048 -2.4235 -0.9822  1.5299
 6424TIP3    H219230   7.081   2.038   2.005 -0.7722  1.1916  1.2777
 6425TIP3   OH219231   1.778   1.286   3.904 -0.2895 -0.4490  0.7363
 6425TIP3    H119232   1.805   1.219   3.966  1.3570 -1.2536 -0.7495
 6425TIP3    H219233   1.844   1.356   3.913  0.2980 -0.8268 -0.4518
 6426TIP3   OH219234   0.186   5.517   2.653 -0.2054 -0.1681  0.1784
 6426TIP3    H119235   0.232   5.439   2.620 -0.7848 -0.1801 -0.6489
 6426TIP3    H219236   0.254   5.570   2.693  0.6194 -0.0205 -1.3226
 6427TIP3   OH219237   6.559   6.776   4.834 -0.4131 -0.7288 -0.1383
 6427TIP3    H119238   6.645   6.816   4.850 -0.6090 -0.3472 -0.0310
 6427TIP3    H219239   6.497   6.834   4.878 -0.7534 -0.8346 -0.4731
 6428TIP3   OH219240   6.038   5.370   5.852 -0.2509  0.3376 -0.2233
 6428TIP3    H119241   6.059   5.385   5.944 -1.2276 -0.0848  0.0806
 6428TIP3    H219242   6.071   5.448   5.807 -1.4816  1.4600  0.7427
 6429TIP3   OH219243   7.322   2.743   1.685  0.0918 -0.4256 -0.2851
 6429TIP3    H119244   7.317   2.673   1.751  0.7514  0.1554  0.4020
 6429TIP3    H219245   7.385   2.711   1.621  0.5710 -0.3599  0.1534
 6430TIP3   OH219246   1.009   7.590   2.028 -0.4395  0.3639 -0.5015
 6430TIP3    H119247   0.923   7.619   2.059 -0.0903  2.4547 -1.2903
 6430TIP3    H219248   0.990   7.534   1.953 -1.1330 -0.2425  0.1073
 6431TIP3   OH219249   2.688   3.975   1.895 -0.2568  0.2816 -0.2691
 6431TIP3    H119250   2.634   4.045   1.932 -2.0084 -1.4799  0.7146
 6431TIP3    H219251   2.640   3.895   1.915  2.9328 -1.4994  1.0391
 6432TIP3   OH219252   8.146   5.020   4.554  0.5183  0.2486  0.4540
 6432TIP3    H119253   8.128   4.963   4.629  0.1944  0.2912  0.4096
 6432TIP3    H219254   8.229   5.064   4.577  1.8444 -1.6844 -0.3747
 6433TIP3   OH219255   4.962   5.858   5.330 -0.0033  0.5262 -0.2488
 6433TIP3    H119256   4.999   5.925   5.273  0.6282  0.4209  0.0358
 6433TIP3    H219257   4.892   5.904   5.377 -0.9784  0.4615 -1.5455
 6434TIP3   OH219258   0.802   5.867   0.345  0.6628 -0.0441 -0.1151
 6434TIP3    H119259   0.883   5.878   0.394  1.1243  0.7993 -1.0392
 6434TIP3    H219260   0.824   5.891   0.255 -0.7490  0.7929 -0.2737
 6435TIP3   OH219261   4.055   4.777   2.349 -0.0726  0.5700  0.0130
 6435TIP3    H119262   4.144   4.755   2.375 -0.4216  0.7338  1.4282
 6435TIP3    H219263   4.005   4.697   2.366  0.0246 -0.0149 -2.1451
 6436TIP3   OH219264   4.895   5.061   0.731  0.1340 -0.4014 -0.3204
 6436TIP3    H119265   4.842   4.987   0.701  1.7152 -0.5606 -2.9980
 6436TIP3    H219266   4.926   5.034   0.818  1.0048 -3.1014 -1.3779
 6437TIP3   OH219267   6.818   0.523   1.010  0.0362 -0.1012 -0.3201
 6437TIP3    H119268   6.760   0.562   0.944 -0.7025 -0.3816  0.1556
 6437TIP3    H219269   6.762   0.507   1.085  0.6731 -0.6431  0.0501
 6438TIP3   OH219270   4.031   3.365   6.746  0.0562  0.2519  0.7218
 6438TIP3    H119271   4.026   3.272   6.768 -0.8562  0.5320  1.8148
 6438TIP3    H219272   3.939   3.392   6.735  0.3624  0.6238 -1.4777
 6439TIP3   OH219273   2.343   1.095   6.015 -0.1680  0.5645 -0.1588
 6439TIP3    H119274   2.424   1.120   5.972 -0.2895 -1.7252 -1.8986
 6439TIP3    H219275   2.274   1.129   5.958 -0.3618 -0.3349 -0.4746
 6440TIP3   OH219276   7.208   6.560   2.870  0.0806 -0.5064 -0.1616
 6440TIP3    H119277   7.233   6.494   2.805 -0.8225 -1.2353  0.2065
 6440TIP3    H219278   7.184   6.637   2.818 -1.0129 -1.2098 -0.7427
 6441TIP3   OH219279   4.457   0.068   4.832 -0.0063  0.0440 -0.1333
 6441TIP3    H119280   4.415   0.121   4.764 -0.4524  1.2065  1.0151
 6441TIP3    H219281   4.514   0.130   4.878 -0.3203 -0.5266  1.0570
 6442TIP3   OH219282   7.537   5.727   2.714  0.0581 -0.0700  0.1714
 6442TIP3    H119283   7.555   5.672   2.638  0.9153  0.9468 -0.3766
 6442TIP3    H219284   7.575   5.812   2.693 -0.1412  0.3873  1.5272
 6443TIP3   OH219285   4.285   4.770   1.508  0.0784  0.2659  0.0952
 6443TIP3    H119286   4.237   4.687   1.497 -1.5785  1.1910  0.0007
 6443TIP3    H219287   4.373   4.743   1.534 -1.0287 -1.5086  2.4291
 6444TIP3   OH219288   2.371   0.103   4.376 -0.4072 -0.0348  0.3434
 6444TIP3    H119289   2.297   0.153   4.342 -1.2609 -0.1219  1.9982
 6444TIP3    H219290   2.344   0.012   4.370  0.8108 -0.3251 -1.8562
 6445TIP3   OH219291   4.923   2.513   5.648  0.0288 -0.1074 -0.1996
 6445TIP3    H119292   4.829   2.527   5.633 -0.0626 -0.5305 -0.0504
 6445TIP3    H219293   4.943   2.563   5.727  0.1091  0.6392 -0.6812
 6446TIP3   OH219294   1.581   0.428   5.613  0.2190  0.5458 -0.0689
 6446TIP3    H119295   1.587   0.491   5.685  0.3041  0.7331 -0.2402
 6446TIP3    H219296   1.656   0.369   5.627  1.1379  1.4866 -0.8629
 6447TIP3   OH219297   7.213   3.396   2.758 -0.1792 -0.4407 -0.2871
 6447TIP3    H119298   7.156   3.417   2.832 -0.7848 -0.2668 -0.7930
 6447TIP3    H219299   7.283   3.342   2.796 -1.1535 -1.4040  0.1945
 6448TIP3   OH219300   7.147   5.397   0.348  0.4977  0.0973  0.0084
 6448TIP3    H119301   7.212   5.371   0.413  0.6020  0.3067 -0.0101
 6448TIP3    H219302   7.092   5.320   0.336 -0.1776  0.3876  1.1400
 6449TIP3   OH219303   1.725   3.939   5.383  0.4180  0.4282 -0.0759
 6449TIP3    H119304   1.766   3.859   5.348 -1.4907 -0.3172 -0.7327
 6449TIP3    H219305   1.678   3.910   5.461  0.4739  1.1186  0.2254
 6450TIP3   OH219306   5.640   1.584   3.491 -0.2064  0.0191  0.0418
 6450TIP3    H119307   5.678   1.588   3.403 -0.0289  0.1819  0.1225
 6450TIP3    H219308   5.647   1.674   3.524 -1.7136  0.3134 -0.3672
 6451TIP3   OH219309   4.768   5.297   5.110 -0.5459 -0.7918  0.1533
 6451TIP3    H119310   4.794   5.342   5.029  0.6746 -1.9026 -0.0992
 6451TIP3    H219311   4.810   5.347   5.180 -0.5732 -0.5636  0.0074
 6452TIP3   OH219312   2.951   4.776   5.733 -0.1284 -0.0123 -0.2664
 6452TIP3    H119313   2.962   4.870   5.747 -1.1932  0.0384  0.2959
 6452TIP3    H219314   2.941   4.767   5.638  0.6391  0.3595 -0.3900
 6453TIP3   OH219315   6.711   3.692   6.129 -0.3413 -0.5471 -0.4330
 6453TIP3    H119316   6.735   3.633   6.200  2.2966 -0.4827 -1.1700
 6453TIP3    H219317   6.783   3.686   6.067 -1.3733  1.2907 -1.9279
 6454TIP3   OH219318   7.508   5.167   4.179 -0.3381  0.2300  0.0142
 6454TIP3    H119319   7.563   5.108   4.127 -1.2652 -0.6598  0.0219
 6454TIP3    H219320   7.461   5.109   4.239  0.5496  1.2040  1.7477
 6455TIP3   OH219321   2.069   1.865   2.527  0.1548 -0.0071 -0.2607
 6455TIP3    H119322   2.156   1.901   2.508 -1.1027  2.3715 -2.1512
 6455TIP3    H219323   2.026   1.935   2.577 -1.2701 -0.3050 -1.0311
 6456TIP3   OH219324   5.463   5.214   4.210  0.4440 -0.1291 -0.1358
 6456TIP3    H119325   5.432   5.236   4.122  3.3162 -1.7748 -1.7242
 6456TIP3    H219326   5.457   5.296   4.259  0.3363  1.2992 -2.3810
 6457TIP3   OH219327   2.074   1.157   0.616 -0.4950  0.6521 -0.1783
 6457TIP3    H119328   2.117   1.086   0.662 -0.8606 -0.3492 -1.3270
 6457TIP3    H219329   2.002   1.184   0.673  0.1185  0.6367  0.6088
 6458TIP3   OH219330   8.102   4.676   4.423 -0.4869 -0.0230 -0.0784
 6458TIP3    H119331   8.034   4.728   4.465 -1.0707 -0.3207 -0.6269
 6458TIP3    H219332   8.158   4.647   4.495 -1.7381 -0.9235  0.5718
 6459TIP3   OH219333   6.834   0.698   6.605  0.5808  0.2663 -0.1372
 6459TIP3    H119334   6.823   0.707   6.511 -0.1083  0.6914 -0.0247
 6459TIP3    H219335   6.887   0.619   6.616  3.1245  1.7348 -0.9935
 6460TIP3   OH219336   2.859   4.425   4.603  0.4015 -0.7827 -0.0980
 6460TIP3    H119337   2.862   4.382   4.518 -0.2577  0.1976 -0.6363
 6460TIP3    H219338   2.935   4.484   4.602  1.5240 -2.1304  0.7872
 6461TIP3   OH219339   2.006   6.020   0.499  0.2923  0.0282 -0.4783
 6461TIP3    H119340   2.050   6.005   0.582  0.5397  1.6266 -0.2789
 6461TIP3    H219341   1.914   6.032   0.521  0.5907  2.1558 -0.1603
 6462TIP3   OH219342   5.610   4.329   1.620 -0.2646  0.1430 -0.0033
 6462TIP3    H119343   5.660   4.381   1.683 -0.1246  1.4910 -1.1941
 6462TIP3    H219344   5.537   4.294   1.672 -0.0402  1.0519  0.9639
 6463TIP3   OH219345   4.637   6.696   4.194  0.4378  0.4791  0.0930
 6463TIP3    H119346   4.586   6.615   4.198  0.8297  0.1432 -1.0241
 6463TIP3    H219347   4.585   6.761   4.241 -0.1727 -0.2783  0.4835
 6464TIP3   OH219348   7.270   1.994   4.762  0.0746 -0.1835 -0.5533
 6464TIP3    H119349   7.298   1.973   4.673 -1.7452 -1.1487 -0.9251
 6464TIP3    H219350   7.309   1.925   4.816  1.2184  0.4273 -0.5487
 6465TIP3   OH219351   6.462   3.258   6.257  0.7646  0.5343  0.0539
 6465TIP3    H119352   6.450   3.344   6.298  1.0856 -0.0828  1.5237
 6465TIP3    H219353   6.482   3.199   6.331 -1.7487 -1.2749 -0.5965
 6466TIP3   OH219354   2.049   7.520   3.567 -0.4347 -0.0289  0.3380
 6466TIP3    H119355   2.077   7.459   3.498  0.8862  0.4857  0.3870
 6466TIP3    H219356   1.994   7.584   3.521  2.6794  1.9683 -0.9288
 6467TIP3   OH219357   0.143   5.063   6.651 -0.3251 -0.4886 -0.6370
 6467TIP3    H119358   0.113   4.974   6.667  1.3455 -0.8973  0.4282
 6467TIP3    H219359   0.064   5.116   6.657 -1.2956 -1.8514 -0.9752
 6468TIP3   OH219360   6.077   0.238   6.256  0.1505  0.1332 -0.0164
 6468TIP3    H119361   5.984   0.258   6.246  0.4442  0.7363 -1.8923
 6468TIP3    H219362   6.080   0.142   6.260 -0.5289  0.0986 -0.1876
 6469TIP3   OH219363   4.368   4.714   0.830  0.0816  0.0358  0.4738
 6469TIP3    H119364   4.303   4.708   0.900 -0.9038  0.6857 -0.3524
 6469TIP3    H219365   4.355   4.801   0.793 -1.6121 -1.3268 -2.5475
 6470TIP3   OH219366   7.795   2.509   2.001 -0.6610 -0.4877  0.2480
 6470TIP3    H119367   7.742   2.441   1.959  0.2044 -0.2537 -1.2906
 6470TIP3    H219368   7.766   2.590   1.959  1.3071 -0.4178 -1.1121
 6471TIP3   OH219369   7.214   3.631   2.609 -0.6466 -0.0083 -1.4790
 6471TIP3    H119370   7.176   3.702   2.661  1.3596  0.5417 -0.6634
 6471TIP3    H219371   7.197   3.552   2.661  0.9876  0.4856 -0.1009
 6472TIP3   OH219372   0.385   4.992   1.515  0.0684  0.0176  0.4110
 6472TIP3    H119373   0.306   5.043   1.497 -0.0973  0.1751  1.5263
 6472TIP3    H219374   0.353   4.907   1.544  0.3467 -0.9720 -1.9773
 6473TIP3   OH219375   7.598   7.773   0.558 -0.4028 -0.1059  0.0643
 6473TIP3    H119376   7.513   7.740   0.528  0.6228 -2.2019 -0.7509
 6473TIP3    H219377   7.626   7.710   0.624 -0.1080  1.4082  1.4609
 6474TIP3   OH219378   1.428   1.964   4.404  0.4001  0.2600 -0.0414
 6474TIP3    H119379   1.334   1.973   4.387  0.4481 -0.4730 -0.7593
 6474TIP3    H219380   1.465   2.048   4.378 -0.1567  0.8895  1.1100
 6475TIP3   OH219381   3.875   1.265   1.303 -0.2126 -0.3243 -0.7744
 6475TIP3    H119382   3.864   1.183   1.255 -1.4776 -1.2433  0.9684
 6475TIP3    H219383   3.790   1.308   1.297  0.1874  0.4458 -0.9465
 6476TIP3   OH219384   6.756   5.066   4.909  0.3672 -0.7705 -0.7830
 6476TIP3    H119385   6.803   5.122   4.970  0.6512  0.3414 -1.9652
 6476TIP3    H219386   6.814   4.990   4.897  1.3264  0.0073 -1.2735
 6477TIP3   OH219387   2.600   5.226   4.726 -0.3740 -0.1717  0.1883
 6477TIP3    H119388   2.521   5.188   4.689 -1.2145 -1.1862  2.7935
 6477TIP3    H219389   2.569   5.290   4.790  0.9642  0.7130  0.0058
 6478TIP3   OH219390   7.345   6.544   5.162 -0.3082  0.3770 -0.6987
 6478TIP3    H119391   7.381   6.626   5.130 -1.9490  0.7976 -1.5785
 6478TIP3    H219392   7.303   6.567   5.245 -0.3061  0.3184 -0.6812
 6479TIP3   OH219393   2.657   0.866   2.696  0.1164  0.3429 -0.2015
 6479TIP3    H119394   2.670   0.807   2.622  0.4446  0.2877 -0.1004
 6479TIP3    H219395   2.660   0.953   2.658  0.9862  0.3420 -0.1597
 6480TIP3   OH219396   3.260   2.295   3.559 -0.2642 -0.0698 -1.0565
 6480TIP3    H119397   3.267   2.386   3.586 -0.5648 -0.0181 -1.1577
 6480TIP3    H219398   3.302   2.246   3.630  1.2082  0.2490 -1.6726
 6481TIP3   OH219399   3.998   4.354   1.015  0.0252  0.0235 -0.0566
 6481TIP3    H119400   3.908   4.326   1.034  0.0656 -1.6053 -1.9467
 6481TIP3    H219401   3.988   4.432   0.961 -0.1785  0.8295  1.0952
 6482TIP3   OH219402   2.869   1.908   6.444  0.1178  0.2139  0.2781
 6482TIP3    H119403   2.916   1.825   6.452 -0.1928  0.0029 -0.0680
 6482TIP3    H219404   2.875   1.931   6.351 -0.5280  0.1452  0.2154
 6483TIP3   OH219405   3.836   2.101   6.446  0.2760 -0.3366 -0.0962
 6483TIP3    H119406   3.915   2.149   6.470  0.4476 -0.5075 -0.3194
 6483TIP3    H219407   3.828   2.113   6.352 -1.7880  2.4724  0.2937
 6484TIP3   OH219408   7.987   4.064   5.517 -0.1838  0.3892  0.2885
 6484TIP3    H119409   7.967   4.150   5.554  2.2902  1.1095  0.0757
 6484TIP3    H219410   8.080   4.050   5.536 -0.9275 -3.2445  2.2828
 6485TIP3   OH219411   6.074   6.147   0.867 -0.2579  0.1880 -0.1193
 6485TIP3    H119412   6.105   6.190   0.946 -3.1362  0.8750  0.7391
 6485TIP3    H219413   6.075   6.054   0.888  0.6392  0.2305  0.0655
 6486TIP3   OH219414   0.758   6.569   2.286  0.1142 -0.3036  0.1540
 6486TIP3    H119415   0.792   6.494   2.237  0.4196 -1.1345  1.5649
 6486TIP3    H219416   0.693   6.531   2.345 -0.0080  0.5962  0.6108
 6487TIP3   OH219417   7.179   7.310   1.536 -0.4921 -0.3074  0.0187
 6487TIP3    H119418   7.163   7.267   1.452 -0.6559 -0.5806  0.1896
 6487TIP3    H219419   7.150   7.400   1.523  0.5364 -0.0371 -0.5754
 6488TIP3   OH219420   6.029   4.302   3.130  0.0722 -0.1914 -0.0395
 6488TIP3    H119421   5.967   4.375   3.125  1.0927  0.7230  0.2111
 6488TIP3    H219422   6.100   4.327   3.072  0.5721 -0.8659  0.2632
 6489TIP3   OH219423   1.475   2.326   2.256  0.0752  0.3559 -0.3233
 6489TIP3    H119424   1.491   2.378   2.177  0.7670  1.3095  0.4267
 6489TIP3    H219425   1.389   2.355   2.286  1.1598  2.3551  1.0256
 6490TIP3   OH219426   0.623   6.252   1.961 -0.0507 -0.1571 -0.3234
 6490TIP3    H119427   0.699   6.283   2.010 -0.3803 -1.1447  0.8530
 6490TIP3    H219428   0.639   6.282   1.871  0.8173  1.2349  0.2666
 6491TIP3   OH219429   7.923   1.190   3.305 -0.2483  0.2601 -0.5233
 6491TIP3    H119430   7.904   1.254   3.374  2.9731 -1.6912  2.5194
 6491TIP3    H219431   7.985   1.236   3.247 -0.2710  0.8111 -0.1196
 6492TIP3   OH219432   8.230   5.157   1.037  0.7825 -0.0987 -0.3834
 6492TIP3    H119433   8.237   5.095   0.964 -0.2425  0.1181 -0.6816
 6492TIP3    H219434   8.241   5.104   1.115  1.5885 -0.3836 -0.6767
 6493TIP3   OH219435   5.829   4.038   5.539  0.1080  0.7431 -0.2514
 6493TIP3    H119436   5.919   4.015   5.517  0.2015  0.7055  0.1800
 6493TIP3    H219437   5.785   4.045   5.454  0.4512  0.4955 -0.4509
 6494TIP3   OH219438   2.032   4.116   3.036  0.1056 -0.6193 -0.3101
 6494TIP3    H119439   2.010   4.156   2.952  0.7674  0.0471 -0.1806
 6494TIP3    H219440   2.071   4.031   3.013 -2.3820 -1.7749 -0.5454
 6495TIP3   OH219441   2.523   2.982   3.878  0.2024 -0.1543 -0.2927
 6495TIP3    H119442   2.433   3.000   3.905  0.2627  1.1792 -0.9273
 6495TIP3    H219443   2.532   2.887   3.890 -0.9075 -0.1497  0.8722
 6496TIP3   OH219444   2.009   1.648   1.547  0.3654 -0.1436 -1.1689
 6496TIP3    H119445   1.991   1.658   1.454 -0.1141  0.4184 -1.0206
 6496TIP3    H219446   2.067   1.571   1.552 -0.0052 -0.4779 -1.8767
 6497TIP3   OH219447   1.585   4.292   4.735  0.4075  0.6007 -0.1556
 6497TIP3    H119448   1.603   4.289   4.641 -0.7830  1.1387 -0.4290
 6497TIP3    H219449   1.667   4.321   4.775  1.1616 -0.4252 -0.9400
 6498TIP3   OH219450   3.048   3.706   6.635  0.0044  0.4386  0.0314
 6498TIP3    H119451   3.023   3.798   6.642  0.9563  0.6861  0.3025
 6498TIP3    H219452   3.035   3.671   6.723  0.0772  0.4348  0.0413
 6499TIP3   OH219453   5.951   7.259   5.789  0.3546  0.1689  0.1142
 6499TIP3    H119454   5.859   7.267   5.763  0.5062  0.3217 -0.3992
 6499TIP3    H219455   5.969   7.165   5.785 -0.2152 -0.0434  1.8100
 6500TIP3   OH219456   6.817   4.509   6.000  0.0887 -0.5178 -0.2818
 6500TIP3    H119457   6.783   4.561   5.927 -0.0182 -0.2090 -0.0153
 6500TIP3    H219458   6.765   4.428   5.997 -0.2710 -0.2936 -0.2401
 6501TIP3   OH219459   4.716   4.863   1.991  0.0730 -0.0490 -0.3130
 6501TIP3    H119460   4.729   4.930   2.059 -0.9860 -0.4005  0.2556
 6501TIP3    H219461   4.781   4.885   1.925  1.4231  0.0649  0.9816
 6502TIP3   OH219462   6.432   7.342   0.307 -0.2563  0.0414 -0.1184
 6502TIP3    H119463   6.493   7.272   0.329 -1.0733 -0.6406  0.0634
 6502TIP3    H219464   6.422   7.336   0.212 -0.7706 -0.4999 -0.0434
 6503TIP3   OH219465   5.548   4.644   2.681 -0.2699 -0.5925  0.2120
 6503TIP3    H119466   5.496   4.724   2.690  0.8990  0.0740  1.4892
 6503TIP3    H219467   5.533   4.597   2.763  0.1098 -1.0182  0.0400
 6504TIP3   OH219468   8.043   7.624   2.760  0.6140  0.1229  0.1912
 6504TIP3    H119469   7.995   7.704   2.782  0.4332 -0.1492  0.8306
 6504TIP3    H219470   8.121   7.655   2.715  0.0484  0.5970 -0.4797
 6505TIP3   OH219471   4.392   5.120   5.802 -0.0362  0.6409  0.4229
 6505TIP3    H119472   4.413   5.192   5.861 -2.6789  0.4810  1.7112
 6505TIP3    H219473   4.376   5.045   5.860 -1.9512  0.2766 -0.4894
 6506TIP3   OH219474   5.221   6.121   2.520 -0.0573 -0.1386  0.0988
 6506TIP3    H119475   5.136   6.149   2.487 -1.0344 -1.6574  1.1881
 6506TIP3    H219476   5.205   6.035   2.559  2.1803 -0.9403 -0.5558
 6507TIP3   OH219477   2.903   4.068   2.078  0.5035  0.3790 -0.5663
 6507TIP3    H119478   2.888   3.974   2.090  0.8441  0.4343  0.3950
 6507TIP3    H219479   2.871   4.086   1.990  1.6724 -0.8977 -1.2913
 6508TIP3   OH219480   5.554   6.539   2.974  0.0361 -0.2859 -0.2204
 6508TIP3    H119481   5.504   6.473   2.926 -0.7185 -0.0821  0.2723
 6508TIP3    H219482   5.499   6.560   3.050  1.3005 -0.7577  0.8571
 6509TIP3   OH219483   1.934   4.985   0.780 -0.4057  0.2409 -0.3684
 6509TIP3    H119484   1.868   4.916   0.776  0.3636 -0.5030 -0.5983
 6509TIP3    H219485   1.994   4.956   0.849  0.8809 -0.2154 -1.6224
 6510TIP3   OH219486   0.972   1.269   0.753 -0.1431  0.0102  0.0121
 6510TIP3    H119487   1.062   1.293   0.777  0.5047 -2.0780 -0.1706
 6510TIP3    H219488   0.981   1.223   0.670 -1.5008  0.4846 -0.4250
 6511TIP3   OH219489   0.696   7.617   6.512 -0.4233  0.8267  0.4246
 6511TIP3    H119490   0.680   7.696   6.461 -1.7021 -0.3779 -1.1204
 6511TIP3    H219491   0.787   7.594   6.494 -0.9192  0.2936 -1.5575
 6512TIP3   OH219492   7.017   4.392   3.852 -0.1554 -0.0513  0.0216
 6512TIP3    H119493   7.092   4.376   3.795  0.3567 -0.4242  0.7902
 6512TIP3    H219494   7.052   4.446   3.923 -0.2639 -1.4112  1.1470
 6513TIP3   OH219495   5.016   1.984   0.648 -0.1114  0.1716  0.0011
 6513TIP3    H119496   5.047   2.069   0.680 -0.4011  0.4876 -0.5436
 6513TIP3    H219497   5.085   1.954   0.589 -1.2355  1.3563 -2.0304
 6514TIP3   OH219498   1.909   5.128   3.586 -0.2979  0.4458  0.1456
 6514TIP3    H119499   1.931   5.107   3.677 -0.9717  0.4611  0.3188
 6514TIP3    H219500   1.953   5.212   3.570 -0.5127  0.6519  0.5968
 6515TIP3   OH219501   7.857   2.518   2.312 -0.7505 -0.1662 -0.2194
 6515TIP3    H119502   7.844   2.512   2.217  0.5657  2.8340 -0.7196
 6515TIP3    H219503   7.772   2.550   2.345 -1.3729 -1.6916 -0.2440
 6516TIP3   OH219504   6.601   1.108   0.046 -0.1576 -0.0824  0.2268
 6516TIP3    H119505   6.623   1.027   0.001  0.4937  0.7018 -0.9165
 6516TIP3    H219506   6.546   1.156  -0.016  0.6596  0.9694  0.2941
 6517TIP3   OH219507   1.273   7.268   5.412  0.4405 -0.5163 -0.0439
 6517TIP3    H119508   1.297   7.243   5.501 -0.0316  0.7562  0.4692
 6517TIP3    H219509   1.188   7.225   5.397  0.4971 -0.6916  0.1459
 6518TIP3   OH219510   0.553   2.850   2.019 -0.0360 -0.9668 -0.6851
 6518TIP3    H119511   0.603   2.930   2.002 -0.2975 -0.4775  0.7426
 6518TIP3    H219512   0.477   2.879   2.068  0.4712 -2.2100  0.9334
 6519TIP3   OH219513   2.285   3.994   6.052  0.0629  0.1511  0.8212
 6519TIP3    H119514   2.203   3.969   6.093 -0.0969  0.9846  1.0290
 6519TIP3    H219515   2.277   3.962   5.962 -1.3042  1.8393  0.2789
 6520TIP3   OH219516   6.028   6.616   2.069 -0.4955 -0.7343 -0.0738
 6520TIP3    H119517   6.086   6.541   2.081  0.0874 -0.3018 -0.1881
 6520TIP3    H219518   6.081   6.692   2.091 -0.7977 -0.2761 -0.8802
 6521TIP3   OH219519   0.402   1.630   6.142 -0.1105 -0.1952 -0.5937
 6521TIP3    H119520   0.336   1.694   6.167  0.3855  0.0166  0.2247
 6521TIP3    H219521   0.354   1.562   6.094 -0.7282  0.5051 -0.9763
 6522TIP3   OH219522   2.395   4.254   4.400 -0.3374  0.0940  0.0290
 6522TIP3    H119523   2.459   4.222   4.463  0.4709 -0.3732 -1.0071
 6522TIP3    H219524   2.377   4.344   4.428 -0.3148 -0.2445  1.1634
 6523TIP3   OH219525   7.603   6.094   1.461  0.8456  0.2791  0.4222
 6523TIP3    H119526   7.557   6.042   1.395  0.8299 -1.6205  1.8411
 6523TIP3    H219527   7.538   6.159   1.489 -0.0136 -0.5380  0.3829
 6524TIP3   OH219528   7.071   6.459   0.426  0.3388 -0.0822 -0.1634
 6524TIP3    H119529   7.106   6.396   0.488  0.7972  0.3649  0.0404
 6524TIP3    H219530   6.983   6.477   0.458  1.0260  1.1362  1.1471
 6525TIP3   OH219531   3.130   3.067   0.800 -0.3313  0.0562  0.5575
 6525TIP3    H119532   3.137   3.151   0.847 -2.0141 -0.3429  1.6209
 6525TIP3    H219533   3.187   3.077   0.725  2.0071  0.9846  2.3272
 6526TIP3   OH219534   4.634   0.469   0.099 -0.0298  0.2346  0.1417
 6526TIP3    H119535   4.606   0.560   0.086  1.5297  0.6310 -0.7586
 6526TIP3    H219536   4.643   0.433   0.011  1.4336 -0.0908  0.3922
 6527TIP3   OH219537   0.571   7.565   2.273 -0.3687  0.4888 -0.0948
 6527TIP3    H119538   0.571   7.580   2.368 -0.7474  1.0357 -0.1765
 6527TIP3    H219539   0.498   7.618   2.241 -0.1000  0.4761 -0.7238
 6528TIP3   OH219540   3.062   7.657   2.794  0.2474  0.0299 -0.0794
 6528TIP3    H119541   3.073   7.640   2.701 -0.5770 -0.1564 -0.1542
 6528TIP3    H219542   2.967   7.654   2.808  0.3177  0.7760  0.6294
 6529TIP3   OH219543   3.045   1.231   4.977  0.0394 -0.1817  0.3735
 6529TIP3    H119544   3.036   1.178   4.898 -0.0211 -0.8512  0.8219
 6529TIP3    H219545   3.031   1.169   5.049  1.8229  0.0458  0.9540
 6530TIP3   OH219546   5.784   4.886   0.619 -0.4675 -0.2885 -0.2545
 6530TIP3    H119547   5.851   4.833   0.574 -0.7796 -1.5502  0.7022
 6530TIP3    H219548   5.807   4.976   0.598  1.3646 -0.7010 -0.1997
 6531TIP3   OH219549   6.272   7.384   6.124  0.0597  0.0255 -0.1804
 6531TIP3    H119550   6.362   7.377   6.093  0.5199  1.3467  0.7215
 6531TIP3    H219551   6.222   7.407   6.046  0.7990  0.9757 -0.4011
 6532TIP3   OH219552   5.006   0.646   0.402  0.0793  0.4885  0.3604
 6532TIP3    H119553   5.071   0.581   0.428  0.1703  0.1930 -0.5641
 6532TIP3    H219554   4.926   0.621   0.450 -0.3991 -1.3768 -1.2642
 6533TIP3   OH219555   7.496   0.308   1.418 -0.1406 -0.1838  0.2475
 6533TIP3    H119556   7.545   0.292   1.499 -0.2060 -2.1549 -0.0498
 6533TIP3    H219557   7.564   0.309   1.349 -0.2828 -0.7959  0.0869
 6534TIP3   OH219558   3.029   1.733   4.476  0.4306 -0.2300  0.4120
 6534TIP3    H119559   3.058   1.817   4.441  2.4929 -1.5053 -1.1514
 6534TIP3    H219560   3.084   1.718   4.552  3.0913 -1.9579 -1.6887
 6535TIP3   OH219561   2.880   2.569   2.780 -0.6530  0.1185 -0.0268
 6535TIP3    H119562   2.808   2.567   2.843  0.2399  0.1279  1.0185
 6535TIP3    H219563   2.955   2.598   2.831  0.4196 -1.2620 -0.7640
 6536TIP3   OH219564   4.946   7.543   5.633  0.0758 -0.0899  0.1726
 6536TIP3    H119565   5.015   7.610   5.625  1.0140 -1.0709 -0.2358
 6536TIP3    H219566   4.959   7.507   5.721  0.2848 -0.4753 -0.0120
 6537TIP3   OH219567   6.394   0.700   6.266 -0.0492  0.5914 -0.2167
 6537TIP3    H119568   6.371   0.644   6.191 -0.4852  1.2931 -0.6209
 6537TIP3    H219569   6.311   0.712   6.312 -0.0781  1.3589 -0.4544
 6538TIP3   OH219570   4.402   3.773   2.380 -0.4220  0.1108 -0.0763
 6538TIP3    H119571   4.414   3.830   2.456  0.7006 -0.7446  0.4253
 6538TIP3    H219572   4.427   3.686   2.412 -0.3098 -0.3277 -1.3144
 6539TIP3   OH219573   5.114   1.277   3.464 -0.1238 -0.1367 -0.1993
 6539TIP3    H119574   5.185   1.294   3.526 -3.0878  2.0074  3.0250
 6539TIP3    H219575   5.111   1.354   3.409 -0.2095 -0.0225 -0.0360
 6540TIP3   OH219576   6.759   3.850   2.207 -0.6281 -0.3644  0.1682
 6540TIP3    H119577   6.672   3.884   2.229 -0.0041  0.6701  1.0933
 6540TIP3    H219578   6.741   3.766   2.165 -2.1149  0.1870 -0.3686
 6541TIP3   OH219579   3.756   2.885   5.943 -0.2039 -0.2600 -0.4362
 6541TIP3    H119580   3.821   2.876   6.013  0.1291  0.0176 -0.7046
 6541TIP3    H219581   3.682   2.931   5.984  1.1442  2.6071 -0.9448
 6542TIP3   OH219582   3.588   5.109   6.100 -0.0801  0.7751 -0.4774
 6542TIP3    H119583   3.619   5.082   6.013  1.5476  1.7470 -0.2428
 6542TIP3    H219584   3.540   5.190   6.083  1.6698  1.9119 -0.3567
 6543TIP3   OH219585   8.169   6.312   1.823  0.0994  0.0400 -0.2341
 6543TIP3    H119586   8.094   6.321   1.883  0.6974 -1.0791  0.7158
 6543TIP3    H219587   8.168   6.394   1.773 -0.8707  0.6993  0.7827
 6544TIP3   OH219588   7.973   7.625   2.196  0.1771  0.1349 -0.0297
 6544TIP3    H119589   7.972   7.550   2.255 -1.3951  0.9878  1.0784
 6544TIP3    H219590   7.925   7.694   2.242 -1.3144  0.7732 -2.3711
 6545TIP3   OH219591   6.409   2.035   0.593  0.3928  0.2173 -0.0027
 6545TIP3    H119592   6.340   2.054   0.656 -0.1832  0.3655 -0.6624
 6545TIP3    H219593   6.404   1.940   0.579  0.1066  0.2697 -0.2815
 6546TIP3   OH219594   4.206   5.225   5.207  0.1872 -0.0229 -0.0758
 6546TIP3    H119595   4.140   5.194   5.270  0.4087 -1.0009 -0.3126
 6546TIP3    H219596   4.276   5.260   5.262 -0.9154  1.8925  0.1691
 6547TIP3   OH219597   2.014   2.676   6.301 -0.1125 -1.0765 -0.1521
 6547TIP3    H119598   2.001   2.583   6.315  0.5690 -1.3834 -1.4487
 6547TIP3    H219599   2.030   2.685   6.207 -0.1262  0.3365 -0.0466
 6548TIP3   OH219600   6.739   4.022   1.498 -0.1821 -0.1242 -0.4162
 6548TIP3    H119601   6.829   4.025   1.530 -0.2271 -1.6049 -0.0811
 6548TIP3    H219602   6.693   3.967   1.561 -1.6571  1.6469  0.1523
 6549TIP3   OH219603   2.073   2.300   0.187 -0.5707 -0.0527  0.6682
 6549TIP3    H119604   2.124   2.359   0.242 -1.7321 -0.3168  2.0796
 6549TIP3    H219605   2.139   2.249   0.140  0.5202  3.0882 -1.5590
 6550TIP3   OH219606   3.793   5.674   4.787  0.5099 -0.1232 -0.3928
 6550TIP3    H119607   3.738   5.596   4.785 -0.8606  0.7104  1.5993
 6550TIP3    H219608   3.768   5.724   4.710  0.1302 -0.8136 -0.7271
 6551TIP3   OH219609   4.021   0.870   0.231  0.1798  0.0929 -0.2562
 6551TIP3    H119610   3.985   0.840   0.315  2.9532  1.7350  1.6733
 6551TIP3    H219611   4.103   0.821   0.222 -0.1060 -0.1115 -2.1206
 6552TIP3   OH219612   0.462   1.979   4.550 -0.0887 -0.4945 -0.1035
 6552TIP3    H119613   0.439   1.917   4.481  1.0101  0.0641 -0.9918
 6552TIP3    H219614   0.489   1.923   4.624 -0.5626 -1.0815 -0.3648
 6553TIP3   OH219615   4.050   0.596   4.783 -0.4075 -0.4169  0.7446
 6553TIP3    H119616   3.968   0.585   4.735 -1.3436  2.0941  1.5984
 6553TIP3    H219617   4.101   0.657   4.730 -0.8627  1.2663  2.1522
 6554TIP3   OH219618   4.357   0.039   1.638 -0.3268  0.5125 -0.3176
 6554TIP3    H119619   4.402   0.124   1.641  0.3749  0.2141 -1.7643
 6554TIP3    H219620   4.404  -0.010   1.571 -1.1313 -0.8024  0.0645
 6555TIP3   OH219621   3.029   3.233   5.355  0.4537 -0.1154 -0.1579
 6555TIP3    H119622   3.081   3.299   5.402 -1.0082  0.3023  0.9314
 6555TIP3    H219623   3.009   3.275   5.271 -1.8591  1.6256  1.1377
 6556TIP3   OH219624   3.949   7.768   6.726  0.4466 -0.1362 -0.2639
 6556TIP3    H119625   3.988   7.805   6.805 -0.1583  1.0053 -0.4803
 6556TIP3    H219626   3.979   7.677   6.725  3.9166  0.8702 -0.9268
 6557TIP3   OH219627   4.514   5.147   5.547 -0.5640  0.1617 -0.0160
 6557TIP3    H119628   4.600   5.106   5.542 -0.6679 -0.1050  0.3716
 6557TIP3    H219629   4.493   5.151   5.640 -0.5356  1.1577 -0.0365
 6558TIP3   OH219630   5.723   1.245   5.042 -0.0962 -0.5343  0.4451
 6558TIP3    H119631   5.791   1.181   5.064  0.5845  0.0027 -0.0774
 6558TIP3    H219632   5.686   1.271   5.127  0.7538 -0.3787  0.7699
 6559TIP3   OH219633   1.865   5.513   6.750 -0.2581  0.2091 -0.2734
 6559TIP3    H119634   1.794   5.531   6.812  0.8786  1.6726  0.6320
 6559TIP3    H219635   1.928   5.583   6.763  1.3559 -1.0231 -1.1204
 6560TIP3   OH219636   1.595   2.490   1.614  0.1939  0.1051 -0.1831
 6560TIP3    H119637   1.660   2.516   1.680  1.8871 -1.1167 -1.3023
 6560TIP3    H219638   1.573   2.572   1.569  2.2154  0.3571 -0.8405
 6561TIP3   OH219639   7.566   3.795   5.741 -0.2370  0.1283  0.2836
 6561TIP3    H119640   7.656   3.821   5.722  0.1309 -2.5190 -2.3052
 6561TIP3    H219641   7.574   3.711   5.788 -1.3322 -0.1650 -0.0141
 6562TIP3   OH219642   7.353   2.161   5.491 -0.5134  0.3818 -0.0691
 6562TIP3    H119643   7.332   2.252   5.468 -0.6980  0.7423  1.4352
 6562TIP3    H219644   7.412   2.132   5.421  0.0396  1.8517 -0.2497
 6563TIP3   OH219645   8.080   6.808   2.667  0.2701  0.7654  0.0956
 6563TIP3    H119646   8.072   6.782   2.759  0.3427 -2.8407 -0.7584
 6563TIP3    H219647   8.056   6.901   2.666  0.6117  1.0431  3.7666
 6564TIP3   OH219648   3.880   6.029   3.075  0.1422 -0.5314 -0.2663
 6564TIP3    H119649   3.931   5.985   3.143  0.4877 -0.5480 -0.5297
 6564TIP3    H219650   3.941   6.094   3.038  0.0195 -0.6484 -0.6794
 6565TIP3   OH219651   4.342   0.771   2.356 -0.6296 -0.0761 -0.1891
 6565TIP3    H119652   4.376   0.705   2.416 -0.4352  0.5953  0.4528
 6565TIP3    H219653   4.389   0.755   2.274  1.4197  0.9423  0.7243
 6566TIP3   OH219654   4.680   6.581   0.117 -0.9695 -0.2831 -0.5862
 6566TIP3    H119655   4.732   6.606   0.193 -1.7561 -3.0740  1.0061
 6566TIP3    H219656   4.635   6.661   0.091  1.1943  1.3284  0.2942
 6567TIP3   OH219657   2.046   5.472   3.058 -0.2579 -0.1355 -0.3401
 6567TIP3    H119658   2.029   5.529   2.983 -1.5115 -1.0049 -0.7477
 6567TIP3    H219659   1.972   5.488   3.117 -0.5534 -1.2086 -0.3995
 6568TIP3   OH219660   3.231   2.580   4.997  0.1243 -0.2055 -0.5898
 6568TIP3    H119661   3.164   2.512   4.990 -1.0967  1.0121 -1.3223
 6568TIP3    H219662   3.209   2.626   5.078 -0.5890  0.8341 -1.3461
 6569TIP3   OH219663   5.759   5.116   2.682 -0.1450 -0.1504 -0.2731
 6569TIP3    H119664   5.804   5.191   2.642 -0.3144  1.6365  2.6611
 6569TIP3    H219665   5.667   5.139   2.680 -0.3690 -1.0193 -0.6944
 6570TIP3   OH219666   4.985   6.963   6.338 -0.1450  0.1890  0.0847
 6570TIP3    H119667   4.953   7.040   6.291 -2.1373 -0.0775  0.9070
 6570TIP3    H219668   5.022   6.907   6.270 -0.0010  1.2294 -0.7165
 6571TIP3   OH219669   2.121   6.512   0.877  0.4470  0.1460  0.7385
 6571TIP3    H119670   2.049   6.567   0.846 -0.5947 -2.0400 -1.0347
 6571TIP3    H219671   2.190   6.574   0.899 -0.6955  2.1921 -0.9735
 6572TIP3   OH219672   3.460   2.825   0.780 -0.4170 -0.0823 -0.6848
 6572TIP3    H119673   3.408   2.748   0.804 -1.8068  0.8436 -0.6083
 6572TIP3    H219674   3.539   2.818   0.833 -1.1917 -0.6827  0.4288
 6573TIP3   OH219675   3.587   3.104   5.616 -0.0830  0.0000  0.3861
 6573TIP3    H119676   3.668   3.154   5.624 -0.1520  0.0034  1.1115
 6573TIP3    H219677   3.614   3.012   5.623 -0.0015 -0.0579 -0.5730
 6574TIP3   OH219678   6.542   2.730   3.513  0.0867  0.0117  0.3581
 6574TIP3    H119679   6.557   2.682   3.432 -0.7203 -0.2926  0.3774
 6574TIP3    H219680   6.606   2.801   3.512 -0.6370  0.6667 -1.0606
 6575TIP3   OH219681   0.064   0.478   5.822  0.2986 -0.5631  0.1845
 6575TIP3    H119682   0.006   0.421   5.772 -1.1456  1.2732 -0.3614
 6575TIP3    H219683   0.148   0.431   5.825 -0.6610 -2.4438 -0.6391
 6576TIP3   OH219684   5.204   3.590   0.495 -0.1862 -0.0117 -0.2334
 6576TIP3    H119685   5.198   3.644   0.574 -0.2782  1.3805 -1.1629
 6576TIP3    H219686   5.121   3.542   0.492  0.1682 -0.7221  0.9565
 6577TIP3   OH219687   6.718   5.727   1.774  0.2648  0.3550  0.0974
 6577TIP3    H119688   6.663   5.655   1.742 -0.8224  0.6491  1.2522
 6577TIP3    H219689   6.804   5.687   1.786  0.7717  0.2084 -3.1071
 6578TIP3   OH219690   6.866   7.335   1.927  0.0394  0.2185  0.3742
 6578TIP3    H119691   6.850   7.395   1.999  2.0259  0.6529  0.5115
 6578TIP3    H219692   6.869   7.248   1.967  1.9323  0.5371  0.9738
 6579TIP3   OH219693   5.665   4.490   5.825  0.1997  0.3539  0.0725
 6579TIP3    H119694   5.636   4.493   5.916 -0.1482 -0.2937 -0.0088
 6579TIP3    H219695   5.664   4.397   5.803  2.8559  0.2153  0.2100
 6580TIP3   OH219696   4.318   5.403   1.730 -0.2808  0.0467 -0.3673
 6580TIP3    H119697   4.396   5.392   1.676  1.2750  0.8433  1.5797
 6580TIP3    H219698   4.307   5.319   1.775  0.2898  0.3251  0.3297
 6581TIP3   OH219699   1.289   7.288   3.132 -0.2083 -0.3105 -0.4665
 6581TIP3    H119700   1.284   7.195   3.155 -1.5676 -0.6586 -2.0028
 6581TIP3    H219701   1.203   7.323   3.154 -0.0451  0.3404 -0.8508
 6582TIP3   OH219702   0.305   3.280   2.266 -0.7478  0.5384 -0.2638
 6582TIP3    H119703   0.265   3.303   2.182 -0.7803 -1.2754 -0.7859
 6582TIP3    H219704   0.339   3.363   2.300 -2.9652  1.7816 -0.8341
 6583TIP3   OH219705   3.468   3.450   1.327  0.6853 -0.1918  0.3534
 6583TIP3    H119706   3.544   3.412   1.370  0.3305 -1.3661 -0.0151
 6583TIP3    H219707   3.470   3.415   1.238  0.0488  0.2227  0.1689
 6584TIP3   OH219708   5.039   4.771   4.168  0.3218  0.2695  0.2138
 6584TIP3    H119709   5.083   4.688   4.149  0.2912  0.2536  0.2112
 6584TIP3    H219710   4.946   4.752   4.154  0.2178  0.0305  1.1542
 6585TIP3   OH219711   1.433   1.739   3.717 -0.1579 -0.4944 -0.5057
 6585TIP3    H119712   1.368   1.671   3.735 -0.8207 -0.3769 -2.2841
 6585TIP3    H219713   1.382   1.820   3.716 -0.0003 -0.3890 -1.8190
 6586TIP3   OH219714   0.988   3.010   4.453  0.3617  0.1306  0.0779
 6586TIP3    H119715   0.898   2.978   4.451  0.4049 -0.0131  0.3596
 6586TIP3    H219716   1.011   3.013   4.546  0.3827  0.9257  0.0461
 6587TIP3   OH219717   2.655   3.324   5.567 -0.4217 -0.1909 -0.5749
 6587TIP3    H119718   2.585   3.317   5.502  0.3673 -0.4212 -1.4179
 6587TIP3    H219719   2.705   3.401   5.540 -0.9582  0.6144  0.6474
 6588TIP3   OH219720   2.171   5.158   5.995 -0.1821  0.1390  0.5082
 6588TIP3    H119721   2.112   5.116   6.057  0.0657  0.5207  1.0126
 6588TIP3    H219722   2.220   5.222   6.048  1.1324 -0.5983  0.2406
 6589TIP3   OH219723   6.761   3.915   2.660  0.4635 -0.4385  0.4822
 6589TIP3    H119724   6.834   3.935   2.718  1.5191  2.1324 -1.5302
 6589TIP3    H219725   6.796   3.926   2.572 -1.5673 -2.3062 -0.6784
 6590TIP3   OH219726   7.524   6.382   5.715 -0.0826  0.0780  0.1255
 6590TIP3    H119727   7.605   6.359   5.762 -0.5381 -0.1147  0.8253
 6590TIP3    H219728   7.481   6.299   5.699 -0.3245  0.2108  0.0826
 6591TIP3   OH219729   7.041   2.766   2.552 -0.2742  0.2028 -0.5471
 6591TIP3    H119730   7.030   2.674   2.527  0.5012 -0.2260  0.5939
 6591TIP3    H219731   7.132   2.772   2.582  0.0219  1.6146 -1.6387
 6592TIP3   OH219732   5.722   4.259   2.857 -0.0427 -0.4371 -0.0053
 6592TIP3    H119733   5.791   4.272   2.793 -2.1596 -1.5853 -2.7540
 6592TIP3    H219734   5.647   4.308   2.822 -1.0735 -0.4424  2.0522
 6593TIP3   OH219735   4.769   1.453   0.859  0.4440  0.0511 -0.1733
 6593TIP3    H119736   4.847   1.431   0.809  0.0420 -1.1010 -0.3117
 6593TIP3    H219737   4.794   1.439   0.950  0.3145 -0.6228 -0.2362
 6594TIP3   OH219738   3.953   6.353   0.486  0.1596  0.2335 -0.5761
 6594TIP3    H119739   4.022   6.295   0.455 -1.3712 -1.7382 -0.4966
 6594TIP3    H219740   3.961   6.350   0.582  0.1596  0.2785 -0.5746
 6595TIP3   OH219741   7.495   6.394   1.285 -0.4853 -0.7938  0.0458
 6595TIP3    H119742   7.575   6.441   1.309 -2.5511  1.7010  2.8598
 6595TIP3    H219743   7.447   6.455   1.229 -1.0755 -1.6271 -0.3767
 6596TIP3   OH219744   1.423   6.418   5.528 -0.2131  0.1778  0.2110
 6596TIP3    H119745   1.505   6.463   5.505 -1.0361  2.3174  1.2196
 6596TIP3    H219746   1.391   6.383   5.444 -0.4959  3.2354 -1.0996
 6597TIP3   OH219747   2.086   1.565   2.964 -0.0172  0.1749 -0.0250
 6597TIP3    H119748   1.997   1.534   2.978  0.3747 -0.7278  0.6014
 6597TIP3    H219749   2.105   1.619   3.041  0.0867  0.1154 -0.0089
 6598TIP3   OH219750   7.948   3.209   1.424 -0.3780  0.0251 -0.1566
 6598TIP3    H119751   7.869   3.159   1.443  0.7068 -1.5731  0.4457
 6598TIP3    H219752   7.920   3.300   1.422 -2.4234 -0.5621 -1.0861
 6599TIP3   OH219753   0.915  -0.013   0.403  0.4029  0.5179  0.2792
 6599TIP3    H119754   0.963  -0.035   0.483 -1.5969 -0.9919  1.1590
 6599TIP3    H219755   0.914   0.083   0.400  0.7339  0.5910  1.9211
 6600TIP3   OH219756   4.873   6.210   5.343 -0.1307  0.2537  0.1008
 6600TIP3    H119757   4.925   6.290   5.343  0.1454  0.0973 -1.2045
 6600TIP3    H219758   4.792   6.234   5.387  0.0440  1.1863 -0.0657
 6601TIP3   OH219759   3.190   6.093   1.581  0.0857 -0.8285 -0.5674
 6601TIP3    H119760   3.195   6.042   1.662  0.7667  1.0480  0.6316
 6601TIP3    H219761   3.205   6.029   1.512  1.2596 -2.1959  0.8682
 6602TIP3   OH219762   6.124   5.544   4.735  0.3878  0.5245  0.0094
 6602TIP3    H119763   6.171   5.461   4.738  2.7458  1.7303 -1.1327
 6602TIP3    H219764   6.115   5.562   4.642  0.9075  2.0513  0.2321
 6603TIP3   OH219765   3.079   0.373   0.224  0.0104  0.1857  0.3132
 6603TIP3    H119766   3.041   0.303   0.170  0.5101 -0.0196  0.2250
 6603TIP3    H219767   3.169   0.381   0.193 -0.3034  1.5244 -0.3354
 6604TIP3   OH219768   5.247   6.733   5.889  0.3738 -0.6261 -0.3266
 6604TIP3    H119769   5.264   6.653   5.839 -1.5566 -0.5495 -1.1639
 6604TIP3    H219770   5.230   6.800   5.823  0.1327  0.0583  0.4090
 6605TIP3   OH219771   2.400   6.416   1.813 -0.2783 -0.0108 -0.2178
 6605TIP3    H119772   2.304   6.412   1.806 -0.3372 -1.2247  0.9396
 6605TIP3    H219773   2.418   6.508   1.829 -0.9099  0.9907 -4.1275
 6606TIP3   OH219774   5.308   7.794   3.268 -0.0523  0.4356 -0.1698
 6606TIP3    H119775   5.306   7.738   3.345  0.6634  1.8652  0.9233
 6606TIP3    H219776   5.331   7.881   3.301 -0.0342  1.1551 -1.9497
 6607TIP3   OH219777   1.646   4.008   3.751  0.0806 -0.0462  0.5850
 6607TIP3    H119778   1.586   4.005   3.677  1.1938 -0.5553 -0.3163
 6607TIP3    H219779   1.660   3.917   3.776  0.6046  0.0485  0.6654
 6608TIP3   OH219780   2.398   5.756   1.410 -0.4694 -0.1468 -0.1104
 6608TIP3    H119781   2.404   5.848   1.386 -0.0820 -0.2938 -0.6055
 6608TIP3    H219782   2.339   5.754   1.486  0.8387  0.6925  0.9692
 6609TIP3   OH219783   2.064   6.490   3.625 -0.2358 -0.2064  0.3082
 6609TIP3    H119784   2.047   6.541   3.704 -1.3426  2.2829 -1.4267
 6609TIP3    H219785   2.129   6.541   3.576 -1.3364 -0.4214 -1.4760
 6610TIP3   OH219786   6.852   4.823   0.312 -0.4786 -0.0518 -0.1357
 6610TIP3    H119787   6.889   4.754   0.257 -0.8589  0.4504 -1.0432
 6610TIP3    H219788   6.924   4.851   0.367  0.5771  1.0182 -1.9791
 6611TIP3   OH219789   1.230   1.289   0.705  0.0131 -0.1881  0.3604
 6611TIP3    H119790   1.323   1.274   0.689 -0.6182 -2.1271 -2.1343
 6611TIP3    H219791   1.204   1.352   0.638 -0.7862 -0.9870 -0.1031
 6612TIP3   OH219792   3.636   2.439   6.540 -0.0473  0.2614  0.3107
 6612TIP3    H119793   3.727   2.409   6.532 -0.2228  0.1078 -1.9616
 6612TIP3    H219794   3.641   2.534   6.538  0.0745  0.2552  0.3207
 6613TIP3   OH219795   8.137   6.263   3.296 -0.1287  0.0143 -0.5390
 6613TIP3    H119796   8.174   6.200   3.358 -1.2161  0.9147  1.1107
 6613TIP3    H219797   8.204   6.272   3.228  1.9047  0.2662  1.3774
 6614TIP3   OH219798   2.157   4.780   0.236  0.3947 -0.1766 -0.2097
 6614TIP3    H119799   2.143   4.856   0.292 -1.2689 -0.6634  0.1012
 6614TIP3    H219800   2.251   4.779   0.219  0.7454  0.7498  1.4673
 6615TIP3   OH219801   6.292   3.704   4.768  0.1081  0.4841  0.0156
 6615TIP3    H119802   6.305   3.647   4.844  0.1186  0.7677  0.2294
 6615TIP3    H219803   6.359   3.771   4.777  2.2753 -1.2440 -1.9836
 6616TIP3   OH219804   0.898   1.290   1.118  0.4738 -0.7912  0.0187
 6616TIP3    H119805   0.917   1.251   1.203 -0.7033  1.2306  1.3130
 6616TIP3    H219806   0.840   1.228   1.075  0.2755 -1.3927  1.1192
 6617TIP3   OH219807   4.139   6.415   3.862 -0.2921  0.5283 -0.2071
 6617TIP3    H119808   4.167   6.446   3.777 -1.2413 -1.3164 -1.2525
 6617TIP3    H219809   4.082   6.340   3.843  0.7150 -0.9439  2.0823
 6618TIP3   OH219810   6.164   2.761   0.524  0.1286  0.5342 -0.0339
 6618TIP3    H119811   6.151   2.821   0.450  0.0536  1.1160  0.4407
 6618TIP3    H219812   6.197   2.817   0.595  2.4618 -0.4031 -0.2985
 6619TIP3   OH219813   5.493   2.414   2.813  0.3337  0.6992  0.6989
 6619TIP3    H119814   5.586   2.435   2.822  0.7286 -0.8485  0.4760
 6619TIP3    H219815   5.479   2.403   2.719 -0.2742  1.6863  0.6559
 6620TIP3   OH219816   1.855   2.014   1.708 -0.3591  0.5996  0.7241
 6620TIP3    H119817   1.847   2.010   1.803  0.7984 -0.5214  0.7950
 6620TIP3    H219818   1.778   1.967   1.676 -0.1713  0.0127  1.1264
 6621TIP3   OH219819   5.205   6.710   0.088  0.3982 -0.1929  0.2069
 6621TIP3    H119820   5.260   6.787   0.103  0.0585  0.0473  0.2355
 6621TIP3    H219821   5.254   6.657   0.025  0.5169  0.1683 -0.0067
 6622TIP3   OH219822   0.446   6.468   3.962  0.1301 -0.7471 -0.1886
 6622TIP3    H119823   0.525   6.416   3.945  0.3177 -0.2897 -0.7366
 6622TIP3    H219824   0.460   6.505   4.049 -0.0061 -1.6009  0.2167
 6623TIP3   OH219825   5.183   1.195   3.180  0.2861 -0.2285  0.1382
 6623TIP3    H119826   5.105   1.148   3.151 -0.5136  1.4883 -0.6531
 6623TIP3    H219827   5.170   1.209   3.273 -1.0363  1.1666 -0.2095
 6624TIP3   OH219828   6.579   2.038   4.010  0.4748 -0.1325  0.1912
 6624TIP3    H119829   6.590   2.062   4.102  1.7220  0.4740 -0.1004
 6624TIP3    H219830   6.622   1.953   4.002  0.4476 -0.1416  0.1444
 6625TIP3   OH219831   0.560   0.931   5.045 -0.0182 -0.0762 -0.2431
 6625TIP3    H119832   0.562   0.992   4.972 -0.5905 -0.3333 -0.4871
 6625TIP3    H219833   0.495   0.967   5.106  1.7676  1.1190  1.0530
 6626TIP3   OH219834   0.765   3.153   0.460 -0.2668 -0.6094 -0.1025
 6626TIP3    H119835   0.765   3.168   0.366 -1.9554 -1.1693 -0.2201
 6626TIP3    H219836   0.798   3.064   0.470  1.4886  0.0085 -0.0101
 6627TIP3   OH219837   1.450   5.691   4.727  0.0129  0.2069 -0.3692
 6627TIP3    H119838   1.369   5.642   4.712 -0.1158  0.5515 -0.8194
 6627TIP3    H219839   1.514   5.624   4.751 -0.8661  0.1230  1.9875
 6628TIP3   OH219840   4.208   3.964   0.187 -0.3033  0.0361 -0.1316
 6628TIP3    H119841   4.291   3.983   0.143 -1.1070  1.1160 -1.2509
 6628TIP3    H219842   4.205   3.868   0.192  0.9206 -0.0249 -0.2120
 6629TIP3   OH219843   4.478   2.473   4.270 -0.0147  0.0129 -0.0947
 6629TIP3    H119844   4.492   2.566   4.287  0.6666 -0.1751  0.3799
 6629TIP3    H219845   4.561   2.431   4.292 -0.0698 -0.6206 -1.0103
 6630TIP3   OH219846   6.620   3.031   0.172  0.1458 -0.3068 -0.9099
 6630TIP3    H119847   6.578   3.105   0.215 -1.1622 -1.4150 -0.2072
 6630TIP3    H219848   6.674   2.991   0.241  0.6072 -0.2133 -1.2063
 6631TIP3   OH219849   2.512   6.018   0.903 -0.1845  0.5913 -0.4808
 6631TIP3    H119850   2.556   5.932   0.901 -1.2943 -0.0108 -0.0260
 6631TIP3    H219851   2.583   6.081   0.892  0.7085 -0.3735 -0.4733
 6632TIP3   OH219852   6.695   0.614   0.782  0.1241  0.4249 -0.3348
 6632TIP3    H119853   6.628   0.658   0.730 -0.0707  1.4575  0.7584
 6632TIP3    H219854   6.767   0.600   0.720  0.2347  2.3888 -0.7140
 6633TIP3   OH219855   6.970   5.002   0.634  0.6290 -0.0935  0.3468
 6633TIP3    H119856   6.894   4.946   0.618 -0.3031  1.6866 -2.0350
 6633TIP3    H219857   7.029   4.948   0.686 -2.9422 -0.9840  4.0176
 6634TIP3   OH219858   3.453   4.830   0.489 -0.6627 -0.0202  0.1952
 6634TIP3    H119859   3.380   4.877   0.448  0.2773  1.0436 -0.3386
 6634TIP3    H219860   3.466   4.753   0.434 -1.3161 -0.1648  0.2399
 6635TIP3   OH219861   2.780   0.773   1.104  0.0200 -0.1061 -0.1139
 6635TIP3    H119862   2.808   0.715   1.175  0.2798  1.6604  1.3256
 6635TIP3    H219863   2.861   0.807   1.067 -0.1211  0.5968  0.1968
 6636TIP3   OH219864   8.133   7.564   4.651  0.1242 -0.4992  0.1345
 6636TIP3    H119865   8.152   7.496   4.715 -1.8474 -1.0361  0.1930
 6636TIP3    H219866   8.098   7.517   4.575 -2.3003  0.4393  0.5665
 6637TIP3   OH219867   5.941   4.376   3.885  0.4483  0.3062 -0.3907
 6637TIP3    H119868   5.996   4.330   3.948 -0.9821 -1.4511 -0.3089
 6637TIP3    H219869   5.872   4.416   3.938 -0.1863 -0.3135 -0.7303
 6638TIP3   OH219870   1.110   6.469   2.916 -0.5099  0.1813 -0.0506
 6638TIP3    H119871   1.094   6.486   2.823  0.2366 -1.4722 -0.5422
 6638TIP3    H219872   1.181   6.404   2.915 -0.0733  0.5886  1.7061
 6639TIP3   OH219873   6.598   6.205   4.707  0.3054  0.9462  0.2284
 6639TIP3    H119874   6.570   6.237   4.621  1.1395 -0.2543 -0.5245
 6639TIP3    H219875   6.520   6.212   4.762 -0.9932 -0.5503 -1.2993
 6640TIP3   OH219876   1.500   2.559   3.795  0.4698  0.0598 -0.3659
 6640TIP3    H119877   1.482   2.615   3.719  0.5884  0.1448 -0.3306
 6640TIP3    H219878   1.490   2.617   3.871  1.9473  0.3768 -0.3881
 6641TIP3   OH219879   7.923   2.159   1.208  0.1010 -0.2598  0.5535
 6641TIP3    H119880   7.957   2.243   1.177 -0.4221 -0.2509 -0.0094
 6641TIP3    H219881   7.986   2.132   1.275  0.4634  0.4129  0.5005
 6642TIP3   OH219882   0.497   0.596   4.642  0.1899 -0.1051  0.3953
 6642TIP3    H119883   0.551   0.576   4.719  0.6980 -1.2577 -0.2468
 6642TIP3    H219884   0.438   0.521   4.634 -2.1935  1.4830  1.5897
 6643TIP3   OH219885   0.306   1.454   4.393 -0.2601 -1.0035 -0.0545
 6643TIP3    H119886   0.215   1.429   4.377 -0.9501  1.5489 -0.7007
 6643TIP3    H219887   0.348   1.375   4.427 -2.8620 -2.0871  0.8749
 6644TIP3   OH219888   2.359   0.822   4.442 -0.7550  0.0437 -0.1185
 6644TIP3    H119889   2.437   0.869   4.415  0.3651 -1.5820  0.1712
 6644TIP3    H219890   2.372   0.732   4.412 -3.4117  0.1154 -1.8319
 6645TIP3   OH219891   7.100   5.023   1.789  0.2046 -0.5819 -0.4778
 6645TIP3    H119892   7.056   4.998   1.708 -1.0509 -1.5784  0.4823
 6645TIP3    H219893   7.062   5.107   1.813 -0.0191 -0.6794 -0.4922
 6646TIP3   OH219894   5.228   3.353   0.054  0.3570  0.0661  0.2618
 6646TIP3    H119895   5.139   3.323   0.037  0.2083  0.3306  0.5613
 6646TIP3    H219896   5.233   3.439   0.012  0.3774  0.1789  0.4927
 6647TIP3   OH219897   3.152   7.447   5.644  0.1624  0.1464  0.1284
 6647TIP3    H119898   3.060   7.423   5.637 -0.6261  3.0753 -1.0541
 6647TIP3    H219899   3.154   7.516   5.711  1.0217  1.8327 -1.5362
 6648TIP3   OH219900   2.401   7.708   6.252 -0.0143  0.2512 -0.6628
 6648TIP3    H119901   2.407   7.644   6.323  0.7923  2.2308  1.1502
 6648TIP3    H219902   2.491   7.725   6.227 -0.2674  0.0259 -1.7706
 6649TIP3   OH219903   5.711   3.664   6.161  0.2085 -0.5314  0.1879
 6649TIP3    H119904   5.755   3.643   6.243  0.0455  0.7767  0.6254
 6649TIP3    H219905   5.650   3.734   6.183  1.7067  1.4274 -1.4399
 6650TIP3   OH219906   3.350   5.217   5.588  0.3152 -0.4122  0.2325
 6650TIP3    H119907   3.334   5.127   5.558 -1.1607  0.0414 -0.4449
 6650TIP3    H219908   3.269   5.241   5.633  0.7486  0.5496  0.5094
 6651TIP3   OH219909   1.426   6.968   2.313 -0.3807  0.2118 -0.3931
 6651TIP3    H119910   1.333   6.950   2.304 -0.4221  0.9450 -1.8057
 6651TIP3    H219911   1.435   7.014   2.396 -1.3400  0.4679 -0.4259
 6652TIP3   OH219912   3.856   2.283   5.940  0.3810  0.1211 -0.1876
 6652TIP3    H119913   3.821   2.370   5.958  0.7052  0.1372  0.3852
 6652TIP3    H219914   3.946   2.299   5.911  0.1029  0.0430 -1.1347
 6653TIP3   OH219915   5.897   0.989   4.192  0.1144  0.5259  0.1760
 6653TIP3    H119916   5.892   1.037   4.109  0.5276 -0.7395 -0.6164
 6653TIP3    H219917   5.947   1.046   4.250  0.1898  1.2552 -0.5799
 6654TIP3   OH219918   2.946   0.201   0.397 -0.1087 -0.3619  0.5032
 6654TIP3    H119919   2.998   0.248   0.331 -2.6825  1.2761 -0.5306
 6654TIP3    H219920   2.949   0.110   0.369 -1.7366  0.3667 -2.4942
 6655TIP3   OH219921   2.098   4.197   5.506 -0.5906  0.0656  0.2183
 6655TIP3    H119922   2.010   4.223   5.478  0.0281  1.8670 -0.1803
 6655TIP3    H219923   2.124   4.264   5.569  0.8856  0.1214 -0.4223
 6656TIP3   OH219924   3.257   3.197   5.676  0.8751 -0.8907 -0.0114
 6656TIP3    H119925   3.208   3.231   5.601  0.4155  1.7103  1.3308
 6656TIP3    H219926   3.349   3.210   5.652  0.7220  1.5540  0.4458
 6657TIP3   OH219927   3.446   3.972   4.231 -0.1621 -0.4680  0.5724
 6657TIP3    H119928   3.506   3.912   4.187 -3.7284 -2.5638 -2.0531
 6657TIP3    H219929   3.436   4.045   4.170 -0.5032 -0.2972  0.8301
 6658TIP3   OH219930   4.493   7.703   1.195  0.0038 -0.3961  0.0228
 6658TIP3    H119931   4.429   7.691   1.266 -0.6132  0.1336 -0.4234
 6658TIP3    H219932   4.441   7.738   1.123  0.8939  0.5054 -0.1980
 6659TIP3   OH219933   1.036   1.575   0.150  0.1079  0.4739  0.0969
 6659TIP3    H119934   0.959   1.628   0.169  0.1091 -0.1935  2.3039
 6659TIP3    H219935   1.110   1.632   0.172  0.1474  0.1655  0.7976
 6660TIP3   OH219936   6.811   3.714   4.780 -0.0316  0.3187 -0.4653
 6660TIP3    H119937   6.887   3.675   4.824 -0.8846  0.1986  0.9640
 6660TIP3    H219938   6.849   3.773   4.715  1.2856 -0.2133 -0.2206
 6661TIP3   OH219939   7.766   0.421   2.059 -0.4513 -0.1127 -0.5268
 6661TIP3    H119940   7.849   0.457   2.090  0.3749 -1.1871 -1.3738
 6661TIP3    H219941   7.700   0.456   2.119  0.6839  0.3266  0.5093
 6662TIP3   OH219942   5.671   5.532   0.740  0.5754 -0.2658 -0.1457
 6662TIP3    H119943   5.648   5.572   0.825 -0.3251  0.1477 -0.5730
 6662TIP3    H219944   5.706   5.446   0.763  1.6869  0.3935  0.7416
 6663TIP3   OH219945   5.100   0.388   1.553  0.4037 -0.6357  0.3186
 6663TIP3    H119946   5.089   0.390   1.648 -0.4733  1.2978  0.2177
 6663TIP3    H219947   5.039   0.454   1.520  0.3240 -1.6131 -1.6465
 6664TIP3   OH219948   0.644   1.043   3.260  0.1681 -0.4295  0.3071
 6664TIP3    H119949   0.588   1.016   3.187  1.0362  0.6321 -0.8011
 6664TIP3    H219950   0.715   0.979   3.260 -0.6572 -1.3905  1.2977
 6665TIP3   OH219951   3.626   0.159   4.538  0.4605  0.0242  0.1206
 6665TIP3    H119952   3.589   0.088   4.591  1.1695 -0.1022  0.4512
 6665TIP3    H219953   3.715   0.131   4.519 -0.0545 -0.4197 -2.0155
 6666TIP3   OH219954   7.436   0.445   6.692  0.6209  0.6688 -0.4063
 6666TIP3    H119955   7.402   0.525   6.733 -1.5285  0.3360 -1.3549
 6666TIP3    H219956   7.454   0.471   6.601 -0.6466 -0.0141 -0.8765
 6667TIP3   OH219957   0.704   2.951   4.326 -0.4189  0.2857 -0.5612
 6667TIP3    H119958   0.739   2.887   4.264  1.8053  0.0179  0.8704
 6667TIP3    H219959   0.723   3.036   4.286 -0.5748  0.0968 -1.0411
 6668TIP3   OH219960   5.043   2.589   5.887 -0.1949 -0.1874  0.2964
 6668TIP3    H119961   5.041   2.620   5.977  0.5681  0.3438  0.1415
 6668TIP3    H219962   5.014   2.498   5.892  0.2161 -0.2776  1.1292
 6669TIP3   OH219963   0.596   4.423   4.338 -0.4735  0.1726 -0.1343
 6669TIP3    H119964   0.576   4.389   4.251 -0.1662 -0.5033  0.0499
 6669TIP3    H219965   0.520   4.400   4.391  0.0813 -0.9952  0.1891
 6670TIP3   OH219966   1.739   3.798   0.628 -0.0112 -0.6974  0.1610
 6670TIP3    H119967   1.802   3.729   0.650  0.1499 -0.6090 -0.0169
 6670TIP3    H219968   1.754   3.814   0.535  1.0972  0.7188  0.5436
 6671TIP3   OH219969   6.872   4.853   6.070  0.5114  0.2752  0.3497
 6671TIP3    H119970   6.926   4.904   6.009 -0.3120  0.0734 -0.5915
 6671TIP3    H219971   6.923   4.775   6.088  1.0563  0.6498  0.4436
 6672TIP3   OH219972   1.437   1.086   5.732 -0.4910 -0.7036 -0.3710
 6672TIP3    H119973   1.399   0.999   5.720  1.9288 -1.8267 -0.4445
 6672TIP3    H219974   1.485   1.103   5.650 -1.4671  1.0193 -0.6351
 6673TIP3   OH219975   6.081   2.227   2.695  0.0131 -0.5092  0.3612
 6673TIP3    H119976   6.013   2.264   2.639 -0.4658 -1.7279  0.0960
 6673TIP3    H219977   6.085   2.286   2.770 -1.1084 -0.2214  0.2228
 6674TIP3   OH219978   1.176   0.673   3.665  0.3142 -0.2177 -0.7312
 6674TIP3    H119979   1.200   0.597   3.718  0.1498  0.3326  0.1667
 6674TIP3    H219980   1.259   0.716   3.644  0.4083 -0.6482 -1.2570
 6675TIP3   OH219981   2.993   4.540   5.548  0.0654  0.7523  0.6060
 6675TIP3    H119982   2.974   4.578   5.462 -0.2851  1.9836  1.1996
 6675TIP3    H219983   2.910   4.504   5.577 -0.0436  1.1457  0.7998
 6676TIP3   OH219984   5.334   7.393   0.402 -0.1711  0.6334 -0.7783
 6676TIP3    H119985   5.251   7.375   0.359 -0.8109 -0.2938  0.7749
 6676TIP3    H219986   5.315   7.390   0.496  1.5565  0.6311 -0.3819
 6677TIP3   OH219987   2.210   3.185   0.221  0.4585  0.2300  0.7843
 6677TIP3    H119988   2.194   3.092   0.239 -0.7033  0.5946  1.7510
 6677TIP3    H219989   2.244   3.187   0.132 -0.6580 -1.0281  0.3025
 6678TIP3   OH219990   5.923   0.203   4.699  0.2124  0.2380  0.9171
 6678TIP3    H119991   5.903   0.239   4.786  2.4841 -1.6066  2.3503
 6678TIP3    H219992   6.018   0.191   4.700 -0.0488 -2.8883 -0.5421
 6679TIP3   OH219993   6.549   7.732   5.178  0.2332 -0.2379 -0.1115
 6679TIP3    H119994   6.585   7.772   5.099  0.3434  1.0138  0.5530
 6679TIP3    H219995   6.465   7.695   5.150 -0.3465  1.3226 -0.5653
 6680TIP3   OH219996   7.015   4.736   1.820  0.3185 -0.0872 -0.2532
 6680TIP3    H119997   7.034   4.830   1.825 -0.4093  0.0439  0.3405
 6680TIP3    H219998   6.973   4.725   1.734 -0.1948  0.2606 -0.0565
 6681TIP3   OH219999   3.744   1.568   1.029 -0.1637 -0.6331 -0.4263
 6681TIP3    H120000   3.827   1.593   0.989 -0.0146 -2.0700 -1.1066
 6681TIP3    H220001   3.735   1.624   1.106  0.9293  0.2383 -0.9142
 6682TIP3   OH220002   7.537   6.457   3.883 -0.3793 -0.5931  0.3280
 6682TIP3    H120003   7.605   6.500   3.936  1.1776 -0.8660 -1.3582
 6682TIP3    H220004   7.578   6.443   3.798 -2.4828 -1.0579 -0.6724
 6683TIP3   OH220005   2.168   4.156   0.530  0.1563 -0.1582  0.1326
 6683TIP3    H120006   2.184   4.065   0.555  1.8077  0.3297  0.9937
 6683TIP3    H220007   2.073   4.166   0.534 -0.0447 -1.8342  0.0302
 6684TIP3   OH220008   1.328   4.876   0.515 -0.2605 -0.0012  1.1753
 6684TIP3    H120009   1.307   4.813   0.584 -2.6218 -0.3960  0.1852
 6684TIP3    H220010   1.417   4.854   0.489 -0.6931 -2.3892  1.4735
 6685TIP3   OH220011   0.934   2.410   4.563 -0.1460 -0.1160 -0.1976
 6685TIP3    H120012   0.870   2.393   4.494  0.1978  0.5271 -0.6797
 6685TIP3    H220013   1.015   2.433   4.517  0.0608  0.4138  0.4111
 6686TIP3   OH220014   7.390   2.310   4.834  0.7606  0.7993  0.0112
 6686TIP3    H120015   7.466   2.327   4.777 -0.1229 -0.6116 -1.6733
 6686TIP3    H220016   7.417   2.237   4.889  0.3593 -0.3001 -1.2089
 6687TIP3   OH220017   6.712   7.358   1.258 -0.4960 -0.0519 -0.5867
 6687TIP3    H120018   6.620   7.342   1.278 -0.2605  0.3140  0.9217
 6687TIP3    H220019   6.716   7.451   1.234 -0.3291  0.2970  0.7276
 6688TIP3   OH220020   0.837   4.801   6.673 -0.3231 -0.0032  0.1784
 6688TIP3    H120021   0.923   4.829   6.640 -0.0308 -0.2761  0.6924
 6688TIP3    H220022   0.779   4.806   6.597  0.5476 -1.5770 -0.6343
 6689TIP3   OH220023   3.033   5.584   1.937 -0.0474 -0.2856 -0.3470
 6689TIP3    H120024   3.047   5.493   1.962  0.5633 -0.0044  0.3638
 6689TIP3    H220025   2.938   5.597   1.947 -0.0988 -0.7589 -0.1893
 6690TIP3   OH220026   7.891   0.712   5.301 -0.0995 -0.1704  0.0151
 6690TIP3    H120027   7.814   0.763   5.328 -0.8038 -1.4966  0.6481
 6690TIP3    H220028   7.874   0.690   5.210 -0.2827 -0.1361  0.0398
 6691TIP3   OH220029   6.322   5.546   1.844  0.7803  0.3774  0.8617
 6691TIP3    H120030   6.262   5.564   1.772 -1.0377 -2.6139  1.4707
 6691TIP3    H220031   6.402   5.516   1.802  0.2049 -0.0630  0.0625
 6692TIP3   OH220032   3.303   0.780   0.312  0.2549  0.0923  0.0013
 6692TIP3    H120033   3.262   0.836   0.377 -2.5003 -0.4763 -1.0872
 6692TIP3    H220034   3.388   0.820   0.294 -1.2089  3.4146 -0.0910
 6693TIP3   OH220035   0.702   0.850   0.702  0.2842  0.0711 -0.5642
 6693TIP3    H120036   0.667   0.761   0.704  0.0141  0.1633  1.1881
 6693TIP3    H220037   0.792   0.841   0.735 -0.4808  0.6502  1.9386
 6694TIP3   OH220038   2.795   3.701   5.710  0.1059 -0.2835  0.4310
 6694TIP3    H120039   2.843   3.645   5.650  0.6047  2.2038 -1.6964
 6694TIP3    H220040   2.862   3.758   5.748 -0.6299  0.3903  0.7382
 6695TIP3   OH220041   1.308   0.751   4.420  0.4478  0.1690  0.2569
 6695TIP3    H120042   1.330   0.806   4.495  0.0349  1.9081 -0.8275
 6695TIP3    H220043   1.349   0.794   4.345  0.8712 -1.5331 -0.5465
 6696TIP3   OH220044   1.496   3.954   2.073 -0.0011 -0.1530 -0.4097
 6696TIP3    H120045   1.455   3.901   2.141  0.0959  0.1476 -0.1165
 6696TIP3    H220046   1.443   3.938   1.995 -1.5316  1.2850  0.2892
 6697TIP3   OH220047   4.366   4.914   2.115 -0.5961  0.4866 -0.0772
 6697TIP3    H120048   4.333   4.935   2.027 -0.5803  1.8149  0.2198
 6697TIP3    H220049   4.372   4.818   2.116 -2.9214  0.2766 -0.7036
 6698TIP3   OH220050   1.560   2.438   5.593 -0.0948 -0.1497  0.3047
 6698TIP3    H120051   1.474   2.468   5.622 -0.9682 -0.3572 -1.8736
 6698TIP3    H220052   1.607   2.519   5.570 -1.1535 -0.1387 -2.1372
 6699TIP3   OH220053   2.899   0.309   6.436 -0.4864 -0.6071  0.3674
 6699TIP3    H120054   2.862   0.232   6.480 -2.0144  0.6012  1.3006
 6699TIP3    H220055   2.833   0.334   6.372  0.0258 -0.0788  0.0353
 6700TIP3   OH220056   3.605   6.223   3.614  0.5058 -0.1939 -0.0876
 6700TIP3    H120057   3.533   6.208   3.553  1.3299 -0.7514 -0.9664
 6700TIP3    H220058   3.648   6.302   3.582  0.7557 -0.3176 -0.0676
 6701TIP3   OH220059   1.906   2.067   0.959  0.1437 -0.1551 -0.0569
 6701TIP3    H120060   1.816   2.088   0.984  0.1985  0.4919 -0.3962
 6701TIP3    H220061   1.917   1.976   0.987  0.1632  0.4655  2.1743
 6702TIP3   OH220062   4.462   6.538   2.439  0.3627  0.5269 -0.2631
 6702TIP3    H120063   4.409   6.565   2.514  1.5272  0.4532  0.6193
 6702TIP3    H220064   4.416   6.573   2.363  0.2151  2.4207  0.6261
 6703TIP3   OH220065   6.689   7.274   2.162  0.5221  0.2704  0.7021
 6703TIP3    H120066   6.734   7.353   2.133  2.3692 -1.5048 -1.6150
 6703TIP3    H220067   6.733   7.250   2.244  0.1034  1.4343  1.2999
 6704TIP3   OH220068   7.592   0.381   0.973 -0.1902  0.1744  0.3364
 6704TIP3    H120069   7.618   0.457   1.024 -1.4882  2.3902 -2.0955
 6704TIP3    H220070   7.670   0.359   0.922 -0.6803  2.0201 -1.3369
 6705TIP3   OH220071   4.641   6.095   2.296 -0.4802  0.0379 -0.6935
 6705TIP3    H120072   4.627   6.036   2.370  1.5912  0.9345  0.5197
 6705TIP3    H220073   4.579   6.167   2.310  0.0215  0.2938  0.3321
 6706TIP3   OH220074   6.732   1.757   1.345 -0.2629 -0.2830  0.2061
 6706TIP3    H120075   6.818   1.770   1.306 -0.7083 -0.7104 -0.9453
 6706TIP3    H220076   6.744   1.782   1.437  0.3067  2.7546 -0.5963
 6707TIP3   OH220077   5.245   1.221   5.419  0.2750  0.0792  0.6143
 6707TIP3    H120078   5.337   1.234   5.440  0.5846  2.0406 -1.5669
 6707TIP3    H220079   5.243   1.141   5.366  0.9433  0.7182 -0.4023
 6708TIP3   OH220080   7.249   2.508   0.190  0.2716  0.1911  0.0237
 6708TIP3    H120081   7.173   2.518   0.133 -1.1707  0.6625  1.9599
 6708TIP3    H220082   7.214   2.470   0.270  2.1178  0.2642  0.9114
 6709TIP3   OH220083   2.091   0.374   0.999  0.5633  0.1619 -0.0156
 6709TIP3    H120084   2.157   0.323   0.953 -0.0387  0.5657 -1.3777
 6709TIP3    H220085   2.133   0.458   1.016  0.6258  0.1913 -0.3037
 6710TIP3   OH220086   5.391   1.620   5.852  0.0640 -0.5490 -0.3059
 6710TIP3    H120087   5.342   1.544   5.881  1.6875 -2.0346 -1.2410
 6710TIP3    H220088   5.326   1.689   5.844 -1.3226 -1.5817  1.3850
 6711TIP3   OH220089   4.523   5.733   2.037 -0.0332 -0.0625  0.8351
 6711TIP3    H120090   4.580   5.702   1.967 -0.7254 -0.2251  0.3344
 6711TIP3    H220091   4.553   5.821   2.056 -0.5494  0.4052 -0.4472
 6712TIP3   OH220092   8.030   3.344   2.630  0.0267  0.0700  0.1109
 6712TIP3    H120093   8.110   3.351   2.578  1.0044  0.9842  1.6462
 6712TIP3    H220094   8.056   3.373   2.717 -1.5910 -1.2698  1.0844
 6713TIP3   OH220095   5.429   0.803   4.407  0.2155  0.4482  0.0794
 6713TIP3    H120096   5.510   0.836   4.446  0.8086 -1.1037  0.2176
 6713TIP3    H220097   5.362   0.817   4.474  0.3735  1.6299  0.0079
 6714TIP3   OH220098   3.085   2.479   4.751  0.6850  0.2614  0.1079
 6714TIP3    H120099   3.035   2.440   4.679  0.4957  0.6806  0.0120
 6714TIP3    H220100   3.044   2.443   4.830  1.3988 -0.8249  0.0077
 6715TIP3   OH220101   3.826   0.517   0.192 -0.3451 -0.2501 -0.0178
 6715TIP3    H120102   3.917   0.543   0.178  0.6366 -2.2408  2.0306
 6715TIP3    H220103   3.775   0.596   0.172  2.0415  1.8738  1.6086
 6716TIP3   OH220104   2.633   0.624   3.176 -0.0822  0.3452 -0.3473
 6716TIP3    H120105   2.625   0.685   3.102 -1.6088 -0.1342 -0.6159
 6716TIP3    H220106   2.564   0.559   3.161 -0.2782  0.1077  1.3854
 6717TIP3   OH220107   6.359   4.875   0.186 -0.9764  0.1867  0.6839
 6717TIP3    H120108   6.451   4.899   0.192 -0.0487 -2.2928 -1.8627
 6717TIP3    H220109   6.316   4.953   0.150 -0.1546  1.7040  2.7669
 6718TIP3   OH220110   4.976   5.470   0.345  0.2490  0.7689 -0.5254
 6718TIP3    H120111   4.980   5.565   0.356 -0.3386  0.9027 -1.3341
 6718TIP3    H220112   4.985   5.457   0.250 -0.3924  0.0640 -0.4994
 6719TIP3   OH220113   6.824   1.667   3.274  0.5512 -0.7004 -0.0698
 6719TIP3    H120114   6.885   1.692   3.344  0.4018  0.4022 -0.3134
 6719TIP3    H220115   6.800   1.750   3.234 -0.8438 -1.1616 -0.2119
 6720TIP3   OH220116   4.305   1.276   3.907 -0.0195 -0.3250  0.4864
 6720TIP3    H120117   4.221   1.304   3.944  0.1287 -0.8718  1.2694
 6720TIP3    H220118   4.356   1.248   3.983  0.5599 -0.8044 -0.0713
 6721TIP3   OH220119   6.006   3.642   2.857  0.0416  0.0848 -0.2066
 6721TIP3    H120120   6.000   3.550   2.829  1.0989  0.7820 -3.0938
 6721TIP3    H220121   6.099   3.662   2.852 -0.0644  1.0887  1.3414
 6722TIP3   OH220122   5.187   2.933   6.550 -0.2806 -0.2509  0.2866
 6722TIP3    H120123   5.254   2.978   6.601 -1.6748 -0.8483  2.8091
 6722TIP3    H220124   5.232   2.859   6.510  1.2392  1.2272 -0.9069
 6723TIP3   OH220125   7.837   5.770   5.174  0.3817  0.3040 -0.5378
 6723TIP3    H120126   7.921   5.738   5.141  0.7113  0.3185  0.2896
 6723TIP3    H220127   7.860   5.836   5.239 -0.2216 -1.1453  1.2215
 6724TIP3   OH220128   0.727   4.207   2.072 -0.7975 -0.0459  0.0061
 6724TIP3    H120129   0.780   4.263   2.129 -1.8626  1.7413 -0.6584
 6724TIP3    H220130   0.684   4.146   2.132  2.6407 -2.2514  0.4869
 6725TIP3   OH220131   3.926   7.312   5.512  0.5655 -0.2929 -0.4437
 6725TIP3    H120132   3.983   7.334   5.438 -2.0003 -2.1811 -3.2086
 6725TIP3    H220133   3.868   7.388   5.521 -0.7320 -1.0157 -2.1603
 6726TIP3   OH220134   5.314   4.160   5.992  0.4110 -0.1468 -0.5484
 6726TIP3    H120135   5.300   4.191   6.081  0.3174 -0.1371 -0.5661
 6726TIP3    H220136   5.397   4.113   5.995  0.9758  0.8333 -0.7073
 6727TIP3   OH220137   5.823   6.635   2.236 -0.1028 -0.1417  1.1737
 6727TIP3    H120138   5.895   6.631   2.174  0.8860  3.5228  1.8554
 6727TIP3    H220139   5.864   6.626   2.322 -0.3195  2.1043  1.5766
 6728TIP3   OH220140   2.030   5.815   2.764 -0.3350  0.0759  0.0090
 6728TIP3    H120141   2.097   5.798   2.698 -0.3623 -0.5129  0.1333
 6728TIP3    H220142   1.997   5.902   2.743 -0.5621 -0.2379 -0.9429
 6729TIP3   OH220143   5.501   5.594   1.662  0.0423 -0.9204  0.7111
 6729TIP3    H120144   5.553   5.574   1.584 -0.1061  0.5070  0.2151
 6729TIP3    H220145   5.416   5.620   1.627 -0.0247 -0.2639  1.3510
 6730TIP3   OH220146   6.472   2.501   5.291 -0.6070  0.0378 -0.7170
 6730TIP3    H120147   6.524   2.577   5.265 -0.3421  0.0027 -0.3027
 6730TIP3    H220148   6.452   2.456   5.209  0.9599 -0.5598 -0.8062
 6731TIP3   OH220149   1.002   5.666   5.619  0.1836  0.4448 -0.0245
 6731TIP3    H120150   0.968   5.579   5.642  1.4653 -0.1196 -0.1406
 6731TIP3    H220151   0.929   5.710   5.576 -0.7960 -0.2081  0.9172
 6732TIP3   OH220152   5.172   0.767   6.687 -0.0916 -0.2930  0.1365
 6732TIP3    H120153   5.108   0.787   6.619  0.4762 -1.0619 -0.6469
 6732TIP3    H220154   5.134   0.692   6.734  0.4384 -1.0632 -0.6392
 6733TIP3   OH220155   7.744   0.745   0.483 -0.0241  0.1711  0.2747
 6733TIP3    H120156   7.709   0.829   0.513  0.7466  0.9415 -0.9190
 6733TIP3    H220157   7.719   0.741   0.391  2.1122  0.2909 -0.3591
 6734TIP3   OH220158   7.178   2.588   0.963  0.3341  0.1964  0.6527
 6734TIP3    H120159   7.158   2.535   1.040  1.3285 -1.8400 -0.4182
 6734TIP3    H220160   7.130   2.546   0.892 -0.6911  2.1312  0.1285
 6735TIP3   OH220161   7.651   4.980   6.203  0.2729 -0.1444  0.2640
 6735TIP3    H120162   7.641   4.993   6.108 -0.4832 -1.7907  0.0711
 6735TIP3    H220163   7.611   5.057   6.242 -2.3897 -0.8900 -0.7500
 6736TIP3   OH220164   4.099   2.567   0.904  0.4678 -0.7528  0.0437
 6736TIP3    H120165   4.012   2.529   0.887  1.5784 -2.6530 -1.8360
 6736TIP3    H220166   4.091   2.659   0.878 -0.9824 -0.8674  0.0058
 6737TIP3   OH220167   4.549   1.181   3.414 -0.6718 -0.3193 -0.1560
 6737TIP3    H120168   4.534   1.251   3.351  0.9263 -0.4553 -0.7232
 6737TIP3    H220169   4.461   1.159   3.446 -1.2266  1.7857 -0.0858
 6738TIP3   OH220170   4.756   0.658   6.677  0.1902  0.7448 -0.5709
 6738TIP3    H120171   4.763   0.621   6.589 -1.0427 -1.0478  0.0414
 6738TIP3    H220172   4.705   0.738   6.665  0.8885  1.0685 -1.5907
 6739TIP3   OH220173   6.901   1.462   0.505 -0.0392 -0.5586  0.5269
 6739TIP3    H120174   6.978   1.447   0.559  2.1914 -0.3354 -2.3241
 6739TIP3    H220175   6.874   1.375   0.475 -0.8147 -0.6217  1.3836
 6740TIP3   OH220176   3.680   6.408   2.119  0.4723 -0.0919  0.0990
 6740TIP3    H120177   3.768   6.412   2.081  0.8329  0.6597  0.9792
 6740TIP3    H220178   3.663   6.314   2.128  1.4740 -0.2488  0.5380
 6741TIP3   OH220179   4.771   3.598   3.411 -0.5094  0.0674 -0.2702
 6741TIP3    H120180   4.840   3.560   3.465 -1.4626  1.1743  1.8291
 6741TIP3    H220181   4.710   3.526   3.395  0.2430 -0.4927 -0.7161
 6742TIP3   OH220182   0.940   5.052   3.458 -0.1312  0.0816 -0.2881
 6742TIP3    H120183   1.014   5.027   3.513  0.6748  0.7725 -1.0242
 6742TIP3    H220184   0.900   5.126   3.504 -0.6463 -0.5830  0.3408
 6743TIP3   OH220185   0.201   7.663   1.023 -0.4205  0.2036 -0.0615
 6743TIP3    H120186   0.159   7.738   0.981 -1.0955  1.4653  2.6314
 6743TIP3    H220187   0.133   7.624   1.077  1.1147  0.6828  2.3620
 6744TIP3   OH220188   7.720   3.409   0.456  0.2532 -0.0880  0.1976
 6744TIP3    H120189   7.659   3.392   0.528  0.9067  0.8038  0.9969
 6744TIP3    H220190   7.684   3.485   0.412  1.0494  0.8013  1.0255
 6745TIP3   OH220191   6.324   2.544   4.942  0.2316  0.1477 -0.5739
 6745TIP3    H120192   6.316   2.521   4.850 -0.2269 -1.9426 -0.0756
 6745TIP3    H220193   6.351   2.462   4.985 -2.2786  0.2509  1.5006
 6746TIP3   OH220194   3.121   5.907   0.973  0.1293  0.7776  0.0900
 6746TIP3    H120195   3.201   5.906   0.921  0.4545  3.4270  0.4053
 6746TIP3    H220196   3.059   5.852   0.924  1.1378  1.3019 -1.8506
 6747TIP3   OH220197   7.892   0.732   4.502 -0.1950 -0.0255  0.2024
 6747TIP3    H120198   7.927   0.654   4.460 -1.7256 -1.1014  0.8338
 6747TIP3    H220199   7.906   0.717   4.596 -1.7048 -0.1909  0.4255
 6748TIP3   OH220200   1.433   5.905   0.982 -0.0189 -0.8896 -0.0164
 6748TIP3    H120201   1.381   5.841   0.933  1.7060 -1.2486 -1.4929
 6748TIP3    H220202   1.507   5.854   1.017  0.4016 -0.0458  0.3578
 6749TIP3   OH220203   8.049   1.628   1.039 -0.2528  0.4227  0.2744
 6749TIP3    H120204   8.091   1.652   1.122  0.4130  1.2671 -0.2917
 6749TIP3    H220205   8.044   1.533   1.042 -0.4495  0.4524  1.3829
 6750TIP3   OH220206   7.376   5.837   3.524 -0.0790  0.0548  0.2124
 6750TIP3    H120207   7.399   5.910   3.466  1.5451  0.4211  1.2345
 6750TIP3    H220208   7.302   5.795   3.481  0.8068  0.5208 -1.9548
 6751TIP3   OH220209   2.103   1.454   4.769 -1.1117 -0.3856 -0.1722
 6751TIP3    H120210   2.171   1.440   4.704 -1.5163 -0.3614 -0.6107
 6751TIP3    H220211   2.085   1.368   4.805  0.7118 -0.0982  1.5666
 6752TIP3   OH220212   0.173   1.297   6.548  0.1783  1.1931 -0.3133
 6752TIP3    H120213   0.178   1.296   6.452 -1.0283  0.1780 -0.3980
 6752TIP3    H220214   0.085   1.266   6.567  0.9617 -0.2834  1.1565
 6753TIP3   OH220215   6.673   2.273   6.434  0.0368  0.1795  0.1748
 6753TIP3    H120216   6.594   2.297   6.384  0.4944 -0.1391 -0.7186
 6753TIP3    H220217   6.656   2.183   6.462  0.4020 -0.1757 -0.6986
 6754TIP3   OH220218   6.889   3.560   5.420 -0.2923 -0.0164 -0.0420
 6754TIP3    H120219   6.875   3.548   5.326 -1.2568 -1.3432  0.2295
 6754TIP3    H220220   6.808   3.599   5.452  0.3395  1.1784  0.1283
 6755TIP3   OH220221   3.986   1.629   4.000  0.3139  0.3659  0.4969
 6755TIP3    H120222   3.968   1.718   4.029 -1.9354 -0.1605  0.8605
 6755TIP3    H220223   3.983   1.576   4.079  0.5024 -0.2004  0.1385
 6756TIP3   OH220224   2.905   7.475   4.529  0.1110  0.3343 -0.3993
 6756TIP3    H120225   2.822   7.489   4.574  0.3479  1.4752 -0.3060
 6756TIP3    H220226   2.971   7.503   4.592  0.4680  1.4266 -1.2440
 6757TIP3   OH220227   6.771   3.409   1.443 -0.7259 -0.3300 -0.0628
 6757TIP3    H120228   6.825   3.385   1.518  0.4842 -1.3924 -1.2039
 6757TIP3    H220229   6.707   3.338   1.436  1.0796 -1.9133 -1.7657
 6758TIP3   OH220230   7.375   7.144   6.690  0.0463  0.6359 -0.1871
 6758TIP3    H120231   7.285   7.112   6.690 -0.0965  0.9019 -2.2211
 6758TIP3    H220232   7.367   7.237   6.672  0.6888  0.8569  0.6471
 6759TIP3   OH220233   0.640   5.564   6.773  0.5491 -0.2381 -0.6736
 6759TIP3    H120234   0.679   5.617   6.842 -1.3425  0.3369  0.0173
 6759TIP3    H220235   0.607   5.627   6.709 -0.9799 -0.5658 -0.2530
 6760TIP3   OH220236   4.417   7.272   4.112 -0.1592  0.0104  0.2936
 6760TIP3    H120237   4.480   7.202   4.128 -0.9166 -0.8706 -0.4173
 6760TIP3    H220238   4.332   7.233   4.135 -0.8975 -0.1756 -2.3305
 6761TIP3   OH220239   6.484   1.303   6.550  0.1897 -0.4790 -0.0289
 6761TIP3    H120240   6.470   1.214   6.517  2.5715 -0.6305 -0.8279
 6761TIP3    H220241   6.519   1.290   6.638 -1.3969 -0.2268  0.6674
 6762TIP3   OH220242   3.559   5.827   6.422  0.0092 -0.0816 -0.3120
 6762TIP3    H120243   3.520   5.848   6.337 -0.8669  0.1857  0.1468
 6762TIP3    H220244   3.497   5.861   6.486  0.5056 -0.5683  0.4426
 6763TIP3   OH220245   1.671   2.706   4.369  0.4450  0.5717  0.2424
 6763TIP3    H120246   1.713   2.733   4.287  0.4509 -0.8313 -0.2472
 6763TIP3    H220247   1.611   2.777   4.389 -0.5780  0.3557 -1.7462
 6764TIP3   OH220248   7.971   7.457   4.445 -0.3149 -0.1004 -0.0960
 6764TIP3    H120249   8.028   7.381   4.434  1.2771  1.2692 -2.0196
 6764TIP3    H220250   7.927   7.467   4.361  0.1298  1.5671 -0.1702
 6765TIP3   OH220251   0.914   2.198   1.406 -0.0497  0.0859  0.1409
 6765TIP3    H120252   0.830   2.205   1.361  0.5102 -2.3683 -1.4502
 6765TIP3    H220253   0.979   2.208   1.337  0.9264 -0.1412  1.0105
 6766TIP3   OH220254   0.336   7.362   4.646  0.7150 -0.4511 -0.7022
 6766TIP3    H120255   0.249   7.321   4.643  0.6555 -0.3653 -0.0998
 6766TIP3    H220256   0.322   7.446   4.690  0.9754 -0.1130 -1.2504
 6767TIP3   OH220257   4.073   2.482   0.566 -0.5221  0.1925 -0.4819
 6767TIP3    H120258   4.066   2.493   0.471 -1.1560 -0.0594 -0.4745
 6767TIP3    H220259   4.027   2.557   0.603 -1.0940 -0.1889 -0.3929
 6768TIP3   OH220260   2.843   0.388   5.521  0.3653  0.0810 -0.2947
 6768TIP3    H120261   2.795   0.314   5.484 -0.7663  0.2137  0.8381
 6768TIP3    H220262   2.916   0.347   5.568  0.7830 -0.1883 -1.1543
 6769TIP3   OH220263   2.075   4.529   1.937  0.2516  0.0568 -0.3536
 6769TIP3    H120264   2.096   4.439   1.958  0.3009  0.0712 -0.3407
 6769TIP3    H220265   1.985   4.542   1.969 -0.2452 -0.3722 -1.5138
 6770TIP3   OH220266   3.042   2.388   5.045 -0.4578  0.5932 -0.1832
 6770TIP3    H120267   2.970   2.443   5.077 -2.2135  0.0154 -2.8287
 6770TIP3    H220268   2.999   2.309   5.012  1.6234 -0.6643 -0.0669
 6771TIP3   OH220269   0.880   6.608   3.588  0.4323  0.0929 -0.6589
 6771TIP3    H120270   0.969   6.611   3.622  0.4230  1.1202 -0.7056
 6771TIP3    H220271   0.828   6.575   3.661  0.9153 -1.0045 -0.7958
 6772TIP3   OH220272   2.444   4.465   4.798  0.0283 -0.6495  0.5475
 6772TIP3    H120273   2.446   4.370   4.812 -0.2114 -0.4116  2.5573
 6772TIP3    H220274   2.494   4.501   4.871  0.9685  0.7530 -0.7303
 6773TIP3   OH220275   4.572   3.148   6.538  0.1134 -0.0623  0.2305
 6773TIP3    H120276   4.516   3.088   6.588  2.0620 -2.3624 -0.1927
 6773TIP3    H220277   4.510   3.201   6.487 -1.7692 -0.2358  2.1787
 6774TIP3   OH220278   2.729   3.240   6.627 -0.2182  0.2156  0.6856
 6774TIP3    H120279   2.758   3.327   6.654 -0.1634  0.5812 -0.4993
 6774TIP3    H220280   2.652   3.256   6.573  0.2814 -0.4064 -0.2328
 6775TIP3   OH220281   7.379   1.883   6.514  0.1674 -0.0966 -0.0048
 6775TIP3    H120282   7.336   1.860   6.596  0.7939 -0.7484  0.1566
 6775TIP3    H220283   7.312   1.873   6.447  0.3922 -2.5028  0.0506
 6776TIP3   OH220284   2.768   4.133   6.615 -0.2203  0.1427  0.1750
 6776TIP3    H120285   2.682   4.154   6.579 -0.6693 -0.0676  1.0974
 6776TIP3    H220286   2.757   4.143   6.710  0.2807 -1.6213  0.4528
 6777TIP3   OH220287   7.905   3.781   5.021 -0.4993  0.0320  0.3263
 6777TIP3    H120288   8.000   3.779   5.035 -0.3223  4.0153  0.8844
 6777TIP3    H220289   7.894   3.839   4.945 -2.5034 -0.6666  0.0266
 6778TIP3   OH220290   7.392   5.365   1.862  0.1371  0.4305  0.2217
 6778TIP3    H120291   7.392   5.275   1.893 -0.6078 -0.2957 -1.7476
 6778TIP3    H220292   7.483   5.393   1.869  0.6417 -0.9711 -0.4868
 6779TIP3   OH220293   6.990   7.335   5.319 -0.1849 -0.4274 -0.0175
 6779TIP3    H120294   7.045   7.352   5.243 -0.1233  0.3131  0.1853
 6779TIP3    H220295   6.990   7.418   5.367  0.1896 -1.0330  1.0539
 6780TIP3   OH220296   1.269   3.223   6.415  0.0931 -0.5691 -0.1998
 6780TIP3    H120297   1.328   3.159   6.375 -0.0529 -1.1969  0.5761
 6780TIP3    H220298   1.319   3.305   6.415 -0.1864 -0.3396 -2.3743
 6781TIP3   OH220299   7.450   3.045   1.485  0.0491  0.7820 -0.5506
 6781TIP3    H120300   7.420   2.979   1.422 -1.0468  0.1969  0.5354
 6781TIP3    H220301   7.411   3.127   1.454 -2.0875  0.1786  0.3524
 6782TIP3   OH220302   1.706   5.053   1.068 -0.2409  0.0469 -0.0967
 6782TIP3    H120303   1.625   5.054   1.018 -0.5242  0.3477  0.3621
 6782TIP3    H220304   1.718   5.143   1.098  0.8202  0.2459 -1.0360
 6783TIP3   OH220305   5.825   3.912   1.095  0.3007 -0.1123  0.0283
 6783TIP3    H120306   5.815   3.981   1.161 -0.9481 -0.2384 -0.0112
 6783TIP3    H220307   5.877   3.953   1.026  0.6431  0.3865  0.5731
 6784TIP3   OH220308   0.751   5.648   3.585  0.6780  0.0489  0.6447
 6784TIP3    H120309   0.753   5.742   3.602 -0.0723  0.0260  0.8774
 6784TIP3    H220310   0.784   5.608   3.665  1.3180  0.1215  0.4240
 6785TIP3   OH220311   3.900   7.123   5.729  0.3439 -0.3609  0.2628
 6785TIP3    H120312   3.866   7.054   5.672  0.0707 -0.0403  0.0393
 6785TIP3    H220313   3.931   7.191   5.669  0.5653 -0.2627  0.4852
 6786TIP3   OH220314   4.976   7.385   4.252  0.0055  0.1118  0.6684
 6786TIP3    H120315   5.056   7.432   4.229  0.3932 -0.4582  0.8514
 6786TIP3    H220316   4.960   7.409   4.344  0.6991 -0.8066  1.0404
 6787TIP3   OH220317   1.419   7.437   1.665 -0.0073  0.3871 -0.0735
 6787TIP3    H120318   1.413   7.421   1.571 -1.2156 -1.3495  0.2613
 6787TIP3    H220319   1.404   7.351   1.706  0.7271  1.0439  1.7089
 6788TIP3   OH220320   8.167   1.262   0.384 -0.1230 -0.1935  0.7742
 6788TIP3    H120321   8.252   1.298   0.408 -0.8311  1.9587  0.3292
 6788TIP3    H220322   8.118   1.258   0.466 -0.2101  0.4155  0.7589
 6789TIP3   OH220323   4.013   4.481   6.640  0.5341  0.9801 -0.1729
 6789TIP3    H120324   4.094   4.437   6.665  0.1123 -0.3427 -1.0467
 6789TIP3    H220325   3.947   4.412   6.641 -0.5346  1.9747  0.2102
 6790TIP3   OH220326   0.822   4.737   1.253  0.6735 -0.3450 -0.8638
 6790TIP3    H120327   0.823   4.796   1.328  0.9214  2.9521 -3.2642
 6790TIP3    H220328   0.746   4.680   1.269 -0.9579  2.0349  0.6120
 6791TIP3   OH220329   4.321   3.173   0.005  0.0097 -0.0609  0.2603
 6791TIP3    H120330   4.283   3.109   0.064  0.4322 -0.2171  0.3629
 6791TIP3    H220331   4.292   3.258   0.040 -0.8337 -0.1980 -0.0742
 6792TIP3   OH220332   3.571   2.816   5.732 -0.1325 -0.6812  0.4395
 6792TIP3    H120333   3.642   2.813   5.796  0.0254 -0.2351  0.2923
 6792TIP3    H220334   3.538   2.727   5.727  0.6044 -0.9506  0.3134
 6793TIP3   OH220335   0.432   2.524   4.869  0.7578 -0.1833 -0.0536
 6793TIP3    H120336   0.493   2.453   4.850  0.3997 -0.3479 -0.6064
 6793TIP3    H220337   0.446   2.588   4.799  0.7227  0.0593  0.1564
 6794TIP3   OH220338   5.765   5.609   0.078 -0.4908 -0.3616 -0.1967
 6794TIP3    H120339   5.805   5.529   0.044  1.2282  0.3026  0.1187
 6794TIP3    H220340   5.671   5.593   0.075 -0.1875 -2.3884 -0.1346
 6795TIP3   OH220341   0.564   7.769   6.280 -0.0150  0.7731 -0.9406
 6795TIP3    H120342   0.518   7.850   6.255 -0.6358 -0.0213 -2.5637
 6795TIP3    H220343   0.494   7.705   6.291  0.5363  0.1977 -0.7482
 6796TIP3   OH220344   4.566   7.727   4.447 -0.7080  0.1853  0.1187
 6796TIP3    H120345   4.659   7.721   4.468 -1.1645  0.1379  2.4592
 6796TIP3    H220346   4.558   7.686   4.361  1.5647  1.2289 -0.6827
 6797TIP3   OH220347   1.291   4.954   3.405 -0.6622  0.3268  0.0197
 6797TIP3    H120348   1.293   5.044   3.374 -0.6409  0.9082  1.6089
 6797TIP3    H220349   1.254   4.959   3.493  1.6557 -0.8667  1.1688
 6798TIP3   OH220350   5.885   1.670   2.394 -0.6219  0.2580  0.2581
 6798TIP3    H120351   5.809   1.616   2.375 -0.3227 -0.0117 -0.1902
 6798TIP3    H220352   5.933   1.674   2.311 -0.3069  0.6744  0.4580
 6799TIP3   OH220353   2.743   4.461   2.672 -0.3393  0.1226 -0.0195
 6799TIP3    H120354   2.775   4.443   2.584 -2.3176  1.1881 -1.0349
 6799TIP3    H220355   2.814   4.512   2.713  0.8734 -0.9326 -0.7296
 6800TIP3   OH220356   1.064   2.806   4.005  0.1118  0.0921 -0.7111
 6800TIP3    H120357   1.135   2.748   4.031 -1.6356 -1.3063  1.3281
 6800TIP3    H220358   1.071   2.881   4.064 -0.6772 -0.5489  0.2303
 6801TIP3   OH220359   0.294   2.564   3.876 -0.2501 -0.6526 -0.3172
 6801TIP3    H120360   0.310   2.472   3.856 -1.3809 -0.6883 -1.1951
 6801TIP3    H220361   0.379   2.598   3.904  0.5498 -1.5926 -1.4941
 6802TIP3   OH220362   6.345   2.239   2.616 -0.1168 -0.3540  0.1819
 6802TIP3    H120363   6.256   2.227   2.651 -0.0193 -1.3993  0.0942
 6802TIP3    H220364   6.339   2.318   2.562 -1.3921 -1.2384 -1.0556
 6803TIP3   OH220365   3.398   3.321   4.338 -0.0482 -0.0307 -0.1770
 6803TIP3    H120366   3.306   3.303   4.319 -1.0857  1.0133  3.2404
 6803TIP3    H220367   3.434   3.235   4.360 -1.1949 -0.0342  1.9207
 6804TIP3   OH220368   8.231   3.098   4.932  0.3369  0.4941 -0.0882
 6804TIP3    H120369   8.246   3.084   4.838 -2.2876 -1.0367 -0.3737
 6804TIP3    H220370   8.192   3.185   4.938  1.7827  1.1838 -0.1993
 6805TIP3   OH220371   2.178   4.479   5.308  0.2839  0.2699  0.2333
 6805TIP3    H120372   2.244   4.435   5.363 -0.0156  0.7138  0.9502
 6805TIP3    H220373   2.124   4.407   5.275  0.0376  0.0506  1.0831
 6806TIP3   OH220374   7.100   4.124   4.993  0.1543  0.1265  0.1608
 6806TIP3    H120375   7.137   4.141   5.080  0.0807 -2.4830  0.7908
 6806TIP3    H220376   7.131   4.196   4.939  2.3615  0.4543  1.7328
 6807TIP3   OH220377   2.989   0.945   3.316 -0.1973  0.2806 -0.1861
 6807TIP3    H120378   2.969   0.961   3.224 -0.2051 -0.4048 -0.3044
 6807TIP3    H220379   3.050   0.871   3.315 -0.3134  0.1737  0.3668
 6808TIP3   OH220380   1.909   0.428   4.056  0.1535 -0.1521 -0.3336
 6808TIP3    H120381   1.974   0.498   4.055  0.1822 -0.1700 -1.4105
 6808TIP3    H220382   1.906   0.397   3.965 -1.3005 -0.2097 -0.2957
 6809TIP3   OH220383   3.138   3.659   2.678  0.0529 -0.7391  0.0459
 6809TIP3    H120384   3.103   3.742   2.647 -0.2025 -0.7411  0.3169
 6809TIP3    H220385   3.174   3.617   2.600 -1.3509 -1.1362 -0.4112
 6810TIP3   OH220386   4.433   6.238   0.414  0.4024  0.1543 -0.0252
 6810TIP3    H120387   4.494   6.275   0.350  0.4186  0.3495  0.1026
 6810TIP3    H220388   4.482   6.235   0.496  0.4927 -0.4127 -0.0958
 6811TIP3   OH220389   6.641   2.875   2.067  0.0077  0.2160 -0.1522
 6811TIP3    H120390   6.696   2.832   2.133 -1.2126  1.0208  1.4541
 6811TIP3    H220391   6.566   2.817   2.057  0.1511  0.1362 -0.8090
 6812TIP3   OH220392   1.927   7.577   5.348 -0.2376  0.3228 -0.3264
 6812TIP3    H120393   1.881   7.608   5.270 -1.8053 -2.9512 -0.8663
 6812TIP3    H220394   1.876   7.612   5.421 -0.2152  1.3557 -0.7870
 6813TIP3   OH220395   3.440   3.949   3.773  0.0357 -0.2687  0.1529
 6813TIP3    H120396   3.457   4.027   3.826 -2.6453 -0.3123  1.2016
 6813TIP3    H220397   3.425   3.879   3.837  0.1842 -1.1374 -0.7420
 6814TIP3   OH220398   2.517   7.492   4.200  0.0215 -0.1251  0.0854
 6814TIP3    H120399   2.610   7.476   4.184 -0.4327 -0.8207 -2.3500
 6814TIP3    H220400   2.502   7.582   4.171 -0.2342 -0.3701 -0.5797
 6815TIP3   OH220401   5.270   6.684   3.046 -0.3523 -0.4502  0.4363
 6815TIP3    H120402   5.326   6.759   3.028  0.1840 -0.9011  0.1975
 6815TIP3    H220403   5.183   6.721   3.059 -0.3537  0.0881 -0.9639
 6816TIP3   OH220404   1.774   0.262   5.783  0.2531 -0.2487  0.2923
 6816TIP3    H120405   1.735   0.221   5.860  0.5896  1.5091  1.4714
 6816TIP3    H220406   1.760   0.200   5.712 -1.7266 -1.1189  1.3780
 6817TIP3   OH220407   1.196   3.760   0.732 -0.3906 -0.2207  0.0684
 6817TIP3    H120408   1.278   3.712   0.724 -0.4952 -0.1101 -2.2787
 6817TIP3    H220409   1.222   3.846   0.766  0.5370 -0.0531 -1.0121
 6818TIP3   OH220410   4.605   5.424   4.273 -0.4565 -0.3886  0.4896
 6818TIP3    H120411   4.609   5.377   4.190  0.9709  0.9827 -0.2687
 6818TIP3    H220412   4.676   5.387   4.326 -1.4837 -1.3928  1.2028
 6819TIP3   OH220413   8.147   3.328   4.614  0.0033  0.4143  0.3693
 6819TIP3    H120414   8.106   3.380   4.683  1.4404  1.0455  0.7654
 6819TIP3    H220415   8.219   3.283   4.657 -0.3536 -0.8110 -0.2849
 6820TIP3   OH220416   1.433   1.465   5.546 -0.3672  0.2289 -0.3190
 6820TIP3    H120417   1.507   1.445   5.603 -0.7708 -1.3058 -0.2850
 6820TIP3    H220418   1.414   1.558   5.564  1.2150  0.5223  0.0133
 6821TIP3   OH220419   6.020   7.349   1.427 -0.6302  0.2095 -0.3664
 6821TIP3    H120420   5.996   7.435   1.393 -0.2086 -0.2033 -1.7829
 6821TIP3    H220421   6.115   7.348   1.423 -0.5184  0.3818  1.5110
 6822TIP3   OH220422   7.114   6.409   2.471  0.4487 -0.2336  0.5044
 6822TIP3    H120423   7.143   6.375   2.386  0.4547  2.6058 -0.7642
 6822TIP3    H220424   7.091   6.332   2.522 -1.1647 -2.0389 -2.6556
 6823TIP3   OH220425   2.531   6.230   4.328 -0.1356 -0.1980  0.6610
 6823TIP3    H120426   2.593   6.193   4.391  0.3830  0.0541  0.3103
 6823TIP3    H220427   2.474   6.286   4.380 -0.7651 -1.2777  1.1576
 6824TIP3   OH220428   2.126   3.385   0.630  0.0255 -0.5378  0.1925
 6824TIP3    H120429   2.163   3.426   0.708 -0.5891 -1.0092  0.7274
 6824TIP3    H220430   2.196   3.329   0.597  0.1193 -0.6991  0.6656
 6825TIP3   OH220431   1.689   4.804   4.986 -0.3056 -0.2905  0.0670
 6825TIP3    H120432   1.669   4.758   4.904  0.2976 -1.8911  0.7689
 6825TIP3    H220433   1.604   4.810   5.031 -0.4641 -0.3239 -0.2244
 6826TIP3   OH220434   4.329   6.916   2.645 -0.4302 -0.0043  0.2574
 6826TIP3    H120435   4.397   6.943   2.584  0.2253 -2.3631 -0.1615
 6826TIP3    H220436   4.254   6.894   2.589 -2.0932  3.7076  0.7775
 6827TIP3   OH220437   3.735   1.368   2.531 -0.1198 -0.1456 -0.6892
 6827TIP3    H120438   3.823   1.390   2.499 -0.2006  0.4119 -0.5296
 6827TIP3    H220439   3.708   1.444   2.582  0.5257 -1.4856  1.8106
 6828TIP3   OH220440   1.089   4.181   6.502 -0.1218 -0.1565 -0.2967
 6828TIP3    H120441   1.154   4.219   6.442 -1.3173  1.1351 -0.8330
 6828TIP3    H220442   1.130   4.186   6.588  0.1247  1.6363 -0.4661
 6829TIP3   OH220443   0.840   7.144   3.452  0.9389  0.3376 -0.3002
 6829TIP3    H120444   0.784   7.110   3.522  1.4766 -0.8618 -0.4310
 6829TIP3    H220445   0.927   7.148   3.491  0.8470  1.9270 -0.1894
 6830TIP3   OH220446   3.057   0.675   0.264  0.1044  0.2250 -0.0839
 6830TIP3    H120447   3.145   0.709   0.279  0.2513 -0.2514  0.1703
 6830TIP3    H220448   3.071   0.585   0.234 -0.3232 -0.7748  2.4495
 6831TIP3   OH220449   4.666   1.000   3.591  0.0580 -0.3699  0.0695
 6831TIP3    H120450   4.571   0.995   3.578 -0.0854  1.0393  0.4262
 6831TIP3    H220451   4.676   1.003   3.686  0.4119  0.3031  0.0081
 6832TIP3   OH220452   8.180   6.741   6.544 -0.0205  0.0743  0.1437
 6832TIP3    H120453   8.265   6.760   6.584  0.2249 -1.7544  0.5844
 6832TIP3    H220454   8.146   6.826   6.518  1.4952  0.9426  0.8792
 6833TIP3   OH220455   3.791   3.242   1.623  0.1672  0.2165 -0.5591
 6833TIP3    H120456   3.873   3.265   1.666 -0.3420  0.3331  0.3819
 6833TIP3    H220457   3.816   3.183   1.552  0.9844 -0.4498  0.2646
 6834TIP3   OH220458   1.723   2.796   4.107  0.0385  0.3387 -0.5788
 6834TIP3    H120459   1.674   2.878   4.118  1.4524  1.0124  1.1237
 6834TIP3    H220460   1.722   2.780   4.012 -1.1971  1.7199 -0.8332
 6835TIP3   OH220461   3.336   6.825   0.410 -0.3802  0.1907 -0.7623
 6835TIP3    H120462   3.279   6.753   0.437  0.6628 -0.6557 -0.7305
 6835TIP3    H220463   3.276   6.894   0.381 -1.4507 -0.0162  0.8439
 6836TIP3   OH220464   2.997   7.458   4.942  0.1152  0.3382 -0.2484
 6836TIP3    H120465   3.074   7.493   4.896  0.4839  0.4684  0.4570
 6836TIP3    H220466   2.923   7.505   4.903  0.4932  1.0190 -0.1708
 6837TIP3   OH220467   5.124   1.762   2.359  0.1148  0.0405 -0.5708
 6837TIP3    H120468   5.085   1.799   2.438 -0.6397  1.3730 -1.5210
 6837TIP3    H220469   5.218   1.763   2.376  0.1613  2.7075 -0.6187
 6838TIP3   OH220470   2.140   1.391   1.204  0.6289 -0.2365  0.2029
 6838TIP3    H120471   2.170   1.300   1.212  1.7055  0.0556 -0.3569
 6838TIP3    H220472   2.217   1.443   1.224  0.5031  0.5461 -1.2793
 6839TIP3   OH220473   5.640   3.068   3.515 -0.2003 -0.4568  0.6965
 6839TIP3    H120474   5.724   3.026   3.531 -0.9275 -1.6651  1.4308
 6839TIP3    H220475   5.581   2.997   3.494 -0.9225  0.4366 -0.4330
 6840TIP3   OH220476   1.417   2.809   4.728 -0.0277  0.3168  0.3751
 6840TIP3    H120477   1.490   2.750   4.744 -1.4691 -1.4717  0.7407
 6840TIP3    H220478   1.357   2.793   4.801 -0.6359  1.9970  0.2818
 6841TIP3   OH220479   5.206   4.228   2.023  0.1726 -0.5589 -0.2605
 6841TIP3    H120480   5.125   4.255   2.067 -0.0530 -2.6588  0.7008
 6841TIP3    H220481   5.182   4.223   1.930 -0.4965 -0.1099 -0.1224
 6842TIP3   OH220482   3.803   7.804   2.764  0.4742  0.1577 -0.2627
 6842TIP3    H120483   3.713   7.774   2.756  0.2662  0.7418 -0.1646
 6842TIP3    H220484   3.851   7.729   2.799  0.0325 -0.1637 -0.3477
 6843TIP3   OH220485   6.247   3.759   0.792  0.2093 -0.1081  0.0311
 6843TIP3    H120486   6.280   3.773   0.704 -0.8189 -1.5564 -0.6230
 6843TIP3    H220487   6.156   3.788   0.789  0.8831  2.5122  1.4330
 6844TIP3   OH220488   0.181   5.851   2.956  0.4748  0.1676  0.0536
 6844TIP3    H120489   0.215   5.804   3.032  0.9321  1.5766  0.7665
 6844TIP3    H220490   0.101   5.893   2.989  0.0357 -0.1469 -0.5862
 6845TIP3   OH220491   8.228   5.502   5.666  0.2757 -0.4750  0.0801
 6845TIP3    H120492   8.213   5.508   5.761  0.9674 -1.9570  0.3109
 6845TIP3    H220493   8.141   5.497   5.628 -0.0189  0.4226  0.6062
 6846TIP3   OH220494   3.972   1.352   6.598  0.1372  0.1159 -0.3792
 6846TIP3    H120495   3.921   1.422   6.639 -0.4247 -0.4142 -0.1492
 6846TIP3    H220496   4.063   1.381   6.603  0.0638  0.1389  1.1100
 6847TIP3   OH220497   3.439   6.577   5.783 -0.1634 -0.5304 -0.8872
 6847TIP3    H120498   3.447   6.495   5.831 -0.0001 -0.9163 -1.5578
 6847TIP3    H220499   3.439   6.551   5.691  2.4690  0.3930 -1.2335
 6848TIP3   OH220500   3.574   4.387   5.138 -0.0576  0.2359 -0.1360
 6848TIP3    H120501   3.541   4.334   5.065 -0.9503  2.9842 -1.8847
 6848TIP3    H220502   3.537   4.346   5.216 -1.9427 -0.8241 -1.5143
 6849TIP3   OH220503   6.725   3.634   1.881  0.0679  0.3748 -0.0513
 6849TIP3    H120504   6.806   3.622   1.833  0.1234 -0.3152  0.1995
 6849TIP3    H220505   6.749   3.621   1.973 -0.3079  0.2345  0.0324
 6850TIP3   OH220506   4.739   0.908   1.702  0.1685  0.6421 -0.3315
 6850TIP3    H120507   4.731   0.813   1.713  0.6991  0.6096 -0.1775
 6850TIP3    H220508   4.790   0.936   1.778 -0.1148  1.0743 -0.2966
 6851TIP3   OH220509   6.199   3.461   6.725 -0.5864  0.4915 -0.1485
 6851TIP3    H120510   6.291   3.453   6.699 -0.8350 -2.3897 -0.5405
 6851TIP3    H220511   6.200   3.521   6.799  1.6124  0.5520 -0.1557
 6852TIP3   OH220512   8.080   5.415   1.583 -0.2259  0.1831 -0.1355
 6852TIP3    H120513   8.069   5.426   1.678 -1.6230 -0.5996 -0.1855
 6852TIP3    H220514   8.168   5.447   1.566  0.2455 -0.1254  1.5067
 6853TIP3   OH220515   2.259   1.864   0.141  0.3219  0.6335 -0.2324
 6853TIP3    H120516   2.315   1.914   0.200 -1.3510  1.6975  0.5135
 6853TIP3    H220517   2.244   1.923   0.067  0.9303 -0.0164 -0.8979
 6854TIP3   OH220518   7.538   5.634   2.981  0.3115  0.3790 -0.1177
 6854TIP3    H120519   7.535   5.665   2.891  1.7967  2.3050  0.4140
 6854TIP3    H220520   7.628   5.605   2.993  0.1842  0.3385  0.7998
 6855TIP3   OH220521   6.487   7.265   6.416 -0.2320 -0.0828 -0.1144
 6855TIP3    H120522   6.477   7.171   6.400  1.9612 -0.1856 -1.1375
 6855TIP3    H220523   6.462   7.276   6.507  2.2337 -2.1919  0.9398
 6856TIP3   OH220524   1.708   1.049   1.638 -0.2110 -0.2750  0.1525
 6856TIP3    H120525   1.631   1.075   1.688  0.9025 -0.0879  1.8525
 6856TIP3    H220526   1.734   1.129   1.592  0.4300  0.4146  1.6229
 6857TIP3   OH220527   0.433   3.837   6.718 -0.4321  0.1736 -0.2363
 6857TIP3    H120528   0.364   3.773   6.699  1.1817 -1.9586  0.6916
 6857TIP3    H220529   0.453   3.876   6.633 -1.0337 -1.0252 -0.9647
 6858TIP3   OH220530   8.300   2.847   2.877  0.2206  0.1581 -0.7553
 6858TIP3    H120531   8.233   2.845   2.809  0.7859  0.2058 -1.3221
 6858TIP3    H220532   8.306   2.756   2.908 -1.6856  0.5054  0.9062
 6859TIP3   OH220533   5.584   0.240   5.228 -0.0308  0.0298  0.2972
 6859TIP3    H120534   5.499   0.196   5.231  0.0432 -0.2289 -0.8382
 6859TIP3    H220535   5.582   0.288   5.145  1.1885 -0.5063 -0.0563
 6860TIP3   OH220536   5.504   6.970   3.755  0.1009 -0.4596 -0.2025
 6860TIP3    H120537   5.590   6.940   3.786 -0.6049 -1.5796  0.7978
 6860TIP3    H220538   5.442   6.905   3.791 -1.5296  2.0630  1.9612
 6861TIP3   OH220539   7.035   7.299   6.349 -0.5518 -0.2193 -0.2920
 6861TIP3    H120540   6.945   7.285   6.378 -0.9516 -0.1426 -1.4413
 6861TIP3    H220541   7.027   7.359   6.275  0.5889  1.1285  0.6059
 6862TIP3   OH220542   6.636   0.718   3.450 -0.5240 -0.2406 -0.1449
 6862TIP3    H120543   6.680   0.759   3.375 -1.1306  1.2464  0.2841
 6862TIP3    H220544   6.543   0.731   3.434 -0.6488  1.0192  1.3192
 6863TIP3   OH220545   0.403   5.079   3.811  0.8432 -0.1344  0.0135
 6863TIP3    H120546   0.466   5.149   3.799  1.1096 -0.3662  0.0411
 6863TIP3    H220547   0.409   5.057   3.904  0.3772  0.1654  0.1174
 6864TIP3   OH220548   1.603   2.538   1.152 -0.0593  0.1109 -0.0532
 6864TIP3    H120549   1.678   2.596   1.163 -0.6727  0.6915  1.3717
 6864TIP3    H220550   1.531   2.596   1.126 -0.8559  0.1837  2.0779
 6865TIP3   OH220551   7.144   4.936   2.964  0.1426 -0.3149  0.2358
 6865TIP3    H120552   7.147   4.912   3.056 -0.2752 -0.2395  0.2687
 6865TIP3    H220553   7.123   5.030   2.964 -4.9451 -1.2010  0.0018
 6866TIP3   OH220554   1.063   2.724   0.266  0.5314 -0.3621  0.0687
 6866TIP3    H120555   1.010   2.761   0.337  0.9588 -1.3967  0.9586
 6866TIP3    H220556   1.003   2.717   0.192 -0.3421 -0.6908  0.7910
 6867TIP3   OH220557   7.426   1.184   2.715  0.1491  0.0896  0.3424
 6867TIP3    H120558   7.484   1.202   2.641  0.0013 -0.3750  0.1081
 6867TIP3    H220559   7.482   1.191   2.792  0.6155 -0.7409  0.0902
 6868TIP3   OH220560   4.612   1.580   1.672 -0.4426 -0.0080  0.2576
 6868TIP3    H120561   4.646   1.491   1.669  1.5446  0.6531  1.3688
 6868TIP3    H220562   4.576   1.590   1.760 -1.0852  0.1389 -0.0191
 6869TIP3   OH220563   5.502   6.828   2.124 -0.1454  0.6096 -0.2807
 6869TIP3    H120564   5.446   6.849   2.050 -0.6156 -0.7111 -0.3332
 6869TIP3    H220565   5.591   6.828   2.087 -0.4115 -0.4698 -0.9709
 6870TIP3   OH220566   6.724   0.847   1.101  0.2372 -0.3436  0.6658
 6870TIP3    H120567   6.648   0.792   1.081  0.6889 -1.0438  0.8455
 6870TIP3    H220568   6.702   0.932   1.062 -0.5030 -0.6208  0.4457
 6871TIP3   OH220569   1.571   3.732   1.395 -0.6243  0.0209 -0.3175
 6871TIP3    H120570   1.476   3.724   1.390 -0.9474  2.3100  0.6074
 6871TIP3    H220571   1.596   3.777   1.314 -0.4710  0.2456 -0.1490
 6872TIP3   OH220572   1.773   6.580   1.887 -0.1890 -0.1838 -0.2004
 6872TIP3    H120573   1.834   6.652   1.898  0.9034 -0.9857 -0.8252
 6872TIP3    H220574   1.731   6.597   1.802 -0.4961  0.1189  0.0109
 6873TIP3   OH220575   0.656   2.615   4.399  0.4809 -0.2443 -0.0143
 6873TIP3    H120576   0.722   2.561   4.442  0.9530 -0.7437 -1.3145
 6873TIP3    H220577   0.574   2.569   4.415  0.5966 -0.2599  0.5858
 6874TIP3   OH220578   4.458   4.218   3.128  0.0123  0.3687  0.6829
 6874TIP3    H120579   4.485   4.237   3.217  0.4407  0.2233  0.5856
 6874TIP3    H220580   4.529   4.251   3.073 -0.6237  1.2049  0.3415
 6875TIP3   OH220581   3.504   2.247   2.591  0.4748 -0.4667  0.2345
 6875TIP3    H120582   3.527   2.157   2.569  3.0829  0.4924 -1.4064
 6875TIP3    H220583   3.432   2.269   2.532  0.9210 -0.9900 -0.5152
 6876TIP3   OH220584   4.561   5.686   4.890 -0.1547  0.1600 -0.6871
 6876TIP3    H120585   4.653   5.659   4.888  0.0348  0.8293 -1.8789
 6876TIP3    H220586   4.565   5.782   4.890 -0.8418  0.2339 -2.7947
 6877TIP3   OH220587   7.758   5.413   5.054 -0.7737  0.4424  0.3027
 6877TIP3    H120588   7.717   5.442   5.135 -0.0479  2.6503 -0.0625
 6877TIP3    H220589   7.693   5.355   5.014 -1.8273  0.6518  1.6396
 6878TIP3   OH220590   8.046   4.941   2.345  0.0009  0.4785  0.2945
 6878TIP3    H120591   7.968   4.897   2.313 -0.4064  0.8149  0.8252
 6878TIP3    H220592   8.034   4.947   2.440  0.9761 -0.0676  0.4727
 6879TIP3   OH220593   7.182   1.981   0.531  0.3374 -0.4453  0.2590
 6879TIP3    H120594   7.152   2.032   0.606  1.3614  0.7343 -0.0964
 6879TIP3    H220595   7.275   1.964   0.548  1.1708  1.6570 -1.6339
 6880TIP3   OH220596   4.226   1.964   4.077 -0.0547 -0.0302  0.0215
 6880TIP3    H120597   4.191   1.997   3.994  0.6155 -2.1055 -1.1696
 6880TIP3    H220598   4.313   2.001   4.084  0.4589 -0.9957 -0.9892
 6881TIP3   OH220599   8.121   2.649   4.308 -0.3596 -0.1014  0.1861
 6881TIP3    H120600   8.186   2.583   4.285  1.0302  1.2942 -0.0681
 6881TIP3    H220601   8.172   2.729   4.322 -1.8711  0.7015  1.4459
 6882TIP3   OH220602   3.038   4.244   1.171  0.6404 -0.3451  0.0246
 6882TIP3    H120603   2.987   4.287   1.103 -1.1387 -1.6168  0.4554
 6882TIP3    H220604   3.045   4.309   1.241 -1.2983 -0.4318  0.3488
 6883TIP3   OH220605   7.712   5.465   3.375  0.8599  0.6649 -0.7739
 6883TIP3    H120606   7.765   5.501   3.445  1.3417 -0.9609 -0.2735
 6883TIP3    H220607   7.636   5.523   3.371  0.8977  0.8903  0.9734
 6884TIP3   OH220608   3.527   4.077   2.731 -0.0273 -0.1108  0.5905
 6884TIP3    H120609   3.527   3.982   2.725  2.6200 -0.1198 -0.5318
 6884TIP3    H220610   3.613   4.103   2.700 -1.6521  2.8250 -2.1157
 6885TIP3   OH220611   4.546   4.160   2.094  0.2029  0.3069 -0.1434
 6885TIP3    H120612   4.551   4.241   2.143  0.1517  0.9080 -1.1060
 6885TIP3    H220613   4.495   4.101   2.150  1.3924  0.4766  1.1522
 6886TIP3   OH220614   5.170   1.833   3.687  0.4155  0.3831 -0.0186
 6886TIP3    H120615   5.098   1.847   3.626  0.7044 -0.5306 -0.5783
 6886TIP3    H220616   5.183   1.738   3.689  1.6901  0.5376 -0.0209
 6887TIP3   OH220617   0.310   6.676   6.739 -0.2362  0.1929  0.3877
 6887TIP3    H120618   0.403   6.664   6.721 -0.5223 -0.3359 -0.8258
 6887TIP3    H220619   0.284   6.599   6.789 -0.1418  0.0667  0.2410
 6888TIP3   OH220620   5.900   5.681   3.071  0.9312  0.3320  0.3346
 6888TIP3    H120621   5.972   5.723   3.025  0.5263 -0.9527 -1.5914
 6888TIP3    H220622   5.939   5.646   3.151  1.4625  3.4573  1.6115
 6889TIP3   OH220623   3.838   6.176   2.776 -0.2273 -0.5611 -0.2059
 6889TIP3    H120624   3.812   6.202   2.865  0.3263 -2.1359  0.4540
 6889TIP3    H220625   3.794   6.092   2.762  0.0944 -0.5725 -1.2335
 6890TIP3   OH220626   2.132   1.470   3.454 -0.0522 -0.2323  0.1430
 6890TIP3    H120627   2.064   1.503   3.512 -0.2248  0.2284 -0.3171
 6890TIP3    H220628   2.203   1.533   3.461 -0.9764  1.1381 -1.9107
 6891TIP3   OH220629   3.867   4.074   5.663  1.4841  0.5046  0.0734
 6891TIP3    H120630   3.782   4.115   5.652  0.1549 -2.2437 -0.6546
 6891TIP3    H220631   3.851   4.000   5.723  3.2048 -0.4079 -0.5079
 6892TIP3   OH220632   3.539   5.982   1.967  0.1629 -0.3639  0.1899
 6892TIP3    H120633   3.552   5.896   2.006 -2.1337 -0.1088  1.7507
 6892TIP3    H220634   3.581   6.043   2.028 -0.0245 -0.2381  0.1961
 6893TIP3   OH220635   2.676   3.894   0.233 -0.1059 -0.8464 -0.3766
 6893TIP3    H120636   2.720   3.975   0.210  0.5677 -1.2867 -0.6525
 6893TIP3    H220637   2.650   3.855   0.149 -0.5278 -0.8616 -0.2427
 6894TIP3   OH220638   5.668   0.345   0.525 -0.1929 -0.0848  0.3679
 6894TIP3    H120639   5.757   0.349   0.562  0.4792 -0.7662 -1.0844
 6894TIP3    H220640   5.642   0.437   0.518  0.9539  0.2203 -0.3743
 6895TIP3   OH220641   1.141   4.571   5.788  0.0247 -0.0722 -0.4444
 6895TIP3    H120642   1.065   4.604   5.836  0.2328 -0.3190  0.0686
 6895TIP3    H220643   1.142   4.621   5.707  0.2444  1.0808  0.2519
 6896TIP3   OH220644   7.677   5.029   5.073 -0.6694  0.2790 -0.0323
 6896TIP3    H120645   7.759   4.994   5.107 -0.2064  0.3403 -1.0545
 6896TIP3    H220646   7.609   4.979   5.118 -0.0403 -1.1721 -0.6468
 6897TIP3   OH220647   1.344   0.339   2.070  0.6175 -0.1800  0.2803
 6897TIP3    H120648   1.356   0.368   2.161 -0.7588  0.0104  0.4244
 6897TIP3    H220649   1.267   0.283   2.074 -0.6180  1.3355 -1.0677
 6898TIP3   OH220650   3.911   1.322   2.285 -0.2690  0.0287  0.1941
 6898TIP3    H120651   3.894   1.394   2.224  0.3481 -0.2469 -0.3210
 6898TIP3    H220652   3.850   1.254   2.258  0.1371 -0.1660 -0.2597
 6899TIP3   OH220653   0.665   5.562   2.599  0.4980  0.4242  0.4717
 6899TIP3    H120654   0.754   5.529   2.585 -0.1630 -0.8971 -0.9727
 6899TIP3    H220655   0.616   5.530   2.523 -0.9333  2.2226  0.5747
 6900TIP3   OH220656   2.289   1.278   1.895  0.3583 -0.7181  0.3281
 6900TIP3    H120657   2.336   1.260   1.977 -0.9307 -0.7159  1.0914
 6900TIP3    H220658   2.213   1.221   1.898  0.1508 -0.5212 -0.7609
 6901TIP3   OH220659   2.903   6.491   5.403 -0.5402 -0.3746  0.3017
 6901TIP3    H120660   2.895   6.574   5.357  0.4897 -0.1400  0.5387
 6901TIP3    H220661   2.970   6.443   5.355 -0.8565 -0.9223  0.3976
 6902TIP3   OH220662   7.760   2.124   2.880  0.2255 -0.0500 -0.1562
 6902TIP3    H120663   7.708   2.194   2.842 -1.6156 -0.7451  0.9525
 6902TIP3    H220664   7.729   2.045   2.835  1.4766 -0.3174 -0.5939
 6903TIP3   OH220665   0.450   0.545   3.551 -0.2477 -0.5048  0.2535
 6903TIP3    H120666   0.445   0.541   3.647  0.1578 -2.9537  0.2490
 6903TIP3    H220667   0.363   0.517   3.522 -1.2307  2.6503 -0.1914
 6904TIP3   OH220668   4.061   2.046   5.380  0.6561 -0.1970 -0.3720
 6904TIP3    H120669   4.143   2.014   5.344  0.8743  0.6403 -0.6410
 6904TIP3    H220670   4.052   2.001   5.464  1.2311 -0.5285 -0.4864
 6905TIP3   OH220671   4.061   4.780   2.686  0.3228 -0.3156 -0.6635
 6905TIP3    H120672   4.120   4.774   2.762 -0.5911  0.3696  0.1296
 6905TIP3    H220673   4.098   4.850   2.633 -0.7623  1.4734  0.7951
 6906TIP3   OH220674   1.961   2.146   5.600  0.1729  0.3395  0.1477
 6906TIP3    H120675   1.882   2.168   5.649  0.7511 -0.7973  1.6637
 6906TIP3    H220676   1.930   2.101   5.522 -0.6671 -0.2068  0.7872
 6907TIP3   OH220677   3.794   3.426   2.922  0.1122 -0.1952 -0.5945
 6907TIP3    H120678   3.858   3.357   2.935  0.5493  0.3522  0.2676
 6907TIP3    H220679   3.776   3.425   2.828  2.1818  0.3461 -1.0384
 6908TIP3   OH220680   4.230   5.152   3.317 -0.2711 -0.4902 -0.0779
 6908TIP3    H120681   4.135   5.149   3.301 -0.4817  1.1358  0.6548
 6908TIP3    H220682   4.243   5.097   3.393 -0.5199 -1.2574 -0.5801
 6909TIP3   OH220683   7.059   3.172   3.668  0.0731 -0.2390 -0.1695
 6909TIP3    H120684   7.085   3.255   3.627  0.7148  0.0505  0.7909
 6909TIP3    H220685   7.076   3.185   3.761  1.0010 -1.7536 -0.1023
 6910TIP3   OH220686   1.898   6.829   1.530 -0.3878  0.5435 -0.7051
 6910TIP3    H120687   1.946   6.772   1.590  1.2705  0.1869 -2.2795
 6910TIP3    H220688   1.918   6.918   1.561  0.6722  0.3712 -0.8616
 6911TIP3   OH220689   0.680   4.315   3.104 -0.0783 -0.4111 -0.2262
 6911TIP3    H120690   0.750   4.376   3.126 -0.9563  0.1369  1.1979
 6911TIP3    H220691   0.720   4.252   3.044  1.3116  0.5377 -0.3210
 6912TIP3   OH220692   4.265   7.271   5.819  0.0620 -0.0921  0.0227
 6912TIP3    H120693   4.257   7.195   5.878 -0.5391  0.4342  0.6381
 6912TIP3    H220694   4.223   7.243   5.738  1.9216 -1.2488 -0.6237
 6913TIP3   OH220695   5.921   4.648   4.148 -0.2294 -0.3942  0.5899
 6913TIP3    H120696   5.844   4.593   4.131 -1.1065  0.8939  0.2923
 6913TIP3    H220697   5.912   4.675   4.239  1.2852 -2.3331  1.4106
 6914TIP3   OH220698   4.385   4.106   3.730  0.0910 -0.3212 -0.2379
 6914TIP3    H120699   4.369   4.156   3.651 -0.0758 -0.6452 -0.4130
 6914TIP3    H220700   4.306   4.118   3.783  0.1914 -0.1271 -0.1310
 6915TIP3   OH220701   8.312   4.898   5.251  0.3525  0.0139  0.2058
 6915TIP3    H120702   8.325   4.965   5.318 -1.1956 -0.0344  0.5773
 6915TIP3    H220703   8.252   4.937   5.188  1.0399 -0.2949 -0.6643
 6916TIP3   OH220704   6.471   6.628   4.329  0.8814  0.0265  0.0433
 6916TIP3    H120705   6.546   6.653   4.383  1.8635 -0.0949 -1.2273
 6916TIP3    H220706   6.504   6.561   4.271 -0.6453 -1.1930  0.5119
 6917TIP3   OH220707   6.447   3.737   1.929  0.0259 -0.2455  0.4436
 6917TIP3    H120708   6.529   3.689   1.941  0.1456 -0.7183 -1.8150
 6917TIP3    H220709   6.385   3.694   1.988  0.7629 -1.5830  0.2792
 6918TIP3   OH220710   2.346   3.606   6.690  0.0942  0.5128  0.0653
 6918TIP3    H120711   2.389   3.539   6.744 -1.5868 -0.8169 -0.1517
 6918TIP3    H220712   2.279   3.643   6.746  1.0963  2.1851  0.2253
 6919TIP3   OH220713   2.177   4.240   2.741 -0.1120 -0.0367  0.0677
 6919TIP3    H120714   2.082   4.228   2.733 -0.1667  1.1574 -2.0931
 6919TIP3    H220715   2.188   4.335   2.745  1.0642  0.0087 -2.4110
 6920TIP3   OH220716   4.010   6.631   3.575  0.3586  0.0699  0.7291
 6920TIP3    H120717   4.066   6.560   3.605 -0.0087 -0.0386  1.1702
 6920TIP3    H220718   4.061   6.710   3.590  0.4096 -0.0315  1.0928
 6921TIP3   OH220719   6.498   2.408   1.415 -0.3315 -0.5320 -0.1020
 6921TIP3    H120720   6.551   2.477   1.455 -0.6929  0.3331 -1.0728
 6921TIP3    H220721   6.533   2.399   1.326 -1.3709 -0.3970 -0.5475
 6922TIP3   OH220722   7.776   6.200   0.550  0.3051 -0.1627 -0.5777
 6922TIP3    H120723   7.832   6.123   0.562  0.7903  0.0497 -1.3986
 6922TIP3    H220724   7.704   6.169   0.495 -0.9876 -0.7020  1.3316
 6923TIP3   OH220725   6.165   4.287   0.843 -0.3430 -0.0142  0.2125
 6923TIP3    H120726   6.201   4.366   0.803 -1.5311  1.3218  1.6215
 6923TIP3    H220727   6.083   4.271   0.796 -1.5989  1.3949  1.7806
 6924TIP3   OH220728   7.530   1.919   2.676 -0.4745 -0.2629  0.0304
 6924TIP3    H120729   7.618   1.894   2.649 -0.4129 -0.7691  0.6776
 6924TIP3    H220730   7.501   1.847   2.733 -1.0555  0.2090  0.3402
 6925TIP3   OH220731   4.820   4.512   4.870 -0.0244  0.3703 -0.1834
 6925TIP3    H120732   4.813   4.461   4.951  0.6629  0.5576  0.0013
 6925TIP3    H220733   4.787   4.599   4.894 -0.1037  0.3415 -0.1865
 6926TIP3   OH220734   4.558   7.377   2.133  0.2835  0.2025 -0.4741
 6926TIP3    H120735   4.489   7.339   2.188  1.3217 -0.6537  0.2729
 6926TIP3    H220736   4.595   7.447   2.187 -1.6075  2.3982 -1.8351
 6927TIP3   OH220737   0.417   7.341   2.170  0.2909 -0.4965  0.2847
 6927TIP3    H120738   0.443   7.377   2.085  0.1857  1.0125  0.8486
 6927TIP3    H220739   0.470   7.389   2.233 -1.9859  0.8764  1.2953
 6928TIP3   OH220740   5.022   4.690   0.171 -0.0279 -0.0363 -0.1702
 6928TIP3    H120741   5.053   4.746   0.243  0.4890 -1.8856  1.1285
 6928TIP3    H220742   5.064   4.727   0.093  0.3282  1.3458  0.6226
 6929TIP3   OH220743   7.924   1.960   1.902  0.2769 -0.5979  0.2144
 6929TIP3    H120744   7.841   1.914   1.907  0.0693 -0.2009  0.5076
 6929TIP3    H220745   7.952   1.970   1.993  0.2450 -0.0270  0.1691
 6930TIP3   OH220746   2.177   6.677   2.988  0.5357  0.2189 -0.2954
 6930TIP3    H120747   2.111   6.608   2.982  0.7153 -0.0469  0.5984
 6930TIP3    H220748   2.212   6.685   2.900  1.7281 -2.0531 -0.1079
 6931TIP3   OH220749   6.978   4.058   2.811 -0.4803  0.1260  0.1608
 6931TIP3    H120750   6.928   4.137   2.830  1.0181  0.6678  2.1520
 6931TIP3    H220751   6.956   3.998   2.883 -0.9903 -1.0049 -0.8968
 6932TIP3   OH220752   5.558   5.980   5.362  0.2265  0.0395 -0.2818
 6932TIP3    H120753   5.516   5.900   5.394  0.3592 -0.4813 -1.3489
 6932TIP3    H220754   5.510   6.051   5.404 -0.9672 -0.5649 -0.5593
 6933TIP3   OH220755   3.760   7.489   3.774 -0.0646 -0.1076  0.0279
 6933TIP3    H120756   3.796   7.538   3.700  0.0547  1.2423  0.9376
 6933TIP3    H220757   3.752   7.399   3.742  0.5847  0.3148 -1.4037
 6934TIP3   OH220758   8.092   0.963   2.127 -0.1646  0.2148 -0.0383
 6934TIP3    H120759   8.055   1.006   2.204 -2.1785  3.5191 -2.5789
 6934TIP3    H220760   8.018   0.917   2.088  0.8992 -1.6873  0.0419
 6935TIP3   OH220761   0.294   6.610   2.320  0.6617 -1.3614 -0.1043
 6935TIP3    H120762   0.296   6.680   2.254  1.3268  0.7280  1.9792
 6935TIP3    H220763   0.251   6.537   2.276 -0.4341  0.4641 -2.2957
 6936TIP3   OH220764   6.104   4.948   6.123  0.3634  0.0071 -0.5960
 6936TIP3    H120765   6.142   4.905   6.200  2.2122  0.1842 -1.3686
 6936TIP3    H220766   6.014   4.968   6.150  0.1724 -2.1328  0.6402
 6937TIP3   OH220767   3.036   6.656   0.455 -0.1010 -0.2816  0.4358
 6937TIP3    H120768   2.961   6.666   0.397  0.7625  0.0905 -0.6435
 6937TIP3    H220769   3.094   6.595   0.409  0.4325 -0.2650  1.0728
 6938TIP3   OH220770   0.814   2.760   0.709  0.5889 -1.1990  0.2300
 6938TIP3    H120771   0.770   2.826   0.762  0.7999 -1.8762  1.2802
 6938TIP3    H220772   0.752   2.686   0.708  0.1278 -0.8230 -1.3526
 6939TIP3   OH220773   1.332   5.960   2.946  0.0651 -0.2738  0.1814
 6939TIP3    H120774   1.307   6.051   2.957  2.1613  0.1227  2.7878
 6939TIP3    H220775   1.396   5.961   2.875  0.6755  0.4630  0.7209
 6940TIP3   OH220776   0.527   1.984   4.166  0.1225 -0.0060 -0.2268
 6940TIP3    H120777   0.512   1.971   4.072 -0.6796  0.5805 -0.1956
 6940TIP3    H220778   0.550   2.076   4.174 -0.5735  0.1416  0.2227
 6941TIP3   OH220779   2.642   0.686   2.102  0.2601  0.1727 -0.4888
 6941TIP3    H120780   2.664   0.594   2.109 -1.0425 -0.0502  2.5506
 6941TIP3    H220781   2.723   0.729   2.076  1.1727 -1.7059 -0.8809
 6942TIP3   OH220782   5.101   4.515   4.075 -0.0687  0.0437  0.0418
 6942TIP3    H120783   5.142   4.487   4.157  1.1904 -1.0266 -0.9242
 6942TIP3    H220784   5.125   4.448   4.011  2.7544  2.9658 -2.3074
 6943TIP3   OH220785   7.376   3.941   5.568  0.5064  0.3228 -0.0852
 6943TIP3    H120786   7.447   3.897   5.615  0.1859  1.7494  1.9094
 6943TIP3    H220787   7.298   3.925   5.621 -0.4050 -0.0390 -1.4817
 6944TIP3   OH220788   0.435   0.866   3.082  0.2152 -0.0878  0.3113
 6944TIP3    H120789   0.496   0.841   3.013  0.3462 -1.2809  0.8218
 6944TIP3    H220790   0.424   0.786   3.133 -0.6743  0.4986  1.0644
 6945TIP3   OH220791   0.338   2.812   5.700  0.0330 -0.8003  0.0957
 6945TIP3    H120792   0.290   2.889   5.670  1.3750 -0.6776 -1.9450
 6945TIP3    H220793   0.273   2.760   5.748 -1.5247  0.3963 -0.6315
 6946TIP3   OH220794   7.902   0.299   5.988  0.1522  0.0586  0.4573
 6946TIP3    H120795   7.997   0.291   5.977  0.0327  0.3390 -0.9559
 6946TIP3    H220796   7.890   0.387   6.022  0.3995 -0.0433  0.8231
 6947TIP3   OH220797   2.079   0.403   6.707  0.0441 -0.7855 -0.4733
 6947TIP3    H120798   2.081   0.480   6.650 -0.2538  0.7089  1.4181
 6947TIP3    H220799   2.164   0.362   6.694  0.5613  0.3573 -0.9001
 6948TIP3   OH220800   2.020   2.738   1.651  0.1255 -0.3366  0.1898
 6948TIP3    H120801   1.981   2.826   1.644  0.0036 -0.4110 -0.0931
 6948TIP3    H220802   2.099   2.751   1.703  0.2982  0.0025 -0.1546
 6949TIP3   OH220803   6.534   5.273   3.407 -0.6499  0.2666  0.3164
 6949TIP3    H120804   6.545   5.304   3.317 -0.4188  1.4738  0.7345
 6949TIP3    H220805   6.581   5.338   3.460  0.4479 -1.1867  1.2065
 6950TIP3   OH220806   7.736   1.729   1.070  0.2513 -0.2202  0.2841
 6950TIP3    H120807   7.776   1.816   1.059 -1.1164  0.3120 -0.7914
 6950TIP3    H220808   7.809   1.668   1.063  0.9612  0.7448 -1.2371
 6951TIP3   OH220809   5.962   2.532   2.028  0.3762 -0.2028  0.2763
 6951TIP3    H120810   5.906   2.588   1.973 -0.1962  1.1654  2.1438
 6951TIP3    H220811   6.048   2.573   2.024  0.5074 -0.5120 -0.1369
 6952TIP3   OH220812   2.568   3.269   4.340  0.1716  0.0802 -0.3852
 6952TIP3    H120813   2.496   3.206   4.343  0.1071  0.2021  1.5382
 6952TIP3    H220814   2.525   3.355   4.339  0.2775  0.1431  0.2020
 6953TIP3   OH220815   0.141   2.627   1.050 -0.4697 -0.0960  0.2237
 6953TIP3    H120816   0.219   2.681   1.061 -1.1937  0.7467  1.4369
 6953TIP3    H220817   0.159   2.548   1.101 -1.0994  0.8848  2.0500
 6954TIP3   OH220818   6.591   4.030   4.126 -0.1038 -0.3742  0.0057
 6954TIP3    H120819   6.626   4.115   4.151  0.0248 -0.1366 -0.9460
 6954TIP3    H220820   6.556   4.043   4.038  0.5430 -1.4697 -0.4363
 6955TIP3   OH220821   3.591   1.982   1.344 -0.9884 -0.8689 -0.2082
 6955TIP3    H120822   3.571   1.897   1.305 -0.7660 -0.4340 -1.3185
 6955TIP3    H220823   3.681   1.973   1.376 -0.8525 -0.9635 -0.6083
 6956TIP3   OH220824   5.174   3.129   2.747 -0.3146  0.1812 -0.0475
 6956TIP3    H120825   5.225   3.154   2.825  2.3005 -0.0810 -1.5619
 6956TIP3    H220826   5.164   3.211   2.699  1.0601 -0.2056 -1.0359
 6957TIP3   OH220827   3.861   3.406   1.081  0.3855  0.4807  0.6213
 6957TIP3    H120828   3.772   3.375   1.061  0.4625 -1.0910  2.4776
 6957TIP3    H220829   3.913   3.327   1.092  1.5984  1.3440  1.3535
 6958TIP3   OH220830   3.916   1.646   3.576  0.0600  0.0276 -1.0591
 6958TIP3    H120831   3.871   1.695   3.506 -0.4940  0.2609 -0.5453
 6958TIP3    H220832   3.846   1.616   3.633  0.6082  1.7829  0.6770
 6959TIP3   OH220833   6.327   6.397   3.537 -0.3493  0.5698  0.1038
 6959TIP3    H120834   6.288   6.483   3.521  0.2592  0.7355 -0.5178
 6959TIP3    H220835   6.311   6.380   3.630  1.3695  2.2948  0.7809
 6960TIP3   OH220836   6.562   0.242   4.979 -0.0623  0.4069  0.5293
 6960TIP3    H120837   6.517   0.179   4.923  0.7565 -1.3130  1.7229
 6960TIP3    H220838   6.583   0.314   4.920 -1.8122 -0.0022 -0.6910
 6961TIP3   OH220839   3.721   2.784   5.178 -0.2629 -0.6491 -0.4069
 6961TIP3    H120840   3.673   2.807   5.098  2.2059  2.4256 -1.2327
 6961TIP3    H220841   3.690   2.845   5.244  0.1606 -0.8471 -0.0181
 6962TIP3   OH220842   8.211   1.010   0.164 -0.1999  0.4184  0.1978
 6962TIP3    H120843   8.151   1.014   0.089 -0.2285  0.0074  0.2014
 6962TIP3    H220844   8.160   1.047   0.237 -1.1165 -1.6105  0.6430
 6963TIP3   OH220845   1.876   2.077   0.151 -0.1639 -0.5157 -0.1352
 6963TIP3    H120846   1.961   2.121   0.152  0.0372 -0.9168  0.9131
 6963TIP3    H220847   1.820   2.132   0.205 -0.4011 -0.6004 -0.2934
 6964TIP3   OH220848   6.090   3.378   1.610  0.2750 -0.0305  0.0593
 6964TIP3    H120849   6.050   3.465   1.608  2.5885  1.0903 -0.4377
 6964TIP3    H220850   6.055   3.337   1.689 -1.3660  1.0539 -0.0551
 6965TIP3   OH220851   8.201   4.126   2.984  0.4406 -0.0612  0.4744
 6965TIP3    H120852   8.195   4.221   2.998  2.1237 -0.3650  4.4903
 6965TIP3    H220853   8.111   4.096   2.992 -0.0461  1.0901 -0.2820
 6966TIP3   OH220854   1.529   5.381   2.559 -0.4576  0.0157  0.2634
 6966TIP3    H120855   1.454   5.322   2.563  2.5459 -4.2871  0.5460
 6966TIP3    H220856   1.550   5.387   2.466 -1.5750  1.9927  0.0925
 6967TIP3   OH220857   6.282   4.358   3.652  0.0768 -0.3210 -0.0213
 6967TIP3    H120858   6.268   4.403   3.736 -0.6546  0.0522 -0.3364
 6967TIP3    H220859   6.221   4.399   3.592  0.2922 -0.8829 -0.6404
 6968TIP3   OH220860   2.606   4.859   2.046  0.2330 -0.5556  0.3671
 6968TIP3    H120861   2.658   4.841   1.968 -1.4957  0.2312 -1.0411
 6968TIP3    H220862   2.644   4.938   2.083  0.3866 -0.2971 -0.3251
 6969TIP3   OH220863   2.887   4.351   0.901 -0.0445  0.3798  0.1127
 6969TIP3    H120864   2.797   4.339   0.931 -0.5057  2.6893 -0.1378
 6969TIP3    H220865   2.915   4.264   0.875 -2.0275 -0.4991  0.6806
 6970TIP3   OH220866   3.183   0.675   6.521 -0.1743  0.4745 -0.1620
 6970TIP3    H120867   3.094   0.652   6.493 -0.1896  0.8690 -0.4467
 6970TIP3    H220868   3.170   0.742   6.589 -0.0969  0.4724 -0.1453
 6971TIP3   OH220869   7.790   3.755   0.511 -0.1608 -0.2044  0.1818
 6971TIP3    H120870   7.873   3.762   0.464 -0.1990  0.5065  0.2036
 6971TIP3    H220871   7.806   3.800   0.594 -0.7109  0.3887 -0.0251
 6972TIP3   OH220872   4.260   1.177   3.301  0.1679  0.3400 -0.1093
 6972TIP3    H120873   4.286   1.221   3.220  1.5793 -1.6461 -0.8048
 6972TIP3    H220874   4.238   1.088   3.274 -0.0727 -0.1580  1.5944
 6973TIP3   OH220875   0.744   0.770   5.741  0.5226 -0.6437 -0.1067
 6973TIP3    H120876   0.840   0.766   5.745  0.4972 -0.6814  0.7761
 6973TIP3    H220877   0.725   0.828   5.668  1.2053 -1.4823 -0.9776
 6974TIP3   OH220878   2.350   1.148   5.528  0.3782 -0.0516  0.1586
 6974TIP3    H120879   2.293   1.157   5.453 -1.0159  1.3521  1.3289
 6974TIP3    H220880   2.328   1.062   5.564 -0.6910  0.2798  0.3287
 6975TIP3   OH220881   5.267   0.038   5.612  0.3053 -0.4702  0.7740
 6975TIP3    H120882   5.299   0.128   5.602 -0.5823 -0.1137  1.0838
 6975TIP3    H220883   5.342  -0.017   5.586  0.9741  0.3464  0.9348
 6976TIP3   OH220884   1.799   6.117   4.422  0.0476  0.2125  0.0260
 6976TIP3    H120885   1.785   6.150   4.333  0.1466 -0.7315 -0.3571
 6976TIP3    H220886   1.770   6.187   4.479  0.0229  0.8504 -0.7571
 6977TIP3   OH220887   7.071   2.346   3.664 -0.6158  0.1777 -0.0361
 6977TIP3    H120888   7.108   2.381   3.746 -0.3705  1.2351 -0.5774
 6977TIP3    H220889   6.993   2.298   3.692  0.2906 -0.7927  0.9761
 6978TIP3   OH220890   2.549   3.192   1.741  0.0970  0.6326  0.1274
 6978TIP3    H120891   2.555   3.267   1.682  0.9706  1.4348  1.2041
 6978TIP3    H220892   2.635   3.187   1.782 -0.4095 -0.0877  1.1273
 6979TIP3   OH220893   5.079   2.733   6.756  0.0551  0.1757  0.2026
 6979TIP3    H120894   5.168   2.768   6.757 -0.6025  1.9663 -0.6980
 6979TIP3    H220895   5.036   2.776   6.682 -1.9476  0.3342  1.3825
 6980TIP3   OH220896   2.482   3.312   6.533  0.5155  0.1865  0.5009
 6980TIP3    H120897   2.453   3.334   6.621  1.9106 -1.6243  1.4822
 6980TIP3    H220898   2.402   3.296   6.484 -0.2626 -1.4646  2.2024
 6981TIP3   OH220899   5.700   4.066   0.540  0.7087 -0.1424 -0.0065
 6981TIP3    H120900   5.764   4.128   0.575 -0.2853  0.5064  0.7004
 6981TIP3    H220901   5.753   3.997   0.500  1.8692  1.8704 -2.2158
 6982TIP3   OH220902   2.051   7.060   1.672  0.3253  0.1289 -0.1773
 6982TIP3    H120903   2.027   7.138   1.622 -0.6210  1.2945  1.9608
 6982TIP3    H220904   2.052   7.089   1.763  0.1835 -2.3006  0.6764
 6983TIP3   OH220905   6.749   1.200   1.899 -0.1728  0.9156 -0.0907
 6983TIP3    H120906   6.785   1.182   1.986  1.5734 -0.5838 -1.0664
 6983TIP3    H220907   6.765   1.293   1.885  1.2014  0.7897  0.4789
 6984TIP3   OH220908   5.687   7.752   6.485 -0.6458 -0.2408  0.4269
 6984TIP3    H120909   5.718   7.663   6.467 -0.6562 -0.2742  0.5654
 6984TIP3    H220910   5.600   7.755   6.447 -0.0420  0.2230 -0.9787
 6985TIP3   OH220911   7.115   2.524   1.231 -0.6990 -0.2414  0.8160
 6985TIP3    H120912   7.065   2.452   1.191  0.7350 -2.0661  2.0939
 6985TIP3    H220913   7.164   2.482   1.302  2.0968  1.5216  0.0918
 6986TIP3   OH220914   4.210   0.850   3.090 -0.6736 -0.1513 -0.4821
 6986TIP3    H120915   4.270   0.915   3.127 -1.8531  2.1671 -2.2988
 6986TIP3    H220916   4.265   0.795   3.035  0.5280 -1.4967  1.9172
 6987TIP3   OH220917   7.521   6.235   6.523  0.7875 -0.4399 -0.2944
 6987TIP3    H120918   7.612   6.247   6.497  0.3530  1.2352 -1.1749
 6987TIP3    H220919   7.519   6.148   6.563  2.9487 -0.1446  0.6123
 6988TIP3   OH220920   5.420   4.466   4.069  0.3448  0.2620 -0.2324
 6988TIP3    H120921   5.425   4.497   3.979 -1.2649  0.4059 -0.2965
 6988TIP3    H220922   5.441   4.373   4.063  2.3958  0.6923 -0.4218
 6989TIP3   OH220923   7.153   6.771   1.001 -0.1553 -0.2882 -0.0412
 6989TIP3    H120924   7.069   6.781   1.045 -0.2867  0.3217 -0.4141
 6989TIP3    H220925   7.156   6.680   0.972 -1.0284 -0.1126 -0.7088
 6990TIP3   OH220926   8.014   5.792   2.829  0.0449  0.3679 -0.5891
 6990TIP3    H120927   7.963   5.803   2.749 -2.4223  1.8609  1.0504
 6990TIP3    H220928   8.059   5.875   2.840  0.7836 -0.0174 -0.6852
 6991TIP3   OH220929   5.753   6.319   3.216 -0.2086 -0.2599 -0.9112
 6991TIP3    H120930   5.829   6.347   3.268  0.1821  0.7338 -1.9831
 6991TIP3    H220931   5.734   6.231   3.249  0.0917  0.2700  0.8137
 6992TIP3   OH220932   8.297   1.691   2.159 -0.1157 -0.3856 -0.3773
 6992TIP3    H120933   8.267   1.641   2.235 -0.2635  0.1122 -0.1070
 6992TIP3    H220934   8.228   1.680   2.094 -0.9989  0.8943  0.3009
 6993TIP3   OH220935   2.400   1.876   6.045 -0.4120 -0.4097  0.4923
 6993TIP3    H120936   2.474   1.934   6.066 -1.4569  0.1130  3.1521
 6993TIP3    H220937   2.434   1.788   6.059 -0.3434 -0.1586  2.0920
 6994TIP3   OH220938   6.382   2.035   5.046  0.0569 -0.2443 -0.3552
 6994TIP3    H120939   6.438   2.006   5.117  0.7799 -0.7232 -1.0956
 6994TIP3    H220940   6.372   1.958   4.990 -0.5046  0.1146 -0.7657
 6995TIP3   OH220941   2.454   3.814   1.929 -0.1719  0.2950 -0.4205
 6995TIP3    H120942   2.418   3.726   1.921  0.8694 -0.3654  1.4882
 6995TIP3    H220943   2.381   3.868   1.960 -0.4625 -0.1962 -0.2486
 6996TIP3   OH220944   7.750   6.834   1.667  0.3962  0.8901 -0.0515
 6996TIP3    H120945   7.686   6.827   1.596 -1.9506 -1.2821  2.1023
 6996TIP3    H220946   7.726   6.916   1.712 -0.7544  0.2373  0.5679
 6997TIP3   OH220947   0.882   2.391   5.611 -0.3503 -0.2207  0.0865
 6997TIP3    H120948   0.897   2.485   5.605  1.5905 -0.3137  2.0522
 6997TIP3    H220949   0.827   2.380   5.689  0.5739 -0.7664  0.6828
 6998TIP3   OH220950   0.801   1.814   3.959  0.0557 -0.5141 -0.3214
 6998TIP3    H120951   0.763   1.880   3.901 -0.3637 -1.0503 -0.6612
 6998TIP3    H220952   0.865   1.863   4.011  1.3571 -0.2165 -2.0810
 6999TIP3   OH220953   0.296   7.486   4.327 -0.3870 -0.5364  0.4099
 6999TIP3    H120954   0.256   7.566   4.360 -1.6810 -0.5915 -0.9128
 6999TIP3    H220955   0.389   7.506   4.321 -0.6536  0.7631  0.3566
 7000TIP3   OH220956   0.529   3.487   1.970  0.1957  0.2128  0.3701
 7000TIP3    H120957   0.574   3.434   2.035  1.2112  1.1882  0.4863
 7000TIP3    H220958   0.533   3.576   2.004  0.1906  0.6468 -0.7124
 7001TIP3   OH220959   7.710   0.609   6.695 -0.2623 -0.6897  0.3549
 7001TIP3    H120960   7.744   0.698   6.704 -1.9358  0.0071  0.1765
 7001TIP3    H220961   7.651   0.614   6.620 -1.1534 -1.7082  0.9716
 7002TIP3   OH220962   3.478   4.171   3.976  0.0476  0.0090 -0.0133
 7002TIP3    H120963   3.400   4.218   3.948  1.2319  0.7787 -2.2078
 7002TIP3    H220964   3.528   4.235   4.026  0.3699  0.2323 -0.6228
 7003TIP3   OH220965   1.026   5.944   3.292  0.0808 -0.3054 -0.1052
 7003TIP3    H120966   0.994   5.875   3.351  2.3327 -0.5958  0.8553
 7003TIP3    H220967   1.020   5.905   3.205 -1.6256 -0.5102  0.0605
 7004TIP3   OH220968   1.582   4.054   0.901  0.5372 -0.1452  0.4583
 7004TIP3    H120969   1.532   4.090   0.827  1.5664  0.2959 -0.0472
 7004TIP3    H220970   1.562   3.961   0.900 -0.7898  0.1082  0.6873
 7005TIP3   OH220971   3.148   7.796   3.742 -0.3161 -0.2200  0.5737
 7005TIP3    H120972   3.086   7.751   3.800 -1.5876 -2.1445 -2.1015
 7005TIP3    H220973   3.094   7.837   3.675  1.1260 -2.5867 -2.2880
 7006TIP3   OH220974   5.189   7.788   0.121  0.0585  0.1614  0.1028
 7006TIP3    H120975   5.122   7.855   0.110 -0.7174 -0.7075 -0.5901
 7006TIP3    H220976   5.153   7.727   0.184 -0.5917 -1.2358 -1.5398
 7007TIP3   OH220977   7.371   4.410   4.765  0.4207  0.6925 -0.0975
 7007TIP3    H120978   7.337   4.321   4.771  0.3718  0.5548 -2.0265
 7007TIP3    H220979   7.463   4.400   4.740  0.5443  1.1856  0.1341
 7008TIP3   OH220980   4.802   4.718   5.693  0.3307 -0.2066  0.0019
 7008TIP3    H120981   4.710   4.699   5.713  0.1838  0.1414 -0.3342
 7008TIP3    H220982   4.806   4.813   5.685 -0.1102 -0.3396 -3.8298
 7009TIP3   OH220983   3.406   2.784   6.739 -0.1632 -0.2709  0.6716
 7009TIP3    H120984   3.314   2.794   6.760 -0.1921  0.2887  0.3057
 7009TIP3    H220985   3.443   2.735   6.813 -0.7020 -0.2892  0.9295
 7010TIP3   OH220986   6.935   2.048   3.512  0.1800  0.0228 -0.3701
 7010TIP3    H120987   6.975   2.126   3.474  0.7696 -1.1855 -2.3707
 7010TIP3    H220988   6.889   2.080   3.590  0.3431  2.3498 -1.1614
 7011TIP3   OH220989   5.103   0.836   0.571 -0.2259  0.0918 -0.4180
 7011TIP3    H120990   5.062   0.830   0.658  0.9287 -1.8822  0.0659
 7011TIP3    H220991   5.056   0.771   0.518 -0.3360  0.6526 -1.0143
 7012TIP3   OH220992   7.418   1.788   2.089  0.2190 -0.3424 -0.0477
 7012TIP3    H120993   7.426   1.697   2.061  1.1379 -0.2432 -0.1531
 7012TIP3    H220994   7.501   1.806   2.133 -0.1659  0.2919  0.4289
 7013TIP3   OH220995   3.484   5.619   0.365  0.4300 -0.0738 -0.0670
 7013TIP3    H120996   3.524   5.553   0.309  2.6498  1.3635 -0.3263
 7013TIP3    H220997   3.400   5.639   0.323  0.8633 -0.8971 -1.3763
 7014TIP3   OH220998   6.945   1.642   6.352  0.5234 -0.3344 -0.0967
 7014TIP3    H120999   6.851   1.657   6.356  0.7304  1.1634 -0.1782
 7014TIP3    H221000   6.979   1.682   6.433  1.0884 -0.8183 -0.0895
 7015TIP3   OH221001   7.389   1.226   5.955  0.0986  0.2019  0.7214
 7015TIP3    H121002   7.319   1.206   6.016 -0.2605  1.7970  0.8895
 7015TIP3    H221003   7.455   1.272   6.008  0.6220 -0.0267  0.2821
 7016TIP3   OH221004   1.643   2.043   4.528 -0.9570  0.1050  0.2333
 7016TIP3    H121005   1.657   2.095   4.449  0.2640  0.2291  0.5166
 7016TIP3    H221006   1.562   1.995   4.512 -0.7381  0.1583 -1.0723
 7017TIP3   OH221007   7.797   2.811   2.217  0.4253  0.0737 -0.1223
 7017TIP3    H121008   7.724   2.834   2.160  0.1570 -1.0923 -0.2714
 7017TIP3    H221009   7.757   2.761   2.289  0.7647  1.4328  1.0732
 7018TIP3   OH221010   4.097   2.050   2.219  0.3636  0.0713  0.2257
 7018TIP3    H121011   4.011   2.022   2.251  0.7800 -0.7563  0.6443
 7018TIP3    H221012   4.151   2.056   2.298  0.4412  1.5591  0.0884
 7019TIP3   OH221013   3.065   4.199   3.983 -0.2989  0.5653 -0.9865
 7019TIP3    H121014   2.975   4.213   4.013 -0.2859  2.0730 -1.5250
 7019TIP3    H221015   3.117   4.261   4.034  0.5165 -0.6116 -0.3544
 7020TIP3   OH221016   2.741   2.846   0.753 -0.1907 -0.4558 -0.0792
 7020TIP3    H121017   2.774   2.758   0.737  0.3792 -0.4893  1.1525
 7020TIP3    H221018   2.679   2.835   0.825  0.4782  0.2420  0.6227
 7021TIP3   OH221019   2.448   2.127   2.165  0.7510  0.1059 -0.0236
 7021TIP3    H121020   2.491   2.107   2.248 -1.1162  1.5152  1.3541
 7021TIP3    H221021   2.439   2.042   2.122  0.9794 -0.7822  1.6013
 7022TIP3   OH221022   1.424   3.276   4.019 -0.0988  0.3955 -0.1062
 7022TIP3    H121023   1.488   3.272   3.949  1.9605 -2.6018  1.7135
 7022TIP3    H221024   1.357   3.212   3.994  0.8133 -0.9320  0.7004
 7023TIP3   OH221025   1.124   2.580   6.266 -0.0754 -0.5079 -0.8790
 7023TIP3    H121026   1.164   2.501   6.231 -2.7392 -2.1474 -0.4969
 7023TIP3    H221027   1.111   2.636   6.189 -1.1357 -1.8780 -1.7535
 7024TIP3   OH221028   5.424   7.347   0.067 -0.0901  0.5505 -0.3150
 7024TIP3    H121029   5.419   7.438   0.099  1.6152  0.1935  1.1157
 7024TIP3    H221030   5.335   7.313   0.079 -0.3232  1.4978  0.9081
 7025TIP3   OH221031   7.419   4.998   6.513  0.3450  0.4162  0.1208
 7025TIP3    H121032   7.506   5.031   6.494  0.3894  0.8144  0.9626
 7025TIP3    H221033   7.360   5.052   6.460  0.6165  0.0046 -0.6124
 7026TIP3   OH221034   2.124   2.486   3.619 -0.3187 -0.3376  0.1819
 7026TIP3    H121035   2.033   2.470   3.644  0.1949 -2.0294  1.1207
 7026TIP3    H221036   2.152   2.405   3.577  1.0142 -0.2005  0.7571
 7027TIP3   OH221037   7.079   2.050   3.176 -0.1188  0.4401 -0.4018
 7027TIP3    H121038   7.073   2.061   3.271 -0.8209  1.3652 -0.5442
 7027TIP3    H221039   7.032   1.969   3.159 -0.1652  0.3735  0.0210
 7028TIP3   OH221040   5.173   4.316   2.646  0.5742 -0.4898 -0.0532
 7028TIP3    H121041   5.193   4.410   2.646 -1.3882 -0.0237  0.8921
 7028TIP3    H221042   5.146   4.297   2.735 -1.3676 -1.3873 -0.7752
 7029TIP3   OH221043   0.940   2.240   3.175 -0.8334  0.1135  0.1560
 7029TIP3    H121044   0.959   2.312   3.235 -0.5405  1.3115 -1.3073
 7029TIP3    H221045   0.853   2.261   3.140 -0.3782  0.2463 -0.9316
 7030TIP3   OH221046   2.016   2.178   4.224  0.1906 -0.3056 -0.4435
 7030TIP3    H121047   1.976   2.117   4.287  0.5434  0.4062  0.4917
 7030TIP3    H221048   1.993   2.142   4.139 -0.4328 -1.2163  0.0856
 7031TIP3   OH221049   4.748   2.660   0.063  0.2421  0.5182  0.2891
 7031TIP3    H121050   4.726   2.741   0.017 -0.3208 -0.2712 -0.8851
 7031TIP3    H221051   4.664   2.616   0.077  0.3967  0.7269  2.1069
 7032TIP3   OH221052   5.106   7.561   0.646 -0.4338  0.1702  0.4528
 7032TIP3    H121053   5.160   7.626   0.601  0.1480 -0.4851  0.1970
 7032TIP3    H221054   5.019   7.571   0.608  0.2304 -0.9789 -1.4944
 7033TIP3   OH221055   2.859   0.759   6.728  0.3614  0.0928 -0.1712
 7033TIP3    H121056   2.829   0.683   6.678  0.7586 -2.2139  2.8198
 7033TIP3    H221057   2.953   0.764   6.710  0.9300 -2.0275  1.6985
 7034TIP3   OH221058   0.150   4.324   5.798 -0.3675  0.1382  0.3547
 7034TIP3    H121059   0.128   4.356   5.711 -0.0498 -0.4205  0.0617
 7034TIP3    H221060   0.068   4.291   5.834 -0.3125 -0.5068 -0.1126
 7035TIP3   OH221061   7.277   1.547   3.235 -0.1784  0.8997  0.3871
 7035TIP3    H121062   7.266   1.641   3.252 -2.2509  0.8008 -0.1530
 7035TIP3    H221063   7.199   1.523   3.184 -0.4704 -1.4316  1.8196
 7036TIP3   OH221064   3.626   4.182   5.554  0.3277  0.3890 -0.3524
 7036TIP3    H121065   3.555   4.186   5.490  0.7326  2.7967 -0.7658
 7036TIP3    H221066   3.705   4.201   5.502  1.1771 -1.2941  0.2599
 7037TIP3   OH221067   7.050   1.807   2.635  0.0481  0.5498  0.0560
 7037TIP3    H121068   7.101   1.755   2.574  1.3731  0.0700  1.4975
 7037TIP3    H221069   6.960   1.775   2.626  0.7266 -1.6564  0.5137
 7038TIP3   OH221070   1.445   4.973   4.361  0.6086  0.1324  0.4345
 7038TIP3    H121071   1.409   4.909   4.422 -0.5569  1.1822  0.8865
 7038TIP3    H221072   1.434   4.933   4.275  0.1850 -0.3991  0.7310
 7039TIP3   OH221073   3.333   2.958   0.318 -0.4151  0.0363 -0.1582
 7039TIP3    H121074   3.295   2.894   0.257  0.5651 -0.3075 -0.4267
 7039TIP3    H221075   3.335   3.040   0.268  0.7234 -0.3270 -0.7421
 7040TIP3   OH221076   7.967   6.652   2.460 -0.5187 -0.2024  0.3931
 7040TIP3    H121077   8.034   6.712   2.493  0.4809  0.1869 -2.1681
 7040TIP3    H221078   7.966   6.580   2.524  0.1892  1.2061  2.0695
 7041TIP3   OH221079   4.165   3.247   0.535  0.6246  0.4997 -0.5469
 7041TIP3    H121080   4.232   3.206   0.589  1.0764 -0.2363 -1.6273
 7041TIP3    H221081   4.213   3.286   0.462 -0.0791  0.2208 -1.1857
 7042TIP3   OH221082   2.685   7.649   3.949  0.0038  0.1671 -0.0101
 7042TIP3    H121083   2.684   7.692   4.034  1.4206 -1.1598  0.7316
 7042TIP3    H221084   2.766   7.679   3.908  1.2243 -1.9952  0.6863
 7043TIP3   OH221085   1.571   6.302   4.345 -0.3098 -0.1186  0.0058
 7043TIP3    H121086   1.624   6.348   4.281  0.1984  2.0674  1.8427
 7043TIP3    H221087   1.532   6.229   4.297  1.2204  0.5149 -2.3506
 7044TIP3   OH221088   7.172   4.723   4.491 -0.0506  0.0531 -0.3969
 7044TIP3    H121089   7.236   4.654   4.507 -0.2033 -0.4323 -1.6981
 7044TIP3    H221090   7.171   4.775   4.571 -0.7380 -2.0911  1.0612
 7045TIP3   OH221091   3.658   2.833   0.974 -0.7642 -0.0802 -0.1902
 7045TIP3    H121092   3.713   2.794   1.042 -1.6478 -1.4075 -0.2102
 7045TIP3    H221093   3.720   2.861   0.907  0.0504  0.4793  0.7491
 7046TIP3   OH221094   4.791   7.211   0.210 -0.2785 -0.2075 -0.2812
 7046TIP3    H121095   4.805   7.116   0.207  0.4227 -0.1325  0.2852
 7046TIP3    H221096   4.871   7.245   0.250  0.1190  0.7619 -1.8286
 7047TIP3   OH221097   7.624   1.130   3.522 -0.5519 -0.1929  0.0731
 7047TIP3    H121098   7.705   1.085   3.500 -1.6113 -3.0015  1.4141
 7047TIP3    H221099   7.645   1.182   3.599  0.4340  0.7797 -0.8247
 7048TIP3   OH221100   1.564   5.961   0.402 -0.2125  0.1161 -0.0587
 7048TIP3    H121101   1.595   5.871   0.407  1.2496  0.5268 -1.0793
 7048TIP3    H221102   1.606   5.997   0.324 -1.0043  1.5975  0.1545
 7049TIP3   OH221103   7.096   4.446   2.092 -0.3119 -0.3022 -0.3310
 7049TIP3    H121104   7.162   4.467   2.025  1.2374  0.3146  1.3021
 7049TIP3    H221105   7.078   4.530   2.134  1.4634 -1.1552  2.3619
 7050TIP3   OH221106   3.331   1.250   1.662 -0.7070  0.1616  0.5307
 7050TIP3    H121107   3.301   1.293   1.582  0.6655  1.2929  0.5600
 7050TIP3    H221108   3.382   1.318   1.707  1.2046 -1.3626  0.8054
 7051TIP3   OH221109   0.761   7.776   2.815 -0.3782 -0.0111 -0.8315
 7051TIP3    H121110   0.800   7.843   2.759  0.1240  0.8154  0.4376
 7051TIP3    H221111   0.717   7.826   2.884  0.3229 -0.9600  0.3616
 7052TIP3   OH221112   7.978   6.326   1.227 -0.5024  0.2407 -0.1072
 7052TIP3    H121113   8.030   6.377   1.289  0.5136  1.2248 -1.7076
 7052TIP3    H221114   8.019   6.239   1.226  0.6188  0.7568 -0.7107
 7053TIP3   OH221115   2.148   3.878   1.499 -0.0072 -0.6692  0.1541
 7053TIP3    H121116   2.243   3.868   1.496  0.3122  1.6879  0.7484
 7053TIP3    H221117   2.122   3.843   1.584  0.5746  0.2798  0.7310
 7054TIP3   OH221118   5.447   1.177   2.260  0.0725  0.2744  0.2246
 7054TIP3    H121119   5.466   1.224   2.341  1.4383  1.4704 -0.7110
 7054TIP3    H221120   5.517   1.112   2.253  0.1492  0.3922 -0.1331
 7055TIP3   OH221121   2.652   1.344   6.391  0.3758 -0.0521 -0.2935
 7055TIP3    H121122   2.567   1.328   6.348  0.3339  1.1395 -0.6990
 7055TIP3    H221123   2.662   1.440   6.388  2.0751 -0.2237 -0.9072
 7056TIP3   OH221124   1.465   4.884   5.974 -0.2215  0.2836  0.3435
 7056TIP3    H121125   1.490   4.793   5.991  2.3286  0.4112 -1.9494
 7056TIP3    H221126   1.391   4.878   5.914 -1.0959 -0.2193  1.4410
 7057TIP3   OH221127   2.712   0.457   1.701  0.0115 -0.0414 -0.2402
 7057TIP3    H121128   2.644   0.417   1.756 -0.4982 -1.5339 -1.8564
 7057TIP3    H221129   2.672   0.539   1.671  0.8368  1.5597  2.6296
 7058TIP3   OH221130   8.312   5.213   4.369 -0.4870  0.2865 -0.4787
 7058TIP3    H121131   8.242   5.167   4.322 -0.9661 -0.1662  0.6610
 7058TIP3    H221132   8.275   5.300   4.387 -1.2787 -0.3690  1.2469
 7059TIP3   OH221133   4.703   5.791   5.951 -0.0143  0.0237 -0.3564
 7059TIP3    H121134   4.620   5.836   5.963  0.9977  1.7524  0.6087
 7059TIP3    H221135   4.711   5.735   6.029 -0.8169 -1.1472 -1.0757
 7060TIP3   OH221136   5.015   6.448   5.673 -0.4668 -0.6256  0.2796
 7060TIP3    H121137   5.068   6.527   5.678 -1.5720  0.2092 -0.5694
 7060TIP3    H221138   4.930   6.478   5.640 -1.5707 -1.8630  1.8064
 7061TIP3   OH221139   7.545   0.519   6.458 -0.5113  0.5248 -0.2003
 7061TIP3    H121140   7.492   0.561   6.390 -1.1623 -0.4075 -0.2981
 7061TIP3    H221141   7.585   0.444   6.414  1.7387  1.7462 -0.3876
 7062TIP3   OH221142   4.470   7.834   2.758  0.4579  0.3801  0.3043
 7062TIP3    H121143   4.507   7.746   2.759 -0.1212  0.1343 -0.0644
 7062TIP3    H221144   4.541   7.889   2.791  0.4223 -0.3758  1.7276
 7063TIP3   OH221145   0.523   6.228   0.827 -0.3238 -0.4028  0.1875
 7063TIP3    H121146   0.606   6.217   0.781 -0.5052  0.8393 -0.4873
 7063TIP3    H221147   0.523   6.159   0.894  1.5153 -0.0737  0.5934
 7064TIP3   OH221148   1.887   1.234   1.502 -0.7217 -0.3466 -0.0730
 7064TIP3    H121149   1.924   1.316   1.469 -1.1663  0.4358  1.2927
 7064TIP3    H221150   1.959   1.172   1.498  0.6673  0.9922  1.9984
 7065TIP3   OH221151   6.272   2.317   6.063 -0.0363  0.2366  0.3914
 7065TIP3    H121152   6.279   2.246   5.998 -2.0264 -1.3351  1.7601
 7065TIP3    H221153   6.245   2.393   6.012  1.8187 -0.0099 -1.0750
 7066TIP3   OH221154   2.298   6.697   0.979  0.1995 -0.1841  0.6429
 7066TIP3    H121155   2.379   6.697   1.029  1.1657  1.9412 -0.7950
 7066TIP3    H221156   2.289   6.786   0.948 -1.4756 -0.9236 -1.1918
 7067TIP3   OH221157   7.007   1.773   1.210  0.5972 -0.3702 -0.2244
 7067TIP3    H121158   7.076   1.760   1.144  1.1271  2.2583 -0.2655
 7067TIP3    H221159   7.054   1.771   1.293  0.2184 -1.6467 -0.0181
 7068TIP3   OH221160   4.626   2.537   6.704  0.3939 -0.1380  0.5623
 7068TIP3    H121161   4.615   2.624   6.665  2.5804 -0.4104 -0.8379
 7068TIP3    H221162   4.623   2.552   6.798 -1.7062  1.0442  0.3808
 7069TIP3   OH221163   2.254   7.178   5.387 -0.3644 -0.2645 -0.0556
 7069TIP3    H121164   2.295   7.232   5.320  2.1733 -3.4277 -1.3065
 7069TIP3    H221165   2.249   7.235   5.464 -1.5064  2.8559 -2.2221
 7070TIP3   OH221166   6.143   3.765   3.544 -0.0465  0.8044  0.1234
 7070TIP3    H121167   6.136   3.841   3.486 -1.6764  0.6751  0.1090
 7070TIP3    H221168   6.082   3.701   3.507  1.5340 -0.6733 -0.0544
 7071TIP3   OH221169   3.490   4.040   2.052 -0.6119 -0.0620  0.3936
 7071TIP3    H121170   3.464   3.967   1.996 -0.8594 -0.5069  1.0726
 7071TIP3    H221171   3.550   4.092   1.998 -0.9541 -0.3960 -0.3269
 7072TIP3   OH221172   6.149   4.046   6.139 -0.2706 -0.5753 -0.3605
 7072TIP3    H121173   6.221   4.108   6.155 -0.2608 -0.5885 -0.3529
 7072TIP3    H221174   6.096   4.088   6.071 -0.8928 -0.0392  0.4289
 7073TIP3   OH221175   1.570   3.792   0.831 -0.1615 -0.8515 -0.0179
 7073TIP3    H121176   1.521   3.719   0.794 -1.2629  0.0667 -0.4529
 7073TIP3    H221177   1.646   3.802   0.774 -0.1958 -1.4155 -0.1659
 7074TIP3   OH221178   0.674   4.929   4.802  1.0467 -0.2161 -0.3248
 7074TIP3    H121179   0.619   4.898   4.875  2.1666 -0.1021  0.5975
 7074TIP3    H221180   0.657   4.867   4.731 -0.2525 -0.1897 -0.0674
 7075TIP3   OH221181   2.054   4.311   4.285 -0.1888  0.3234  0.4528
 7075TIP3    H121182   2.021   4.238   4.337  2.4485 -0.9186  0.5646
 7075TIP3    H221183   2.071   4.272   4.199 -1.9600  1.7036 -0.5780
 7076TIP3   OH221184   6.678   6.239   4.010 -0.2104 -0.2352 -0.0915
 7076TIP3    H121185   6.771   6.261   4.005 -0.1762 -0.2821  0.3008
 7076TIP3    H221186   6.676   6.146   4.031 -0.3516 -0.3797 -0.7329
 7077TIP3   OH221187   5.044   5.108   5.040 -0.3613  0.6103  0.2700
 7077TIP3    H121188   5.114   5.075   5.096  0.5056  2.5031  0.3901
 7077TIP3    H221189   5.067   5.200   5.025 -1.7952  0.7610 -1.3109
 7078TIP3   OH221190   5.756   6.312   3.735 -0.0049  0.0459  0.1436
 7078TIP3    H121191   5.703   6.358   3.801 -0.9023  1.2553 -1.3381
 7078TIP3    H221192   5.835   6.364   3.727  0.7296 -0.8652  1.2031
 7079TIP3   OH221193   0.794   1.332   5.563  0.3582 -0.1007  0.0386
 7079TIP3    H121194   0.889   1.332   5.576  0.1478  1.0356  1.8483
 7079TIP3    H221195   0.782   1.367   5.474  1.5952  2.1596  0.6798
 7080TIP3   OH221196   6.357   0.738   1.320  0.0157 -0.1538  0.3041
 7080TIP3    H121197   6.394   0.726   1.232  1.8503 -1.2974  1.1522
 7080TIP3    H221198   6.339   0.650   1.351 -2.3902  0.3278  0.4196
 7081TIP3   OH221199   3.356   6.192   5.241  0.6599 -0.1174  0.5516
 7081TIP3    H121200   3.279   6.135   5.248 -0.3101  1.2935  2.5851
 7081TIP3    H221201   3.380   6.190   5.148 -1.0908 -1.5327  0.0789
 7082TIP3   OH221202   2.405   4.823   1.796 -0.1626  0.2928 -0.8424
 7082TIP3    H121203   2.419   4.782   1.881 -1.4849  0.4217 -0.5291
 7082TIP3    H221204   2.387   4.751   1.737 -0.9464  0.3029 -0.6278
 7083TIP3   OH221205   6.175   7.636   6.420  0.3665  0.1618  0.2518
 7083TIP3    H121206   6.269   7.652   6.413  0.4285 -0.6550 -1.3280
 7083TIP3    H221207   6.146   7.625   6.329 -0.8718 -1.6520  0.8129
 7084TIP3   OH221208   3.549   0.431   0.362  0.0115  0.1117  0.5655
 7084TIP3    H121209   3.584   0.354   0.407 -0.4207  0.1699  1.0076
 7084TIP3    H221210   3.606   0.503   0.388  1.6871 -0.3957 -1.4628
 7085TIP3   OH221211   2.615   5.172   5.281 -0.1480 -0.6821  0.0123
 7085TIP3    H121212   2.560   5.129   5.347  0.8023 -1.9714 -0.0007
 7085TIP3    H221213   2.617   5.110   5.208  1.3833 -0.7071  0.0485
 7086TIP3   OH221214   3.616   0.553   5.251  0.1684 -0.6302  0.2167
 7086TIP3    H121215   3.539   0.501   5.272 -0.4926 -0.8850 -2.4951
 7086TIP3    H221216   3.592   0.601   5.172  2.1153  0.8332  0.4309
 7087TIP3   OH221217   2.423   2.907   6.380  0.5032  0.0145 -0.2195
 7087TIP3    H121218   2.507   2.932   6.419  2.0734  0.1261 -3.3193
 7087TIP3    H221219   2.406   2.819   6.414  2.0914 -0.1593  0.2200
 7088TIP3   OH221220   6.891   2.901   3.849 -0.8504  0.4716 -0.2363
 7088TIP3    H121221   6.961   2.959   3.878  0.2785 -0.7803 -0.3950
 7088TIP3    H221222   6.818   2.960   3.830 -0.0603  1.7435  0.5307
 7089TIP3   OH221223   2.814   3.732   2.409  0.0427 -0.2673 -0.0418
 7089TIP3    H121224   2.762   3.806   2.439  1.5012  0.5913  0.4937
 7089TIP3    H221225   2.904   3.766   2.406  0.3989 -1.2174 -2.4327
 7090TIP3   OH221226   8.102   6.847   6.164  0.0737 -0.4116  0.1018
 7090TIP3    H121227   8.197   6.847   6.170  0.1115  2.8695  1.4557
 7090TIP3    H221228   8.073   6.794   6.239  0.8567 -0.0482  0.6725
 7091TIP3   OH221229   4.816   5.067   2.182  0.4469 -0.0988  0.5643
 7091TIP3    H121230   4.911   5.060   2.188  0.5886  1.5244  0.7776
 7091TIP3    H221231   4.784   5.034   2.266  0.7156 -1.7916  0.0331
 7092TIP3   OH221232   6.467   6.212   1.302 -0.1086  0.1455  0.0090
 7092TIP3    H121233   6.497   6.303   1.292  2.3043 -0.7087 -1.2136
 7092TIP3    H221234   6.536   6.169   1.351 -1.3459 -1.0129  0.8058
 7093TIP3   OH221235   2.191   5.137   4.242  0.2859 -0.5442  0.0922
 7093TIP3    H121236   2.175   5.094   4.326  1.2324 -0.8544  0.1245
 7093TIP3    H221237   2.249   5.210   4.263  1.2380 -1.1312 -0.3888
 7094TIP3   OH221238   2.663  -0.021   0.252 -0.2437  0.6078  0.9231
 7094TIP3    H121239   2.597   0.026   0.302  0.1159 -0.8751  2.9373
 7094TIP3    H221240   2.688   0.039   0.181 -2.3194  1.9474  1.2493
 7095TIP3   OH221241   3.403   5.758   3.782 -0.0144 -0.0947  0.2973
 7095TIP3    H121242   3.348   5.829   3.750  2.0650  1.2348 -0.5281
 7095TIP3    H221243   3.414   5.700   3.706  0.4197  0.1153  0.1959
 7096TIP3   OH221244   5.772   2.348   3.246  0.5353 -0.2688 -0.0571
 7096TIP3    H121245   5.811   2.382   3.327  1.8117  1.2028 -1.2131
 7096TIP3    H221246   5.691   2.399   3.236 -0.1235 -1.1281  0.7540
 7097TIP3   OH221247   3.341   2.911   1.944  0.0592  0.1118  0.0341
 7097TIP3    H121248   3.369   2.848   1.878 -0.5636 -0.4596  0.2999
 7097TIP3    H221249   3.413   2.914   2.007  2.0848  2.9407 -2.1295
 7098TIP3   OH221250   4.294   1.705   0.789 -0.1889 -0.4428 -0.0845
 7098TIP3    H121251   4.302   1.780   0.731  0.4031  0.6306  1.3100
 7098TIP3    H221252   4.380   1.662   0.784 -1.1563 -2.2869 -2.4344
 7099TIP3   OH221253   3.971   5.553   6.544  0.2827  0.4249  0.0030
 7099TIP3    H121254   4.057   5.591   6.528  0.1660 -0.0245 -1.9767
 7099TIP3    H221255   3.912   5.601   6.486 -0.7893  0.5684  1.1512
 7100TIP3   OH221256   4.025   3.816   3.956  0.8167 -0.0460  0.0277
 7100TIP3    H121257   4.019   3.891   3.896 -0.7837 -0.5274 -0.4467
 7100TIP3    H221258   4.119   3.808   3.974  0.9782  2.6932  0.9012
 7101TIP3   OH221259   4.285   6.309   3.146  0.0687 -0.3400  0.9158
 7101TIP3    H121260   4.342   6.242   3.108  0.1518  0.2505 -0.0377
 7101TIP3    H221261   4.332   6.391   3.133 -0.1343 -0.0534  1.8693
 7102TIP3   OH221262   2.789   1.182   3.664  0.0721  0.2176  0.3993
 7102TIP3    H121263   2.774   1.093   3.630 -3.0530  0.3284  1.1397
 7102TIP3    H221264   2.874   1.177   3.708 -0.3371 -2.6715  1.0813
 7103TIP3   OH221265   0.544   7.808   3.102 -0.2763  0.6408 -0.3306
 7103TIP3    H121266   0.540   7.858   3.184  1.6704  1.6159 -0.7764
 7103TIP3    H221267   0.596   7.730   3.125  0.2379  0.8958 -0.6123
 7104TIP3   OH221268   7.336   4.622   3.525  0.1045  0.8816 -0.0540
 7104TIP3    H121269   7.266   4.595   3.584  0.9536  1.4260  1.2245
 7104TIP3    H221270   7.349   4.715   3.544  0.8422  0.9038 -0.6230
 7105TIP3   OH221271   7.038   6.252   1.090  0.2644 -0.9167  0.3087
 7105TIP3    H121272   7.043   6.241   1.185  1.6151 -0.3392  0.3209
 7105TIP3    H221273   7.115   6.207   1.056 -0.7388 -2.0039 -0.6243
 7106TIP3   OH221274   4.083   2.222   1.981  0.4791 -0.0635 -0.0633
 7106TIP3    H121275   4.107   2.155   1.917  0.4597 -1.2134  1.0957
 7106TIP3    H221276   4.089   2.178   2.065 -2.1248  0.5915  0.5730
 7107TIP3   OH221277   6.854   0.846   0.817 -0.0230 -0.4440  0.6664
 7107TIP3    H121278   6.805   0.764   0.807 -0.4003 -0.1184 -0.3191
 7107TIP3    H221279   6.884   0.845   0.908 -0.1059 -1.6249  0.7024
 7108TIP3   OH221280   0.160   2.944   1.540  0.1500 -0.3444  0.1576
 7108TIP3    H121281   0.144   3.032   1.574 -0.7587 -0.4529  0.0378
 7108TIP3    H221282   0.247   2.921   1.572  0.2757  0.4817  0.4301
 7109TIP3   OH221283   5.797   6.284   5.911  0.8301  0.4516  0.3952
 7109TIP3    H121284   5.879   6.331   5.894  0.5875  1.2726  1.3921
 7109TIP3    H221285   5.805   6.253   6.001 -0.4914  1.7609  1.0168
 7110TIP3   OH221286   4.945   0.363   6.742 -0.6168  0.0737 -0.1272
 7110TIP3    H121287   4.969   0.283   6.695 -0.1656 -0.7139  1.3821
 7110TIP3    H221288   4.850   0.364   6.741 -0.7180 -1.6536  1.6326
 7111TIP3   OH221289   3.334   2.548   1.546  0.7351  0.1033  0.3818
 7111TIP3    H121290   3.314   2.638   1.517  1.2978  0.1423  0.1060
 7111TIP3    H221291   3.303   2.493   1.474  0.1824  0.0580  0.6505
 7112TIP3   OH221292   5.069   1.370   4.372 -0.2429  0.3978  0.8767
 7112TIP3    H121293   5.076   1.461   4.401 -0.3397  0.9630 -0.7926
 7112TIP3    H221294   5.009   1.330   4.435 -2.2106  2.1403  0.2195
 7113TIP3   OH221295   7.305   3.699   4.245 -0.1268  0.0885  0.3881
 7113TIP3    H121296   7.272   3.781   4.209  2.5397  1.7337  1.3844
 7113TIP3    H221297   7.399   3.704   4.234  0.2499 -2.1581  1.8901
 7114TIP3   OH221298   5.617   1.290   6.306  0.2048 -0.6630 -0.0803
 7114TIP3    H121299   5.541   1.347   6.315  0.1193 -0.7756 -0.0874
 7114TIP3    H221300   5.647   1.276   6.396  1.8754  1.5984 -0.1986
 7115TIP3   OH221301   6.508   5.457   6.402 -0.1141 -0.0735  0.2187
 7115TIP3    H121302   6.522   5.544   6.441 -0.4801 -0.3649  1.0174
 7115TIP3    H221303   6.564   5.457   6.325  2.1991 -0.1675  1.7870
 7116TIP3   OH221304   2.920   7.530   0.766 -0.6204  0.3715 -0.4023
 7116TIP3    H121305   2.979   7.455   0.772 -1.0690 -0.0933 -1.4805
 7116TIP3    H221306   2.837   7.493   0.735 -0.5370  1.4227 -1.9941
 7117TIP3   OH221307   4.196   7.719   4.510  0.1810  0.4649 -0.3939
 7117TIP3    H121308   4.184   7.733   4.604  1.6133  0.1289 -0.1397
 7117TIP3    H221309   4.142   7.642   4.491  0.1086  0.3608  0.2042
 7118TIP3   OH221310   0.683   5.416   5.350  0.3035 -0.0776  0.0933
 7118TIP3    H121311   0.761   5.368   5.378 -0.4568 -2.2867 -1.2970
 7118TIP3    H221312   0.663   5.475   5.422  2.2521 -0.7084  1.2077
 7119TIP3   OH221313   3.232   1.228   4.696  0.0210 -0.1265  0.2733
 7119TIP3    H121314   3.221   1.292   4.626 -1.7184  0.3338  0.9146
 7119TIP3    H221315   3.215   1.144   4.654  0.0318  0.0432 -0.0764
 7120TIP3   OH221316   7.332   2.056   3.416  0.2043 -0.0283 -0.0344
 7120TIP3    H121317   7.420   2.076   3.446  0.7644 -0.0498 -1.5896
 7120TIP3    H221318   7.289   2.141   3.409  0.4491  0.0742 -0.3049
 7121TIP3   OH221319   0.162   0.060   5.528  0.7151  0.0318 -0.1274
 7121TIP3    H121320   0.168   0.150   5.561  1.6510 -0.2078  0.3881
 7121TIP3    H221321   0.233   0.053   5.464  1.2704 -0.6156  0.5402
 7122TIP3   OH221322   0.363   3.527   5.279 -0.4157 -0.1487 -0.3618
 7122TIP3    H121323   0.439   3.557   5.229 -1.6449  0.3004 -2.0514
 7122TIP3    H221324   0.297   3.596   5.267 -0.8337 -0.0969  1.7850
 7123TIP3   OH221325   3.314   3.799   6.570 -0.1984  0.3655  0.2721
 7123TIP3    H121326   3.292   3.799   6.477  1.3940  0.3147 -0.1478
 7123TIP3    H221327   3.253   3.737   6.609  0.6327 -1.5055 -1.1807
 7124TIP3   OH221328   1.134   4.739   5.558 -0.3213  0.1314  0.9057
 7124TIP3    H121329   1.119   4.827   5.526 -1.7596 -0.2540  0.4562
 7124TIP3    H221330   1.147   4.687   5.478 -1.1311 -0.3393  1.0707
 7125TIP3   OH221331   5.331   2.825   4.324  0.1799  0.2539  0.3193
 7125TIP3    H121332   5.339   2.823   4.228  2.0119  0.9551  0.4065
 7125TIP3    H221333   5.327   2.733   4.350  0.3069  0.0378 -0.3931
 7126TIP3   OH221334   3.922   0.049   3.976 -0.0504 -0.3336 -0.8963
 7126TIP3    H121335   3.947   0.059   4.068 -0.6363  0.4803 -0.8130
 7126TIP3    H221336   3.921  -0.046   3.962  0.0367 -0.4702 -0.0634
 7127TIP3   OH221337   7.141   7.391   3.932 -0.0550 -0.0953  0.2446
 7127TIP3    H121338   7.049   7.401   3.906 -0.1847 -0.5915  0.4947
 7127TIP3    H221339   7.168   7.479   3.959  0.2099  0.5530 -1.8886
 7128TIP3   OH221340   4.285   3.923   1.830 -0.2221 -0.1495 -0.3080
 7128TIP3    H121341   4.214   3.865   1.803  1.5393 -2.2767 -0.6544
 7128TIP3    H221342   4.272   4.003   1.778 -2.0959 -0.6199 -0.6315
 7129TIP3   OH221343   4.032   4.084   1.323  0.3964 -0.0945 -0.0961
 7129TIP3    H121344   3.953   4.043   1.360 -1.5451  1.0003 -2.6896
 7129TIP3    H221345   4.064   4.020   1.259  1.3742 -0.3156  0.5884
 7130TIP3   OH221346   1.442   2.224   6.645  0.3933 -0.5026  0.4516
 7130TIP3    H121347   1.527   2.232   6.688  0.3742 -2.6377  1.0171
 7130TIP3    H221348   1.381   2.201   6.716 -1.1770  3.0228  0.4466
 7131TIP3   OH221349   7.125   5.203   2.723 -0.0524 -0.1739  0.2954
 7131TIP3    H121350   7.077   5.123   2.704  0.5465 -0.6001  0.5506
 7131TIP3    H221351   7.093   5.231   2.809  0.2219 -0.5092  0.5084
 7132TIP3   OH221352   1.473   5.798   1.293  0.1272  0.0849  0.1346
 7132TIP3    H121353   1.446   5.890   1.290 -0.9110 -0.2471 -1.6970
 7132TIP3    H221354   1.391   5.748   1.289  0.7114 -0.9464  0.4613
 7133TIP3   OH221355   3.085   4.580   4.593 -0.3526  0.4232  0.5746
 7133TIP3    H121356   3.084   4.675   4.587 -0.6413  0.3276 -1.9190
 7133TIP3    H221357   3.176   4.556   4.577 -0.8143  0.2169 -2.1972
 7134TIP3   OH221358   1.909   6.833   3.101  0.1909  0.5385  0.7629
 7134TIP3    H121359   1.998   6.810   3.076  0.1113 -1.5466  2.2158
 7134TIP3    H221360   1.867   6.857   3.018  1.2892 -1.2908 -0.3993
 7135TIP3   OH221361   0.817   0.834   0.392  0.0510  0.0466  0.5412
 7135TIP3    H121362   0.810   0.745   0.426  0.8471 -0.2652 -0.0989
 7135TIP3    H221363   0.769   0.833   0.310  1.1581 -0.1484 -0.1213
 7136TIP3   OH221364   7.375   2.051   1.438 -0.7407 -0.3927  0.0122
 7136TIP3    H121365   7.413   2.113   1.376 -0.0163  0.4240  1.2275
 7136TIP3    H221366   7.320   1.994   1.385 -0.0789  0.2275 -1.3815
 7137TIP3   OH221367   3.741   6.679   6.428 -0.2583 -0.6895 -0.2008
 7137TIP3    H121368   3.767   6.764   6.390  0.4430 -0.6140  0.4433
 7137TIP3    H221369   3.801   6.665   6.500 -1.1172 -1.1916  0.4386
 7138TIP3   OH221370   8.079   4.249   0.681  0.1349  0.3740 -0.3290
 7138TIP3    H121371   8.124   4.181   0.732  0.3889  1.4429  0.9325
 7138TIP3    H221372   8.062   4.319   0.744  0.2472  1.6646 -1.6710
 7139TIP3   OH221373   3.826   0.971   3.286 -0.2679 -0.6063 -0.4928
 7139TIP3    H121374   3.865   1.025   3.218  0.1997 -1.0071 -0.5449
 7139TIP3    H221375   3.889   0.973   3.358 -1.5484  1.2680  0.6543
 7140TIP3   OH221376   6.602   0.472   5.586  0.1210  0.0878  0.2409
 7140TIP3    H121377   6.511   0.445   5.581  0.6352 -2.0520  1.2771
 7140TIP3    H221378   6.613   0.504   5.675  0.9278 -2.0673  0.9705
 7141TIP3   OH221379   1.751   7.662   3.206 -0.1135 -0.0728 -0.8349
 7141TIP3    H121380   1.705   7.611   3.140 -1.1381 -0.0259 -0.1819
 7141TIP3    H221381   1.789   7.596   3.264 -1.5524 -0.1371  0.0875
 7142TIP3   OH221382   6.417   7.007   6.448  0.2838  0.3521 -0.0609
 7142TIP3    H121383   6.352   6.954   6.495 -0.4338  1.4421  0.2160
 7142TIP3    H221384   6.478   6.943   6.412 -0.5624 -0.6681  0.2510
 7143TIP3   OH221385   6.469   4.749   4.719  0.5656  0.0032 -0.1612
 7143TIP3    H121386   6.389   4.697   4.709 -0.4559  1.3461  0.7454
 7143TIP3    H221387   6.466   4.812   4.648  2.1069 -1.4518 -1.6236
 7144TIP3   OH221388   5.553   3.283   2.847  0.1625 -0.0778 -0.1514
 7144TIP3    H121389   5.588   3.227   2.916 -0.8190  0.9989  1.3172
 7144TIP3    H221390   5.564   3.233   2.766  3.4490 -0.4601  0.4203
 7145TIP3   OH221391   2.830   4.397   5.823 -0.0561  0.1610  0.5639
 7145TIP3    H121392   2.786   4.449   5.755 -0.5536  1.0404  1.5251
 7145TIP3    H221393   2.762   4.383   5.890 -0.6001 -3.4999 -0.4988
 7146TIP3   OH221394   3.437   2.435   5.535 -0.2937  0.3674 -0.3014
 7146TIP3    H121395   3.377   2.372   5.574 -0.8856  1.5296  0.7598
 7146TIP3    H221396   3.388   2.471   5.460 -0.2309  0.0877 -0.4795
 7147TIP3   OH221397   5.208   3.526   6.024  0.3994 -0.4142  0.1729
 7147TIP3    H121398   5.203   3.562   6.112  2.8699 -0.3639  0.3565
 7147TIP3    H221399   5.267   3.585   5.977  0.4911 -1.4049 -1.0041
 7148TIP3   OH221400   7.671   5.676   0.406  0.5611  0.0740 -0.1888
 7148TIP3    H121401   7.750   5.711   0.365 -0.0846  0.1538 -1.4325
 7148TIP3    H221402   7.682   5.581   0.403  1.1497  0.1053  0.7775
 7149TIP3   OH221403   4.199   0.961   3.939  0.1919 -0.3374 -0.5389
 7149TIP3    H121404   4.183   0.988   4.030  0.7381  0.3508 -0.6463
 7149TIP3    H221405   4.293   0.943   3.936  0.0120 -1.2905 -0.7293
 7150TIP3   OH221406   3.118   7.713   5.787  0.3819 -0.4874  0.4228
 7150TIP3    H121407   3.135   7.787   5.730 -0.0534 -1.3479 -0.8879
 7150TIP3    H221408   3.025   7.694   5.774  0.8540 -2.3324 -0.6614
 7151TIP3   OH221409   4.009   5.389   2.430 -0.3158  0.0535 -0.0716
 7151TIP3    H121410   3.996   5.466   2.486 -1.2987  1.2387 -1.8181
 7151TIP3    H221411   3.925   5.377   2.387  0.4178 -0.7733 -1.3278
 7152TIP3   OH221412   5.842   1.604   4.053 -0.1537  0.7010 -0.2642
 7152TIP3    H121413   5.800   1.647   4.128 -1.1600 -0.9880  0.2135
 7152TIP3    H221414   5.773   1.549   4.015  0.6375  0.7102 -1.7964
 7153TIP3   OH221415   1.979   3.353   5.381  0.4704 -0.5101 -0.2648
 7153TIP3    H121416   1.968   3.368   5.475 -0.2955  1.4398 -0.6053
 7153TIP3    H221417   2.052   3.292   5.375  0.4361 -0.8015  1.5993
 7154TIP3   OH221418   2.663   7.761   6.146 -0.2846  0.4218  0.2352
 7154TIP3    H121419   2.706   7.708   6.079 -1.5140  0.8088 -0.9299
 7154TIP3    H221420   2.707   7.846   6.141 -0.2007  0.3712  0.0821
 7155TIP3   OH221421   1.003   6.380   5.064  0.2636 -0.0515  0.0858
 7155TIP3    H121422   1.059   6.333   5.002  0.1256 -1.1244  0.7633
 7155TIP3    H221423   1.042   6.468   5.069  1.4555 -0.5577 -0.0101
 7156TIP3   OH221424   4.413   1.087   2.356  0.6752 -0.0552  0.3039
 7156TIP3    H121425   4.323   1.078   2.387  0.6385  2.3739  1.1555
 7156TIP3    H221426   4.464   1.032   2.415 -0.2980 -2.2384 -0.7905
 7157TIP3   OH221427   0.724   0.513   3.842  0.1122 -0.3938 -0.3173
 7157TIP3    H121428   0.803   0.565   3.826 -1.1447  1.9342  0.6387
 7157TIP3    H221429   0.713   0.461   3.762  2.4179 -0.5613 -0.5907
 7158TIP3   OH221430   1.057   2.805   2.016 -0.4308 -0.4798 -0.2034
 7158TIP3    H121431   1.045   2.811   1.921 -0.2406  0.7495 -0.1571
 7158TIP3    H221432   0.985   2.748   2.045 -1.5808  0.5985 -0.8742
 7159TIP3   OH221433   3.336   0.595   6.322 -0.4773  0.5420 -0.0310
 7159TIP3    H121434   3.429   0.619   6.327  0.4870 -2.6527 -0.3215
 7159TIP3    H221435   3.298   0.632   6.402  1.6643 -0.2290  1.4401
 7160TIP3   OH221436   5.558   6.601   3.891  0.1435  0.5388  0.0042
 7160TIP3    H121437   5.600   6.521   3.924  1.1623  0.7646 -0.7133
 7160TIP3    H221438   5.476   6.607   3.941  0.9108  0.0358  1.3868
 7161TIP3   OH221439   0.796   5.240   0.087 -0.3469  0.1319  0.1705
 7161TIP3    H121440   0.796   5.186   0.167 -0.7730  1.7918  1.3496
 7161TIP3    H221441   0.803   5.177   0.016  1.0872 -1.3636  1.5407
 7162TIP3   OH221442   3.548   4.020   5.931 -0.3004  0.4426  0.4625
 7162TIP3    H121443   3.459   4.020   5.966 -1.0156 -2.8401 -0.9288
 7162TIP3    H221444   3.538   4.054   5.842  0.0809  1.2724  0.7330
 7163TIP3   OH221445   4.275   4.378   2.014 -0.8031 -0.5962  0.0465
 7163TIP3    H121446   4.246   4.289   1.995 -2.5626  0.3625 -2.2392
 7163TIP3    H221447   4.348   4.392   1.953 -1.8553  0.1363 -1.1051
 7164TIP3   OH221448   3.384   1.958   1.974  0.5286 -0.0611 -0.0350
 7164TIP3    H121449   3.378   1.866   1.998 -1.3104 -0.9206 -3.3029
 7164TIP3    H221450   3.463   1.964   1.921 -0.6488 -0.3617 -1.8905
 7165TIP3   OH221451   1.638   7.037   1.534 -0.7009  0.0240 -0.4851
 7165TIP3    H121452   1.659   6.974   1.465 -0.6691 -0.0405 -0.4168
 7165TIP3    H221453   1.550   7.068   1.511 -0.8481 -0.2798 -0.3469
 7166TIP3   OH221454   2.769   7.375   6.167  0.4197 -0.3838  0.2179
 7166TIP3    H121455   2.837   7.417   6.114  0.3288 -0.8829 -0.3018
 7166TIP3    H221456   2.687   7.395   6.121  0.4492 -1.8047 -0.4916
 7167TIP3   OH221457   5.001   0.035   3.708 -0.0136 -0.2053 -0.0708
 7167TIP3    H121458   5.034  -0.054   3.720 -0.1712 -0.3099 -0.4037
 7167TIP3    H221459   4.954   0.033   3.625  1.3097  0.5832 -0.8724
 7168TIP3   OH221460   4.410   7.632   3.786  0.5714 -0.2713  0.2487
 7168TIP3    H121461   4.419   7.561   3.851 -0.6663  0.6251  1.4550
 7168TIP3    H221462   4.468   7.701   3.819  1.2011 -0.4267 -0.5158
 7169TIP3   OH221463   4.474   0.377   5.510  0.3603  1.0316 -0.5537
 7169TIP3    H121464   4.469   0.437   5.584 -0.8878 -1.5685  1.6528
 7169TIP3    H221465   4.438   0.295   5.543  1.7721 -0.9305 -3.4338
 7170TIP3   OH221466   1.061   3.294   0.268  0.5728  0.4625  0.4383
 7170TIP3    H121467   1.110   3.242   0.331 -1.0527  0.4983  1.7968
 7170TIP3    H221468   1.020   3.363   0.320  0.6861  1.6509 -0.9575
 7171TIP3   OH221469   2.341   0.923   2.574 -0.5165 -0.2092  0.2015
 7171TIP3    H121470   2.290   0.994   2.613  0.4589  0.5189  0.1932
 7171TIP3    H221471   2.392   0.888   2.647 -1.9502 -1.8018  0.4936
 7172TIP3   OH221472   5.708   3.173   0.133  0.2220  0.0026 -0.2456
 7172TIP3    H121473   5.698   3.213   0.046  0.6981 -0.1979 -0.3926
 7172TIP3    H221474   5.784   3.116   0.125 -1.2970 -2.1337 -0.4838
 7173TIP3   OH221475   0.819   0.827   3.298 -0.1818 -0.8983  0.2837
 7173TIP3    H121476   0.775   0.742   3.303 -0.4484 -0.7143  1.2037
 7173TIP3    H221477   0.881   0.826   3.371 -0.6232 -0.0590  0.6780
 7174TIP3   OH221478   3.079   4.806   5.196  0.1218 -0.2879 -0.0469
 7174TIP3    H121479   3.124   4.723   5.182  0.2515 -0.0694 -1.0584
 7174TIP3    H221480   3.061   4.838   5.107  0.0152  0.7265  0.3276
 7175TIP3   OH221481   4.973   2.935   1.747 -0.3403 -0.7976 -0.3957
 7175TIP3    H121482   4.881   2.962   1.739  0.3000  2.7332  1.6997
 7175TIP3    H221483   4.979   2.898   1.835  0.3660 -0.1658 -0.1672
 7176TIP3   OH221484   6.362   0.291   3.844 -0.4316 -0.4479  0.8709
 7176TIP3    H121485   6.384   0.304   3.751 -0.5023 -1.0407  0.7662
 7176TIP3    H221486   6.425   0.226   3.874 -1.1922 -1.1775  0.9133
 7177TIP3   OH221487   7.132   4.645   0.091 -0.1344  0.0805 -0.3784
 7177TIP3    H121488   7.205   4.595   0.127 -0.4654  1.1108  1.8554
 7177TIP3    H221489   7.054   4.605   0.129 -0.4672  1.5321  0.5395
 7178TIP3   OH221490   2.437   1.665   2.404 -0.2756 -0.2284 -0.1720
 7178TIP3    H121491   2.509   1.625   2.452 -0.2282  0.5079  0.3879
 7178TIP3    H221492   2.476   1.739   2.358 -0.8973  1.0442  1.2587
 7179TIP3   OH221493   3.543   0.097   0.933  0.1816  0.4519 -0.2446
 7179TIP3    H121494   3.567   0.006   0.919  0.2771  0.2365  1.1791
 7179TIP3    H221495   3.603   0.128   1.001 -0.3513  1.3469 -0.1653
 7180TIP3   OH221496   7.177   3.044   2.867 -0.4553  0.0832 -0.9679
 7180TIP3    H121497   7.171   3.084   2.954 -0.0264 -1.4674 -0.1949
 7180TIP3    H221498   7.096   2.994   2.858 -0.9414  0.9742 -1.8917
 7181TIP3   OH221499   7.856   7.064   0.365  0.1675 -0.1255  0.3979
 7181TIP3    H121500   7.906   7.133   0.409 -2.4558  3.0161 -1.1531
 7181TIP3    H221501   7.783   7.045   0.423  0.4531 -1.0878  0.4637
 7182TIP3   OH221502   0.024   3.132   4.690 -0.2980  0.5893 -0.2300
 7182TIP3    H121503   0.063   3.051   4.657 -0.9474 -0.8164  2.2256
 7182TIP3    H221504   0.099   3.191   4.701  0.5146 -0.4743  0.0928
 7183TIP3   OH221505   1.886   4.969   3.225  0.0058  0.2972 -0.0155
 7183TIP3    H121506   1.937   4.919   3.289  0.3761 -0.2538 -0.7304
 7183TIP3    H221507   1.819   5.013   3.277  0.5894  0.2319  0.8119
 7184TIP3   OH221508   3.411   1.227   5.959 -0.0969  0.0831  0.1862
 7184TIP3    H121509   3.502   1.202   5.949 -0.1292  0.3359 -0.8169
 7184TIP3    H221510   3.375   1.223   5.870 -1.5359 -1.8021  0.7877
 7185TIP3   OH221511   4.004   3.325   3.929  0.1321  0.3458 -0.1615
 7185TIP3    H121512   3.975   3.407   3.888  1.1358  0.8613  0.1186
 7185TIP3    H221513   4.034   3.271   3.856 -1.1385 -0.0483 -0.4154
 7186TIP3   OH221514   6.332   4.552   4.521  0.4256  0.1956  0.3571
 7186TIP3    H121515   6.278   4.533   4.598  0.6819  0.5066  0.6162
 7186TIP3    H221516   6.307   4.640   4.494 -0.5638 -0.3805 -0.6824
 7187TIP3   OH221517   8.013   5.307   2.712  0.7606 -0.0725  0.7839
 7187TIP3    H121518   8.097   5.304   2.665 -0.1163  0.3701 -0.8945
 7187TIP3    H221519   7.957   5.245   2.666 -0.7098  1.7343 -0.0322
 7188TIP3   OH221520   3.609   0.522   6.191  0.1971  0.2139 -0.2039
 7188TIP3    H121521   3.527   0.502   6.147  0.5311  0.7901 -1.1171
 7188TIP3    H221522   3.636   0.439   6.230 -1.1261  0.1595  0.6676
 7189TIP3   OH221523   5.598   6.436   6.222 -0.5021 -0.1834  0.2059
 7189TIP3    H121524   5.512   6.478   6.225  0.3334  1.5865  2.9366
 7189TIP3    H221525   5.634   6.462   6.137 -1.8541  0.7315 -0.1307
 7190TIP3   OH221526   5.458   4.180   2.146 -0.0271 -0.7665 -0.5778
 7190TIP3    H121527   5.368   4.158   2.121  0.0162 -0.4108 -1.0449
 7190TIP3    H221528   5.449   4.224   2.230 -0.2965 -0.6764 -0.6516
 7191TIP3   OH221529   1.861   0.898   4.702  0.4614 -0.3018 -0.1384
 7191TIP3    H121530   1.941   0.922   4.656 -0.1543  1.8970 -0.1742
 7191TIP3    H221531   1.821   0.981   4.727 -2.6127 -1.2008 -1.4807
 7192TIP3   OH221532   1.626   0.047   6.479 -0.0994 -0.0595 -0.6585
 7192TIP3    H121533   1.665  -0.036   6.450 -0.3779 -0.3617 -0.1932
 7192TIP3    H221534   1.532   0.037   6.461  0.0784  0.8608 -2.2397
 7193TIP3   OH221535   0.362   7.024   1.900  0.7863  0.3924 -0.2762
 7193TIP3    H121536   0.420   6.956   1.867  0.4832  0.6992 -1.5078
 7193TIP3    H221537   0.418   7.102   1.907  0.6881  0.5228 -0.8447
 7194TIP3   OH221538   5.034   1.583   0.473  0.7575 -0.4966  0.5928
 7194TIP3    H121539   5.018   1.489   0.465  1.6804 -0.7323  1.2318
 7194TIP3    H221540   4.966   1.615   0.532  1.0442 -0.9588  1.1771
 7195TIP3   OH221541   4.304   3.645   0.386  0.5464  0.8557  0.0846
 7195TIP3    H121542   4.218   3.679   0.411 -0.3906  0.4247 -2.2457
 7195TIP3    H221543   4.354   3.722   0.361 -0.7565  0.9005 -2.8458
 7196TIP3   OH221544   0.548   2.978   3.334  0.0229 -0.0135  0.7600
 7196TIP3    H121545   0.583   2.901   3.379 -2.7585 -2.3325 -0.7364
 7196TIP3    H221546   0.554   2.956   3.241 -2.5862  0.6635  0.3618
 7197TIP3   OH221547   1.138   5.274   5.886 -0.2820  0.1694  0.0336
 7197TIP3    H121548   1.129   5.190   5.841  1.1143  0.5216 -0.9464
 7197TIP3    H221549   1.226   5.273   5.922 -0.3737  1.0750  0.3104
 7198TIP3   OH221550   3.312   4.441   3.251  0.0652  1.1185 -0.3118
 7198TIP3    H121551   3.318   4.435   3.156 -1.3057  0.6426 -0.3982
 7198TIP3    H221552   3.295   4.534   3.269 -0.0549  1.1428 -0.5551
 7199TIP3   OH221553   6.271   1.006   4.462 -0.1859  0.9578  0.3261
 7199TIP3    H121554   6.196   0.957   4.497  0.3803  0.6383  1.1033
 7199TIP3    H221555   6.331   0.939   4.430 -1.7487  1.1882 -3.7520
 7200TIP3   OH221556   3.768   5.445   0.197 -0.3073 -0.0549  0.2058
 7200TIP3    H121557   3.682   5.408   0.182 -0.5897  1.2023 -1.6420
 7200TIP3    H221558   3.829   5.384   0.155 -0.2154 -1.0832  1.7435
 7201TIP3   OH221559   2.387   1.383   2.574 -0.6892  0.0695  0.0752
 7201TIP3    H121560   2.338   1.461   2.597  0.2677  0.4043  1.1081
 7201TIP3    H221561   2.477   1.414   2.561  0.1708 -1.0745  2.5519
 7202TIP3   OH221562   0.102   6.808   3.469 -0.2120  0.4443 -0.5769
 7202TIP3    H121563   0.145   6.723   3.459 -1.0266 -0.2115  1.0704
 7202TIP3    H221564   0.014   6.795   3.433  0.1574  1.0852 -1.7681
 7203TIP3   OH221565   1.683   7.566   6.138 -0.2861 -0.2400  0.5341
 7203TIP3    H121566   1.719   7.602   6.057  0.9446  0.6711  1.4602
 7203TIP3    H221567   1.759   7.549   6.193 -1.1726  0.4749  2.0531
 7204TIP3   OH221568   0.896   2.736   1.322 -0.0973 -0.2938 -0.3509
 7204TIP3    H121569   0.863   2.714   1.235  1.5130  0.3036 -1.1654
 7204TIP3    H221570   0.837   2.692   1.383 -0.6395 -1.5987 -1.7658
 7205TIP3   OH221571   0.933   1.785   4.309  0.8173  0.4847  0.0495
 7205TIP3    H121572   0.956   1.800   4.401  1.7131 -0.2839 -0.0318
 7205TIP3    H221573   0.842   1.757   4.312  1.1848 -0.7438  0.8514
 7206TIP3   OH221574   1.398   7.173   1.756  0.2875 -0.9157  0.1422
 7206TIP3    H121575   1.319   7.123   1.734  0.0447 -0.0784 -1.0408
 7206TIP3    H221576   1.418   7.149   1.846 -0.7596 -1.8833  0.1397
 7207TIP3   OH221577   6.354   5.351   3.691 -0.2514 -0.5811  0.6103
 7207TIP3    H121578   6.262   5.350   3.716 -0.2891 -1.0700  0.4584
 7207TIP3    H221579   6.400   5.373   3.772 -0.5589  0.6455  0.4722
 7208TIP3   OH221580   6.531   4.057   2.708  0.5250 -0.1158 -0.1974
 7208TIP3    H121581   6.602   3.999   2.682  0.2275 -0.2165 -0.7993
 7208TIP3    H221582   6.453   4.001   2.710  0.5066 -0.0678  0.7330
 7209TIP3   OH221583   5.734   5.281   6.655 -1.0196  0.4805 -0.3475
 7209TIP3    H121584   5.688   5.294   6.572 -0.4100  2.0613 -0.4779
 7209TIP3    H221585   5.669   5.245   6.714 -1.3165 -1.2709 -1.6605
 7210TIP3   OH221586   6.384   6.959   5.014 -0.2048 -0.0322 -0.0634
 7210TIP3    H121587   6.393   6.886   5.075  0.6533 -0.3403 -0.5410
 7210TIP3    H221588   6.292   6.956   4.987 -0.5299 -0.0381  1.0242
 7211TIP3   OH221589   5.563   5.440   5.146 -0.2068  0.0768  0.0995
 7211TIP3    H121590   5.541   5.426   5.238 -0.2531 -0.8735 -0.0498
 7211TIP3    H221591   5.656   5.465   5.147 -0.9284  3.1819  0.6447
 7212TIP3   OH221592   7.942   1.624   2.179 -0.0503 -0.5484 -0.5045
 7212TIP3    H121593   7.992   1.670   2.111 -0.6515  0.6253 -0.1741
 7212TIP3    H221594   7.933   1.535   2.145  2.8977 -1.0292 -0.2404
 7213TIP3   OH221595   1.724   1.685   2.542  0.9212  0.3204  0.4018
 7213TIP3    H121596   1.688   1.773   2.547 -1.0213 -0.2397 -1.8918
 7213TIP3    H221597   1.789   1.690   2.472 -0.0652 -0.2866 -0.5866
 7214TIP3   OH221598   2.868   0.830   2.082  0.6695 -0.9963  0.5944
 7214TIP3    H121599   2.922   0.872   2.014  0.2057  0.2352  0.9594
 7214TIP3    H221600   2.931   0.784   2.138  1.2637 -0.2888  0.5163
 7215TIP3   OH221601   4.771   6.220   0.315  0.1335  0.4041 -0.1615
 7215TIP3    H121602   4.822   6.142   0.338 -0.4938  0.2036  0.5598
 7215TIP3    H221603   4.808   6.289   0.369 -0.3752  0.2541  0.3768
 7216TIP3   OH221604   3.176   1.012   2.185 -0.2727  0.1681 -0.3390
 7216TIP3    H121605   3.125   1.029   2.107  1.6655  1.8648 -1.3365
 7216TIP3    H221606   3.217   1.096   2.206  1.0474 -0.7796  1.1565
 7217TIP3   OH221607   3.343   0.655   2.784 -0.0045  0.2656 -0.5620
 7217TIP3    H121608   3.364   0.579   2.838  2.8854 -0.1105 -2.0207
 7217TIP3    H221609   3.250   0.643   2.762 -0.0412 -2.0199  0.4895
 7218TIP3   OH221610   3.731   0.671   6.563 -0.0271  0.1397 -0.2390
 7218TIP3    H121611   3.668   0.606   6.594  0.1396 -0.3553 -0.9077
 7218TIP3    H221612   3.796   0.677   6.634  1.1264 -2.0178 -1.0070
 7219TIP3   OH221613   7.899   2.464   1.191  0.3510  0.0766 -0.0158
 7219TIP3    H121614   7.988   2.430   1.197  0.5642  0.3886 -1.1990
 7219TIP3    H221615   7.909   2.559   1.191 -0.1631  0.1806  2.0902
 7220TIP3   OH221616   7.742   1.893   6.138  0.2480  0.1703 -0.8293
 7220TIP3    H121617   7.767   1.831   6.206 -1.7711 -1.8872 -1.8129
 7220TIP3    H221618   7.759   1.979   6.176 -0.7353 -0.8792  2.2884
 7221TIP3   OH221619   3.744   5.093   0.736 -0.8555  0.0438 -0.4923
 7221TIP3    H121620   3.775   5.117   0.823 -0.2593 -0.3100 -0.5964
 7221TIP3    H221621   3.730   4.998   0.741 -1.2500  0.0931 -0.6542
 7222TIP3   OH221622   7.301   6.384   3.781 -0.8916  0.5434 -0.4972
 7222TIP3    H121623   7.267   6.309   3.829 -0.7434 -0.6072 -2.1109
 7222TIP3    H221624   7.381   6.408   3.829 -1.2474  0.0436  0.3703
 7223TIP3   OH221625   6.504   3.286   0.294  0.1154  0.1377 -0.0595
 7223TIP3    H121626   6.539   3.329   0.371  0.7256 -1.2156  0.4550
 7223TIP3    H221627   6.415   3.259   0.320  0.8932 -1.7741  0.8077
 7224TIP3   OH221628   6.308   1.493   1.855  0.0455 -0.2540 -0.1762
 7224TIP3    H121629   6.367   1.446   1.796 -1.4659 -1.3721 -0.8705
 7224TIP3    H221630   6.282   1.570   1.804 -0.5171 -0.7251 -0.6176
 7225TIP3   OH221631   7.999   0.245   4.990  0.2638  0.0255 -0.4776
 7225TIP3    H121632   7.932   0.306   5.021  0.4625 -0.3108  0.6944
 7225TIP3    H221633   8.069   0.252   5.055  0.8682 -0.4703 -1.0597
 7226TIP3   OH221634   5.963   4.127   3.488 -0.1342 -0.4981 -0.3550
 7226TIP3    H121635   6.013   4.205   3.467  1.1730 -1.0110  0.6693
 7226TIP3    H221636   5.892   4.158   3.544  0.5576 -0.0649  0.3075
 7227TIP3   OH221637   6.074   7.102   2.525 -0.1425 -0.6268 -0.5764
 7227TIP3    H121638   6.091   7.114   2.431  1.9439 -0.2470 -0.2066
 7227TIP3    H221639   6.101   7.011   2.542  3.7912  0.5372  0.3843
 7228TIP3   OH221640   6.739   2.074   2.768  0.4977 -0.2107  0.0641
 7228TIP3    H121641   6.831   2.101   2.758  0.2675 -0.2817 -3.2405
 7228TIP3    H221642   6.742   1.978   2.771  0.4718 -0.3322 -2.2456
 7229TIP3   OH221643   5.755   6.680   0.138 -0.2473 -0.0151  0.4375
 7229TIP3    H121644   5.802   6.690   0.221 -0.8423 -3.6409  1.3892
 7229TIP3    H221645   5.665   6.707   0.159 -0.0201  0.8018  0.4115
 7230TIP3   OH221646   3.317   2.156   6.550 -0.4861 -0.2823 -0.3411
 7230TIP3    H121647   3.336   2.113   6.633 -1.2205 -2.1030 -1.0599
 7230TIP3    H221648   3.257   2.096   6.505 -0.5975  0.9451 -1.9275
 7231TIP3   OH221649   7.703   6.365   6.006 -0.6246 -0.5627  0.0534
 7231TIP3    H121650   7.645   6.325   6.071  1.3566 -1.6862  1.2163
 7231TIP3    H221651   7.725   6.293   5.947  1.7040 -0.9078  1.2281
 7232TIP3   OH221652   0.365   2.448   5.205 -0.2067  0.6680 -0.4506
 7232TIP3    H121653   0.273   2.473   5.203 -0.2686  0.4215 -0.8784
 7232TIP3    H221654   0.411   2.528   5.230 -0.4652  1.0216 -1.0654
 7233TIP3   OH221655   6.328   6.804   0.667  0.0967  0.1484 -0.1597
 7233TIP3    H121656   6.415   6.786   0.702  0.5782 -0.5731 -1.5994
 7233TIP3    H221657   6.269   6.755   0.723  0.8089 -0.7596 -0.1712
 7234TIP3   OH221658   2.583   3.688   4.499  0.2162  0.0835  0.2911
 7234TIP3    H121659   2.503   3.635   4.500  0.1652  0.1662  1.3596
 7234TIP3    H221660   2.614   3.688   4.589 -0.5053  2.9397  0.6470
 7235TIP3   OH221661   3.807   0.440   1.595  0.1214  0.2294  0.2771
 7235TIP3    H121662   3.753   0.413   1.669 -0.6114 -0.5596 -0.5154
 7235TIP3    H221663   3.744   0.454   1.524  1.0043 -1.7102 -0.9625
 7236TIP3   OH221664   7.995   3.033   1.786  0.3703  0.4270 -0.8237
 7236TIP3    H121665   7.921   3.013   1.730 -1.3882  1.7878  0.8922
 7236TIP3    H221666   7.981   3.124   1.813  1.1167 -0.1702  1.8131
 7237TIP3   OH221667   7.302   2.123   5.058  0.4475  0.4545 -0.5156
 7237TIP3    H121668   7.246   2.124   5.135  1.4802 -0.2925  0.2734
 7237TIP3    H221669   7.282   2.041   5.014 -0.6546  1.1992 -1.4689
 7238TIP3   OH221670   8.221   0.395   3.554 -0.3786 -0.1902 -0.1580
 7238TIP3    H121671   8.189   0.341   3.482  0.6270 -0.8539 -0.1274
 7238TIP3    H221672   8.174   0.478   3.545  0.3489  0.0505 -2.0993
 7239TIP3   OH221673   6.357   7.464   3.513  0.4219 -0.3311 -0.1627
 7239TIP3    H121674   6.302   7.387   3.529 -0.1651 -0.0305 -0.7039
 7239TIP3    H221675   6.403   7.444   3.431  1.1358 -0.5902  0.2997
 7240TIP3   OH221676   5.951   3.739   0.756 -0.6756 -0.7842 -0.2026
 7240TIP3    H121677   5.872   3.701   0.794 -1.1988 -0.4399 -0.9153
 7240TIP3    H221678   5.933   3.742   0.662 -1.9248  3.8918 -0.0625
 7241TIP3   OH221679   1.872   3.260   4.494  0.1270  0.8229  0.1212
 7241TIP3    H121680   1.785   3.295   4.475 -0.4873 -1.1069 -0.8061
 7241TIP3    H221681   1.904   3.227   4.411  0.0314 -2.0896  1.1265
 7242TIP3   OH221682   2.144   0.605   4.576  0.1613  0.1812 -0.6900
 7242TIP3    H121683   2.202   0.537   4.611  0.5356  0.5624 -0.5583
 7242TIP3    H221684   2.193   0.642   4.502 -0.3552 -0.1863 -1.2290
 7243TIP3   OH221685   6.754   1.431   3.156  0.3575 -0.3441 -0.2925
 7243TIP3    H121686   6.794   1.513   3.186  2.0084 -1.1727 -0.1485
 7243TIP3    H221687   6.774   1.368   3.225 -0.3246 -1.0400 -0.7215
 7244TIP3   OH221688   4.549   1.683   1.427  0.2631  0.2692  0.3856
 7244TIP3    H121689   4.465   1.706   1.468  0.8664 -1.3312  2.6804
 7244TIP3    H221690   4.604   1.652   1.499  1.6698 -2.0225 -1.5144
 7245TIP3   OH221691   3.934   7.288   5.921  0.9117  0.1451 -0.3680
 7245TIP3    H121692   3.933   7.220   5.854  0.0114 -1.1022  0.8535
 7245TIP3    H221693   3.929   7.241   6.004  1.1447  1.6733  0.5682
 7246TIP3   OH221694   4.506   3.682   0.911  0.0679 -0.0080 -0.0917
 7246TIP3    H121695   4.511   3.705   1.004  0.2813 -0.5754  0.0417
 7246TIP3    H221696   4.436   3.737   0.877  1.0145  1.3268  0.0570
 7247TIP3   OH221697   0.715   5.602   0.413  0.1915  0.4716 -0.1979
 7247TIP3    H121698   0.721   5.697   0.410  2.0605  0.4385  0.9017
 7247TIP3    H221699   0.775   5.572   0.345  2.6384  0.1349  1.9346
 7248TIP3   OH221700   1.996   1.096   5.483 -0.1405  0.1245  0.0166
 7248TIP3    H121701   2.022   1.095   5.391 -0.0832  1.9858 -0.0376
 7248TIP3    H221702   1.974   1.005   5.504 -0.4643 -0.2742 -1.9176
 7249TIP3   OH221703   7.806   3.868   5.626 -0.0864 -0.1158  0.3678
 7249TIP3    H121704   7.822   3.779   5.595  1.7158 -0.7768  2.8035
 7249TIP3    H221705   7.870   3.922   5.580 -1.9420  0.2375 -1.9848
 7250TIP3   OH221706   8.019   4.869   0.111  0.2728 -0.3732  0.3888
 7250TIP3    H121707   7.965   4.815   0.054  1.6724 -1.2553 -0.1499
 7250TIP3    H221708   8.094   4.814   0.134  1.3184  1.0312  0.5197
 7251TIP3   OH221709   6.901   7.424   0.800  0.2568 -0.8930 -0.1909
 7251TIP3    H121710   6.876   7.462   0.884 -1.2888 -0.4519 -0.8168
 7251TIP3    H221711   6.837   7.355   0.785 -1.3582  0.8909 -2.2857
 7252TIP3   OH221712   6.184   0.960   3.180 -0.7373  0.3765 -0.2698
 7252TIP3    H121713   6.250   1.010   3.132 -1.1401  0.1303 -1.1018
 7252TIP3    H221714   6.101   0.989   3.141 -0.9787 -0.9101 -0.7448
 7253TIP3   OH221715   1.671   5.008   0.594 -0.1433  0.6347  0.2155
 7253TIP3    H121716   1.621   4.929   0.616  1.6621 -0.0311  2.4554
 7253TIP3    H221717   1.705   4.991   0.506 -1.7568  0.0114 -0.3181
 7254TIP3   OH221718   0.382   1.185   5.832 -0.3175 -0.1646  0.0613
 7254TIP3    H121719   0.440   1.205   5.758  0.6735 -0.0360  0.8621
 7254TIP3    H221720   0.294   1.200   5.797  0.0976 -0.6772 -1.2708
 7255TIP3   OH221721   3.527   3.816   1.255 -0.0266 -0.1112 -0.4742
 7255TIP3    H121722   3.540   3.905   1.224  1.0098  0.2638  0.9176
 7255TIP3    H221723   3.447   3.820   1.307 -0.8447 -0.3667 -1.6858
 7256TIP3   OH221724   0.020   1.780   4.344  0.0462  0.4387 -0.0712
 7256TIP3    H121725   0.034   1.822   4.429  1.9090  0.2953 -0.2673
 7256TIP3    H221726   0.105   1.740   4.322 -0.5856 -0.1128 -1.6770
 7257TIP3   OH221727   7.885   3.112   5.030 -0.1474  0.0935  0.0156
 7257TIP3    H121728   7.838   3.090   5.110 -2.6957  1.7928 -0.8937
 7257TIP3    H221729   7.850   3.053   4.963  0.4021  0.1182 -0.3091
 7258TIP3   OH221730   8.122   0.191   4.115 -0.1046  0.0275  0.1024
 7258TIP3    H121731   8.044   0.218   4.162 -1.4001  0.6282 -2.2396
 7258TIP3    H221732   8.172   0.272   4.103 -0.5320  0.1756 -0.8034
 7259TIP3   OH221733   3.912   2.402   6.430  0.2317  0.3390  0.1786
 7259TIP3    H121734   3.960   2.485   6.438 -0.7213  1.0935 -1.4814
 7259TIP3    H221735   3.975   2.342   6.390  0.7124  0.4387  0.7662
 7260TIP3   OH221736   7.998   0.974   3.084  0.2596  0.3055 -0.8326
 7260TIP3    H121737   8.068   1.026   3.045 -0.7823  1.6633 -0.9702
 7260TIP3    H221738   7.964   1.029   3.155  0.6809 -1.2088  0.6117
 7261TIP3   OH221739   1.989   0.203   5.237 -0.4412  0.1027 -0.3671
 7261TIP3    H121740   1.959   0.273   5.180 -1.0550 -0.5712 -0.8892
 7261TIP3    H221741   2.061   0.242   5.287 -0.4887  0.9662 -0.9534
 7262TIP3   OH221742   3.787   2.190  -0.002  0.2167  0.6075 -0.0326
 7262TIP3    H121743   3.799   2.266   0.056 -0.2311  1.7130 -1.3262
 7262TIP3    H221744   3.699   2.158   0.018  0.6550 -0.0189  0.9881
 7263TIP3   OH221745   5.499   6.971   6.411 -0.1496  0.6888 -0.1223
 7263TIP3    H121746   5.418   7.022   6.411  0.2361  1.3983 -2.1760
 7263TIP3    H221747   5.524   6.965   6.319  0.7532 -1.7958  0.2078
 7264TIP3   OH221748   0.248   0.641   0.591  0.0264  0.3877 -0.4800
 7264TIP3    H121749   0.277   0.586   0.664  0.2839 -0.7939 -1.4338
 7264TIP3    H221750   0.298   0.722   0.600  0.1590  0.2001  0.5680
 7265TIP3   OH221751   3.909   0.301   3.160  0.0372  0.4350 -0.6710
 7265TIP3    H121752   3.873   0.377   3.206  0.7706  0.9867 -0.9988
 7265TIP3    H221753   3.836   0.269   3.107 -0.2419  0.9983 -0.6382
 7266TIP3   OH221754   6.808   5.084   6.168  0.2203  0.0274 -0.0864
 7266TIP3    H121755   6.848   5.081   6.255  1.8473 -1.0583 -0.8326
 7266TIP3    H221756   6.844   5.009   6.122  3.2149  3.0035 -3.2783
 7267TIP3   OH221757   2.625   0.537   1.010 -0.0532 -0.1392 -0.1960
 7267TIP3    H121758   2.547   0.582   0.978 -0.4277 -1.0004 -0.5372
 7267TIP3    H221759   2.681   0.606   1.045  1.3783  1.1784 -4.5586
 7268TIP3   OH221760   7.493   5.093   1.397  0.1200 -0.1594  0.1125
 7268TIP3    H121761   7.481   5.002   1.372  0.2663  0.1021 -0.9609
 7268TIP3    H221762   7.488   5.142   1.315  0.9982  0.7002  0.5374
 7269TIP3   OH221763   6.496   2.968   5.186  0.4678 -0.1951 -0.0069
 7269TIP3    H121764   6.415   2.970   5.135  1.2647  0.3587 -1.3056
 7269TIP3    H221765   6.469   2.988   5.275 -1.1263 -2.3261  0.0732
 7270TIP3   OH221766   4.965   1.328   0.411 -0.4262  0.2525 -0.2011
 7270TIP3    H121767   4.946   1.307   0.320 -0.8135  2.2881 -0.6344
 7270TIP3    H221768   4.989   1.244   0.450 -1.5531 -0.8953 -1.8319
 7271TIP3   OH221769   3.909   3.864   2.474 -0.1534 -0.0197 -0.2132
 7271TIP3    H121770   3.874   3.810   2.544 -0.5970  0.0223 -0.4026
 7271TIP3    H221771   3.988   3.904   2.512  1.8721 -2.9835 -0.9524
 7272TIP3   OH221772   5.271   5.394   0.773  0.0240 -0.1778 -0.8687
 7272TIP3    H121773   5.242   5.404   0.863  0.4430  0.8483 -0.8373
 7272TIP3    H221774   5.214   5.452   0.723 -1.2818 -1.9310 -1.5203
 7273TIP3   OH221775   5.228   6.574   0.324 -0.3716 -0.3970 -0.0311
 7273TIP3    H121776   5.319   6.599   0.337 -0.7726  1.3214 -0.3306
 7273TIP3    H221777   5.195   6.635   0.259 -2.3798  0.5693  1.7785
 7274TIP3   OH221778   7.125   3.936   3.353  0.2526 -0.6741  0.2423
 7274TIP3    H121779   7.076   3.878   3.412  0.5471 -0.0767  1.1092
 7274TIP3    H221780   7.064   4.007   3.333  1.1596  0.8871  2.5613
 7275TIP3   OH221781   2.791   2.380   5.415 -0.2433 -0.0453 -0.3981
 7275TIP3    H121782   2.786   2.394   5.320  0.5701 -0.8460 -0.5768
 7275TIP3    H221783   2.846   2.451   5.447  0.6591 -0.5683 -0.7451
 7276TIP3   OH221784   8.173   6.902   5.007  0.2888 -0.1323 -0.3408
 7276TIP3    H121785   8.104   6.935   5.066 -0.0164  0.5163 -1.0371
 7276TIP3    H221786   8.127   6.879   4.927  0.6332 -1.5077 -0.1556
 7277TIP3   OH221787   1.465   0.947   4.285  0.3350 -0.1696 -0.1758
 7277TIP3    H121788   1.438   0.971   4.196  0.1599  2.2833  0.4487
 7277TIP3    H221789   1.511   1.025   4.318  0.6119 -1.0966  1.7940
 7278TIP3   OH221790   6.392   2.276   4.029 -0.1029  0.0177  0.1439
 7278TIP3    H121791   6.391   2.205   3.964  0.2331  0.0826  0.0677
 7278TIP3    H221792   6.443   2.241   4.102  2.7978  1.2397 -1.1175
 7279TIP3   OH221793   0.301   0.277   2.323  0.6103  0.5139 -0.5173
 7279TIP3    H121794   0.335   0.263   2.412 -2.0882  0.3460  0.5804
 7279TIP3    H221795   0.208   0.295   2.336 -0.0927 -0.5572 -3.4188
 7280TIP3   OH221796   3.586   3.424   5.654  0.2979  0.3541  0.2886
 7280TIP3    H121797   3.612   3.442   5.745  2.9857  0.2277 -0.3632
 7280TIP3    H221798   3.594   3.329   5.646 -1.0376  0.2284  0.1802
 7281TIP3   OH221799   4.338   7.412   5.471 -0.1994  0.0033  0.1211
 7281TIP3    H121800   4.357   7.468   5.547  1.8428 -0.6585  0.1448
 7281TIP3    H221801   4.251   7.439   5.443  0.0061  1.9570  1.2114
 7282TIP3   OH221802   7.451   1.617   6.318  0.2046 -0.1099 -0.2680
 7282TIP3    H121803   7.454   1.565   6.399  2.3119  1.2864  0.6573
 7282TIP3    H221804   7.543   1.632   6.296 -0.2285  3.4069 -0.2840
 7283TIP3   OH221805   7.698   7.544   1.999  0.5529 -0.5316  0.1486
 7283TIP3    H121806   7.629   7.574   1.940  0.2269 -1.5119  0.0033
 7283TIP3    H221807   7.734   7.624   2.037  0.1319  0.0607 -0.6631
 7284TIP3   OH221808   4.954   4.872   2.421  0.0075  0.0544  0.3414
 7284TIP3    H121809   5.009   4.840   2.493 -0.6605 -1.2202  0.3184
 7284TIP3    H221810   4.950   4.798   2.360 -1.5287  0.2037  0.2241
 7285TIP3   OH221811   3.988   0.248   1.970  0.0801  0.0214 -0.2888
 7285TIP3    H121812   4.083   0.234   1.966  0.1057 -0.4259  1.4224
 7285TIP3    H221813   3.950   0.161   1.953  0.0204 -0.1490  0.6941
 7286TIP3   OH221814   4.952   6.777   5.163 -0.7651 -0.0647  0.1692
 7286TIP3    H121815   4.872   6.797   5.212 -1.3010  1.3980 -1.1987
 7286TIP3    H221816   5.020   6.827   5.208 -1.1333  0.7527 -0.1477
 7287TIP3   OH221817   6.539   7.380   1.715 -0.3826  0.3146  0.1152
 7287TIP3    H121818   6.628   7.417   1.710 -0.0176 -0.5761 -0.1655
 7287TIP3    H221819   6.490   7.445   1.766  0.3391  0.9871 -0.0105
 7288TIP3   OH221820   6.524   5.550   0.459 -0.6157  0.0040  0.4227
 7288TIP3    H121821   6.552   5.617   0.396 -0.4504 -0.1299  0.3545
 7288TIP3    H221822   6.497   5.476   0.404 -0.1189 -0.2503  0.5248
 7289TIP3   OH221823   4.995   2.741   0.164 -0.2923 -0.0210 -0.1954
 7289TIP3    H121824   5.051   2.702   0.098 -3.3487 -0.9939 -2.4347
 7289TIP3    H221825   4.908   2.704   0.148 -1.8766  2.1511  2.3421
 7290TIP3   OH221826   7.428   1.381   6.477 -0.1522  0.0016  0.0558
 7290TIP3    H121827   7.337   1.409   6.464  0.8795  2.5067 -3.3352
 7290TIP3    H221828   7.442   1.314   6.410  0.7721  0.4514 -0.2169
 7291TIP3   OH221829   3.234   1.985   2.330 -0.0857  0.3680  0.3179
 7291TIP3    H121830   3.171   1.968   2.400  0.6694 -1.4682  0.6196
 7291TIP3    H221831   3.208   2.070   2.294 -2.1217  0.1171  1.0508
 7292TIP3   OH221832   1.238   3.157   3.250  0.3217 -0.2523 -0.3006
 7292TIP3    H121833   1.161   3.110   3.281 -0.1746  1.3821  1.1288
 7292TIP3    H221834   1.214   3.190   3.163 -0.1437 -0.7488 -0.3598
 7293TIP3   OH221835   7.341   1.825   0.161  0.4094 -0.4480  0.3507
 7293TIP3    H121836   7.287   1.897   0.193  0.5188 -0.4674  0.5796
 7293TIP3    H221837   7.392   1.864   0.089  0.8510 -0.1525  0.8091
 7294TIP3   OH221838   1.537   6.691   3.178  0.0358 -0.5158  0.3114
 7294TIP3    H121839   1.488   6.700   3.259 -0.5056  1.7613 -0.1892
 7294TIP3    H221840   1.596   6.616   3.193 -2.3477 -2.2735  1.5359
 7295TIP3   OH221841   4.728   3.607   2.527 -0.4482 -0.4051 -0.1135
 7295TIP3    H121842   4.663   3.571   2.467  1.7629 -3.6000 -0.8407
 7295TIP3    H221843   4.706   3.569   2.612 -0.8814  0.4339  0.1606
 7296TIP3   OH221844   5.906   5.480   6.423 -0.3553  0.7443  0.3482
 7296TIP3    H121845   5.944   5.507   6.507 -0.3869 -0.1188  0.6489
 7296TIP3    H221846   5.865   5.395   6.441  0.9955 -0.2199 -0.9052
 7297TIP3   OH221847   7.868   6.664   4.262  0.4379  0.0452 -0.2379
 7297TIP3    H121848   7.902   6.753   4.264 -0.2210  0.2955  0.5941
 7297TIP3    H221849   7.926   6.615   4.321 -0.4036  0.4008  0.9296
 7298TIP3   OH221850   6.132   7.090   4.907 -0.3655  0.2748  0.3474
 7298TIP3    H121851   6.140   7.152   4.979 -0.1622 -1.6661  2.0934
 7298TIP3    H221852   6.037   7.084   4.892 -0.6555 -1.2435  2.3401
 7299TIP3   OH221853   4.369   6.658   6.178 -0.0615 -0.0031 -0.0747
 7299TIP3    H121854   4.428   6.692   6.245 -1.0157 -0.5110  1.0749
 7299TIP3    H221855   4.373   6.721   6.107 -0.7845  1.8456  1.4478
 7300TIP3   OH221856   8.048   2.652   1.446 -0.1527 -0.3222 -0.2879
 7300TIP3    H121857   8.139   2.674   1.465  0.0320 -1.4219  0.1892
 7300TIP3    H221858   8.048   2.557   1.437 -1.4138 -0.4358  0.6593
 7301TIP3   OH221859   8.128   3.718   3.171  0.1419 -0.3869  0.0632
 7301TIP3    H121860   8.203   3.776   3.189  0.0966 -0.9343  2.3571
 7301TIP3    H221861   8.069   3.771   3.118  1.3466  0.6881 -0.2654
 7302TIP3   OH221862   2.477   6.132   1.725  0.2097  0.0763 -0.1595
 7302TIP3    H121863   2.410   6.185   1.768 -0.2784 -0.3544 -0.3684
 7302TIP3    H221864   2.544   6.119   1.792 -0.7244 -0.9063  0.6247
 7303TIP3   OH221865   4.344   5.655   3.496  0.1363 -0.4451 -0.0293
 7303TIP3    H121866   4.423   5.696   3.532 -1.2198  1.4110  0.9630
 7303TIP3    H221867   4.294   5.628   3.572 -0.3174 -1.3983 -0.6488
 7304TIP3   OH221868   2.026   4.104   3.725  0.2964  0.0397  0.0425
 7304TIP3    H121869   2.046   4.012   3.740 -0.2456 -0.3534 -1.5016
 7304TIP3    H221870   2.046   4.147   3.808  4.0153 -0.8698 -0.2039
 7305TIP3   OH221871   6.077   1.695   0.994  0.0008  0.1863  0.2066
 7305TIP3    H121872   5.984   1.717   0.988 -0.1109 -0.2554  0.3003
 7305TIP3    H221873   6.081   1.624   1.058  0.2617 -0.6006 -0.6681
 7306TIP3   OH221874   4.433   1.538   5.607  0.3265 -0.0206  0.0075
 7306TIP3    H121875   4.342   1.559   5.629  0.3400  0.3728 -0.2933
 7306TIP3    H221876   4.458   1.605   5.543  0.9276  0.0572  0.3198
 7307TIP3   OH221877   2.396   3.317   5.700  0.2611  0.0639  0.4558
 7307TIP3    H121878   2.486   3.310   5.667  1.0070 -1.1773  2.5562
 7307TIP3    H221879   2.350   3.244   5.659  0.9637 -0.9716  1.4495
 7308TIP3   OH221880   3.843   5.438   1.149  0.7184 -0.2488  0.5050
 7308TIP3    H121881   3.792   5.458   1.228 -0.9548 -0.1809 -0.5300
 7308TIP3    H221882   3.856   5.523   1.108  0.4905 -0.4229  0.0742
 7309TIP3   OH221883   5.789   3.398   0.726  0.1343 -0.2501  0.0931
 7309TIP3    H121884   5.767   3.412   0.818 -1.5031 -0.9970 -0.1425
 7309TIP3    H221885   5.868   3.344   0.728 -0.2267 -0.7680  1.0782
 7310TIP3   OH221886   0.163   5.692   1.375  0.0623 -0.3688  0.3760
 7310TIP3    H121887   0.215   5.625   1.331  1.5739  0.6807  0.4817
 7310TIP3    H221888   0.155   5.762   1.309 -1.1077 -0.4575  0.4157
 7311TIP3   OH221889   1.490   0.542   3.376  0.0528  0.3562  0.3853
 7311TIP3    H121890   1.574   0.578   3.406 -0.2239 -0.3345  2.0838
 7311TIP3    H221891   1.447   0.511   3.456 -1.8046  0.6233 -0.4657
 7312TIP3   OH221892   6.375   4.530   2.536 -0.0308  0.4617  0.2348
 7312TIP3    H121893   6.400   4.442   2.563  0.4182  1.5650  3.9931
 7312TIP3    H221894   6.443   4.556   2.473  2.1897 -0.5048  2.0798
 7313TIP3   OH221895   5.171   4.932   1.807  0.3872  0.0169  0.0139
 7313TIP3    H121896   5.173   4.837   1.798 -1.1550 -0.2006  1.4610
 7313TIP3    H221897   5.082   4.952   1.835  0.6324  1.9212 -0.3951
 7314TIP3   OH221898   3.690   4.422   0.618  0.1044 -0.2872 -0.2097
 7314TIP3    H121899   3.699   4.500   0.563  1.0556 -0.0108  0.3064
 7314TIP3    H221900   3.681   4.349   0.556 -0.5742  0.2048 -0.6943
 7315TIP3   OH221901   7.721   1.430   4.987 -0.1086  0.3142  0.1732
 7315TIP3    H121902   7.808   1.466   5.005 -0.3436  1.0619 -0.1465
 7315TIP3    H221903   7.724   1.405   4.894 -0.5411  1.2376 -0.0927
 7316TIP3   OH221904   4.677   2.676   0.613 -0.2713  0.5084  0.1638
 7316TIP3    H121905   4.669   2.669   0.518 -1.6537  1.9784  0.1252
 7316TIP3    H221906   4.761   2.720   0.627 -0.2763  0.7170 -0.4205
 7317TIP3   OH221907   2.713   0.393   0.768 -0.1837 -0.3207  0.0408
 7317TIP3    H121908   2.690   0.469   0.714 -1.1950  0.6782  1.7907
 7317TIP3    H221909   2.708   0.425   0.858  1.4286 -1.9304  0.7680
 7318TIP3   OH221910   2.267   2.219   1.548  0.0123 -0.4873  0.4582
 7318TIP3    H121911   2.300   2.293   1.598  0.0687 -0.8351  0.9442
 7318TIP3    H221912   2.175   2.211   1.574 -0.1181 -0.3006  0.0571
 7319TIP3   OH221913   4.572   0.007   5.792  0.3676  0.0454  0.0687
 7319TIP3    H121914   4.565   0.095   5.829  1.5460  0.4575 -0.6342
 7319TIP3    H221915   4.655  -0.027   5.827 -0.2507 -0.9456  0.6307
 7320TIP3   OH221916   2.500   6.858   3.957  0.3984  0.1955 -0.4846
 7320TIP3    H121917   2.568   6.793   3.939 -0.1155 -0.3575 -0.4839
 7320TIP3    H221918   2.473   6.841   4.047  0.1257  0.2784 -0.5468
 7321TIP3   OH221919   0.791   5.892   1.986 -0.4407  0.3359 -0.1717
 7321TIP3    H121920   0.884   5.917   1.991  1.4010 -4.9218 -1.6906
 7321TIP3    H221921   0.761   5.894   2.077  1.6364  0.7352  0.5634
 7322TIP3   OH221922   3.945   5.068   6.313 -0.1545  0.4787 -0.3380
 7322TIP3    H121923   3.998   5.079   6.392 -0.8009 -0.3210  0.2136
 7322TIP3    H221924   3.857   5.053   6.345 -0.2905 -0.6318 -1.1941
 7323TIP3   OH221925   7.575   5.137   5.583  0.0555 -0.2647 -0.5323
 7323TIP3    H121926   7.606   5.086   5.658  1.4392  0.3052 -0.6789
 7323TIP3    H221927   7.640   5.121   5.515  0.0475  0.9952 -0.8613
 7324TIP3   OH221928   1.089   7.529   2.583 -0.1593 -0.1653 -0.6918
 7324TIP3    H121929   1.040   7.448   2.569  0.3214 -0.3530 -1.3207
 7324TIP3    H221930   1.169   7.518   2.532 -0.0848  0.7003 -0.7778
 7325TIP3   OH221931   7.773   6.876   3.179  0.1688 -0.9049 -0.3923
 7325TIP3    H121932   7.702   6.929   3.145 -2.8654 -1.8965  3.6612
 7325TIP3    H221933   7.849   6.935   3.180 -1.4249  1.3122 -1.7030
 7326TIP3   OH221934   2.073   2.983   4.016 -0.0317 -0.4464 -0.4134
 7326TIP3    H121935   2.128   3.051   3.977  0.6944 -0.8171 -0.0555
 7326TIP3    H221936   2.127   2.903   4.012 -0.8131 -0.9772 -0.7026
 7327TIP3   OH221937   0.763   7.325   2.498 -0.2959  0.0505 -0.0924
 7327TIP3    H121938   0.737   7.364   2.581  0.0310 -0.8412  0.4362
 7327TIP3    H221939   0.831   7.262   2.520 -0.3812 -0.3868 -0.9997
 7328TIP3   OH221940   3.792   0.470   4.881  0.1939 -0.5830 -0.0741
 7328TIP3    H121941   3.728   0.529   4.921  0.6341  0.4127 -0.7813
 7328TIP3    H221942   3.749   0.440   4.801  0.8709  0.7303 -0.9769
 7329TIP3   OH221943   7.873   7.225   5.815  0.4073  0.0678 -0.1352
 7329TIP3    H121944   7.964   7.210   5.789  0.3103 -1.2576  0.2192
 7329TIP3    H221945   7.846   7.300   5.762  1.7733  0.6497 -0.0605
 7330TIP3   OH221946   7.498   7.485   2.625  0.5133 -0.6193  0.3486
 7330TIP3    H121947   7.444   7.564   2.631  0.1411 -0.8664  0.2850
 7330TIP3    H221948   7.539   7.490   2.539 -0.6671 -1.2258 -0.2724
 7331TIP3   OH221949   6.068   6.348   6.078 -0.1960  0.3381 -0.2094
 7331TIP3    H121950   6.009   6.329   6.151  0.9820  1.2901  1.0471
 7331TIP3    H221951   6.141   6.395   6.118  0.2419  1.3587 -2.1000
 7332TIP3   OH221952   2.223   1.212   3.119 -0.6327 -0.0299 -0.4185
 7332TIP3    H121953   2.238   1.126   3.080  0.0295  0.6282 -1.6694
 7332TIP3    H221954   2.296   1.265   3.087 -1.6356  1.2980 -0.5679
 7333TIP3   OH221955   0.885   0.796   2.548  0.1930 -0.3362  0.0063
 7333TIP3    H121956   0.968   0.842   2.544 -0.2242  0.3646 -1.8793
 7333TIP3    H221957   0.876   0.755   2.461 -2.1581  1.0202 -0.4820
 7334TIP3   OH221958   3.383   7.598   5.525 -0.1943 -0.4312  0.2634
 7334TIP3    H121959   3.440   7.520   5.528  1.1811  0.5310  0.1999
 7334TIP3    H221960   3.299   7.568   5.559 -0.0738 -2.2558 -0.9010
 7335TIP3   OH221961   7.001   2.078   2.752  0.4388 -0.0519 -0.4219
 7335TIP3    H121962   7.050   2.130   2.688  0.3102  1.2657  0.4891
 7335TIP3    H221963   7.022   1.987   2.732  2.1833  0.4247 -0.9056
 7336TIP3   OH221964   3.927   6.495   1.645  0.1782  0.4825  0.8935
 7336TIP3    H121965   3.948   6.511   1.737 -0.7099 -0.3901  1.2653
 7336TIP3    H221966   3.838   6.527   1.634  0.2222  0.4397  0.3702
 7337TIP3   OH221967   3.198   0.628   0.945 -0.6498  0.0129 -0.4553
 7337TIP3    H121968   3.267   0.647   0.881  0.0484  0.8777  0.5264
 7337TIP3    H221969   3.245   0.613   1.027 -1.4945 -1.5784 -0.2211
 7338TIP3   OH221970   2.285   2.748   4.570  0.1716  0.6351  0.0130
 7338TIP3    H121971   2.223   2.792   4.512  1.1613  0.1790 -1.4553
 7338TIP3    H221972   2.314   2.672   4.520  2.2937  1.1088  0.4347
 7339TIP3   OH221973   0.049   5.445   3.393  0.4284  0.2886  0.1081
 7339TIP3    H121974   0.024   5.430   3.301  0.0404 -0.0576  0.2663
 7339TIP3    H221975   0.144   5.453   3.391  0.4804 -0.3538 -0.2416
 7340TIP3   OH221976   1.864   0.734   1.806 -0.0325  0.0468 -0.7314
 7340TIP3    H121977   1.885   0.672   1.737 -2.4757  1.3576 -2.8323
 7340TIP3    H221978   1.900   0.817   1.775 -0.5524  0.5166 -0.0948
 7341TIP3   OH221979   2.868   3.839   0.905  0.1377  0.0141  0.2268
 7341TIP3    H121980   2.828   3.882   0.980 -0.4436 -1.5219  0.8485
 7341TIP3    H221981   2.812   3.864   0.831 -0.4556 -0.0415  0.6490
 7342TIP3   OH221982   6.890   3.768   5.860  0.6342  0.0238 -0.0736
 7342TIP3    H121983   6.846   3.844   5.821  0.5382  0.8456  1.5580
 7342TIP3    H221984   6.893   3.703   5.789 -1.2195  0.7483 -0.8848
 7343TIP3   OH221985   4.857   5.123   3.731  0.7587 -0.1053 -0.0253
 7343TIP3    H121986   4.926   5.114   3.797  0.5915 -0.1251  0.1518
 7343TIP3    H221987   4.825   5.034   3.718 -1.0703  0.1808  1.9160
 7344TIP3   OH221988   4.122   2.684   1.662 -0.6941 -0.2630 -0.3902
 7344TIP3    H121989   4.043   2.639   1.693 -0.8169 -0.2656 -0.7021
 7344TIP3    H221990   4.110   2.690   1.567 -0.8680  0.8070 -0.3068
 7345TIP3   OH221991   2.015   3.200   3.717  0.2446 -0.1475  0.4673
 7345TIP3    H121992   2.046   3.266   3.779  2.1899 -0.7079  0.1528
 7345TIP3    H221993   2.093   3.149   3.695 -1.3483 -3.5147  1.7918
 7346TIP3   OH221994   1.716   0.255   0.053  0.6352 -0.3345 -0.2390
 7346TIP3    H121995   1.763   0.337   0.072  0.7727 -0.2966 -0.7450
 7346TIP3    H221996   1.655   0.246   0.127  1.8644 -0.7141  0.7674
 7347TIP3   OH221997   6.556   0.104   5.541  0.0714 -0.5577 -0.0896
 7347TIP3    H121998   6.492   0.035   5.528 -2.0919  0.6331  3.1818
 7347TIP3    H221999   6.513   0.183   5.510  1.1019 -0.1140 -0.4540
 7348TIP3   OH222000   4.797   7.073   5.984  0.2950  0.1495  0.0705
 7348TIP3    H122001   4.867   7.048   5.924 -0.3835 -0.2119 -0.5910
 7348TIP3    H222002   4.816   7.163   6.007  1.2748 -0.1076  0.3298
 7349TIP3   OH222003   2.951   0.909   5.755 -0.3008 -0.0752 -0.1589
 7349TIP3    H122004   2.895   0.885   5.682 -0.3645 -1.9889  0.4606
 7349TIP3    H222005   2.988   0.826   5.786  0.2719  0.7485  1.5245
 7350TIP3   OH222006   5.323   0.923   0.146  0.4678 -0.5424  0.2483
 7350TIP3    H122007   5.289   0.972   0.071  0.4213 -0.9902 -0.0241
 7350TIP3    H222008   5.300   0.832   0.128  1.2124 -0.7643  0.3903
 7351TIP3   OH222009   7.938   6.405   0.614 -0.2462 -0.0793  0.1473
 7351TIP3    H122010   8.007   6.368   0.670 -1.3837  0.4339  1.9841
 7351TIP3    H222011   7.884   6.331   0.590  1.2067 -0.5816 -1.7883
 7352TIP3   OH222012   2.043   4.654   1.660 -0.4575 -0.0633  0.4722
 7352TIP3    H122013   2.061   4.614   1.744 -1.0822  0.8605  1.0690
 7352TIP3    H222014   1.947   4.664   1.658 -0.3062  1.8298  0.5855
 7353TIP3   OH222015   2.755   5.486   1.893  0.0074 -0.3909  0.4194
 7353TIP3    H122016   2.717   5.430   1.825  1.6234 -0.2623 -0.6456
 7353TIP3    H222017   2.771   5.569   1.849 -0.7653  0.3692  1.5253
 7354TIP3   OH222018   4.787   6.601   3.745 -0.0745 -0.4904 -0.6377
 7354TIP3    H122019   4.802   6.641   3.831  2.1576 -0.5534 -0.9438
 7354TIP3    H222020   4.696   6.572   3.748 -0.5976  1.1460  1.0095
 7355TIP3   OH222021   4.004   7.290   4.175 -0.4584  0.0911 -0.3650
 7355TIP3    H122022   3.954   7.352   4.227  0.5447  0.7622 -0.1902
 7355TIP3    H222023   4.026   7.338   4.095 -0.6738 -0.4345 -0.7519
 7356TIP3   OH222024   6.936   1.292   5.512 -0.0787  0.6063 -0.2463
 7356TIP3    H122025   6.953   1.382   5.541 -0.2854  0.6809 -0.3589
 7356TIP3    H222026   7.020   1.263   5.477  0.4028  0.2265  1.1787
 7357TIP3   OH222027   8.041   1.859   4.896  0.0825 -0.0136  0.2681
 7357TIP3    H122028   7.981   1.895   4.962 -0.0667  0.4764 -0.1330
 7357TIP3    H222029   8.113   1.822   4.947  0.1386  0.6703  0.6958
 7358TIP3   OH222030   3.938   5.217   4.556 -0.1697  0.8261 -0.2234
 7358TIP3    H122031   4.027   5.224   4.521 -0.2377 -1.4806 -1.0850
 7358TIP3    H222032   3.937   5.275   4.631  1.7083  1.7939 -0.8809
 7359TIP3   OH222033   3.103   6.478   5.825  0.1880  0.6381 -0.2510
 7359TIP3    H122034   3.119   6.566   5.857  0.9610  0.6870 -0.7399
 7359TIP3    H222035   3.009   6.474   5.809 -0.2888  0.5273  2.2561
 7360TIP3   OH222036   6.248   6.796   5.450  0.2215 -0.2613 -0.2374
 7360TIP3    H122037   6.311   6.864   5.425 -0.0839  0.0833 -0.0856
 7360TIP3    H222038   6.242   6.803   5.546 -1.1790  0.7569 -0.3509
 7361TIP3   OH222039   2.246   3.855   5.224  0.1385 -0.3946  0.0024
 7361TIP3    H122040   2.279   3.775   5.265  0.2750 -1.0469 -1.3407
 7361TIP3    H222041   2.209   3.905   5.297  1.4431 -0.9563  1.1128
 7362TIP3   OH222042   0.268   4.776   6.368 -0.2544  0.6306  0.5632
 7362TIP3    H122043   0.206   4.783   6.440 -0.0379 -0.3643  0.8654
 7362TIP3    H222044   0.230   4.711   6.309 -0.3866  1.3697 -0.1968
 7363TIP3   OH222045   3.644   0.271   5.974  0.4977  0.4155 -0.2382
 7363TIP3    H122046   3.629   0.189   6.020 -0.5148  1.4664  1.4389
 7363TIP3    H222047   3.563   0.321   5.986  1.0033  1.5881 -1.3729
 7364TIP3   OH222048   6.284   6.553   5.565  0.3582  0.1664 -0.0337
 7364TIP3    H122049   6.274   6.627   5.625  3.2571  0.5574  0.1076
 7364TIP3    H222050   6.267   6.589   5.479  1.6701  1.0315  0.0456
 7365TIP3   OH222051   6.164   1.147   5.158  0.3055  0.6732  0.3364
 7365TIP3    H122052   6.105   1.217   5.130 -1.2103  0.2345  2.2117
 7365TIP3    H222053   6.225   1.191   5.218  0.8739  0.8127 -0.3316
 7366TIP3   OH222054   3.327   0.636   4.612 -0.4029 -0.2457 -0.1581
 7366TIP3    H122055   3.304   0.556   4.660 -1.9877 -0.6551 -1.4866
 7366TIP3    H222056   3.265   0.638   4.539  0.5434  1.4621 -0.9685
 7367TIP3   OH222057   4.451   2.007   4.911 -0.3934  0.4174 -0.3864
 7367TIP3    H122058   4.469   1.931   4.856 -1.9033 -0.9804  0.9384
 7367TIP3    H222059   4.411   2.070   4.851  0.2067 -0.0944 -1.3657
 7368TIP3   OH222060   6.129   5.127   2.585 -0.2425 -0.0801 -0.0622
 7368TIP3    H122061   6.213   5.171   2.595 -0.9072  1.2671 -0.1817
 7368TIP3    H222062   6.151   5.041   2.550  1.0679  0.3297 -0.2917
 7369TIP3   OH222063   3.645   4.346   4.133  0.1511  0.1339  0.4269
 7369TIP3    H122064   3.739   4.360   4.145  0.1102 -0.9765  2.4037
 7369TIP3    H222065   3.604   4.397   4.202 -0.7781  1.0962 -0.7903
 7370TIP3   OH222066   4.441   6.240   2.451  0.6756 -0.0614 -0.4849
 7370TIP3    H122067   4.414   6.194   2.531  1.3953  0.9751  0.3832
 7370TIP3    H222068   4.416   6.331   2.466  2.7935  0.5702 -0.4770
 7371TIP3   OH222069   2.697   2.792   1.793  0.2460  0.2916 -0.1977
 7371TIP3    H122070   2.747   2.820   1.716 -0.0015  0.2806 -0.3645
 7371TIP3    H222071   2.684   2.698   1.781 -1.6372  0.6166 -1.2503
 7372TIP3   OH222072   8.288   6.121   2.533 -0.1719 -0.2298 -0.4598
 7372TIP3    H122073   8.278   6.044   2.589 -0.4785  0.8323  1.0068
 7372TIP3    H222074   8.259   6.194   2.587 -2.8451  0.6143 -2.8059
 7373TIP3   OH222075   1.291   3.161   0.999  0.1253  0.2856  0.5280
 7373TIP3    H122076   1.224   3.222   0.968 -0.3103 -1.0914 -1.4403
 7373TIP3    H222077   1.244   3.102   1.059 -0.1346  0.1304  0.1759
 7374TIP3   OH222078   6.881   5.598   3.862 -0.3113  0.0407  0.6880
 7374TIP3    H122079   6.912   5.605   3.952 -1.8212 -1.5070  1.3705
 7374TIP3    H222080   6.923   5.518   3.828 -0.9587 -0.2438  0.5448
 7375TIP3   OH222081   4.885   3.826   1.927  0.2940 -0.0498  0.2959
 7375TIP3    H122082   4.798   3.815   1.966  0.6139  0.8294  1.3047
 7375TIP3    H222083   4.876   3.901   1.868 -0.1520 -1.2883 -1.3006
 7376TIP3   OH222084   0.930   6.249   4.753  0.0188 -0.4632 -0.1067
 7376TIP3    H122085   0.931   6.155   4.737  1.5510 -0.0964 -2.8785
 7376TIP3    H222086   1.021   6.271   4.772 -0.2128  0.5326 -0.0829
 7377TIP3   OH222087   3.733   0.247   1.138 -1.0573  0.0180 -0.1949
 7377TIP3    H122088   3.819   0.265   1.102 -0.2548 -0.0390  1.5981
 7377TIP3    H222089   3.683   0.327   1.123 -0.6193  0.1441 -1.0144
 7378TIP3   OH222090   3.923   4.676   3.089 -0.0003  0.6089 -0.0611
 7378TIP3    H122091   3.871   4.609   3.045 -0.8867 -0.0386  1.8229
 7378TIP3    H222092   4.000   4.688   3.034 -2.0045  1.4834 -2.9024
 7379TIP3   OH222093   0.634   4.473   3.656  0.2054  0.1435 -0.7090
 7379TIP3    H122094   0.719   4.501   3.690 -0.2672 -1.2808  1.9418
 7379TIP3    H222095   0.630   4.380   3.675 -1.9741  0.1884 -0.7105
 7380TIP3   OH222096   3.193   3.808   0.917 -0.4069  0.0149  0.3718
 7380TIP3    H122097   3.223   3.876   0.976 -0.8683 -0.7831  1.5664
 7380TIP3    H222098   3.108   3.780   0.953  0.0374 -1.5785  0.2861
 7381TIP3   OH222099   0.513   2.763   5.224  0.3008 -0.1398 -0.2778
 7381TIP3    H122100   0.520   2.734   5.315 -0.0704 -1.1603 -0.5597
 7381TIP3    H222101   0.438   2.822   5.224  3.1501  3.9799  1.0377
 7382TIP3   OH222102   7.303   4.035   1.224  0.4160 -0.0960 -0.1469
 7382TIP3    H122103   7.357   4.073   1.155  0.0675  2.9574  1.1113
 7382TIP3    H222104   7.214   4.037   1.188  0.1825  1.8186  0.4088
 7383TIP3   OH222105   5.922   3.468   5.171 -0.2598 -0.5269  0.1347
 7383TIP3    H122106   5.997   3.527   5.166 -1.7714  1.4337 -0.3889
 7383TIP3    H222107   5.898   3.451   5.080 -1.8908  0.8524  0.2624
 7384TIP3   OH222108   5.741   1.086   0.464  0.0208  0.3044 -0.1165
 7384TIP3    H122109   5.679   1.070   0.392 -0.8927  1.3032  0.4184
 7384TIP3    H222110   5.686   1.094   0.542  1.0370 -1.3010  0.8177
 7385TIP3   OH222111   6.532   3.423   0.057 -0.0185 -0.1305 -0.2134
 7385TIP3    H122112   6.538   3.386   0.146 -2.3423  0.5398  0.2990
 7385TIP3    H222113   6.610   3.477   0.048  0.5361 -0.6430  1.2249
 7386TIP3   OH222114   8.321   5.525   6.201  0.3679  0.0107  0.4578
 7386TIP3    H122115   8.256   5.594   6.189 -0.8535 -0.8716  1.6771
 7386TIP3    H222116   8.305   5.464   6.129  0.2191  0.0856  0.4276
 7387TIP3   OH222117   2.727   0.352   2.921  0.0762 -0.1964 -0.1561
 7387TIP3    H122118   2.795   0.349   2.988 -0.1801 -0.4130  0.0962
 7387TIP3    H222119   2.671   0.276   2.940  0.1823 -0.4505 -0.8031
 7388TIP3   OH222120   0.816   5.025   6.160 -0.4799 -0.0449  0.7249
 7388TIP3    H122121   0.797   5.055   6.249 -0.6858  0.1390  0.6209
 7388TIP3    H222122   0.731   5.001   6.125 -0.4000 -0.1025  0.5715
 7389TIP3   OH222123   5.104   5.928   4.817  0.4908 -0.6384 -0.3212
 7389TIP3    H122124   5.015   5.958   4.834  0.4597 -1.1378  0.4545
 7389TIP3    H222125   5.158   6.007   4.826  0.1106 -0.2991 -0.9849
 7390TIP3   OH222126   4.027   5.132   3.720  0.3249 -0.4110  0.2016
 7390TIP3    H122127   4.036   5.227   3.726 -0.1248 -0.2050 -1.7248
 7390TIP3    H222128   4.011   5.103   3.810  1.4055  1.2132  0.9641
 7391TIP3   OH222129   6.377   3.533   4.983  0.8115 -0.1939 -0.1489
 7391TIP3    H122130   6.460   3.559   5.022  1.3352 -2.3257  0.2755
 7391TIP3    H222131   6.400   3.467   4.918 -0.3185  1.2091 -2.1293
 7392TIP3   OH222132   6.796   0.673   6.090 -0.2307  0.5577 -0.3227
 7392TIP3    H122133   6.762   0.673   6.179  1.2764  0.0297  0.2871
 7392TIP3    H222134   6.795   0.580   6.064  1.1291  0.4698 -0.1142
 7393TIP3   OH222135   4.827   0.656   0.651 -0.3740 -0.7905  0.1023
 7393TIP3    H122136   4.739   0.669   0.618 -1.6722 -6.5692  0.3132
 7393TIP3    H222137   4.815   0.624   0.741  2.1120 -0.0188  0.8050
 7394TIP3   OH222138   0.265   3.790   5.244  0.3181  0.1211  0.5407
 7394TIP3    H122139   0.356   3.817   5.255 -0.1015  2.2778 -0.7188
 7394TIP3    H222140   0.232   3.845   5.173 -1.0343 -3.0151 -1.4736
 7395TIP3   OH222141   6.064   6.570   1.796  0.6659  0.1227 -0.1746
 7395TIP3    H122142   6.033   6.605   1.880  0.9178 -2.6304  1.2025
 7395TIP3    H222143   5.985   6.544   1.750  0.5759  0.2547 -0.0929
 7396TIP3   OH222144   3.963   5.476   1.897  0.1207  0.3061  0.0530
 7396TIP3    H122145   3.947   5.557   1.946  1.0870  0.2322  0.5120
 7396TIP3    H222146   4.019   5.424   1.954  1.9899  0.5653 -1.4649
 7397TIP3   OH222147   0.604   7.614   5.212 -0.3912  0.0489  0.3117
 7397TIP3    H122148   0.605   7.642   5.304 -0.5921 -0.7464  0.5606
 7397TIP3    H222149   0.625   7.694   5.163 -1.6687  0.8082  0.9563
 7398TIP3   OH222150   4.963   3.064   1.347  0.1844 -0.2415 -0.4159
 7398TIP3    H122151   5.045   3.080   1.393 -1.3311  1.5275  1.9142
 7398TIP3    H222152   4.927   3.151   1.330 -0.4048 -0.9171 -3.0526
 7399TIP3   OH222153   8.133   7.279   0.927 -0.2906  0.4554  0.4866
 7399TIP3    H122154   8.041   7.294   0.948 -0.9286  1.0657 -2.2573
 7399TIP3    H222155   8.169   7.235   1.004 -3.0453 -0.4533  1.3685
 7400TIP3   OH222156   1.769   6.949   1.819  0.5110  0.4687  0.7927
 7400TIP3    H122157   1.705   6.928   1.887 -0.1661  3.3419  1.1664
 7400TIP3    H222158   1.716   6.968   1.741  1.2029 -1.1894 -0.1485
 7401TIP3   OH222159   5.689   5.636   2.913 -0.2249 -0.4920 -0.2068
 7401TIP3    H122160   5.763   5.660   2.967 -1.2329  2.4389  0.0594
 7401TIP3    H222161   5.728   5.602   2.832  1.3231 -1.0848  0.7489
 7402TIP3   OH222162   3.833   0.051   0.350  1.1070 -0.2600  1.2395
 7402TIP3    H122163   3.794   0.123   0.301  0.5577 -1.6183 -0.3844
 7402TIP3    H222164   3.761  -0.011   0.363  1.4395 -0.3284  3.0715
 7403TIP3   OH222165   2.746   3.957   1.398 -0.1621 -0.2917  0.5129
 7403TIP3    H122166   2.652   3.971   1.388 -0.1071  1.6216  2.1840
 7403TIP3    H222167   2.758   3.942   1.492  1.2121 -0.4479  0.3281
 7404TIP3   OH222168   2.977   5.432   3.826  0.4912  0.4824  0.6457
 7404TIP3    H122169   2.907   5.419   3.763  1.3559  3.3327 -1.0614
 7404TIP3    H222170   2.934   5.465   3.904 -0.6116 -3.2290  1.7997
 7405TIP3   OH222171   0.449   3.698   5.031 -0.0736  0.3795 -0.5676
 7405TIP3    H122172   0.374   3.651   4.995 -0.4616  0.6483 -0.1098
 7405TIP3    H222173   0.515   3.692   4.962  0.5209 -2.3259  0.0996
 7406TIP3   OH222174   2.591   5.551   6.232 -0.0790 -0.2481  0.4195
 7406TIP3    H122175   2.543   5.483   6.279 -0.0977 -0.5296 -0.0025
 7406TIP3    H222176   2.663   5.574   6.291  0.2523 -1.0258  0.3396
 7407TIP3   OH222177   7.476   7.171   0.178 -0.1571 -0.3596  0.6941
 7407TIP3    H122178   7.412   7.130   0.119 -0.1007  1.5244 -0.7658
 7407TIP3    H222179   7.552   7.189   0.123  0.4126  0.2924  1.6628
 7408TIP3   OH222180   1.556   2.487   6.629  0.6319 -0.4465 -0.2120
 7408TIP3    H122181   1.528   2.399   6.603  0.6848 -0.0304 -1.7866
 7408TIP3    H222182   1.557   2.537   6.547 -1.2672  1.5407  0.8708
 7409TIP3   OH222183   1.405   1.265   0.307  0.0175  0.2959  0.4954
 7409TIP3    H122184   1.334   1.204   0.288  1.6672 -1.7164  0.5111
 7409TIP3    H222185   1.477   1.210   0.337  1.5933  2.2676  0.5363
 7410TIP3   OH222186   1.876   7.191   5.923  0.4544  0.0852  0.1123
 7410TIP3    H122187   1.950   7.219   5.868  0.9416 -2.3447 -0.5745
 7410TIP3    H222188   1.828   7.128   5.869 -0.8180 -0.0990  1.3936
 7411TIP3   OH222189   5.198   4.854   5.203 -0.5182  0.0749  0.5353
 7411TIP3    H122190   5.127   4.797   5.176 -0.3984 -0.4385  1.2836
 7411TIP3    H222191   5.194   4.854   5.299  1.2497 -0.9446  0.6439
 7412TIP3   OH222192   0.751   2.416   6.081  0.2239 -0.7438  0.5098
 7412TIP3    H122193   0.667   2.460   6.085 -0.9421 -2.6262 -1.1333
 7412TIP3    H222194   0.801   2.466   6.016 -1.3039 -1.9865 -1.7947
 7413TIP3   OH222195   2.862   2.601   5.623 -0.2428  0.3846 -0.7867
 7413TIP3    H122196   2.909   2.569   5.700  0.0139  0.8240 -0.7544
 7413TIP3    H222197   2.770   2.590   5.644 -0.1830  0.8306 -0.2667
 7414TIP3   OH222198   3.517   4.904   5.828 -0.0933  0.0861 -0.2586
 7414TIP3    H122199   3.576   4.970   5.865 -1.0993  1.1669 -0.5221
 7414TIP3    H222200   3.570   4.860   5.761  0.3927  1.0904 -0.5570
 7415TIP3   OH222201   6.869   2.034   6.290 -0.0055 -0.2633  0.0260
 7415TIP3    H122202   6.799   2.047   6.226  1.1635 -0.6092 -1.3526
 7415TIP3    H222203   6.938   1.988   6.242  0.7667 -0.8635  1.6294
 7416TIP3   OH222204   2.049   0.236   0.597  0.3293  0.3412  0.0071
 7416TIP3    H122205   2.098   0.274   0.524 -0.6110  0.3639 -0.6253
 7416TIP3    H222206   2.066   0.142   0.591 -2.5358 -0.1453 -2.4583
 7417TIP3   OH222207   6.566   1.336   0.560 -0.0975  0.5028 -0.4275
 7417TIP3    H122208   6.556   1.351   0.654 -0.8758  2.0122 -0.7130
 7417TIP3    H222209   6.477   1.342   0.525 -0.2161 -2.6417 -0.9832
 7418TIP3   OH222210   1.269   3.921   5.605 -0.0476  0.8039  0.0268
 7418TIP3    H122211   1.355   3.945   5.570  0.4565  0.1340  0.7857
 7418TIP3    H222212   1.288   3.866   5.681 -1.1749 -1.0585 -0.9852
 7419TIP3   OH222213   0.488   1.465   5.811 -0.5675  0.4040  0.0320
 7419TIP3    H122214   0.559   1.438   5.868 -0.2637  0.0203 -0.5148
 7419TIP3    H222215   0.502   1.416   5.730 -1.4601  0.3138 -0.0862
 7420TIP3   OH222216   8.236   4.317   4.316 -0.2453  0.2828  0.6225
 7420TIP3    H122217   8.309   4.257   4.302  0.5867  0.5825  3.1695
 7420TIP3    H222218   8.164   4.280   4.265  1.1879 -0.9845 -0.5627
 7421TIP3   OH222219   0.213   1.743   2.415 -0.0177  0.1173 -0.1485
 7421TIP3    H122220   0.128   1.700   2.423  0.0728  0.1648  1.2329
 7421TIP3    H222221   0.205   1.822   2.467  1.0417 -0.1561  0.4705
 7422TIP3   OH222222   5.731   6.211   1.330  0.1776 -0.3310 -0.4573
 7422TIP3    H122223   5.642   6.242   1.313  0.9405  0.9562 -2.5288
 7422TIP3    H222224   5.766   6.271   1.395  0.0669  0.1964 -0.8802
 7423TIP3   OH222225   5.455   7.558   0.664 -0.1331  0.2455  0.1599
 7423TIP3    H122226   5.415   7.620   0.603 -0.0060  2.1452  1.9036
 7423TIP3    H222227   5.450   7.602   0.749  0.0453 -2.1337  1.4803
 7424TIP3   OH222228   1.976   6.734   4.589 -0.4849  0.8892  0.3087
 7424TIP3    H122229   2.065   6.744   4.557 -0.3436  1.7316  0.9460
 7424TIP3    H222230   1.930   6.811   4.555 -0.9159  0.5681  0.1612
 7425TIP3   OH222231   3.209   6.012   3.974  0.3542  0.0584  0.1281
 7425TIP3    H122232   3.129   6.042   3.932 -0.1844 -2.0171 -0.4019
 7425TIP3    H222233   3.180   5.959   4.049  1.2392 -0.0720  0.4000
 7426TIP3   OH222234   7.048   6.617   3.642  0.0377  0.4173 -0.3298
 7426TIP3    H122235   7.024   6.524   3.634  1.6142 -0.3012  1.9516
 7426TIP3    H222236   7.126   6.626   3.587  0.8483 -0.0850  0.6921
 7427TIP3   OH222237   8.025   7.033   0.120 -0.2760  0.2564 -0.2791
 7427TIP3    H122238   7.976   7.064   0.044  0.0197  1.0926 -0.1326
 7427TIP3    H222239   7.976   7.064   0.196  0.5860  1.3193 -0.1295
 7428TIP3   OH222240   6.526   7.248   6.730 -0.0960 -0.3435  0.0297
 7428TIP3    H122241   6.437   7.277   6.751  0.0668  1.1898 -1.2180
 7428TIP3    H222242   6.526   7.154   6.749 -1.5071 -0.0833  1.5265
 7429TIP3   OH222243   6.968   6.622   2.564  0.4788  0.7145  0.0994
 7429TIP3    H122244   7.034   6.677   2.607  0.5977  1.2501 -0.7352
 7429TIP3    H222245   7.018   6.551   2.525  0.2652 -0.3505  1.6720
 7430TIP3   OH222246   5.377   6.609   4.080 -0.5446 -0.1395 -0.5234
 7430TIP3    H122247   5.300   6.598   4.135  0.1386 -3.8598 -0.0340
 7430TIP3    H222248   5.434   6.668   4.129 -1.3893 -0.6250  1.1050
 7431TIP3   OH222249   5.588   3.231   5.921 -0.2654  0.8630 -0.0550
 7431TIP3    H122250   5.607   3.253   6.013  0.2593  0.0737  0.0369
 7431TIP3    H222251   5.494   3.242   5.913 -0.3047  1.0140  0.5603
 7432TIP3   OH222252   2.398   5.723   0.420  0.4559 -0.0408  0.2348
 7432TIP3    H122253   2.461   5.714   0.349 -0.4400 -0.0057 -0.5764
 7432TIP3    H222254   2.426   5.660   0.486  1.7555  0.4775  0.2002
 7433TIP3   OH222255   2.766   1.482   4.385 -0.1360 -0.5431 -0.4309
 7433TIP3    H122256   2.848   1.472   4.433 -0.6417  2.0024  1.1002
 7433TIP3    H222257   2.698   1.452   4.446 -0.8460  3.3158  0.9360
 7434TIP3   OH222258   6.601   2.441   4.448  0.4814  0.3624 -0.1290
 7434TIP3    H122259   6.642   2.385   4.514  1.4569  1.8623  0.5775
 7434TIP3    H222260   6.581   2.523   4.494  0.9047  1.3274 -1.5997
 7435TIP3   OH222261   0.388   5.036   0.754  0.5130  0.0324  0.6051
 7435TIP3    H122262   0.364   4.989   0.834 -1.3627 -1.0348 -0.4950
 7435TIP3    H222263   0.385   4.969   0.685 -3.6186  1.7679 -1.2871
 7436TIP3   OH222264   0.617   6.386   1.656  0.0872  0.7560 -0.1430
 7436TIP3    H122265   0.522   6.382   1.645 -0.0195  0.5019  0.7859
 7436TIP3    H222266   0.639   6.478   1.640 -0.4392  1.0095  0.5776
 7437TIP3   OH222267   4.767   1.303   2.842 -0.5859  0.7652 -0.0070
 7437TIP3    H122268   4.786   1.391   2.875 -3.3952  1.1510  0.8274
 7437TIP3    H222269   4.712   1.263   2.909  1.6830 -2.2274  0.2880
 7438TIP3   OH222270   3.418   6.183   1.810  0.2627  0.1367  0.2506
 7438TIP3    H122271   3.481   6.131   1.860 -0.6495  1.0496  2.4780
 7438TIP3    H222272   3.337   6.133   1.812 -0.5284  1.3952  2.1204
 7439TIP3   OH222273   3.494   7.658   3.154  0.4219 -1.0008 -0.2320
 7439TIP3    H122274   3.532   7.737   3.116 -0.6806  1.0165  2.5021
 7439TIP3    H222275   3.458   7.610   3.079 -1.1823  2.3869 -1.8412
 7440TIP3   OH222276   3.089   2.543   1.353  0.0833 -0.7336 -0.7168
 7440TIP3    H122277   3.001   2.570   1.326  0.3805  0.8987 -0.1648
 7440TIP3    H222278   3.076   2.498   1.436 -0.1259  0.9488  0.2138
 7441TIP3   OH222279   4.182   2.847   6.517  0.1580 -0.0647  0.0009
 7441TIP3    H122280   4.183   2.910   6.445 -0.8996 -1.2208 -1.0912
 7441TIP3    H222281   4.268   2.807   6.515  0.4507  0.5537 -0.0222
 7442TIP3   OH222282   5.945   3.302   5.854 -0.2742  0.1759  0.0962
 7442TIP3    H122283   5.953   3.369   5.786 -0.9445 -0.9337 -1.1124
 7442TIP3    H222284   5.962   3.349   5.936 -2.1542  2.1369 -0.5629
 7443TIP3   OH222285   2.145   3.614   2.670 -0.1712 -0.0744  0.5075
 7443TIP3    H122286   2.222   3.657   2.708  0.0693 -1.1033  1.2564
 7443TIP3    H222287   2.072   3.672   2.691  0.6490  2.1949 -2.3691
 7444TIP3   OH222288   6.969   0.116   3.526  0.3248 -0.0690  0.1867
 7444TIP3    H122289   7.018   0.106   3.444 -0.0490 -1.6387  0.1183
 7444TIP3    H222290   6.919   0.197   3.514 -0.9434 -1.0638 -1.8219
 7445TIP3   OH222291   1.715   4.583   6.154 -0.9280 -0.1437 -0.2519
 7445TIP3    H122292   1.728   4.677   6.150 -0.6823 -0.2138 -1.6921
 7445TIP3    H222293   1.804   4.547   6.151 -0.9207 -0.4206  1.8551
 7446TIP3   OH222294   6.933   1.944   1.903  0.4041  0.2346 -0.3257
 7446TIP3    H122295   6.852   1.932   1.952 -0.7701 -1.8077 -2.5801
 7446TIP3    H222296   6.914   2.014   1.841 -0.1694 -1.1132 -1.7408
 7447TIP3   OH222297   5.921   2.484   5.677 -0.4385 -0.3974 -0.1705
 7447TIP3    H122298   5.898   2.419   5.742  0.0418  0.3694  0.8049
 7447TIP3    H222299   5.922   2.567   5.725  1.6278 -0.0268 -0.7213
 7448TIP3   OH222300   8.015   1.149   3.884 -0.7178 -0.1416  0.3199
 7448TIP3    H122301   7.983   1.127   3.797  0.7208 -0.0573 -0.2616
 7448TIP3    H222302   8.111   1.142   3.877 -0.4835  1.3254  1.4811
 7449TIP3   OH222303   1.422   5.635   2.385  0.2385 -0.2540  0.1224
 7449TIP3    H122304   1.362   5.668   2.451  0.2123 -1.0795  0.5184
 7449TIP3    H222305   1.408   5.540   2.385  1.9710 -0.5345  0.6586
 7450TIP3   OH222306   3.770   1.640   4.648 -0.7929  0.1481 -0.2870
 7450TIP3    H122307   3.866   1.640   4.652 -0.7282 -1.9626 -0.8664
 7450TIP3    H222308   3.742   1.607   4.733 -1.0379  0.7241 -0.1341
 7451TIP3   OH222309   5.829   2.162   2.183 -0.2923 -0.5628 -0.5609
 7451TIP3    H122310   5.874   2.217   2.119 -1.5091  1.5268  0.2591
 7451TIP3    H222311   5.747   2.137   2.140 -0.4452 -0.4092 -0.3612
 7452TIP3   OH222312   6.225   3.387   2.199  1.0131 -0.4158 -0.0403
 7452TIP3    H122313   6.288   3.334   2.249  0.6990 -0.2680  0.5196
 7452TIP3    H222314   6.151   3.397   2.258  1.3813  1.3111  0.1601
 7453TIP3   OH222315   6.919   1.003   0.122 -0.3313 -0.2162  0.1470
 7453TIP3    H122316   6.851   1.041   0.177 -1.9719 -2.2801 -0.3269
 7453TIP3    H222317   6.959   0.935   0.176  0.4185  0.0465 -0.0622
 7454TIP3   OH222318   2.705   3.163   3.565 -0.3994  0.0071  0.2798
 7454TIP3    H122319   2.708   3.259   3.567 -0.5349  0.0008  1.2919
 7454TIP3    H222320   2.782   3.138   3.514  0.6799  0.6226  1.5472
 7455TIP3   OH222321   6.740   1.329   6.409  0.1618 -0.2187  0.0187
 7455TIP3    H122322   6.733   1.253   6.352  0.1774 -0.7853  0.7587
 7455TIP3    H222323   6.657   1.330   6.457  0.8475 -0.7796  1.2420
 7456TIP3   OH222324   7.135   5.230   5.935  0.3228  0.2789  0.0693
 7456TIP3    H122325   7.101   5.225   5.845  0.2738 -0.3575  0.1245
 7456TIP3    H222326   7.138   5.324   5.953  0.0515  0.4025 -0.4930
 7457TIP3   OH222327   3.286   7.645   0.526 -0.0097  0.4746  0.0612
 7457TIP3    H122328   3.260   7.559   0.558  0.3262  0.7593  1.1143
 7457TIP3    H222329   3.318   7.628   0.437 -0.2269 -0.4377  0.1462
 7458TIP3   OH222330   3.571   1.705   6.705 -0.5266 -0.4958  0.6840
 7458TIP3    H122331   3.514   1.674   6.775 -0.4075 -1.7467  0.2502
 7458TIP3    H222332   3.591   1.795   6.729 -3.8030  0.5233  0.1602
 7459TIP3   OH222333   6.589   4.274  -0.024  0.3138 -0.5605  0.2602
 7459TIP3    H122334   6.507   4.228  -0.007  1.0463 -1.7652  0.7362
 7459TIP3    H222335   6.650   4.239   0.042  1.2578  0.1417 -0.2134
 7460TIP3   OH222336   5.976   1.863   4.124  0.0513 -0.4073  0.0846
 7460TIP3    H122337   5.963   1.956   4.108 -1.0041 -0.6472 -0.5587
 7460TIP3    H222338   5.899   1.835   4.172  1.2861 -0.5688  2.0697
 7461TIP3   OH222339   4.350   2.751   3.392 -0.4407  0.6037  0.1523
 7461TIP3    H122340   4.441   2.732   3.412 -0.1518  1.3351 -0.4413
 7461TIP3    H222341   4.349   2.770   3.298 -1.6462 -2.0495 -0.4564
 7462TIP3   OH222342   7.838   2.631   0.833 -0.0107  0.0225 -0.3621
 7462TIP3    H122343   7.925   2.672   0.831  0.0880 -0.2107 -1.1099
 7462TIP3    H222344   7.777   2.705   0.839  0.2344  0.1864  0.2262
 7463TIP3   OH222345   0.075   3.570   4.525  0.4409  0.4825  0.6027
 7463TIP3    H122346   0.051   3.573   4.617  1.3770  0.8245  0.8498
 7463TIP3    H222347   0.095   3.661   4.501  0.7546  0.3224  0.2270
 7464TIP3   OH222348   6.020   4.516   6.320 -0.6098 -0.4517  0.0843
 7464TIP3    H122349   6.010   4.420   6.323 -0.1331 -0.4990  3.0764
 7464TIP3    H222350   5.944   4.546   6.270 -1.1629 -2.3381 -0.3033
 7465TIP3   OH222351   7.955   6.484   5.128  0.4046  0.0127  0.0389
 7465TIP3    H122352   7.897   6.463   5.055  0.8601 -1.3684  0.0410
 7465TIP3    H222353   8.033   6.522   5.086 -0.6146  2.3087  0.0666
 7466TIP3   OH222354   4.025   0.185   3.768 -0.5316  0.1350 -0.3621
 7466TIP3    H122355   4.022   0.122   3.840 -0.1364  1.1921  0.6092
 7466TIP3    H222356   4.063   0.264   3.807  0.5776  0.4376 -1.9626
 7467TIP3   OH222357   6.733   5.921   3.505  0.0922 -0.0141 -0.1717
 7467TIP3    H122358   6.788   5.844   3.493  2.3455  1.4039  0.4725
 7467TIP3    H222359   6.736   5.938   3.599 -0.5279  0.7876 -0.2842
 7468TIP3   OH222360   0.576   3.218   2.146 -0.4006 -0.1412 -0.1044
 7468TIP3    H122361   0.638   3.257   2.208  0.1618  0.6798 -1.1551
 7468TIP3    H222362   0.496   3.205   2.198 -0.1549  1.1410  0.6488
 7469TIP3   OH222363   0.651   7.224   1.484  0.2313  0.5738  0.7078
 7469TIP3    H122364   0.679   7.264   1.566 -0.7516  1.3188  0.7018
 7469TIP3    H222365   0.563   7.258   1.470  0.2658  0.2055 -0.5003
 7470TIP3   OH222366   0.024   4.630   1.533  0.0627  0.4457  0.5618
 7470TIP3    H122367  -0.012   4.555   1.582 -1.1727  0.2300 -0.6178
 7470TIP3    H222368   0.118   4.612   1.528 -0.3237 -1.6241 -0.5955
 7471TIP3   OH222369   5.845   6.607   1.617 -0.3576  0.3991  0.0966
 7471TIP3    H122370   5.757   6.585   1.647 -0.2831  0.2619  0.2200
 7471TIP3    H222371   5.833   6.682   1.558 -1.0460 -2.0178 -3.1194
 7472TIP3   OH222372   0.844   4.829   4.471 -0.1254  0.5662 -0.3044
 7472TIP3    H122373   0.766   4.884   4.459 -0.2200  0.8118  1.2234
 7472TIP3    H222374   0.913   4.891   4.494  0.1140  0.1808  0.0125
 7473TIP3   OH222375   3.095   4.533   5.830  0.2536  0.5724  0.3373
 7473TIP3    H122376   3.074   4.597   5.762  0.6860 -0.1895 -0.5323
 7473TIP3    H222377   3.009   4.506   5.864  0.0917  2.4541  1.5585
 7474TIP3   OH222378   1.766   3.027   4.600 -0.1936  0.0588  0.4560
 7474TIP3    H122379   1.836   3.081   4.564  1.1966 -2.1043 -0.2751
 7474TIP3    H222380   1.768   3.045   4.694 -0.9082  2.4352  0.1101
 7475TIP3   OH222381   4.727   2.413   4.690 -0.0403 -0.3834  0.1518
 7475TIP3    H122382   4.678   2.456   4.760  0.6255  2.6330 -1.0418
 7475TIP3    H222383   4.660   2.386   4.627 -0.4972 -1.4175  1.0529
 7476TIP3   OH222384   6.331   0.608   2.349 -0.1141 -0.4105  0.6881
 7476TIP3    H122385   6.280   0.571   2.277 -1.3497 -0.8594  1.7389
 7476TIP3    H222386   6.419   0.619   2.314 -1.2717  2.1258 -1.8021
 7477TIP3   OH222387   2.550   6.540   4.846 -0.0889 -0.0842  0.7091
 7477TIP3    H122388   2.633   6.513   4.807 -0.8308 -0.7436 -0.4773
 7477TIP3    H222389   2.566   6.629   4.878  0.3312  0.8998 -1.9613
 7478TIP3   OH222390   3.956   6.042   1.492 -0.2393 -0.1491  0.2450
 7478TIP3    H122391   3.919   6.066   1.577 -1.3510 -0.4632 -0.1280
 7478TIP3    H222392   4.023   6.108   1.475 -1.3515  1.0889  0.4754
 7479TIP3   OH222393   1.244   2.485   2.352  0.7293 -0.2987 -0.6916
 7479TIP3    H122394   1.150   2.483   2.367  0.5196  1.6378 -1.4764
 7479TIP3    H222395   1.282   2.497   2.439  0.1704  0.0054 -0.4862
 7480TIP3   OH222396   6.577   7.738   2.271 -0.2711  1.3788 -0.1577
 7480TIP3    H122397   6.570   7.644   2.253  1.1181  1.3461 -0.6965
 7480TIP3    H222398   6.566   7.746   2.366  1.1897  0.4644  0.1138
 7481TIP3   OH222399   3.212   4.079   1.023 -0.0942 -0.0793  0.4405
 7481TIP3    H122400   3.177   4.144   1.084  2.0645  1.9550 -0.3130
 7481TIP3    H222401   3.306   4.099   1.018  0.3674 -2.2299 -1.1080
 7482TIP3   OH222402   3.807   0.287   3.623 -0.5560 -0.3384 -0.1950
 7482TIP3    H122403   3.746   0.220   3.654 -1.6769  0.5456 -0.4392
 7482TIP3    H222404   3.891   0.263   3.664 -0.9630 -1.7810 -0.1535
 7483TIP3   OH222405   1.810   4.069   6.270 -0.2246 -0.4000 -0.5233
 7483TIP3    H122406   1.905   4.079   6.271 -0.2195 -0.4644 -0.2896
 7483TIP3    H222407   1.780   4.118   6.347 -0.6353  2.0728 -2.1529
 7484TIP3   OH222408   8.233   3.472   1.114 -0.7764  0.1110  0.1558
 7484TIP3    H122409   8.292   3.403   1.083 -0.2064  0.2560  0.8952
 7484TIP3    H222410   8.255   3.482   1.207 -2.1310 -0.0048  0.5140
 7485TIP3   OH222411   0.293   5.481   1.203  0.0479 -0.1468 -0.6297
 7485TIP3    H122412   0.240   5.475   1.123  0.3474  0.8805 -0.9270
 7485TIP3    H222413   0.374   5.435   1.182  1.2554  2.3697 -1.9263
 7486TIP3   OH222414   0.445   7.147   1.084  0.4936 -0.2486  0.7432
 7486TIP3    H122415   0.374   7.124   1.025  1.9810 -1.4763 -0.6570
 7486TIP3    H222416   0.435   7.088   1.159 -0.1081 -0.2045  0.7022
 7487TIP3   OH222417   0.148   5.602   5.779  0.4462  0.1242  0.1046
 7487TIP3    H122418   0.124   5.675   5.722 -1.0746 -0.1197  0.4045
 7487TIP3    H222419   0.149   5.526   5.721 -2.0083 -0.2810  0.5240
 7488TIP3   OH222420   6.835   5.140   1.777  0.2083 -0.2101  0.3017
 7488TIP3    H122421   6.855   5.146   1.683  2.2653  1.7761  0.7844
 7488TIP3    H222422   6.815   5.047   1.790  3.1479 -1.2601 -1.5619
 7489TIP3   OH222423   1.488   1.801   1.522 -0.3519 -0.4107  0.0630
 7489TIP3    H122424   1.462   1.870   1.584 -1.8987  0.8373 -1.8623
 7489TIP3    H222425   1.455   1.720   1.562 -2.0786  0.4587  0.5168
 7490TIP3   OH222426   7.827   1.064   2.164 -0.0446  0.3129 -0.5920
 7490TIP3    H122427   7.834   1.046   2.257 -0.8185  1.7310 -0.2367
 7490TIP3    H222428   7.744   1.110   2.154  0.5941  1.2765 -1.7812
 7491TIP3   OH222429   1.554   7.003   0.317  0.6172  0.0956 -0.0483
 7491TIP3    H122430   1.564   7.045   0.232  0.5892  1.2076  0.4777
 7491TIP3    H222431   1.639   7.015   0.359  1.4324 -2.5263 -0.7858
 7492TIP3   OH222432   5.395   3.788   2.050 -0.0530  0.0303  0.2141
 7492TIP3    H122433   5.308   3.759   2.077 -0.7178  0.8719 -0.9156
 7492TIP3    H222434   5.387   3.883   2.041  1.4276  0.3268  1.5959
 7493TIP3   OH222435   2.757   3.894   6.151  0.1445 -0.3940 -0.0526
 7493TIP3    H122436   2.750   3.988   6.168  1.1168 -0.5046  1.0452
 7493TIP3    H222437   2.764   3.854   6.237 -1.0647 -1.5773 -0.4585
 7494TIP3   OH222438   1.637   7.827   3.448  1.1273 -0.3626 -0.3768
 7494TIP3    H122439   1.547   7.826   3.481  1.0656 -1.4820 -0.5409
 7494TIP3    H222440   1.640   7.755   3.385  1.6639  0.7719 -1.6891
 7495TIP3   OH222441   5.090   0.458   6.391  0.3524 -0.8046 -0.0226
 7495TIP3    H122442   5.149   0.415   6.454  1.3190 -1.2572 -1.1975
 7495TIP3    H222443   5.138   0.537   6.365 -0.1751 -0.4678  0.0198
 7496TIP3   OH222444   7.588   4.521   3.089 -0.0839 -0.1380 -0.0856
 7496TIP3    H122445   7.577   4.433   3.126  0.6540 -0.6932 -1.1420
 7496TIP3    H222446   7.506   4.566   3.109 -1.0623 -1.5403 -0.7896
 7497TIP3   OH222447   7.655   0.218   1.617 -0.2783 -0.5931  0.2009
 7497TIP3    H122448   7.595   0.234   1.690  0.0863  0.3759  0.3049
 7497TIP3    H222449   7.742   0.235   1.654 -0.1516  0.8430 -0.6851
 7498TIP3   OH222450   5.534   7.562   0.309  0.8424  0.5818 -0.2282
 7498TIP3    H122451   5.461   7.522   0.357  3.1553 -1.0025  2.2086
 7498TIP3    H222452   5.494   7.637   0.264 -1.9576  0.8936  2.4369
 7499TIP3   OH222453   2.796   6.674   4.521 -0.2391  0.1635 -0.3828
 7499TIP3    H122454   2.761   6.732   4.589 -0.2667 -0.1160 -0.1564
 7499TIP3    H222455   2.820   6.594   4.568  0.3818  0.2242 -0.5904
 7500TIP3   OH222456   3.667   7.607   0.426  0.3632  0.1313  0.0934
 7500TIP3    H122457   3.720   7.574   0.354 -0.0211  0.5721 -0.3948
 7500TIP3    H222458   3.580   7.620   0.389  0.7815  2.9513 -0.1140
 7501TIP3   OH222459   8.179   0.869   6.201  0.8226  0.8210  0.0157
 7501TIP3    H122460   8.169   0.834   6.289  1.0692  0.2591 -0.1716
 7501TIP3    H222461   8.196   0.792   6.146 -2.9886  0.5836 -1.1727
 7502TIP3   OH222462   0.828   0.506   0.194 -0.3145 -0.3907 -0.7440
 7502TIP3    H122463   0.919   0.535   0.189 -0.1838 -0.9593 -1.9126
 7502TIP3    H222464   0.800   0.497   0.102 -1.3156 -0.9498 -0.4031
 7503TIP3   OH222465   1.328   5.077   4.876  0.1766  0.5619  0.0207
 7503TIP3    H122466   1.331   5.160   4.828  0.8781  0.0077 -0.9223
 7503TIP3    H222467   1.342   5.102   4.968  0.8394  1.4459 -0.3052
 7504TIP3   OH222468   0.141   5.817   5.603  0.0771 -0.3807 -0.2344
 7504TIP3    H122469   0.158   5.880   5.673 -0.7591 -0.5571  0.1390
 7504TIP3    H222470   0.127   5.871   5.525  0.3595 -0.1576 -0.1341
 7505TIP3   OH222471   5.503   0.009   4.747  0.5823  0.2141 -0.1941
 7505TIP3    H122472   5.494   0.082   4.809 -0.5113 -0.2130  0.1533
 7505TIP3    H222473   5.436   0.025   4.681 -0.6727 -1.2526  0.6765
 7506TIP3   OH222474   2.276   4.709   1.509  0.0425  0.2784  0.4096
 7506TIP3    H122475   2.284   4.789   1.458 -1.2301  0.2284  0.0837
 7506TIP3    H222476   2.194   4.720   1.557  1.0829  0.2124  2.2661
 7507TIP3   OH222477   5.151   7.622   4.634 -0.1176  0.0070 -0.0560
 7507TIP3    H122478   5.234   7.664   4.653 -0.1009 -0.5400  1.1888
 7507TIP3    H222479   5.167   7.528   4.647 -0.8523 -0.1272 -0.0229
 7508TIP3   OH222480   4.498   1.236   2.161  0.2176  0.0694  0.2378
 7508TIP3    H122481   4.475   1.171   2.227  0.0296 -0.8137 -0.6674
 7508TIP3    H222482   4.508   1.185   2.080 -3.2364  1.4819 -1.2819
 7509TIP3   OH222483   3.961   4.942   4.210 -0.2888 -0.0497 -0.3710
 7509TIP3    H122484   4.054   4.928   4.231  0.2063  1.2730 -1.5256
 7509TIP3    H222485   3.920   4.957   4.295  0.8127  0.6756  0.0518
 7510TIP3   OH222486   2.401   2.423   0.668  0.1096  0.2071 -0.5494
 7510TIP3    H122487   2.356   2.397   0.748  1.8860  1.1857  0.8493
 7510TIP3    H222488   2.400   2.519   0.670  0.9325  0.2433 -1.2153
 7511TIP3   OH222489   8.273   5.289   3.923  0.2652  0.2166  0.0197
 7511TIP3    H122490   8.207   5.221   3.915 -2.1340  2.3349  0.5123
 7511TIP3    H222491   8.339   5.266   3.858 -1.0047 -1.9491 -0.5891
 7512TIP3   OH222492   1.938   0.829   5.534 -0.5526  0.5589  0.2064
 7512TIP3    H122493   1.991   0.749   5.541 -1.3466 -0.1500 -1.2831
 7512TIP3    H222494   1.901   0.841   5.621 -0.6051 -0.8415  0.4000
 7513TIP3   OH222495   2.854   2.784   3.475 -0.6637  0.2007 -0.4956
 7513TIP3    H122496   2.900   2.868   3.471  0.2671 -0.3073 -0.7437
 7513TIP3    H222497   2.811   2.785   3.561 -0.0760  0.6476 -0.1947
 7514TIP3   OH222498   7.747   6.305   5.152  0.0227 -0.2107 -0.8378
 7514TIP3    H122499   7.711   6.369   5.092 -0.2015  1.8560  1.3373
 7514TIP3    H222500   7.819   6.351   5.196 -0.0066 -1.5063  0.6790
 7515TIP3   OH222501   6.570   1.653   5.288 -0.4158  0.4006  0.4934
 7515TIP3    H122502   6.537   1.618   5.371 -0.1055  0.4605  0.6424
 7515TIP3    H222503   6.654   1.608   5.275 -0.3194  0.6189  0.3664
 7516TIP3   OH222504   2.630   4.970   2.807 -0.0587  0.5275  0.2473
 7516TIP3    H122505   2.607   4.982   2.714  0.3109  1.5477  0.2670
 7516TIP3    H222506   2.600   4.882   2.828 -1.0886  0.6640 -0.5612
 7517TIP3   OH222507   7.030   3.752   4.480 -0.3905 -0.2167  0.1377
 7517TIP3    H122508   7.034   3.662   4.449  0.7912 -0.1039 -0.0666
 7517TIP3    H222509   7.100   3.797   4.433  1.2995  0.0349  2.6975
 7518TIP3   OH222510   7.825   1.113   4.330 -0.1851 -0.2942 -0.6442
 7518TIP3    H122511   7.779   1.039   4.291 -0.4983  0.1761 -1.1945
 7518TIP3    H222512   7.913   1.110   4.293  0.8321 -2.1820  1.6837
 7519TIP3   OH222513   3.805   3.723   0.099 -0.5448 -0.0279  0.5523
 7519TIP3    H122514   3.720   3.688   0.071  0.0606  0.9141 -2.9271
 7519TIP3    H222515   3.784   3.805   0.144 -1.5407 -1.1833  2.3228
 7520TIP3   OH222516   6.652   7.365   2.513  0.1390  0.0821  0.5109
 7520TIP3    H122517   6.728   7.357   2.456 -1.4362 -2.3723 -1.4967
 7520TIP3    H222518   6.667   7.300   2.582  0.0026 -0.2268  0.2541
 7521TIP3   OH222519   6.681   6.729   5.562 -0.6971  0.0647 -0.2269
 7521TIP3    H122520   6.697   6.749   5.654 -1.5538 -1.9649  0.4287
 7521TIP3    H222521   6.765   6.745   5.519 -0.2883  1.0512  0.8985
 7522TIP3   OH222522   7.355   3.405   0.009 -0.0885 -0.1406  0.2112
 7522TIP3    H122523   7.314   3.491  -0.001 -0.2554 -0.2333  0.0854
 7522TIP3    H222524   7.332   3.378   0.098  1.1255  0.5450  0.7519
 7523TIP3   OH222525   1.108   4.736   3.336  0.5855 -0.6439 -0.2209
 7523TIP3    H122526   1.188   4.787   3.344  0.0992  0.0538  0.4076
 7523TIP3    H222527   1.052   4.769   3.407 -0.5850 -0.5067 -1.1740
 7524TIP3   OH222528   1.598   5.183   3.743  0.3680  0.1847 -0.2851
 7524TIP3    H122529   1.617   5.099   3.701  0.2396 -0.3615  0.6962
 7524TIP3    H222530   1.565   5.159   3.830 -2.2365  1.1416 -0.9016
 7525TIP3   OH222531   2.431   1.728   3.080 -0.8747  0.2485 -0.6088
 7525TIP3    H122532   2.409   1.668   3.009 -1.3506 -0.3941  0.0602
 7525TIP3    H222533   2.526   1.721   3.088 -1.0049 -1.3364  0.1921
 7526TIP3   OH222534   2.765   2.417   6.045 -0.3507  0.2289 -0.3604
 7526TIP3    H122535   2.782   2.369   6.126 -1.5605  0.7392  0.2135
 7526TIP3    H222536   2.712   2.492   6.071 -0.6227  0.5030 -1.6016
 7527TIP3   OH222537   1.156   4.915   4.706  0.8177 -0.4213 -0.3327
 7527TIP3    H122538   1.199   4.939   4.788  1.0658 -1.5884 -0.1113
 7527TIP3    H222539   1.082   4.860   4.733 -0.3537  0.8514 -0.7669
 7528TIP3   OH222540   6.749   0.929   4.529 -0.1161 -0.6282  0.6354
 7528TIP3    H122541   6.672   0.881   4.560  0.9235 -2.0634  1.0993
 7528TIP3    H222542   6.822   0.890   4.577  0.8507  1.0739  0.6119
 7529TIP3   OH222543   0.878   4.105   1.116 -0.3036 -0.0136 -0.0390
 7529TIP3    H122544   0.886   4.184   1.170  0.4040 -0.0485 -0.0802
 7529TIP3    H222545   0.909   4.132   1.030  0.4744 -0.4748  0.0905
 7530TIP3   OH222546   2.778   5.800   1.998 -0.4428  0.5937  0.0505
 7530TIP3    H122547   2.745   5.889   2.010 -1.4472  0.5275 -1.8610
 7530TIP3    H222548   2.786   5.790   1.903  0.4691 -1.0821  0.2641
 7531TIP3   OH222549   1.206   7.251   0.408  0.3080 -0.2312  0.1089
 7531TIP3    H122550   1.233   7.274   0.319 -0.6093  0.0942 -0.0890
 7531TIP3    H222551   1.123   7.204   0.398  0.3537 -0.4759  0.7742
 7532TIP3   OH222552   8.213   1.511   3.816  0.2286  0.0120  0.7264
 7532TIP3    H122553   8.168   1.428   3.833 -2.0656  0.6556 -1.5392
 7532TIP3    H222554   8.144   1.577   3.822  1.0006  1.1979 -1.8199
 7533TIP3   OH222555   8.109   7.370   2.902  0.3152 -0.0280  0.6177
 7533TIP3    H122556   8.053   7.442   2.873  0.7703  0.9510  2.0317
 7533TIP3    H222557   8.193   7.387   2.860  0.0742 -0.4709 -0.0596
 7534TIP3   OH222558   4.734   2.518   4.390  0.4647  0.0714  0.4462
 7534TIP3    H122559   4.808   2.475   4.433  0.0794 -1.0417  0.0444
 7534TIP3    H222560   4.772   2.557   4.311  0.6984 -0.1917  0.4256
 7535TIP3   OH222561   2.779   0.773   6.371 -0.3818  0.3673  0.5843
 7535TIP3    H122562   2.818   0.859   6.388  0.4465 -0.0333  0.7628
 7535TIP3    H222563   2.693   0.777   6.411 -1.0561  1.7072 -0.8822
 7536TIP3   OH222564   5.112   4.592   3.170 -0.0467 -0.4510 -0.5298
 7536TIP3    H122565   5.017   4.603   3.164  0.0036 -0.3546 -1.2207
 7536TIP3    H222566   5.148   4.673   3.133  0.3225  0.6952  2.0764
 7537TIP3   OH222567   6.773   5.844   0.955  0.0320 -0.1996 -0.1807
 7537TIP3    H122568   6.694   5.875   0.910  0.1093  1.0950  0.5219
 7537TIP3    H222569   6.751   5.755   0.983 -0.5960 -0.4311 -1.3536
 7538TIP3   OH222570   3.928   0.329   0.399  0.0324  0.0937 -0.4010
 7538TIP3    H122571   3.864   0.268   0.435 -0.8518  1.7523  1.0380
 7538TIP3    H222572   3.884   0.367   0.323 -0.6063  0.9607  0.3694
 7539TIP3   OH222573   7.523   2.076   0.903  0.3729  0.1888  0.1071
 7539TIP3    H122574   7.509   2.058   0.996 -0.3440  1.5443  0.2915
 7539TIP3    H222575   7.526   2.172   0.898  0.3974  0.1263 -1.2714
 7540TIP3   OH222576   7.071   3.769   6.059  0.4109 -0.0856 -0.4972
 7540TIP3    H122577   7.148   3.724   6.024  1.3656  0.8761  0.2943
 7540TIP3    H222578   7.014   3.783   5.983  1.0734 -0.7062 -1.1190
 7541TIP3   OH222579   6.316   2.660   5.496  0.4372 -0.0109 -0.2544
 7541TIP3    H122580   6.260   2.583   5.490 -0.5173  0.6678 -0.2896
 7541TIP3    H222581   6.347   2.675   5.407  1.1243 -0.6972 -0.1435
 7542TIP3   OH222582   5.043   3.170   4.521  0.1302 -0.3445 -0.1727
 7542TIP3    H122583   5.061   3.088   4.566  2.8065  0.1688 -0.1308
 7542TIP3    H222584   5.111   3.230   4.552 -1.5636  1.8218 -0.4282
 7543TIP3   OH222585   6.978   4.039   5.889 -0.6886 -0.7701  0.2928
 7543TIP3    H122586   7.044   4.108   5.883 -0.3828 -1.1783 -1.5644
 7543TIP3    H222587   6.957   4.034   5.983  0.6881  0.4970  0.7055
 7544TIP3   OH222588   8.190   5.584   6.741 -0.6018 -0.2183 -0.2426
 7544TIP3    H122589   8.218   5.664   6.786  0.7613 -0.3217 -0.8523
 7544TIP3    H222590   8.235   5.514   6.789  1.5268 -0.2756 -2.1609
 7545TIP3   OH222591   2.614   3.297   3.249 -0.6669  0.7677 -0.7558
 7545TIP3    H122592   2.625   3.355   3.174 -2.0148  0.6823 -1.0567
 7545TIP3    H222593   2.521   3.302   3.269 -0.1404  1.7803  1.7463
 7546TIP3   OH222594   4.103   0.674   2.715 -0.0706  0.2410 -0.1047
 7546TIP3    H122595   4.058   0.672   2.630 -1.0913 -2.2233  0.3924
 7546TIP3    H222596   4.036   0.705   2.776 -0.4557 -1.2279  0.2725
 7547TIP3   OH222597   5.763   7.655   4.436  0.4800 -0.4084  0.3156
 7547TIP3    H122598   5.729   7.677   4.349  2.8996 -0.8152 -0.8269
 7547TIP3    H222599   5.851   7.623   4.419  0.9605 -0.6673  2.9443
 7548TIP3   OH222600   8.097   6.755   3.659  0.1296 -0.3883  0.3409
 7548TIP3    H122601   8.027   6.690   3.657  0.7159 -0.9908 -1.1063
 7548TIP3    H222602   8.178   6.705   3.653  0.5718  0.4777 -1.6877
 7549TIP3   OH222603   2.135   4.003   5.814 -0.5709 -0.7055  0.4272
 7549TIP3    H122604   2.043   4.025   5.795  0.0728 -0.5053 -3.2491
 7549TIP3    H222605   2.151   3.923   5.764  1.3379 -0.5981  0.7980
 7550TIP3   OH222606   5.030   3.541   4.457 -0.8529  0.8574 -1.0194
 7550TIP3    H122607   5.047   3.633   4.478 -0.4677  0.5600 -0.0090
 7550TIP3    H222608   4.955   3.545   4.397 -0.8659  1.8277 -0.9628
 7551TIP3   OH222609   8.081   7.006   3.860 -0.0489 -0.0011 -0.1978
 7551TIP3    H122610   8.126   6.997   3.776 -1.9317  1.7277 -1.4841
 7551TIP3    H222611   8.114   7.088   3.896  2.4467 -1.7822  1.9741
 7552TIP3   OH222612   3.786   2.022   0.695  0.2823 -0.0317 -0.1364
 7552TIP3    H122613   3.847   2.084   0.655  0.2887  0.0452 -0.0075
 7552TIP3    H222614   3.788   1.945   0.637  2.4712 -1.1007  1.2338
 7553TIP3   OH222615   3.323   6.067   2.302 -0.4285 -0.3942  0.4396
 7553TIP3    H122616   3.392   6.052   2.366  0.1591 -0.2424 -0.1531
 7553TIP3    H222617   3.287   5.980   2.285  0.3121 -0.6187 -0.0151
 7554TIP3   OH222618   2.935   6.506   4.022 -0.1166  0.2198  0.0500
 7554TIP3    H122619   2.860   6.449   4.038  0.3978 -0.4670  0.0152
 7554TIP3    H222620   3.006   6.469   4.074 -0.2485  1.9036  1.5285
 7555TIP3   OH222621   6.910   0.314   2.580  0.2519  0.8374  0.7911
 7555TIP3    H122622   6.875   0.396   2.616  0.5923  0.8607  1.0755
 7555TIP3    H222623   6.850   0.246   2.613  0.1742  0.9330  0.8462
 7556TIP3   OH222624   3.407   5.262   3.970  0.0567  0.2185  0.7054
 7556TIP3    H122625   3.378   5.207   4.042 -2.1963 -0.7396 -0.7943
 7556TIP3    H222626   3.369   5.347   3.987 -0.3012  0.0481  0.7607
 7557TIP3   OH222627   5.587   1.004   3.130  0.3666  0.3721 -0.2264
 7557TIP3    H122628   5.641   1.071   3.088 -1.3266  1.9752  0.0339
 7557TIP3    H222629   5.497   1.036   3.121 -0.3921 -1.2893  0.9459
 7558TIP3   OH222630   3.918   2.191   2.827 -0.5511 -0.0047 -0.3868
 7558TIP3    H122631   3.833   2.153   2.847 -0.5842 -0.2282 -0.9193
 7558TIP3    H222632   3.977   2.115   2.822 -0.5585  0.0272 -1.1599
 7559TIP3   OH222633   2.164   2.364   3.278 -0.0765 -1.0609 -0.4071
 7559TIP3    H122634   2.082   2.368   3.230 -1.3042  0.3185  1.6027
 7559TIP3    H222635   2.148   2.302   3.349  0.0211  0.3209  0.8881
 7560TIP3   OH222636   2.860   6.638   2.991 -0.2956  0.0419 -0.6697
 7560TIP3    H122637   2.904   6.589   2.921 -0.1158  0.3740 -0.7916
 7560TIP3    H222638   2.770   6.647   2.961 -0.7526 -1.6634  0.1166
 7561TIP3   OH222639   7.728   5.641   3.820  0.1359  0.2025 -0.3607
 7561TIP3    H122640   7.818   5.611   3.802  0.5293  0.3309  1.1868
 7561TIP3    H222641   7.702   5.688   3.741  1.4341  0.1637 -0.8445
 7562TIP3   OH222642   1.573   5.672   2.116 -0.0180  0.2742  0.1740
 7562TIP3    H122643   1.523   5.669   2.197 -0.6655 -0.5102 -0.2419
 7562TIP3    H222644   1.556   5.587   2.074 -2.2498  1.7739 -2.2826
 7563TIP3   OH222645   0.782   2.057   3.799 -0.1840 -0.5223 -0.3457
 7563TIP3    H122646   0.716   2.041   3.733  0.1581  0.2960 -0.9065
 7563TIP3    H222647   0.739   2.112   3.865  0.4914  1.9606 -1.8310
 7564TIP3   OH222648   2.134   2.692   6.536 -0.1289  0.0028 -0.1663
 7564TIP3    H122649   2.123   2.709   6.443 -1.4076  0.5533  0.0706
 7564TIP3    H222650   2.228   2.677   6.546 -0.1122 -1.2466 -1.7211
 7565TIP3   OH222651   3.268   7.112   4.924 -0.0399 -0.1459 -0.1524
 7565TIP3    H122652   3.289   7.175   4.855  0.7120  0.6439  0.7558
 7565TIP3    H222653   3.204   7.158   4.979 -0.4740 -0.6816 -0.2077
 7566TIP3   OH222654   4.691   6.888   4.634  0.0817 -0.2375 -0.1625
 7566TIP3    H122655   4.729   6.803   4.655  0.7570  0.0721 -0.1062
 7566TIP3    H222656   4.724   6.947   4.702  1.2058  0.4838 -1.2663
 7567TIP3   OH222657   0.116   0.332   2.717 -0.3111 -0.4548  0.1475
 7567TIP3    H122658   0.211   0.325   2.703 -0.0128  0.2011  1.6471
 7567TIP3    H222659   0.103   0.298   2.806 -1.8365 -2.8110 -0.8722
 7568TIP3   OH222660   5.323   1.871   4.365  0.4687 -0.3641  0.2746
 7568TIP3    H122661   5.308   1.776   4.357  1.4985 -0.4665 -0.7674
 7568TIP3    H222662   5.259   1.911   4.307 -0.1645 -0.3901  0.9400
 7569TIP3   OH222663   5.352   2.909   1.550  0.6078  0.3245  0.4240
 7569TIP3    H122664   5.313   2.927   1.636 -0.3068 -0.3344  0.1576
 7569TIP3    H222665   5.304   2.834   1.517  0.5549  0.9269 -0.9262
 7570TIP3   OH222666   4.790   3.473   1.847 -0.1835 -0.3939 -0.1557
 7570TIP3    H122667   4.790   3.451   1.940  0.7440  0.5133  0.0767
 7570TIP3    H222668   4.784   3.568   1.844  0.1259 -0.3900 -1.0092
 7571TIP3   OH222669   5.840   1.549   2.884 -0.0486 -0.0789 -0.2297
 7571TIP3    H122670   5.886   1.498   2.818 -0.5539 -0.8065 -0.0279
 7571TIP3    H222671   5.821   1.632   2.841 -0.8844 -0.7482 -1.2061
 7572TIP3   OH222672   6.022   0.771   4.374  0.0922  0.1869  0.3536
 7572TIP3    H122673   6.017   0.843   4.437  1.4472  0.8494 -0.2316
 7572TIP3    H222674   5.990   0.810   4.292  1.6066  0.3984 -0.1613
 7573TIP3   OH222675   4.483   0.223   1.097 -0.1579  0.0430 -0.2649
 7573TIP3    H122676   4.518   0.310   1.078  0.7970 -0.2321  0.1568
 7573TIP3    H222677   4.473   0.181   1.012  3.2047 -0.8512 -0.3574
 7574TIP3   OH222678   4.776   6.944   0.264 -0.3367  0.0956  0.0304
 7574TIP3    H122679   4.837   6.900   0.324  1.6733  1.7542 -0.6592
 7574TIP3    H222680   4.700   6.965   0.317  0.0261 -1.3223  1.1588
 7575TIP3   OH222681   2.936   4.774   2.519 -0.1004 -0.3086  0.1513
 7575TIP3    H122682   2.888   4.787   2.438 -0.5611  1.1009  0.6196
 7575TIP3    H222683   2.869   4.750   2.583  0.0317  0.1155  0.4541
 7576TIP3   OH222684   1.065   3.605   4.174  0.5207  0.1206  0.4515
 7576TIP3    H122685   1.015   3.681   4.145 -0.0911 -0.3624  0.1899
 7576TIP3    H222686   1.001   3.551   4.221  0.4670 -1.0995 -0.9439
 7577TIP3   OH222687   1.271   2.659   4.092  0.1741 -0.1231  0.0290
 7577TIP3    H122688   1.320   2.628   4.169  2.2475  0.3783 -1.0098
 7577TIP3    H222689   1.337   2.703   4.039 -1.4964  0.7250 -1.4091
 7578TIP3   OH222690   5.368   1.173   2.989 -0.5727  0.0324  0.5583
 7578TIP3    H122691   5.330   1.161   2.902  1.0034 -0.2881 -0.1105
 7578TIP3    H222692   5.295   1.204   3.043 -1.7509 -0.4784 -0.6907
 7579TIP3   OH222693   3.728   1.011   4.956  0.3072 -0.2319 -0.2680
 7579TIP3    H122694   3.795   1.016   4.889  1.7318  1.8501  1.1827
 7579TIP3    H222695   3.692   1.100   4.961 -0.0035 -0.4128  1.4521
 7580TIP3   OH222696   2.490   6.250   2.028 -0.0022 -0.0582 -0.1954
 7580TIP3    H122697   2.461   6.306   1.956  1.3866  1.0737  0.0659
 7580TIP3    H222698   2.449   6.288   2.106  0.7407  0.4933 -0.0522
 7581TIP3   OH222699   8.115   4.825   3.927  0.3147 -0.0103 -0.5212
 7581TIP3    H122700   8.119   4.778   4.011 -2.0008  0.5132 -0.0491
 7581TIP3    H222701   8.113   4.756   3.861  1.3181 -0.4495 -0.1050
 7582TIP3   OH222702   2.145   4.317   4.749  0.1012  0.1710 -0.7921
 7582TIP3    H122703   2.080   4.249   4.732  0.9584 -0.5396 -1.3222
 7582TIP3    H222704   2.200   4.281   4.819 -0.3163  0.9427 -0.0466
 7583TIP3   OH222705   3.961   6.679   2.221  0.0156 -0.3260  0.4707
 7583TIP3    H122706   3.915   6.634   2.292 -0.6203 -0.4820 -0.0225
 7583TIP3    H222707   4.049   6.640   2.221  0.1485 -0.0416  1.4140
 7584TIP3   OH222708   5.332   4.590   3.341 -0.0468 -0.4546 -0.5239
 7584TIP3    H122709   5.265   4.591   3.274  0.6476  0.7876 -1.2320
 7584TIP3    H222710   5.355   4.682   3.354  2.4553 -0.8888 -1.2898
 7585TIP3   OH222711   1.019   6.897   6.062  0.2126  0.5278  0.6762
 7585TIP3    H122712   1.111   6.878   6.081  0.3550  0.7969  0.2509
 7585TIP3    H222713   0.973   6.873   6.143  0.8341  1.8496  1.4538
 7586TIP3   OH222714   2.450   1.212   2.092 -0.4839  0.4803  0.5422
 7586TIP3    H122715   2.497   1.132   2.114 -1.0684 -0.3540 -1.0644
 7586TIP3    H222716   2.493   1.281   2.143 -0.7611 -1.0123  2.9171
 7587TIP3   OH222717   4.251   3.596   0.686 -0.1438  0.3584  0.1779
 7587TIP3    H122718   4.185   3.615   0.619  2.8550 -2.0312 -3.9360
 7587TIP3    H222719   4.269   3.680   0.727 -2.6467  1.8595 -1.5461
 7588TIP3   OH222720   2.375   2.649   5.573  0.3496 -0.0955 -0.1691
 7588TIP3    H122721   2.339   2.560   5.569 -1.4353  0.5638  0.0853
 7588TIP3    H222722   2.461   2.642   5.531 -0.1748 -1.7348 -1.0810
 7589TIP3   OH222723   1.458   2.381   0.513  0.5864 -0.5021  0.2382
 7589TIP3    H122724   1.375   2.409   0.551  0.2439 -1.3134  0.1238
 7589TIP3    H222725   1.463   2.287   0.534  1.0971 -0.6349 -0.4253
 7590TIP3   OH222726   5.937   1.695   5.029  0.3335  0.8903  0.4536
 7590TIP3    H122727   6.009   1.698   4.967  1.4841 -2.2005  1.4288
 7590TIP3    H222728   5.952   1.768   5.089  0.5401  2.4541 -1.4178
 7591TIP3   OH222729   6.779   1.767   5.817  0.2714 -0.0254 -0.2827
 7591TIP3    H122730   6.808   1.830   5.751  1.0268 -1.3829 -1.3150
 7591TIP3    H222731   6.754   1.689   5.766  1.1047 -1.2060  1.0331
 7592TIP3   OH222732   4.136   6.784   1.737 -0.0544 -0.8516  0.0647
 7592TIP3    H122733   4.119   6.730   1.814  0.1585  0.2262  0.8960
 7592TIP3    H222734   4.231   6.795   1.736 -0.2261  1.2673  1.1944
 7593TIP3   OH222735   0.281   7.244   4.202  0.2032  0.0008  0.3559
 7593TIP3    H122736   0.287   7.180   4.272  0.8759  0.5417  0.7992
 7593TIP3    H222737   0.272   7.328   4.246  0.3612  0.3226 -0.2111
 7594TIP3   OH222738   5.912   2.322   3.771 -0.3867  0.3947 -0.4968
 7594TIP3    H122739   5.876   2.269   3.701  1.4571 -2.3017  0.4316
 7594TIP3    H222740   5.999   2.348   3.740 -1.1874  2.9231 -0.8755
 7595TIP3   OH222741   3.021   1.022   2.802 -0.4955  0.5525 -0.3084
 7595TIP3    H122742   2.965   1.092   2.768 -0.6039  0.5259 -0.1851
 7595TIP3    H222743   3.101   1.028   2.750 -0.1162  1.3752  0.3321
 7596TIP3   OH222744   5.786   5.678   6.271  0.6337  0.4309  0.1597
 7596TIP3    H122745   5.810   5.598   6.317 -1.1691 -0.3970 -0.2442
 7596TIP3    H222746   5.691   5.684   6.280  0.3843  1.0346 -2.1563
 7597TIP3   OH222747   7.271   0.445   3.191  0.8347  0.4483  0.3635
 7597TIP3    H122748   7.227   0.377   3.141 -0.7923  1.0985  0.8321
 7597TIP3    H222749   7.261   0.419   3.283 -0.1212  1.4552  0.5694
 7598TIP3   OH222750   0.446   4.702   0.459 -0.0886 -0.0683 -0.1791
 7598TIP3    H122751   0.386   4.775   0.450 -0.1163  0.4979  3.2450
 7598TIP3    H222752   0.394   4.632   0.499  1.1507  0.0187  1.7333
 7599TIP3   OH222753   7.381   7.259   4.415 -0.2891  0.7645  0.0213
 7599TIP3    H122754   7.474   7.283   4.415 -0.2960  0.9465 -2.0587
 7599TIP3    H222755   7.342   7.320   4.478  0.8958  1.1269  0.4438
 7600TIP3   OH222756   1.917   3.414   6.317  0.3892 -0.4243  0.0335
 7600TIP3    H122757   1.988   3.470   6.351 -0.0502 -0.4971  1.1060
 7600TIP3    H222758   1.883   3.462   6.242 -0.8069  1.4079  1.6675
 7601TIP3   OH222759   6.951   6.304   4.035  0.4607 -0.4281  0.3143
 7601TIP3    H122760   7.028   6.288   4.090  1.1889 -1.0414 -0.8694
 7601TIP3    H222761   6.979   6.371   3.973  0.5346 -1.7134 -1.0806
 7602TIP3   OH222762   7.944   0.293   5.334 -0.3473  0.0209  0.2254
 7602TIP3    H122763   8.031   0.254   5.342 -0.3131  0.3827  2.6015
 7602TIP3    H222764   7.956   0.369   5.277  0.6335 -0.5810 -0.3940
 7603TIP3   OH222765   6.103   1.827   0.553 -0.2153 -0.3666  0.1549
 7603TIP3    H122766   6.062   1.746   0.584 -1.3703  0.5542  1.1451
 7603TIP3    H222767   6.058   1.848   0.472 -2.3296  1.0212  1.5976
 7604TIP3   OH222768   4.321   1.948   1.178  0.1081  0.3352 -0.2204
 7604TIP3    H122769   4.401   1.999   1.169  0.3109  0.1320  0.3498
 7604TIP3    H222770   4.340   1.864   1.136  0.5783 -0.1115  0.8473
 7605TIP3   OH222771   1.982   6.808   1.888  0.1992 -0.2290 -0.2859
 7605TIP3    H122772   2.069   6.830   1.855  0.1127  0.3410 -0.1406
 7605TIP3    H222773   1.923   6.868   1.842 -0.0162 -0.0003  0.2881
 7606TIP3   OH222774   1.662   0.033   1.767 -0.6443  0.4457  0.3727
 7606TIP3    H122775   1.638   0.037   1.860  0.4623 -1.0634  0.7637
 7606TIP3    H222776   1.583   0.002   1.723 -1.0148  0.6538  0.8807
 7607TIP3   OH222777   7.037   0.500   6.418  0.3919 -0.4578 -0.2253
 7607TIP3    H122778   6.999   0.453   6.493 -1.5033  0.7808 -0.3461
 7607TIP3    H222779   7.088   0.570   6.457  0.5091 -0.6172 -0.0876
 7608TIP3   OH222780   7.225   5.645   6.409  0.7833  0.5576  0.8981
 7608TIP3    H122781   7.132   5.665   6.420  1.1631  0.8245  5.2766
 7608TIP3    H222782   7.234   5.554   6.437  1.5459 -0.6326 -2.6473
 7609TIP3   OH222783   1.979   7.019   0.317 -0.0282 -0.3270 -0.1140
 7609TIP3    H122784   2.063   7.060   0.338 -1.0318  1.2161  1.0395
 7609TIP3    H222785   1.913   7.081   0.346 -1.6044 -1.3690 -1.2770
 7610TIP3   OH222786   5.848   0.511   0.936 -0.0411 -0.1180  0.0545
 7610TIP3    H122787   5.933   0.478   0.907 -0.5539 -0.3670 -1.2407
 7610TIP3    H222788   5.851   0.605   0.918 -0.8612 -0.4665 -2.2723
 7611TIP3   OH222789   6.773   0.137   1.610  0.2304  0.5151  0.5047
 7611TIP3    H122790   6.816   0.076   1.670 -1.3545 -1.2375 -0.0454
 7611TIP3    H222791   6.841   0.160   1.546  1.0389 -0.1366  1.1112
 7612TIP3   OH222792   2.782   4.031   2.377  0.7980 -0.3019  0.2235
 7612TIP3    H122793   2.847   4.079   2.428  1.5730 -0.1438 -0.8636
 7612TIP3    H222794   2.754   4.094   2.310 -0.2425 -0.4790  0.4818
 7613TIP3   OH222795   4.069   4.447   5.626 -0.3298  0.0993  0.6279
 7613TIP3    H122796   3.979   4.467   5.603 -0.1465  1.2725  0.8880
 7613TIP3    H222797   4.080   4.355   5.601 -0.8396  0.6239 -1.7971
 7614TIP3   OH222798   5.353   4.287   4.439 -0.4389  0.3073 -0.1074
 7614TIP3    H122799   5.375   4.236   4.361  1.1459  0.4848  0.2040
 7614TIP3    H222800   5.391   4.374   4.422  0.2929  0.2197  1.0326
 7615TIP3   OH222801   6.823   5.581   4.910 -1.2997 -0.4854  0.1296
 7615TIP3    H122802   6.866   5.657   4.870  0.5987 -1.0248  1.0655
 7615TIP3    H222803   6.854   5.506   4.860 -0.7165 -0.9387  1.1494
 7616TIP3   OH222804   5.730   4.460   4.045 -0.1036 -0.3827  0.5897
 7616TIP3    H122805   5.682   4.381   4.070 -0.4398 -0.2788  0.2789
 7616TIP3    H222806   5.689   4.488   3.963 -1.3197  1.2544  1.6943
 7617TIP3   OH222807   0.879   2.744   6.195  0.1885  0.1514 -0.1125
 7617TIP3    H122808   0.826   2.807   6.244  1.1550  0.4473  0.5739
 7617TIP3    H222809   0.932   2.701   6.262 -1.3641 -2.3521 -0.3677
 7618TIP3   OH222810   0.874   4.523   6.166  0.0648  0.2198 -0.4354
 7618TIP3    H122811   0.948   4.465   6.184 -0.4626 -0.9026 -1.7530
 7618TIP3    H222812   0.891   4.557   6.079 -1.1443 -0.3537 -0.9127
 7619TIP3   OH222813   1.888   1.945   4.362  0.0497  0.3215 -0.1936
 7619TIP3    H122814   1.809   1.994   4.342 -1.4760 -2.0798 -0.4842
 7619TIP3    H222815   1.867   1.898   4.443  0.2973 -2.0182 -1.4036
 7620TIP3   OH222816   5.676   0.445   6.390  0.0550  0.0130  0.1029
 7620TIP3    H122817   5.591   0.457   6.348  0.2357  0.2888 -0.1872
 7620TIP3    H222818   5.706   0.533   6.411  1.8847  0.3051 -3.0350
 7621TIP3   OH222819   4.631   0.478   1.171  0.1398 -0.2561 -0.2366
 7621TIP3    H122820   4.661   0.449   1.085 -0.9842  0.4228 -0.8770
 7621TIP3    H222821   4.693   0.546   1.196 -0.9841  1.4058 -1.7184
 7622TIP3   OH222822   8.284   5.926   2.731  0.3521  0.3008 -0.9932
 7622TIP3    H122823   8.275   5.904   2.824  0.0682  0.2707 -1.0267
 7622TIP3    H222824   8.322   5.847   2.692  0.2055  0.2107 -0.9534
 7623TIP3   OH222825   7.602   1.873   0.737 -0.3775  0.4600 -0.2661
 7623TIP3    H122826   7.697   1.862   0.732  0.1245  4.0518 -1.3151
 7623TIP3    H222827   7.590   1.946   0.797 -2.3362  1.2932 -1.5791
 7624TIP3   OH222828   3.552   2.219   1.171 -0.1447  0.1097  0.3173
 7624TIP3    H122829   3.518   2.189   1.087 -0.8786 -0.4534  0.8029
 7624TIP3    H222830   3.566   2.138   1.221  0.5615  0.4224  0.6428
 7625TIP3   OH222831   4.562   5.298   0.082  0.7659 -0.1274 -0.3144
 7625TIP3    H122832   4.506   5.321   0.156  0.7159  0.9971 -0.6842
 7625TIP3    H222833   4.604   5.216   0.109 -0.6828 -0.7621  0.1676
 7626TIP3   OH222834   7.747   4.750   1.158 -0.2416 -0.3446 -0.6255
 7626TIP3    H122835   7.674   4.789   1.205  0.3256 -0.5304  0.4425
 7626TIP3    H222836   7.812   4.820   1.152 -0.3143 -0.3204 -1.1399
 7627TIP3   OH222837   2.108   1.074   3.399  0.4480  0.6447 -0.2747
 7627TIP3    H122838   2.095   1.011   3.327 -0.4877  1.5489 -0.9203
 7627TIP3    H222839   2.089   1.159   3.360  0.3380  1.2011  0.9488
 7628TIP3   OH222840   6.672   3.641   2.871  0.7148 -0.0597 -0.1300
 7628TIP3    H122841   6.681   3.641   2.775  0.6820 -1.2060 -0.1500
 7628TIP3    H222842   6.736   3.577   2.901  0.6557  0.2227  0.6121
 7629TIP3   OH222843   5.835   7.414   2.573  0.2633 -0.0763  0.8535
 7629TIP3    H122844   5.876   7.433   2.489 -1.1917  0.2547  0.1863
 7629TIP3    H222845   5.802   7.499   2.604  0.8970 -0.1658  1.8448
 7630TIP3   OH222846   7.672   5.700   1.962  0.0766 -0.2262  0.0225
 7630TIP3    H122847   7.746   5.745   1.922  0.8172 -2.4963 -1.3479
 7630TIP3    H222848   7.641   5.640   1.894 -0.6553 -1.9942  1.8135
 7631TIP3   OH222849   3.010   4.734   1.165  0.1215 -0.7539 -0.1191
 7631TIP3    H122850   3.004   4.826   1.191  0.8334 -0.3710 -1.1960
 7631TIP3    H222851   3.052   4.691   1.239  0.5322 -0.0409  0.0781
 7632TIP3   OH222852   0.680   2.629   5.081  0.2112  0.3798 -0.5277
 7632TIP3    H122853   0.612   2.687   5.115  0.1484  1.6294 -2.5626
 7632TIP3    H222854   0.733   2.686   5.025  1.1385 -1.2134 -1.3290
 7633TIP3   OH222855   0.890   7.152   1.395  0.0433  0.1290 -0.4998
 7633TIP3    H122856   0.797   7.174   1.393  0.0041  0.0701  0.4568
 7633TIP3    H222857   0.926   7.195   1.317 -0.7127  0.4604 -0.6776
 7634TIP3   OH222858   7.147   5.331   0.085 -0.5809  0.4530 -0.0214
 7634TIP3    H122859   7.129   5.384   0.163  1.1772 -0.8297  1.3315
 7634TIP3    H222860   7.240   5.309   0.091 -0.2915  0.6151 -2.7134
 7635TIP3   OH222861   4.945   4.691   6.504 -0.3960  0.3060  0.4803
 7635TIP3    H122862   4.890   4.762   6.471 -0.4552 -0.1570 -0.4447
 7635TIP3    H222863   5.031   4.732   6.518 -0.2563  0.4328 -0.6517
 7636TIP3   OH222864   1.536   5.210   1.605 -0.3635 -0.2736  0.0787
 7636TIP3    H122865   1.510   5.120   1.625  1.4081 -0.8592 -0.0254
 7636TIP3    H222866   1.545   5.253   1.690  2.5460 -1.3813  0.4586
 7637TIP3   OH222867   3.988   0.729   3.221 -0.8353 -0.4531  0.3546
 7637TIP3    H122868   3.912   0.780   3.192 -0.6937  0.1767  1.0520
 7637TIP3    H222869   4.056   0.750   3.157 -1.1521 -0.7820 -0.0979
 7638TIP3   OH222870   6.654   5.522   1.435 -0.6067  0.2560  0.2503
 7638TIP3    H122871   6.639   5.441   1.484  0.6697 -0.4480 -0.4438
 7638TIP3    H222872   6.747   5.541   1.450 -0.3600  0.4083 -1.2718
 7639TIP3   OH222873   6.705   5.923   6.656 -0.6460  0.0954 -0.4435
 7639TIP3    H122874   6.631   5.967   6.698 -1.2514 -0.5811 -0.7938
 7639TIP3    H222875   6.772   5.921   6.724 -1.4891 -0.6550  0.3865
 7640TIP3   OH222876   1.781   0.157   0.343 -0.4646  0.7431 -0.5255
 7640TIP3    H122877   1.830   0.239   0.354  1.7232 -0.3468 -1.5367
 7640TIP3    H222878   1.835   0.105   0.284 -2.4217 -0.9614 -0.9112
 7641TIP3   OH222879   3.699   5.192   2.007 -0.0806 -0.3432 -0.6029
 7641TIP3    H122880   3.662   5.230   1.927 -1.9973 -1.5635 -0.3626
 7641TIP3    H222881   3.729   5.105   1.980  1.1097 -0.0043 -0.4102
 7642TIP3   OH222882   4.148   7.475   5.996 -0.0015  0.7408 -0.6069
 7642TIP3    H122883   4.072   7.532   6.000 -0.2487  0.3941 -0.3035
 7642TIP3    H222884   4.117   7.396   5.951  0.6256  1.2820 -2.0467
 7643TIP3   OH222885   4.374   4.357   3.987  0.1160  0.3353 -0.1043
 7643TIP3    H122886   4.370   4.276   4.037 -0.4467  0.7257  0.4927
 7643TIP3    H222887   4.466   4.364   3.961 -0.3295 -2.1199 -2.9204
 7644TIP3   OH222888   1.246   0.696   0.786  0.0544 -0.1197 -0.3096
 7644TIP3    H122889   1.214   0.763   0.725  1.7031 -0.0785 -1.1894
 7644TIP3    H222890   1.175   0.632   0.789 -1.0324  1.0319 -0.4286
 7645TIP3   OH222891   4.941   2.465   5.371  0.0198 -0.1965  0.2135
 7645TIP3    H122892   5.015   2.487   5.314  0.9635  0.1288  1.5200
 7645TIP3    H222893   4.971   2.486   5.459 -0.9071 -1.9320  1.0053
 7646TIP3   OH222894   7.228   2.347   6.530 -0.2107  0.0844  0.2598
 7646TIP3    H122895   7.277   2.286   6.475 -0.8787  0.0308 -0.2868
 7646TIP3    H222896   7.137   2.324   6.517 -0.4455  0.8485  0.4690
 7647TIP3   OH222897   1.517   3.362   4.681  0.2720  0.1052  0.6422
 7647TIP3    H122898   1.577   3.302   4.726  0.2682 -0.3120  0.0867
 7647TIP3    H222899   1.479   3.311   4.610  0.1215  0.7056  0.2815
 7648TIP3   OH222900   4.079   1.058   5.594  0.3522  0.0218 -0.1649
 7648TIP3    H122901   4.151   1.013   5.639 -0.8755 -0.8813  0.9805
 7648TIP3    H222902   4.047   1.122   5.657 -0.3575 -0.1306 -0.3587
 7649TIP3   OH222903   0.434   0.225   1.664 -0.7632 -0.3395 -0.2086
 7649TIP3    H122904   0.427   0.131   1.645  0.0022 -0.4258 -0.0944
 7649TIP3    H222905   0.527   0.245   1.649 -0.0912 -0.3869  3.1787
 7650TIP3   OH222906   7.156   0.790   5.390  0.0111 -0.2028 -0.4949
 7650TIP3    H122907   7.204   0.724   5.440  0.5345  0.4047 -0.1859
 7650TIP3    H222908   7.068   0.788   5.428  0.7562  1.2544  1.5088
 7651TIP3   OH222909   0.694   0.909   0.138  0.1799  0.3118  0.0411
 7651TIP3    H122910   0.667   0.919   0.047  0.4564 -1.2236 -0.2389
 7651TIP3    H222911   0.770   0.968   0.147 -0.0160  0.6729 -0.6377
 7652TIP3   OH222912   4.820   2.818   3.204  0.3391  0.2915 -0.2563
 7652TIP3    H122913   4.764   2.893   3.183 -1.1790 -0.7745 -0.1568
 7652TIP3    H222914   4.778   2.744   3.161  2.1800 -0.4176 -0.8887
 7653TIP3   OH222915   6.211   0.941   4.105 -0.3901  0.2679  0.4539
 7653TIP3    H122916   6.225   0.846   4.109 -0.6089  0.2357  0.4344
 7653TIP3    H222917   6.163   0.962   4.184 -0.4513  0.3445  0.3967
 7654TIP3   OH222918   3.022   1.961   0.664 -0.5718  0.4147  0.1273
 7654TIP3    H122919   3.096   2.007   0.704 -0.7088  0.8263 -0.0906
 7654TIP3    H222920   3.026   1.986   0.572 -0.4640 -0.2538 -0.0558
 7655TIP3   OH222921   7.346   5.570   3.684  0.5474 -0.1817 -0.0713
 7655TIP3    H122922   7.378   5.577   3.774  1.8258 -0.8839 -0.4461
 7655TIP3    H222923   7.382   5.647   3.640 -0.2093  0.2459  0.0427
 7656TIP3   OH222924   2.821   5.731   1.325  0.3603  0.1587 -0.1585
 7656TIP3    H122925   2.879   5.752   1.398  0.5470  0.9101 -0.5102
 7656TIP3    H222926   2.849   5.790   1.255 -1.4736  1.2813 -0.0229
 7657TIP3   OH222927   3.857   7.762   4.806 -0.1989  0.2532 -0.4208
 7657TIP3    H122928   3.815   7.788   4.888 -0.5436  1.0701 -0.8375
 7657TIP3    H222929   3.802   7.802   4.738 -0.1274 -0.7155 -1.0614
 7658TIP3   OH222930   2.664   2.609   6.217 -0.3448 -0.1922 -0.5787
 7658TIP3    H122931   2.707   2.676   6.270  0.1697 -1.3767  0.5426
 7658TIP3    H222932   2.632   2.545   6.280 -1.7724 -0.4900 -1.5486
 7659TIP3   OH222933   5.124   7.659   4.006  0.2564 -0.1631  0.1116
 7659TIP3    H122934   5.194   7.719   3.981  0.7716  0.4508  2.7299
 7659TIP3    H222935   5.167   7.595   4.062 -0.8238 -1.3810 -0.4048
 7660TIP3   OH222936   7.679   4.739   0.362  0.0789 -0.5076 -0.2822
 7660TIP3    H122937   7.692   4.705   0.274  1.0099 -1.6576  0.2815
 7660TIP3    H222938   7.729   4.681   0.419 -1.5313 -0.5607  1.1701
 7661TIP3   OH222939   7.355   2.646   3.770 -0.2776  0.2359 -0.5094
 7661TIP3    H122940   7.370   2.739   3.783 -1.1984  0.4965 -1.2279
 7661TIP3    H222941   7.331   2.613   3.857  1.5097  0.3502  0.0688
 7662TIP3   OH222942   0.325   4.579   2.956  0.9516  0.1110  0.3817
 7662TIP3    H122943   0.325   4.636   3.033  0.2519 -0.5543  0.8920
 7662TIP3    H222944   0.340   4.491   2.991 -1.1808 -0.4622  0.0110
 7663TIP3   OH222945   3.293   5.526   2.184 -0.3201  0.7349 -0.0166
 7663TIP3    H122946   3.289   5.499   2.275 -2.4399 -2.2303 -0.8123
 7663TIP3    H222947   3.374   5.488   2.151 -1.3322 -1.4703 -0.1418
 7664TIP3   OH222948   2.392   5.163   1.156  0.1444 -0.0720  0.2869
 7664TIP3    H122949   2.305   5.191   1.185  1.4163  0.8266  3.6898
 7664TIP3    H222950   2.439   5.244   1.138  0.7124 -0.4852 -0.1544
 7665TIP3   OH222951   7.506   0.897   0.123 -0.0538 -0.3350  0.2330
 7665TIP3    H122952   7.421   0.912   0.165  0.2646 -0.1441  0.8145
 7665TIP3    H222953   7.506   0.954   0.047 -0.5400 -0.5045  0.1032
 7666TIP3   OH222954   5.675   3.503   5.525  0.4937 -0.2800  0.3290
 7666TIP3    H122955   5.747   3.461   5.572  1.9863 -1.0821 -2.4595
 7666TIP3    H222956   5.703   3.594   5.516  0.8329 -0.4256 -0.1184
 7667TIP3   OH222957   1.004   1.850   5.753 -0.4122 -0.2920 -0.7367
 7667TIP3    H122958   0.914   1.840   5.723 -1.2261 -1.6414  1.9282
 7667TIP3    H222959   0.999   1.908   5.829  1.1270  0.3569 -1.0746
 7668TIP3   OH222960   2.237   7.115   0.402 -0.4623  0.2712 -0.4796
 7668TIP3    H122961   2.308   7.096   0.463 -1.2542 -2.1943 -0.2148
 7668TIP3    H222962   2.189   7.187   0.444 -0.0111 -0.2360  0.9667
 7669TIP3   OH222963   2.723   2.716   5.154 -0.7107 -0.4533 -0.4766
 7669TIP3    H122964   2.650   2.770   5.185  0.2937  0.5631  0.2164
 7669TIP3    H222965   2.796   2.741   5.211 -0.0341 -2.0802 -0.5820
 7670TIP3   OH222966   0.855   1.569   0.709  0.1143  0.0607  0.2926
 7670TIP3    H122967   0.779   1.564   0.651  0.7503 -1.6196 -0.4418
 7670TIP3    H222968   0.909   1.639   0.672 -0.9391  1.1268  0.7021
 7671TIP3   OH222969   3.528   6.018   5.388  0.3068 -0.6816 -0.3193
 7671TIP3    H122970   3.458   5.971   5.343  0.2512  0.6100 -1.6468
 7671TIP3    H222971   3.518   6.109   5.360  1.6098 -0.2062  0.6485
 7672TIP3   OH222972   7.573   5.391   0.392  0.2289 -0.0797 -0.1661
 7672TIP3    H122973   7.634   5.320   0.409 -0.3361 -0.9314 -1.5439
 7672TIP3    H222974   7.574   5.401   0.297 -2.4027 -0.7330 -0.3383
 7673TIP3   OH222975   6.681   1.502   4.152  0.2664 -0.1653  0.5249
 7673TIP3    H122976   6.591   1.510   4.185  0.5154  0.1273  1.1549
 7673TIP3    H222977   6.673   1.453   4.071 -0.4510 -0.2608  0.6498
 7674TIP3   OH222978   3.363   7.814   2.105  0.7990 -0.2732  0.3049
 7674TIP3    H122979   3.327   7.727   2.120  1.8016 -0.5213  1.3563
 7674TIP3    H222980   3.416   7.805   2.026 -0.0368 -0.3071 -0.2745
 7675TIP3   OH222981   3.662   3.078   4.181  0.3531  0.5975  0.6932
 7675TIP3    H122982   3.582   3.119   4.149  0.0545 -1.3476 -1.3216
 7675TIP3    H222983   3.726   3.092   4.111  0.9196 -0.3209  1.0122
 7676TIP3   OH222984   1.500   2.127   2.046  0.1782 -0.0635  0.4035
 7676TIP3    H122985   1.484   2.201   2.104 -0.2725  0.5162 -0.4476
 7676TIP3    H222986   1.547   2.164   1.972  0.5344 -0.7559  0.2739
 7677TIP3   OH222987   7.828   4.737   5.960 -0.5251  0.7469 -0.3535
 7677TIP3    H122988   7.903   4.780   5.918  0.2420 -1.8647 -1.8207
 7677TIP3    H222989   7.768   4.717   5.888 -2.6745  2.6664  0.7816
 7678TIP3   OH222990   4.397   5.584   0.028 -0.5084 -0.5424 -0.0724
 7678TIP3    H122991   4.361   5.499   0.053  1.2437 -0.8975  1.3803
 7678TIP3    H222992   4.489   5.582   0.055 -0.0827  1.3685 -1.1117
 7679TIP3   OH222993   4.291   7.539   5.715 -0.2173 -0.2514 -0.0678
 7679TIP3    H122994   4.210   7.578   5.747  0.6895  2.0247 -0.3418
 7679TIP3    H222995   4.294   7.453   5.756 -2.1383  0.1109  0.9561
 7680TIP3   OH222996   8.024   1.679   0.616  0.0692 -0.2108 -0.2906
 7680TIP3    H122997   8.089   1.742   0.584  0.3908 -1.4102 -2.1042
 7680TIP3    H222998   7.941   1.711   0.581  0.1082 -0.3400 -0.4987
 7681TIP3   OH222999   2.172   6.822   0.235 -0.3605  0.1627 -0.0197
 7681TIP3    H123000   2.218   6.774   0.305 -1.5925 -1.1596 -0.0675
 7681TIP3    H223001   2.102   6.868   0.280 -1.1585 -0.6931 -0.3478
 7682TIP3   OH223002   1.127   5.270   1.497  0.0894 -0.2302 -0.9926
 7682TIP3    H123003   1.193   5.261   1.566 -1.4670  1.6433  0.9155
 7682TIP3    H223004   1.067   5.197   1.511  0.9583 -1.1163 -1.8137
 7683TIP3   OH223005   6.048   1.150   4.325  0.4328  0.2473  0.1334
 7683TIP3    H123006   6.077   1.212   4.258  1.8914  0.8168  1.2402
 7683TIP3    H223007   6.129   1.120   4.367 -0.4061 -0.4776  1.3093
 7684TIP3   OH223008   2.538   0.860   3.820 -0.6420  0.4734 -0.0256
 7684TIP3    H123009   2.472   0.816   3.766  0.9842 -1.6810 -0.3586
 7684TIP3    H223010   2.487   0.920   3.875 -2.8924 -1.1862 -0.1589
 7685TIP3   OH223011   8.073   0.648   3.886  0.3172  0.2361 -0.7571
 7685TIP3    H123012   8.056   0.604   3.969  0.7057 -0.7401 -1.1839
 7685TIP3    H223013   7.986   0.665   3.849  0.1633 -0.7719 -0.8834
 7686TIP3   OH223014   7.275   3.704   2.352 -0.1128  0.7384 -0.0846
 7686TIP3    H123015   7.367   3.680   2.341 -0.0416  1.0558 -0.1867
 7686TIP3    H223016   7.250   3.667   2.436  0.4640  1.7324  0.5504
 7687TIP3   OH223017   3.836   2.189   1.804  0.0071 -0.2753  0.0095
 7687TIP3    H123018   3.926   2.190   1.835  0.2430  0.4968 -0.6889
 7687TIP3    H223019   3.783   2.193   1.884  0.6049  1.3932  0.3548
 7688TIP3   OH223020   5.526   0.906   1.152  0.6649  0.4663  0.0566
 7688TIP3    H123021   5.619   0.923   1.162  0.3423  2.1038  0.5212
 7688TIP3    H223022   5.505   0.937   1.064  0.7266 -0.8884 -0.4741
 7689TIP3   OH223023   1.983   5.034   1.182  0.2232 -0.4291  0.2444
 7689TIP3    H123024   1.900   5.021   1.136  0.1668  0.0669  0.2017
 7689TIP3    H223025   1.968   4.999   1.269  0.2361 -1.1025 -0.0228
 7690TIP3   OH223026   2.389   4.153   3.078  0.5583  0.5196 -0.0116
 7690TIP3    H123027   2.321   4.091   3.053  1.1423 -0.0305 -0.2814
 7690TIP3    H223028   2.393   4.215   3.005 -0.1167  0.9645  0.3175
 7691TIP3   OH223029   5.964   3.503   6.532  0.9708 -0.2520 -0.6162
 7691TIP3    H123030   5.893   3.467   6.586  0.4393  0.5011 -0.7920
 7691TIP3    H223031   6.002   3.572   6.585  1.0456 -0.1195 -0.8417
 7692TIP3   OH223032   3.762   1.609   3.795 -0.2396 -0.7761  0.0786
 7692TIP3    H123033   3.693   1.629   3.858 -1.1028 -2.1729 -0.3769
 7692TIP3    H223034   3.842   1.641   3.836 -1.0101 -0.0833  1.0922
 7693TIP3   OH223035   5.434   4.598   4.925 -0.1189  0.0079 -0.3208
 7693TIP3    H123036   5.437   4.568   5.016  1.7760  0.2368 -0.2609
 7693TIP3    H223037   5.525   4.623   4.906 -0.4717 -0.0979 -2.2957
 7694TIP3   OH223038   7.492   2.370   3.721  0.4231  0.3984  0.1831
 7694TIP3    H123039   7.572   2.395   3.767  0.1338  0.9249  0.4044
 7694TIP3    H223040   7.422   2.416   3.767 -0.0614 -0.3753  0.2492
 7695TIP3   OH223041   4.430   6.950   4.778  0.1066 -0.2563  0.4971
 7695TIP3    H123042   4.393   6.871   4.818 -0.9510  0.3720  0.7778
 7695TIP3    H223043   4.501   6.917   4.722 -0.7761 -1.4776  0.0669
 7696TIP3   OH223044   7.937   0.414   1.214 -0.6033  0.0817 -0.2320
 7696TIP3    H123045   7.897   0.500   1.220  1.8689  1.2068  2.4331
 7696TIP3    H223046   8.031   0.430   1.218 -0.0446 -2.7185  0.7358
 7697TIP3   OH223047   1.109   0.058   3.608  0.3662 -0.1722  0.4569
 7697TIP3    H123048   1.190   0.017   3.638  0.4895  0.4638  1.0227
 7697TIP3    H223049   1.138   0.124   3.544  0.2206 -0.5201  0.0259
 7698TIP3   OH223050   5.390   0.646   6.591 -0.4892 -0.1381  0.0293
 7698TIP3    H123051   5.345   0.561   6.587 -1.8183  0.5834 -1.4498
 7698TIP3    H223052   5.329   0.703   6.638 -0.4489  0.4673 -0.6385
 7699TIP3   OH223053   1.642   1.571   3.696  0.6989 -0.4964  0.8617
 7699TIP3    H123054   1.602   1.657   3.705  1.0047 -0.4792  2.3275
 7699TIP3    H223055   1.571   1.515   3.663  0.7855  0.4957 -1.1507
 7700TIP3   OH223056   1.650   2.850   5.740 -0.3536 -0.0519 -0.1168
 7700TIP3    H123057   1.592   2.831   5.666 -0.5598  0.4952 -0.0969
 7700TIP3    H223058   1.607   2.807   5.815 -1.9764  2.2181  0.3630
 7701TIP3   OH223059   4.725   6.832   5.619 -0.1516  0.5785  0.3725
 7701TIP3    H123060   4.688   6.786   5.694 -0.5746  0.2628 -0.0243
 7701TIP3    H223061   4.700   6.924   5.633 -2.4275  0.1777 -0.6383
 7702TIP3   OH223062   2.758   7.446   5.647  0.3039 -0.1368 -0.1433
 7702TIP3    H123063   2.680   7.496   5.672  0.1111 -0.0447 -0.8887
 7702TIP3    H223064   2.735   7.408   5.562  1.0876 -0.0537 -0.3988
 7703TIP3   OH223065   8.226   0.485   2.164  0.2350 -0.5891  0.0131
 7703TIP3    H123066   8.275   0.566   2.173  0.4041 -0.5710 -0.9500
 7703TIP3    H223067   8.150   0.509   2.110 -1.4415 -0.3794  2.3097
 7704TIP3   OH223068   2.118   7.150   5.748 -0.2567 -0.5054  0.2750
 7704TIP3    H123069   2.131   7.211   5.675 -0.9747  0.1783  0.7138
 7704TIP3    H223070   2.083   7.071   5.707 -1.2209  0.0832 -0.0536
 7705TIP3   OH223071   3.758   7.626   3.305 -0.0225  0.5200 -0.0058
 7705TIP3    H123072   3.821   7.612   3.235 -0.1078 -2.2899  0.3510
 7705TIP3    H223073   3.691   7.682   3.266  0.6181  0.1540 -1.7265
 7706TIP3   OH223074   0.618   1.053   0.546 -0.3109 -0.0039 -0.3947
 7706TIP3    H123075   0.646   1.122   0.606 -0.5476  1.0869 -1.4977
 7706TIP3    H223076   0.652   0.972   0.585  1.3080  0.8842  0.1320
 7707TIP3   OH223077   0.003   0.543   2.890  0.1192  0.6594  0.1303
 7707TIP3    H123078   0.043   0.473   2.838 -0.5421  0.9399 -0.7690
 7707TIP3    H223079   0.076   0.601   2.912  0.3277  0.8134 -0.9320
 7708TIP3   OH223080   2.914   7.726   2.063  0.0830  0.5109  0.4023
 7708TIP3    H123081   2.888   7.817   2.074  0.5863  0.6231  0.6515
 7708TIP3    H223082   2.985   7.728   2.000 -0.7599  0.1612 -0.5817
 7709TIP3   OH223083   7.042   2.053   6.038 -0.1096  0.0491  1.2245
 7709TIP3    H123084   7.005   2.110   5.970  0.8421  0.1453  0.7718
 7709TIP3    H223085   6.988   1.974   6.034  0.5341 -0.3619 -0.3540
 7710TIP3   OH223086   1.235   1.986   2.755 -0.0818  0.2287 -0.0113
 7710TIP3    H123087   1.328   1.966   2.765 -0.2580 -0.1896  0.8522
 7710TIP3    H223088   1.202   1.991   2.844 -0.5893  1.8855 -0.2617
 7711TIP3   OH223089   4.140   7.603   3.255 -0.4266  0.4053  0.1726
 7711TIP3    H123090   4.131   7.614   3.350  0.7384  0.5102  0.2855
 7711TIP3    H223091   4.216   7.657   3.232 -1.0878  0.8939 -0.9252
 7712TIP3   OH223092   8.263   1.182   5.854  0.4834  0.7691 -0.2625
 7712TIP3    H123093   8.311   1.126   5.915 -1.1314 -1.6406 -1.0554
 7712TIP3    H223094   8.295   1.156   5.767 -0.5271  0.8098 -0.6626
 7713TIP3   OH223095   8.057   4.288   2.733 -0.0504  0.2127  0.1384
 7713TIP3    H123096   7.977   4.268   2.685  0.4226  0.8871 -0.9780
 7713TIP3    H223097   8.034   4.365   2.786  0.5683  2.2715 -2.3490
 7714TIP3   OH223098   6.537   1.205   4.205  0.5628  0.0288 -0.7895
 7714TIP3    H123099   6.583   1.188   4.287  0.1933  0.6455 -0.4535
 7714TIP3    H223100   6.605   1.238   4.146  0.7776 -0.1829 -0.6650
 7715TIP3   OH223101   3.075   3.553   2.326 -0.0609  0.1461 -0.1926
 7715TIP3    H123102   3.170   3.564   2.337  0.0865  0.4290 -1.4678
 7715TIP3    H223103   3.040   3.641   2.339 -0.5656 -0.4550  3.3519
 7716TIP3   OH223104   5.319   6.850   0.865  0.1227 -0.5184 -0.0894
 7716TIP3    H123105   5.385   6.781   0.853 -0.2619 -1.1211  1.0302
 7716TIP3    H223106   5.370   6.927   0.891  0.4005 -1.0486  1.0254
 7717TIP3   OH223107   1.773   4.448   1.119  0.3852 -0.3380  0.2082
 7717TIP3    H123108   1.783   4.399   1.037 -0.2205  0.4712 -0.3558
 7717TIP3    H223109   1.732   4.385   1.179  2.0776 -1.3751  0.3401
 7718TIP3   OH223110   4.317   7.153   0.681 -0.6784  0.0917 -0.2279
 7718TIP3    H123111   4.313   7.069   0.636  2.3127 -0.6256  0.6391
 7718TIP3    H223112   4.406   7.158   0.716 -0.7472  3.6093 -0.1697
 7719TIP3   OH223113   2.155   6.164   1.866  0.1197  0.6000  0.3399
 7719TIP3    H123114   2.149   6.259   1.866 -0.2328  0.5845  1.1832
 7719TIP3    H223115   2.068   6.134   1.894  0.2301  0.0341  0.0942
 7720TIP3   OH223116   4.076   7.572   5.429 -0.6206 -0.1627  0.0259
 7720TIP3    H123117   4.026   7.627   5.368  0.7205 -0.6824 -1.6071
 7720TIP3    H223118   4.159   7.619   5.441 -0.0204 -1.1186 -0.2748
 7721TIP3   OH223119   1.657   7.036   0.819 -0.1144 -0.2221 -0.1544
 7721TIP3    H123120   1.581   6.985   0.791 -0.2661 -0.3270  0.4329
 7721TIP3    H223121   1.640   7.056   0.911  0.5810 -0.2638 -0.0111
 7722TIP3   OH223122   1.779   4.758   4.559 -0.3183  0.0438 -0.1375
 7722TIP3    H123123   1.719   4.828   4.584 -1.1399 -0.4763 -0.5991
 7722TIP3    H223124   1.822   4.789   4.480  0.1658  0.4966  0.2987
 7723TIP3   OH223125   5.739   2.283   1.464  0.0295 -0.5268  0.8138
 7723TIP3    H123126   5.804   2.319   1.524  0.5736  0.1163 -0.1381
 7723TIP3    H223127   5.657   2.285   1.514  0.3393  0.5993  1.3251
 7724TIP3   OH223128   5.617   4.812   1.700  0.0788  0.3750 -0.5469
 7724TIP3    H123129   5.694   4.858   1.666 -0.4900  0.6695 -1.4572
 7724TIP3    H223130   5.562   4.882   1.737  0.3084  0.1475  0.2538
 7725TIP3   OH223131   4.251   5.153   0.886  0.3961  0.1607  0.0290
 7725TIP3    H123132   4.287   5.143   0.975  0.7123 -0.6696 -0.1816
 7725TIP3    H223133   4.193   5.229   0.892  2.5212  1.8635  0.2773
 7726TIP3   OH223134   4.859   3.943   2.878  0.2127 -0.0226 -0.3744
 7726TIP3    H123135   4.783   3.890   2.901  1.1838 -0.4250  2.2890
 7726TIP3    H223136   4.843   4.027   2.922  1.2666 -0.1209  0.2345
 7727TIP3   OH223137   0.204   5.953   4.718 -0.1324 -0.3029 -0.5432
 7727TIP3    H123138   0.177   5.904   4.797  1.0787  0.5219  0.4174
 7727TIP3    H223139   0.124   5.999   4.691 -0.4116 -0.0651  0.6129
 7728TIP3   OH223140   3.823   0.559   6.007 -0.4820  0.3161 -0.3269
 7728TIP3    H123141   3.820   0.526   5.918 -0.2538  1.4108 -0.7502
 7728TIP3    H223142   3.731   0.565   6.033 -0.5339 -0.4373 -0.3125
 7729TIP3   OH223143   1.338   4.941   0.968  0.3818 -0.0060 -0.0359
 7729TIP3    H123144   1.244   4.957   0.976  0.3284  0.7535 -1.7528
 7729TIP3    H223145   1.367   4.922   1.058 -1.7238 -2.2600  0.2558
 7730TIP3   OH223146   1.631   1.046   6.358 -0.7342 -0.5223  0.4700
 7730TIP3    H123147   1.711   1.042   6.306 -0.5676  0.1500  0.6651
 7730TIP3    H223148   1.563   1.012   6.299 -0.4149 -0.4927  0.0766
 7731TIP3   OH223149   6.266   4.928   1.213  0.4205 -0.2299  0.2205
 7731TIP3    H123150   6.318   4.987   1.267 -0.2897  0.3706  0.2513
 7731TIP3    H223151   6.201   4.891   1.272  1.7413 -2.2104  0.5694
 7732TIP3   OH223152   7.831   4.763   3.921 -0.2993  0.2089 -0.3060
 7732TIP3    H123153   7.879   4.827   3.868 -0.0990  0.1635 -0.1785
 7732TIP3    H223154   7.862   4.778   4.011 -1.9541  1.5384  0.1047
 7733TIP3   OH223155   7.715   1.802   2.158  0.4508 -0.0979  0.2816
 7733TIP3    H123156   7.711   1.870   2.226  0.2568  0.1688  0.0052
 7733TIP3    H223157   7.801   1.761   2.170  1.0987  1.0361 -0.3524
 7734TIP3   OH223158   6.201   4.481   4.740 -0.0488  0.1567  0.4798
 7734TIP3    H123159   6.243   4.453   4.822 -1.1311 -0.9157  0.7021
 7734TIP3    H223160   6.134   4.414   4.723 -0.3747  0.7849 -0.8710
 7735TIP3   OH223161   3.690   5.586   3.954 -0.1882 -0.5228 -0.0601
 7735TIP3    H123162   3.617   5.596   4.015 -0.0014  1.5821 -0.1121
 7735TIP3    H223163   3.765   5.625   4.000  0.7517 -1.9475 -0.3240
 7736TIP3   OH223164   0.309   1.315   1.014  0.9600 -0.5180  0.2491
 7736TIP3    H123165   0.354   1.314   0.930  1.2151 -2.2611  0.3763
 7736TIP3    H223166   0.300   1.223   1.038  0.7281 -0.0681  2.0395
 7737TIP3   OH223167   2.532   7.410   6.036 -0.1279  0.0855 -0.3453
 7737TIP3    H123168   2.473   7.358   5.983  0.1167 -0.2683 -0.2766
 7737TIP3    H223169   2.517   7.500   6.008 -1.2324  0.0825  0.2009
 7738TIP3   OH223170   6.263   1.448   6.423 -0.1923 -0.0827  0.0333
 7738TIP3    H123171   6.240   1.357   6.438  0.0774 -0.1755 -0.1102
 7738TIP3    H223172   6.343   1.445   6.371  0.4416  0.2377  0.9661
 7739TIP3   OH223173   3.264   4.768   5.435 -0.2793  0.3239 -0.2085
 7739TIP3    H123174   3.244   4.737   5.347 -0.8487 -0.4530  0.1855
 7739TIP3    H223175   3.243   4.695   5.492  0.2357  0.7649  0.5667
 7740TIP3   OH223176   0.248   0.670   2.912  0.0085  0.1233  0.1376
 7740TIP3    H123177   0.265   0.746   2.857  0.5316  0.7321  1.1064
 7740TIP3    H223178   0.323   0.612   2.899  0.6502  0.7424  0.9757
 7741TIP3   OH223179   0.370   4.028   3.794 -0.2108  0.3031 -0.5397
 7741TIP3    H123180   0.294   3.972   3.810  0.9300 -1.1877 -0.1276
 7741TIP3    H223181   0.351   4.109   3.842 -2.0717  0.4957 -1.4745
 7742TIP3   OH223182   0.486   1.536   3.517 -0.0996 -0.8890  0.1736
 7742TIP3    H123183   0.504   1.453   3.472 -1.8082 -1.6976  0.8778
 7742TIP3    H223184   0.504   1.517   3.610 -1.4913 -0.8308  0.4811
 7743TIP3   OH223185   5.191   0.837   3.930 -0.0000  0.0190  0.5883
 7743TIP3    H123186   5.184   0.931   3.946  0.7987  0.0916  0.5302
 7743TIP3    H223187   5.235   0.830   3.845 -1.3491 -0.4006 -0.1064
 7744TIP3   OH223188   7.638   4.308   0.838  0.2142  0.1830  0.0684
 7744TIP3    H123189   7.650   4.218   0.808  1.2857  0.5138 -0.5862
 7744TIP3    H223190   7.713   4.324   0.896  0.5947  0.9486 -0.6086
 7745TIP3   OH223191   2.584   2.922   5.387 -0.2621 -0.7419 -0.3814
 7745TIP3    H123192   2.564   2.971   5.466  0.9559  2.1512 -1.7011
 7745TIP3    H223193   2.597   2.832   5.416 -0.5209  0.0886  2.5599
 7746TIP3   OH223194   6.595   7.622   1.209  0.0545  0.1140 -0.2338
 7746TIP3    H123195   6.615   7.640   1.301 -0.0621  0.9037 -0.3571
 7746TIP3    H223196   6.502   7.641   1.200 -0.0169 -0.3102 -0.4379
 7747TIP3   OH223197   2.552   0.652   4.305  0.3981  0.3764  0.3135
 7747TIP3    H123198   2.634   0.624   4.264 -0.0406  1.0854 -1.1159
 7747TIP3    H223199   2.488   0.585   4.278  0.4357 -0.0422  1.2220
 7748TIP3   OH223200   6.289   7.661   2.687  0.2236 -0.1334 -0.6128
 7748TIP3    H123201   6.206   7.632   2.726  0.1317  2.7968  1.7547
 7748TIP3    H223202   6.356   7.631   2.748  0.5741  0.2652 -0.7970
 7749TIP3   OH223203   5.114   0.772   1.019 -0.1985 -0.0169  0.0003
 7749TIP3    H123204   5.204   0.804   1.027 -0.1783  0.3904 -1.6291
 7749TIP3    H223205   5.123   0.685   0.979 -0.5281  0.0220 -0.1591
 7750TIP3   OH223206   3.638   5.220   0.519  0.4151  0.4942 -0.0180
 7750TIP3    H123207   3.691   5.295   0.490  0.9270 -0.2782 -1.1352
 7750TIP3    H223208   3.681   5.190   0.599 -0.1931  1.7887  0.8281
 7751TIP3   OH223209   0.246   4.062   4.573 -0.1864 -0.0775  0.0823
 7751TIP3    H123210   0.171   4.010   4.600 -1.0392 -0.7851 -3.1839
 7751TIP3    H223211   0.322   4.006   4.591 -0.8350 -1.1433 -0.3943
 7752TIP3   OH223212   4.763   0.374   0.558  0.2069 -0.1153 -0.0074
 7752TIP3    H123213   4.836   0.426   0.593  0.1780  0.2484 -0.4791
 7752TIP3    H223214   4.743   0.415   0.474 -0.3651 -0.3844 -0.0027
 7753TIP3   OH223215   0.652   1.261   0.745  0.7521 -0.1486 -0.3546
 7753TIP3    H123216   0.725   1.321   0.731  1.2051  0.2979  3.0562
 7753TIP3    H223217   0.678   1.208   0.820 -0.7777 -2.8262 -1.5685
 7754TIP3   OH223218   3.017   2.566   0.838 -0.0665 -0.1004 -0.1995
 7754TIP3    H123219   2.976   2.617   0.908 -0.8397  0.8419 -1.3029
 7754TIP3    H223220   2.960   2.578   0.763  0.4688 -1.5218 -0.8667
 7755TIP3   OH223221   3.042   0.412   4.900 -0.4895  0.1519  0.2181
 7755TIP3    H123222   3.027   0.492   4.850  1.2525 -0.7212 -1.8569
 7755TIP3    H223223   3.122   0.375   4.863 -0.3442 -1.7313  2.2062
 7756TIP3   OH223224   0.664   7.347   4.474  0.4488 -0.1467  0.1709
 7756TIP3    H123225   0.589   7.295   4.502  0.4330  0.3538  1.0857
 7756TIP3    H223226   0.727   7.341   4.546  1.0533 -0.1032 -0.3457
 7757TIP3   OH223227   6.271   1.423   5.028  0.3195  0.4034  0.5522
 7757TIP3    H123228   6.249   1.509   4.992 -0.3089 -0.8059 -2.1686
 7757TIP3    H223229   6.189   1.389   5.063  0.0007 -0.0968 -0.6604
 7758TIP3   OH223230   7.924   5.393   6.717  0.7271  0.6400 -0.3602
 7758TIP3    H123231   7.991   5.458   6.738  2.1576 -0.0520 -2.4217
 7758TIP3    H223232   7.947   5.316   6.770  0.6891  0.8811  0.0100
 7759TIP3   OH223233   4.761   0.945   2.947 -0.1168 -0.5075  0.6235
 7759TIP3    H123234   4.731   0.922   2.859 -0.6819 -1.7621  1.1158
 7759TIP3    H223235   4.720   1.030   2.965  1.1942  0.4821 -0.8723
 7760TIP3   OH223236   4.533   3.782   4.867  0.1845 -0.4052  0.2708
 7760TIP3    H123237   4.616   3.830   4.864 -0.1226  0.0894 -1.7902
 7760TIP3    H223238   4.527   3.751   4.957  1.4865  1.5348  1.1088
 7761TIP3   OH223239   5.364   3.661   5.051 -0.6981  0.4014  0.2944
 7761TIP3    H123240   5.419   3.638   5.125 -1.3500  1.8454  1.2661
 7761TIP3    H223241   5.396   3.746   5.021 -0.2954 -0.2598 -1.2555
 7762TIP3   OH223242   2.907   7.557   5.991 -0.0987  0.4106  0.4278
 7762TIP3    H123243   2.930   7.479   5.941  0.4955 -0.3208  1.7926
 7762TIP3    H223244   2.978   7.566   6.055 -0.7277  1.4315  1.0077
 7763TIP3   OH223245   2.507   5.129   5.774 -0.7565 -0.0897 -0.4620
 7763TIP3    H123246   2.514   5.057   5.837 -1.9490  0.2761  0.1319
 7763TIP3    H223247   2.597   5.154   5.755 -0.3542  0.2167  1.6328
 7764TIP3   OH223248   6.573   2.191   1.588 -0.1349 -0.5319 -0.1833
 7764TIP3    H123249   6.500   2.138   1.558  1.0546 -1.5070 -1.4749
 7764TIP3    H223250   6.585   2.257   1.521  0.9709 -1.1956 -0.6830
 7765TIP3   OH223251   0.124   0.154   3.471 -0.2543  0.1809  0.2448
 7765TIP3    H123252   0.149   0.067   3.437 -0.1914 -0.4271  1.7850
 7765TIP3    H223253   0.056   0.136   3.536 -1.5023  1.4593 -0.6432
 7766TIP3   OH223254   2.718   5.477   1.392 -0.0916 -0.4110  0.1844
 7766TIP3    H123255   2.789   5.417   1.414 -0.3156 -0.3744  1.0351
 7766TIP3    H223256   2.762   5.558   1.367  0.2687 -1.2224 -2.0925
 7767TIP3   OH223257   2.424   1.442   6.664  0.7910 -0.0871  0.2675
 7767TIP3    H123258   2.460   1.518   6.619  1.3428 -1.3992 -1.6583
 7767TIP3    H223259   2.500   1.388   6.685  0.2801 -0.9727 -0.1077
 7768TIP3   OH223260   2.132   6.096   4.121  0.0470  0.3356  0.4957
 7768TIP3    H123261   2.105   6.054   4.039 -0.1833 -0.4760  0.9772
 7768TIP3    H223262   2.151   6.023   4.180  0.1928  0.9129  1.1726
 7769TIP3   OH223263   3.538   0.632   2.018 -0.6679 -0.1058 -0.2855
 7769TIP3    H123264   3.523   0.710   2.072 -0.3925  0.2407 -0.7056
 7769TIP3    H223265   3.460   0.627   1.962 -0.1147  0.6214 -1.1601
 7770TIP3   OH223266   1.572   1.409   2.843  0.3319 -0.0924 -0.3151
 7770TIP3    H123267   1.626   1.333   2.864  1.7032  1.1615  1.0648
 7770TIP3    H223268   1.579   1.465   2.921 -0.7804  1.3480 -1.1917
 7771TIP3   OH223269   2.546   7.317   0.454  0.2382  0.1066  0.0423
 7771TIP3    H123270   2.551   7.237   0.401 -1.1327 -0.6978  1.0651
 7771TIP3    H223271   2.506   7.382   0.396  0.1665 -0.3129 -0.3851
 7772TIP3   OH223272   7.846   4.331   5.913 -0.0719  0.5662  0.5230
 7772TIP3    H123273   7.773   4.354   5.970 -0.2421 -1.6203  1.2892
 7772TIP3    H223274   7.923   4.367   5.956 -0.3024 -0.3206  1.7382
 7773TIP3   OH223275   4.690   5.344   1.136  0.3040 -0.5293 -0.3355
 7773TIP3    H123276   4.730   5.383   1.214 -0.5543 -0.8230  0.2781
 7773TIP3    H223277   4.721   5.254   1.135 -0.5193 -0.8380  0.2982
 7774TIP3   OH223278   1.346   6.698   3.939 -0.8210 -0.0878  0.0897
 7774TIP3    H123279   1.362   6.616   3.985 -1.6889 -0.8521 -0.9370
 7774TIP3    H223280   1.434   6.734   3.925 -0.4278 -0.8429  0.5162
 7775TIP3   OH223281   2.916   4.295   3.352  0.3420  0.0263 -0.3420
 7775TIP3    H123282   2.894   4.304   3.259  1.3497  0.1270 -0.5795
 7775TIP3    H223283   2.870   4.216   3.380 -0.1112  0.0912 -0.8776
 7776TIP3   OH223284   7.075   5.231   4.342 -0.2760  0.5920  0.1499
 7776TIP3    H123285   7.098   5.232   4.249 -0.4512 -1.5825  0.0427
 7776TIP3    H223286   6.984   5.201   4.343  0.2571 -1.1193  1.0716
 7777TIP3   OH223287   1.386   6.949   0.853  0.6687  0.4650 -0.2071
 7777TIP3    H123288   1.339   7.002   0.788  0.3743  1.1289  0.5296
 7777TIP3    H223289   1.427   6.880   0.802 -0.9982 -0.0646 -0.9162
 7778TIP3   OH223290   4.688   1.416   5.706  0.3288 -0.2115 -0.3199
 7778TIP3    H123291   4.746   1.488   5.682 -1.1581  1.0349 -0.3071
 7778TIP3    H223292   4.600   1.454   5.703 -0.3920 -1.6710  0.9996
 7779TIP3   OH223293   0.716   4.764   0.993 -0.4354 -0.3186 -0.5267
 7779TIP3    H123294   0.626   4.732   1.000 -0.4813  0.0631  0.9840
 7779TIP3    H223295   0.749   4.762   1.082  0.6638  0.6937 -0.8865
 7780TIP3   OH223296   3.417   5.364   6.307  0.1069  0.1043 -0.3577
 7780TIP3    H123297   3.340   5.336   6.356  0.7451  1.1342  1.3522
 7780TIP3    H223298   3.391   5.357   6.215 -1.8423 -0.0768  0.1516
 7781TIP3   OH223299   5.720   0.730   6.086  0.6471  0.0299 -0.0895
 7781TIP3    H123300   5.733   0.779   6.168 -0.1375 -0.3760  0.2949
 7781TIP3    H223301   5.627   0.744   6.066  0.2058 -1.8904  0.4336
 7782TIP3   OH223302   1.019   2.998   3.333  0.1139 -0.2494  0.6029
 7782TIP3    H123303   0.939   2.953   3.305  0.2798 -1.0300  1.3351
 7782TIP3    H223304   0.989   3.065   3.394  0.0221 -0.6487  1.0042
 7783TIP3   OH223305   0.369   2.235   4.603  0.2142 -0.2687  0.1074
 7783TIP3    H123306   0.398   2.145   4.585 -1.3954 -0.9132  0.5181
 7783TIP3    H223307   0.421   2.262   4.678 -0.2608 -1.4191  0.8856
 7784TIP3   OH223308   1.131   0.730   3.145 -0.0046 -0.6115  0.1801
 7784TIP3    H123309   1.092   0.746   3.232  0.0666 -0.1644  0.1322
 7784TIP3    H223310   1.068   0.769   3.084  0.0202 -0.7922  0.0408
 7785TIP3   OH223311   5.700   0.793   2.940  0.4021 -0.1810  0.1497
 7785TIP3    H123312   5.668   0.813   3.028  0.4053  0.5500 -0.0147
 7785TIP3    H223313   5.629   0.741   2.901 -0.8520  1.8392 -0.3805
 7786TIP3   OH223314   4.413   5.191   2.820 -0.0531 -0.3858 -0.4946
 7786TIP3    H123315   4.321   5.167   2.817 -0.7346  1.7191  0.9564
 7786TIP3    H223316   4.437   5.204   2.728 -2.4965  3.1820 -0.8429
 7787TIP3   OH223317   3.528   5.912   5.666  0.4769  0.0172 -0.2167
 7787TIP3    H123318   3.494   5.959   5.589 -1.5280  0.8788  1.1145
 7787TIP3    H223319   3.606   5.961   5.691  1.5820 -0.6767 -2.0343
 7788TIP3   OH223320   8.144   0.401   0.033 -0.3986  0.7824 -0.2475
 7788TIP3    H123321   8.068   0.358  -0.007 -0.7500  0.7859  0.4101
 7788TIP3    H223322   8.115   0.424   0.122  0.2885  1.0053 -0.0769
 7789TIP3   OH223323   4.376   0.695   0.993  0.0717  0.2513 -0.0093
 7789TIP3    H123324   4.295   0.666   0.951  0.7525 -0.7533 -0.6877
 7789TIP3    H223325   4.357   0.691   1.087 -0.6269 -0.0674 -0.1554
 7790TIP3   OH223326   7.457   3.150   5.093 -0.1165 -0.6667 -0.3148
 7790TIP3    H123327   7.480   3.215   5.026  0.1858 -1.0325 -0.5700
 7790TIP3    H223328   7.423   3.202   5.166 -2.6734 -0.3493 -1.6162
 7791TIP3   OH223329   5.503   7.837   4.992  0.2514  0.2783 -0.2658
 7791TIP3    H123330   5.523   7.748   4.962 -1.0252  0.2450 -1.0896
 7791TIP3    H223331   5.427   7.827   5.049 -1.3294  1.0138 -2.1005
 7792TIP3   OH223332   5.810   6.250   6.202  0.5315  0.4005 -0.1944
 7792TIP3    H123333   5.803   6.172   6.257  0.2505 -0.7400 -1.7595
 7792TIP3    H223334   5.723   6.290   6.206  0.2518 -0.1626 -0.4695
 7793TIP3   OH223335   2.288   6.357   0.637 -0.0393  0.4653  0.5321
 7793TIP3    H123336   2.276   6.304   0.717 -0.3314  0.5655  0.5572
 7793TIP3    H223337   2.311   6.293   0.570 -1.7138  0.1024  0.2459
 7794TIP3   OH223338   6.146   0.648   1.053 -0.1125 -0.1120 -0.1835
 7794TIP3    H123339   6.088   0.681   0.983 -1.6026 -0.0102  1.0382
 7794TIP3    H223340   6.142   0.553   1.044 -0.4741 -0.1060 -0.1067
 7795TIP3   OH223341   5.505   5.097   6.027 -0.4389  0.1392 -0.1090
 7795TIP3    H123342   5.498   5.019   5.972  0.0202  0.4796 -0.6613
 7795TIP3    H223343   5.521   5.063   6.115 -1.2788 -0.4132 -0.1560
 7796TIP3   OH223344   2.334   3.604   5.380 -0.6898  0.0552  0.1002
 7796TIP3    H123345   2.303   3.595   5.470 -0.0846  0.7627  0.3973
 7796TIP3    H223346   2.419   3.648   5.389 -0.0793 -0.8958 -0.7437
 7797TIP3   OH223347   0.257   7.349   3.453  0.5060 -0.1743 -0.4788
 7797TIP3    H123348   0.350   7.344   3.432  0.8756  2.2146  0.1887
 7797TIP3    H223349   0.252   7.329   3.546  0.0934 -1.9326 -0.8541
 7798TIP3   OH223350   7.695   6.012   6.210  0.3047 -0.1042 -0.4783
 7798TIP3    H123351   7.647   6.085   6.172  2.0308  0.7813 -1.0837
 7798TIP3    H223352   7.677   5.938   6.152 -1.1533 -0.0987 -0.0749
 7799TIP3   OH223353   6.727   2.280   3.127 -0.6531 -0.2741 -0.9716
 7799TIP3    H123354   6.780   2.269   3.206  0.0415  0.8675 -1.2577
 7799TIP3    H223355   6.720   2.192   3.091  0.1883 -0.6071 -0.3719
 7800TIP3   OH223356   0.839   3.493   4.927 -0.4261 -0.2374  0.7154
 7800TIP3    H123357   0.907   3.559   4.943 -0.2443 -0.4286  0.7450
 7800TIP3    H223358   0.870   3.445   4.849 -2.2192  1.9042 -1.4669
 7801TIP3   OH223359   2.902   7.817   0.267  0.2084 -0.9546 -0.1884
 7801TIP3    H123360   2.913   7.867   0.348  1.6379 -2.5002  0.6422
 7801TIP3    H223361   2.830   7.757   0.286 -0.8053  0.0487 -0.8065
 7802TIP3   OH223362   3.707   3.792   2.032  0.0581 -0.2197 -0.1268
 7802TIP3    H123363   3.679   3.881   2.011  0.9604 -0.0105 -0.4895
 7802TIP3    H223364   3.793   3.784   1.992 -1.1210 -2.2120 -2.5686
 7803TIP3   OH223365   4.085   1.013   2.909 -0.0615  0.2649 -0.5212
 7803TIP3    H123366   4.054   0.956   2.838 -0.4834 -0.0016 -0.1321
 7803TIP3    H223367   4.118   0.952   2.975 -1.1399  0.4253  0.1961
 7804TIP3   OH223368   4.399   2.265   3.700  0.1615 -1.2141  0.7591
 7804TIP3    H123369   4.356   2.207   3.638  0.7291  0.0189 -0.8484
 7804TIP3    H223370   4.333   2.280   3.768 -1.4524 -0.5334 -0.8811
 7805TIP3   OH223371   8.078   0.891   3.747 -0.3761  0.3139  0.1733
 7805TIP3    H123372   8.069   0.888   3.652  0.8199  0.3911  0.0511
 7805TIP3    H223373   8.010   0.832   3.779 -2.6674  2.3801 -0.5735
 7806TIP3   OH223374   5.119   6.206   6.336 -1.0930  0.4086 -0.6764
 7806TIP3    H123375   5.059   6.280   6.342 -1.4482  0.3104 -2.5082
 7806TIP3    H223376   5.170   6.221   6.256 -0.6478 -0.9253 -0.6806
 7807TIP3   OH223377   2.010   6.218   1.318 -0.0783  0.2081 -0.2303
 7807TIP3    H123378   1.922   6.187   1.299  0.0182 -0.4906  0.3994
 7807TIP3    H223379   2.056   6.215   1.234 -0.6890  0.7373 -0.5921
 7808TIP3   OH223380   1.019   1.560   2.136 -0.4424 -0.4033  0.1164
 7808TIP3    H123381   1.045   1.593   2.222 -0.6543 -0.2221  0.1123
 7808TIP3    H223382   1.093   1.579   2.079  0.0454 -1.2857  0.4441
 7809TIP3   OH223383   0.386   3.740   3.554  0.3579  0.4047  0.2428
 7809TIP3    H123384   0.294   3.738   3.527  0.4075 -0.5973  0.0943
 7809TIP3    H223385   0.397   3.659   3.605  1.1739  0.4786  0.1918
 7810TIP3   OH223386   1.464   7.710   5.602 -0.3882  0.7740  0.2523
 7810TIP3    H123387   1.403   7.643   5.570 -0.5583  1.0511 -0.0111
 7810TIP3    H223388   1.523   7.726   5.528 -1.8266  2.6527 -0.5801
 7811TIP3   OH223389   7.521   6.544   6.295  0.5851  0.1969  0.1997
 7811TIP3    H123390   7.616   6.560   6.295  0.3464  1.7241 -0.0274
 7811TIP3    H223391   7.483   6.623   6.257 -0.7430 -0.7475 -0.5280
 7812TIP3   OH223392   7.136   7.181   5.637  0.1182  0.0528  0.6888
 7812TIP3    H123393   7.165   7.091   5.622 -1.4038 -0.2767 -0.5736
 7812TIP3    H223394   7.055   7.189   5.587 -0.2236  1.8927  1.4364
 7813TIP3   OH223395   6.034   3.524   0.966 -0.2353 -0.0170  0.7118
 7813TIP3    H123396   5.949   3.495   0.999 -0.6306  2.1332  1.7368
 7813TIP3    H223397   6.014   3.574   0.888  0.3467 -1.4688 -0.4188
 7814TIP3   OH223398   3.019   2.136   1.046  0.3274 -0.1508 -0.3970
 7814TIP3    H123399   2.937   2.104   1.010 -0.6179 -1.4558  2.6149
 7814TIP3    H223400   3.064   2.057   1.076  2.0200  0.6739 -0.6346
 7815TIP3   OH223401   0.434   1.398   2.677  0.1698 -0.1292  0.3260
 7815TIP3    H123402   0.518   1.410   2.633  0.2836  0.7852  0.7582
 7815TIP3    H223403   0.456   1.393   2.770 -0.2160 -0.2692  0.4128
 7816TIP3   OH223404   5.882   5.109   1.871  0.0451 -0.1894 -0.0265
 7816TIP3    H123405   5.843   5.068   1.793  1.9441  1.1986 -1.8204
 7816TIP3    H223406   5.952   5.050   1.896 -0.4659 -0.5557  0.5703
 7817TIP3   OH223407   0.755   7.348   0.480  0.1915 -0.3810 -0.5019
 7817TIP3    H123408   0.811   7.418   0.446  1.0810 -0.8216  0.0006
 7817TIP3    H223409   0.690   7.334   0.412  0.8443 -0.0167 -1.2217
 7818TIP3   OH223410   0.321   7.451   5.217  0.4182 -0.2315  0.3101
 7818TIP3    H123411   0.404   7.494   5.199  0.9671 -1.0298  0.8323
 7818TIP3    H223412   0.311   7.457   5.312 -0.0464 -0.2720  0.2670
 7819TIP3   OH223413   7.653   2.092   1.568 -1.0058 -0.1509 -0.8327
 7819TIP3    H123414   7.716   2.158   1.597  0.7879 -2.5557  1.1845
 7819TIP3    H223415   7.588   2.088   1.638 -0.7317 -0.9692 -0.6172
 7820TIP3   OH223416   0.201   7.789   0.250 -0.3634  0.5148  0.4269
 7820TIP3    H123417   0.250   7.727   0.197 -0.9344  0.6578 -0.2776
 7820TIP3    H223418   0.113   7.751   0.257 -0.6150  1.0623  0.3001
 7821TIP3   OH223419   1.998   2.403   6.354  0.0382 -0.0497  0.5018
 7821TIP3    H123420   1.995   2.319   6.310 -1.5755  0.5884 -0.6904
 7821TIP3    H223421   1.984   2.383   6.446 -1.8689 -0.9950  0.0510
 7822TIP3   OH223422   0.937   1.007   5.565 -0.2179  0.1242  0.0958
 7822TIP3    H123423   0.994   1.011   5.642  0.7460 -0.5845 -0.5620
 7822TIP3    H223424   0.973   1.073   5.505 -0.5586  0.2043 -0.0214
 7823TIP3   OH223425   6.803   2.519   3.542 -0.0067  0.0548  0.2648
 7823TIP3    H123426   6.855   2.474   3.609  0.2614 -0.0513 -0.0089
 7823TIP3    H223427   6.831   2.610   3.548  0.4456 -0.0585 -0.0952
 7824TIP3   OH223428   2.987   1.502   1.758 -0.4311 -0.1042 -0.5895
 7824TIP3    H123429   2.924   1.564   1.723 -0.6200  0.6087  0.9217
 7824TIP3    H223430   3.048   1.555   1.808 -1.7437 -1.1892  2.4648
 7825TIP3   OH223431   7.592   1.843   1.488 -0.4676  0.5108 -0.2700
 7825TIP3    H123432   7.582   1.783   1.562  0.3621 -0.0576 -0.6085
 7825TIP3    H223433   7.604   1.929   1.529  2.6243 -0.1385  0.3974
 7826TIP3   OH223434   8.168   7.245   4.447 -0.1495  0.2758 -0.2695
 7826TIP3    H123435   8.250   7.275   4.488  0.6184  1.1009 -2.2498
 7826TIP3    H223436   8.135   7.177   4.505  1.0622  1.1005  1.4583
 7827TIP3   OH223437   0.880   4.599   6.419 -0.0598 -0.3127  0.3456
 7827TIP3    H123438   0.958   4.655   6.422 -0.0389 -0.2905 -0.3315
 7827TIP3    H223439   0.879   4.566   6.329 -1.1933  0.2128  0.1525
 7828TIP3   OH223440   0.098   1.730   1.715  0.2994 -0.1762  0.5747
 7828TIP3    H123441   0.007   1.727   1.745  0.5342 -0.7043  1.2649
 7828TIP3    H223442   0.141   1.660   1.764  1.1236  0.2096  0.4118
 7829TIP3   OH223443   5.052   3.368   0.700 -0.3483 -0.0450  0.2754
 7829TIP3    H123444   5.035   3.282   0.660  0.3202 -0.2497  0.4274
 7829TIP3    H223445   5.025   3.357   0.792  0.3577 -0.2931  0.4550
 7830TIP3   OH223446   2.430   5.173   5.481  0.9163 -0.3817 -0.2443
 7830TIP3    H123447   2.409   5.092   5.527  0.5727 -0.8307 -1.1550
 7830TIP3    H223448   2.384   5.241   5.530 -1.9023 -1.1944 -1.5073
 7831TIP3   OH223449   5.407   1.824   6.762 -0.5379  0.5678  0.2603
 7831TIP3    H123450   5.490   1.776   6.757 -0.7408  0.0946  1.2687
 7831TIP3    H223451   5.412   1.887   6.690  0.9486  0.9335  0.6486
 7832TIP3   OH223452   2.321   2.629   2.467 -0.3279  0.1021  0.0842
 7832TIP3    H123453   2.343   2.629   2.560 -1.3597  0.7240  0.3552
 7832TIP3    H223454   2.237   2.675   2.463  0.2322  1.0863 -1.2819
 7833TIP3   OH223455   4.305   7.243   0.111 -0.3468  0.0284  0.1054
 7833TIP3    H123456   4.250   7.263   0.035 -2.1210 -2.7734  0.5278
 7833TIP3    H223457   4.373   7.185   0.078  0.6985  1.1865  0.1469
 7834TIP3   OH223458   3.015   2.299   6.486 -0.0604  0.0573  0.0057
 7834TIP3    H123459   2.993   2.243   6.560 -1.8552  0.2719 -0.3184
 7834TIP3    H223460   3.069   2.369   6.524 -0.7777  0.0573  1.0827
 7835TIP3   OH223461   3.458   1.932   2.695  0.2493  0.5443  0.2112
 7835TIP3    H123462   3.367   1.905   2.687  0.2777  0.8861 -1.7349
 7835TIP3    H223463   3.488   1.942   2.605  3.0759 -2.3127  0.6637
 7836TIP3   OH223464   1.617   2.266   0.086  0.1998 -0.1967  0.0675
 7836TIP3    H123465   1.626   2.274   0.180 -0.6074 -0.8538  0.2200
 7836TIP3    H223466   1.694   2.217   0.058 -0.5540 -1.8060  0.6896
 7837TIP3   OH223467   1.373   0.973   4.034 -0.5180 -0.2134  0.2899
 7837TIP3    H123468   1.285   0.998   4.006 -0.2167  0.5005 -0.0266
 7837TIP3    H223469   1.374   0.878   4.025 -1.8630 -0.4500  2.0544
 7838TIP3   OH223470   0.402   4.328   3.010 -0.1694  0.0569  0.0037
 7838TIP3    H123471   0.496   4.319   3.026 -0.2590  0.1764  0.6073
 7838TIP3    H223472   0.377   4.247   2.967 -0.5698 -1.8238  3.4357
 7839TIP3   OH223473   2.015   0.907   6.511 -0.3633  0.1892 -0.3386
 7839TIP3    H123474   1.977   0.945   6.590  2.5179  1.0597  0.7753
 7839TIP3    H223475   2.039   0.983   6.458 -0.3841 -0.3242 -1.0977
 7840TIP3   OH223476   5.864   0.152   3.089  0.0019 -0.1242 -0.3848
 7840TIP3    H123477   5.920   0.177   3.163 -1.2024  2.5095 -0.2594
 7840TIP3    H223478   5.786   0.206   3.098 -1.3411 -1.6072 -2.1742
 7841TIP3   OH223479   6.200   2.633   2.056 -0.2332  0.1909 -0.0706
 7841TIP3    H123480   6.261   2.674   2.117  1.0997  0.2101 -1.3483
 7841TIP3    H223481   6.251   2.623   1.975 -2.0460  0.5389 -1.3086
 7842TIP3   OH223482   2.707   0.895   0.076  0.1204  0.2240  0.5676
 7842TIP3    H123483   2.625   0.939   0.052  0.2979  1.3290  1.8664
 7842TIP3    H223484   2.684   0.803   0.083 -0.5927  0.2782 -0.8402
 7843TIP3   OH223485   4.482   5.911   3.182 -1.1188  0.4168 -0.0088
 7843TIP3    H123486   4.528   5.900   3.266  0.6352  1.0134 -0.8541
 7843TIP3    H223487   4.525   5.986   3.141 -0.0484 -1.4945 -2.6208
 7844TIP3   OH223488   6.484   1.683   0.509  0.4506  0.3570  0.3226
 7844TIP3    H123489   6.551   1.665   0.575  1.2825 -1.7555 -0.9894
 7844TIP3    H223490   6.406   1.637   0.540  0.8170 -0.5641 -0.0778
 7845TIP3   OH223491   5.512   2.002   3.681 -0.1926 -0.1855 -0.1249
 7845TIP3    H123492   5.469   1.930   3.635  0.3127  0.3150 -1.4464
 7845TIP3    H223493   5.447   2.072   3.682 -0.7044 -0.6606  1.2110
 7846TIP3   OH223494   1.380   4.534   3.508 -0.2404  0.0009 -0.3696
 7846TIP3    H123495   1.359   4.470   3.440 -0.9166 -0.4373  0.2271
 7846TIP3    H223496   1.295   4.557   3.546  0.1428 -0.0033  0.5299
 7847TIP3   OH223497   4.507   3.325   2.144 -0.1714 -0.4285 -0.3238
 7847TIP3    H123498   4.467   3.328   2.230  0.5077 -0.3187 -0.0017
 7847TIP3    H223499   4.512   3.232   2.122 -1.6353 -0.3931 -0.8745
 7848TIP3   OH223500   2.766   0.139   5.239 -0.0755 -0.0046  0.0802
 7848TIP3    H123501   2.742   0.127   5.147 -1.2631 -0.1127  0.3836
 7848TIP3    H223502   2.828   0.212   5.239  0.0318 -0.0884 -0.8164
 7849TIP3   OH223503   5.038   7.322   5.160  0.1698  0.2567 -0.1204
 7849TIP3    H123504   5.064   7.379   5.088 -0.1528 -0.2978 -0.6872
 7849TIP3    H223505   5.074   7.364   5.239  0.1357  1.1041 -0.5483
 7850TIP3   OH223506   0.288   6.567   4.881  0.2613  0.0924  0.0007
 7850TIP3    H123507   0.264   6.487   4.929  2.8773 -1.4088 -0.9766
 7850TIP3    H223508   0.210   6.621   4.884 -0.6884 -1.2259  3.2667
 7851TIP3   OH223509   6.759   6.099   0.416  0.0405 -0.7554  0.1278
 7851TIP3    H123510   6.718   6.088   0.502 -0.2207 -0.9747 -0.0206
 7851TIP3    H223511   6.846   6.060   0.426 -0.5099 -2.1148 -0.1036
 7852TIP3   OH223512   2.742   7.421   3.049 -0.3662 -0.2951  0.7410
 7852TIP3    H123513   2.733   7.456   3.137 -1.5893  0.6246  0.2727
 7852TIP3    H223514   2.661   7.372   3.034 -0.4691  0.1128 -0.0998
 7853TIP3   OH223515   6.899   5.155   1.482 -0.1547 -0.1545 -0.1663
 7853TIP3    H123516   6.987   5.179   1.512  0.8288 -0.3108 -2.6664
 7853TIP3    H223517   6.911   5.130   1.391 -2.9493  0.6601 -0.8663
 7854TIP3   OH223518   0.235   3.526   5.713  0.1897 -0.0875  0.3351
 7854TIP3    H123519   0.179   3.461   5.670 -0.7659 -0.3817  1.9213
 7854TIP3    H223520   0.217   3.608   5.667 -4.2074  0.6091  2.7072
 7855TIP3   OH223521   3.435   3.132   4.053  0.0511 -0.1369 -0.0497
 7855TIP3    H123522   3.414   3.072   3.982 -0.3583  0.1684 -0.1908
 7855TIP3    H223523   3.417   3.219   4.016  2.4650  0.2355 -0.5269
 7856TIP3   OH223524   7.067   5.851   1.026 -0.1645  0.5708  0.4079
 7856TIP3    H123525   6.979   5.842   0.990  0.3271  0.5081 -0.8137
 7856TIP3    H223526   7.054   5.847   1.121 -1.1771 -2.4800  0.2526
 7857TIP3   OH223527   5.475   5.553   6.461 -0.1973 -0.2484  0.3433
 7857TIP3    H123528   5.473   5.618   6.532  2.5829  0.6409 -0.2508
 7857TIP3    H223529   5.435   5.598   6.386 -0.7944 -0.2549  0.6518
 7858TIP3   OH223530   2.625   4.981   1.563  0.3831 -0.5331  0.3322
 7858TIP3    H123531   2.665   4.924   1.629  1.4184 -1.3380 -0.9523
 7858TIP3    H223532   2.688   5.053   1.553 -0.5411  0.4665  1.3618
 7859TIP3   OH223533   1.094   1.604   6.719  0.1013 -0.2758  0.1220
 7859TIP3    H123534   1.177   1.634   6.755 -0.2506 -1.1314  1.7073
 7859TIP3    H223535   1.029   1.622   6.788 -0.9837  0.0127 -0.9265
 7860TIP3   OH223536   5.316   4.416   1.605 -0.1085  0.0300  0.3392
 7860TIP3    H123537   5.304   4.494   1.551 -0.1716 -0.0084  0.2982
 7860TIP3    H223538   5.385   4.441   1.668  0.4753 -0.1662 -0.2112
 7861TIP3   OH223539   7.567   5.643   1.699  0.4549  0.3076  0.0752
 7861TIP3    H123540   7.524   5.558   1.686  4.6594 -2.3116  1.1981
 7861TIP3    H223541   7.592   5.672   1.612 -0.6550  0.2307 -0.2820
 7862TIP3   OH223542   2.316   5.115   0.186 -0.5207 -0.3812 -0.0004
 7862TIP3    H123543   2.238   5.067   0.159  0.1506 -2.1232  0.9794
 7862TIP3    H223544   2.386   5.081   0.130 -0.3464  0.8029 -0.5313
 7863TIP3   OH223545   7.843   0.139   4.222 -0.4393  0.0235 -0.2649
 7863TIP3    H123546   7.811   0.114   4.135  1.2637  0.6567 -1.1114
 7863TIP3    H223547   7.853   0.055   4.268  0.0348 -0.4422 -1.1886
 7864TIP3   OH223548   3.925   3.085   4.828  0.0928 -0.2198 -0.6412
 7864TIP3    H123549   3.887   3.137   4.899  2.2593  1.2199 -0.4545
 7864TIP3    H223550   3.907   2.994   4.853 -0.6605  0.3132  0.8650
 7865TIP3   OH223551   2.648   2.501   1.821  0.4494 -0.4102  0.9687
 7865TIP3    H123552   2.600   2.419   1.825  1.0083 -0.8810 -0.8824
 7865TIP3    H223553   2.719   2.491   1.885 -0.3223 -0.7773  1.7802
 7866TIP3   OH223554   5.780   1.921   3.801 -0.0594  0.1462  0.3962
 7866TIP3    H123555   5.711   1.940   3.737  0.6524 -0.6188 -0.6199
 7866TIP3    H223556   5.761   1.980   3.874 -0.4649  1.5734 -0.8107
 7867TIP3   OH223557   1.250   2.051   0.938 -0.4403 -0.1070  0.1464
 7867TIP3    H123558   1.240   2.013   0.851 -1.7357 -0.8294  0.5953
 7867TIP3    H223559   1.249   2.146   0.923 -0.0035 -0.2211 -0.6820
 7868TIP3   OH223560   4.711   1.965   5.210  0.3960  0.2314 -0.0909
 7868TIP3    H123561   4.708   1.986   5.117  0.2148  1.3921  0.1605
 7868TIP3    H223562   4.653   1.888   5.219  0.4012  0.1236 -0.9211
 7869TIP3   OH223563   2.176   5.522   5.075  0.1376 -0.4925  0.4117
 7869TIP3    H123564   2.179   5.552   4.984 -1.1806 -0.9624  0.1973
 7869TIP3    H223565   2.249   5.461   5.082  0.7378  0.1452 -0.0984
 7870TIP3   OH223566   1.468   1.810   0.556 -0.5423  0.0974  0.4187
 7870TIP3    H123567   1.459   1.740   0.492 -2.3557  1.7076 -1.2200
 7870TIP3    H223568   1.563   1.825   0.562 -0.2615 -1.0717 -0.7508
 7871TIP3   OH223569   2.246   3.578   4.079  0.4328  0.2305 -0.6747
 7871TIP3    H123570   2.203   3.520   4.016 -0.8891 -0.6299  0.9339
 7871TIP3    H223571   2.174   3.629   4.117  1.2558  1.0583 -0.2029
 7872TIP3   OH223572   5.108   2.896   6.028 -0.2866  0.3141  0.3095
 7872TIP3    H123573   5.021   2.925   6.003  1.1395  3.7119 -1.3541
 7872TIP3    H223574   5.134   2.835   5.958 -1.8399 -2.0642  1.7021
 7873TIP3   OH223575   5.511   0.587   2.856  0.1033 -0.0691  0.0926
 7873TIP3    H123576   5.514   0.540   2.772 -2.4504  2.3135 -1.5135
 7873TIP3    H223577   5.423   0.569   2.890  0.6434  0.0774  1.6399
 7874TIP3   OH223578   7.644   1.947   0.305 -0.0745  0.3745 -0.1368
 7874TIP3    H123579   7.641   1.971   0.212 -2.0598  1.3105  0.1190
 7874TIP3    H223580   7.656   2.030   0.351  0.0964  0.0064  0.4978
 7875TIP3   OH223581   6.327   7.046   3.056  0.1573  0.3222 -0.6014
 7875TIP3    H123582   6.349   6.969   3.109 -0.6975 -1.6927 -2.9408
 7875TIP3    H223583   6.231   7.047   3.054  0.1470  1.7666 -0.2173
 7876TIP3   OH223584   0.543   6.053   2.749 -0.7138 -0.1490 -0.0418
 7876TIP3    H123585   0.453   6.084   2.763 -0.7115  0.1868 -0.7225
 7876TIP3    H223586   0.536   5.991   2.677 -0.6970 -1.7218  1.2384
 7877TIP3   OH223587   1.035   7.775   5.626 -0.2351 -0.3808 -0.6442
 7877TIP3    H123588   1.044   7.787   5.720 -4.1158  0.4458 -0.2157
 7877TIP3    H223589   1.035   7.680   5.614  3.7140 -0.5551 -0.4184
 7878TIP3   OH223590   1.989   7.433   3.811  0.1460  0.1416 -0.1558
 7878TIP3    H123591   1.893   7.429   3.812 -0.0214  2.5446  0.9084
 7878TIP3    H223592   2.011   7.459   3.722 -0.5018  2.8490  0.3791
 7879TIP3   OH223593   6.461   3.496   0.531  0.7786  0.2864  0.2912
 7879TIP3    H123594   6.440   3.495   0.624  1.9306 -1.9596  0.5980
 7879TIP3    H223595   6.391   3.548   0.491 -2.1695 -2.1042  1.9008
 7880TIP3   OH223596   6.423   5.962   3.160 -0.4590  0.5746  0.0175
 7880TIP3    H123597   6.367   6.038   3.178 -1.0285 -0.1749  1.6837
 7880TIP3    H223598   6.437   5.922   3.246 -0.9490 -1.7176 -0.8815
 7881TIP3   OH223599   1.700   1.931   3.487 -0.1470 -0.4639 -0.6493
 7881TIP3    H123600   1.703   2.021   3.456 -1.6074 -0.3314 -0.4886
 7881TIP3    H223601   1.612   1.921   3.525  0.2101 -1.7605 -0.0801
 7882TIP3   OH223602   6.117   5.551   4.441  0.4578  0.4778  0.1213
 7882TIP3    H123603   6.181   5.610   4.401  1.0183  1.0560  1.7681
 7882TIP3    H223604   6.041   5.554   4.382  1.5388  0.6188 -1.3046
 7883TIP3   OH223605   7.677   5.109   0.185  0.2784  0.2551 -0.0665
 7883TIP3    H123606   7.765   5.119   0.222  0.4529  0.4939 -0.5324
 7883TIP3    H223607   7.676   5.020   0.151 -0.3828 -0.4832  1.7782
 7884TIP3   OH223608   6.338   1.811   1.814  0.5805 -0.6052  0.0365
 7884TIP3    H123609   6.248   1.837   1.835 -0.1856 -3.2847  0.5038
 7884TIP3    H223610   6.393   1.876   1.857 -1.1172 -0.3737  1.9890
 7885TIP3   OH223611   7.228   5.643   2.254  0.1206 -0.8006 -0.2421
 7885TIP3    H123612   7.226   5.604   2.166 -0.5067  1.4140 -1.2771
 7885TIP3    H223613   7.318   5.672   2.265 -0.1800  0.4901 -0.9412
 7886TIP3   OH223614   2.516   0.370   5.661 -0.0889  0.0472 -0.5967
 7886TIP3    H123615   2.579   0.323   5.607  0.3264 -0.2450  0.1171
 7886TIP3    H223616   2.435   0.319   5.653  0.2529 -0.5917 -0.1304
 7887TIP3   OH223617   4.193   0.383   5.256  0.3884 -0.4304  0.2568
 7887TIP3    H123618   4.130   0.427   5.200  0.5343 -0.1930  0.2780
 7887TIP3    H223619   4.142   0.353   5.331 -0.1113 -2.1347 -0.7307
 7888TIP3   OH223620   8.188   5.140   3.096  0.3192 -0.1508 -0.1164
 7888TIP3    H123621   8.106   5.162   3.050 -0.5344  0.3865  1.5833
 7888TIP3    H223622   8.223   5.224   3.125  1.6491 -0.3520 -1.0453
 7889TIP3   OH223623   2.226   5.830   5.958 -0.0115 -0.7073 -0.6865
 7889TIP3    H123624   2.287   5.887   5.911 -0.9955  1.6231  0.6842
 7889TIP3    H223625   2.278   5.790   6.028  0.1481  0.6788  0.0109
 7890TIP3   OH223626   2.119   3.828   3.380  0.7594 -0.7721 -0.3296
 7890TIP3    H123627   2.132   3.921   3.364 -0.0741 -0.7323 -0.8613
 7890TIP3    H223628   2.024   3.816   3.374  0.5743 -1.2114  2.2704
 7891TIP3   OH223629   6.314   1.046   3.543  0.0160 -0.2727 -0.2586
 7891TIP3    H123630   6.249   0.976   3.553 -1.0515  0.7738  0.3278
 7891TIP3    H223631   6.263   1.127   3.546  1.4390  0.6416  1.4523
 7892TIP3   OH223632   2.388   1.174   4.523 -0.4781  0.4591  0.6568
 7892TIP3    H123633   2.415   1.118   4.597  0.7907  0.8139  0.4846
 7892TIP3    H223634   2.470   1.196   4.479 -1.0180  1.9526  0.3525
 7893TIP3   OH223635   7.141   5.598   6.140 -0.5029 -0.5272 -0.0287
 7893TIP3    H123636   7.174   5.598   6.230 -0.8183  0.2351  0.0915
 7893TIP3    H223637   7.078   5.526   6.138 -0.4550 -0.5819  0.3407
 7894TIP3   OH223638   0.469   1.804   2.310  0.9132  0.0932 -0.2092
 7894TIP3    H123639   0.384   1.769   2.338  1.6637 -1.5649  0.0978
 7894TIP3    H223640   0.453   1.898   2.296 -1.1281 -0.3078 -0.8256
 7895TIP3   OH223641   4.712   5.176   2.429  0.3804 -0.3364  0.2403
 7895TIP3    H123642   4.635   5.210   2.382 -0.7521 -1.0820  1.4965
 7895TIP3    H223643   4.756   5.254   2.463 -0.2774  0.0542  0.2069
 7896TIP3   OH223644   0.624   2.174   3.146  0.1052  0.1035 -0.0638
 7896TIP3    H123645   0.647   2.179   3.054  1.2317 -1.2485  0.1101
 7896TIP3    H223646   0.640   2.262   3.180  0.4818  0.3934 -0.9807
 7897TIP3   OH223647   5.266   4.831   4.927  0.4401  0.6647  0.8436
 7897TIP3    H123648   5.235   4.848   5.016 -0.8952  2.0581  0.1502
 7897TIP3    H223649   5.308   4.745   4.932  0.2018  0.6200  2.7566
 7898TIP3   OH223650   0.506   3.138   5.282  0.0825  0.1671 -0.3624
 7898TIP3    H123651   0.426   3.084   5.282  0.4387 -0.4024 -1.7174
 7898TIP3    H223652   0.576   3.076   5.302  0.1134  0.8721  1.9908
 7899TIP3   OH223653   2.905   1.947   1.656  0.1308  0.0251 -0.1292
 7899TIP3    H123654   2.845   2.022   1.653  0.3030  0.2585  1.4822
 7899TIP3    H223655   2.976   1.972   1.597  0.9645  1.8855  1.5135
 7900TIP3   OH223656   6.083   6.073   3.407  0.1882  0.0634 -0.4018
 7900TIP3    H123657   6.150   6.112   3.351 -0.0202 -0.3311 -0.9364
 7900TIP3    H223658   6.074   5.983   3.375  1.1382 -0.6585  1.2196
 7901TIP3   OH223659   0.715   2.874   6.386 -0.0677  0.4170  0.5943
 7901TIP3    H123660   0.702   2.809   6.455  0.5463  0.1118  0.4245
 7901TIP3    H223661   0.748   2.951   6.433  0.2179  0.2556  0.6577
 7902TIP3   OH223662   3.401   4.675   0.922 -0.1858  0.5944 -0.2046
 7902TIP3    H123663   3.472   4.631   0.875 -0.7215 -0.6450  0.0943
 7902TIP3    H223664   3.321   4.645   0.879 -0.6571 -0.0726  1.0582
 7903TIP3   OH223665   7.927   2.798   0.229 -0.1193 -0.2781 -0.1043
 7903TIP3    H123666   7.956   2.888   0.244  1.0279 -0.7187  0.4751
 7903TIP3    H223667   7.978   2.746   0.291 -1.9830 -1.1509  0.7807
 7904TIP3   OH223668   2.531   6.456   0.879  0.2325 -0.6118 -0.3078
 7904TIP3    H123669   2.548   6.522   0.947 -0.3758 -0.3323 -0.4118
 7904TIP3    H223670   2.586   6.382   0.903 -1.5752 -1.3894  1.7694
 7905TIP3   OH223671   6.015   3.236   0.706 -0.3748  0.4149  0.1049
 7905TIP3    H123672   6.110   3.240   0.707 -0.2747 -0.3736 -1.8484
 7905TIP3    H223673   5.994   3.142   0.706 -1.0775  0.5493 -0.7106
 7906TIP3   OH223674   1.011   4.887   3.885  0.4553 -0.4240  0.4436
 7906TIP3    H123675   0.965   4.818   3.932  0.7127 -1.3694 -0.6419
 7906TIP3    H223676   1.021   4.958   3.949 -1.5746 -0.5950  1.0039
 7907TIP3   OH223677   8.018   5.806   4.600 -0.5901  0.8159  0.0501
 7907TIP3    H123678   8.000   5.773   4.688 -1.8935  0.1872 -0.4300
 7907TIP3    H223679   8.113   5.814   4.596 -0.2859 -1.7290  0.6352
 7908TIP3   OH223680   4.823   4.244   2.915  0.2303 -0.0516  0.0134
 7908TIP3    H123681   4.846   4.211   2.828  2.5481 -0.7727  0.8260
 7908TIP3    H223682   4.902   4.286   2.947 -0.4864 -0.0144  1.8703
 7909TIP3   OH223683   4.194   0.630   0.387 -0.0640  0.5123  0.3967
 7909TIP3    H123684   4.255   0.557   0.389 -1.4879 -0.7926 -1.1171
 7909TIP3    H223685   4.211   0.678   0.468  0.0748 -2.1905  2.0960
 7910TIP3   OH223686   4.256   3.945   5.913  0.2599  0.1000 -0.9371
 7910TIP3    H123687   4.170   3.909   5.932 -0.1899  1.2310 -0.7652
 7910TIP3    H223688   4.310   3.919   5.989 -0.7115  1.8987  0.4571
 7911TIP3   OH223689   2.933   4.722   3.597 -0.0207  0.4465 -0.0617
 7911TIP3    H123690   2.907   4.629   3.597 -0.4911  0.5592  1.2257
 7911TIP3    H223691   2.870   4.764   3.655  1.7073  1.1188  1.4214
 7912TIP3   OH223692   5.186   1.916   0.469  0.6335  0.6368  0.0734
 7912TIP3    H123693   5.273   1.939   0.438  1.1596 -0.9254  0.3196
 7912TIP3    H223694   5.132   1.912   0.390  1.4808 -1.2474 -0.4739
 7913TIP3   OH223695   1.032   3.628   0.935  0.3141  0.6219  0.2863
 7913TIP3    H123696   1.072   3.679   0.864  1.7024 -1.2079 -0.3538
 7913TIP3    H223697   0.941   3.618   0.908  0.5562  0.9020 -0.7058
 7914TIP3   OH223698   1.152   3.091   1.962 -0.1119 -0.1615 -0.3563
 7914TIP3    H123699   1.232   3.044   1.985  0.0340 -0.5659 -1.5904
 7914TIP3    H223700   1.082   3.040   2.003  0.1082 -1.0282 -1.0261
 7915TIP3   OH223701   5.687   5.793   1.764 -0.3873 -0.5791 -0.0428
 7915TIP3    H123702   5.621   5.737   1.723 -0.3998 -1.0925  0.6493
 7915TIP3    H223703   5.641   5.875   1.782 -0.7896 -0.8575  0.2330
 7916TIP3   OH223704   5.457   4.403   2.338  0.7552  0.6996 -0.1013
 7916TIP3    H123705   5.421   4.478   2.291  1.5634  0.5815 -0.9160
 7916TIP3    H223706   5.529   4.439   2.389 -0.4951  0.9482  1.5901
 7917TIP3   OH223707   2.715   5.293   6.700  0.6341 -0.0822 -0.3867
 7917TIP3    H123708   2.777   5.223   6.721 -0.3421 -1.6133 -2.2309
 7917TIP3    H223709   2.656   5.296   6.774  1.0465 -0.8208 -0.0156
 7918TIP3   OH223710   7.996   1.720   6.024  0.1651  0.0348  0.2612
 7918TIP3    H123711   8.014   1.813   6.036  0.6787 -0.0130 -0.1106
 7918TIP3    H223712   7.910   1.706   6.065 -0.4030  0.8799 -0.6017
 7919TIP3   OH223713   4.478   3.928   2.595  0.7422 -0.1106  0.7576
 7919TIP3    H123714   4.435   4.000   2.641 -0.7280  0.3373 -1.2237
 7919TIP3    H223715   4.535   3.888   2.662  1.2991  2.5847  2.0354
 7920TIP3   OH223716   3.469   0.695   2.528 -0.3434  0.2120 -0.0803
 7920TIP3    H123717   3.407   0.747   2.476 -1.0433  0.4961  1.0116
 7920TIP3    H223718   3.414   0.646   2.590  0.5176  0.5105  0.9518
 7921TIP3   OH223719   0.394   3.185   0.576  0.7963  0.3067 -0.3290
 7921TIP3    H123720   0.387   3.107   0.521 -0.3591  0.0265  0.1992
 7921TIP3    H223721   0.475   3.173   0.625  1.1719 -0.0472 -1.0174
 7922TIP3   OH223722   0.630   1.301   1.297 -0.7285 -0.2587 -0.0645
 7922TIP3    H123723   0.546   1.348   1.295 -0.9904 -0.7118  0.2233
 7922TIP3    H223724   0.693   1.367   1.327 -1.3408 -0.4435  1.7710
 7923TIP3   OH223725   3.319   5.106   5.861 -0.0017 -0.7388  0.3165
 7923TIP3    H123726   3.358   5.027   5.898  0.5650 -0.6636 -0.1248
 7923TIP3    H223727   3.275   5.076   5.781 -1.3856 -0.9339  1.1071
 7924TIP3   OH223728   3.903   6.655   4.305  0.1747 -0.2148  0.2287
 7924TIP3    H123729   3.957   6.586   4.265 -0.2491  0.5337 -1.7333
 7924TIP3    H223730   3.882   6.621   4.392  1.9693 -1.4898  0.2259
 7925TIP3   OH223731   5.386   5.841   5.774  0.5306  0.3770 -0.1831
 7925TIP3    H123732   5.450   5.899   5.817  0.1041  0.6425  0.0972
 7925TIP3    H223733   5.372   5.770   5.836  0.1283  0.6124 -0.0052
 7926TIP3   OH223734   0.005   0.939   4.166  0.5264 -0.2199  0.7052
 7926TIP3    H123735   0.025   0.980   4.081  0.4694  1.1117  1.3167
 7926TIP3    H223736   0.017   0.846   4.150  0.5446  0.0050 -0.7704
 7927TIP3   OH223737   1.342   7.023   3.333  0.2108 -0.3630  0.0084
 7927TIP3    H123738   1.248   7.006   3.325  0.2964 -0.5853 -0.5338
 7927TIP3    H223739   1.371   6.963   3.401 -0.6639  2.0951  2.8169
 7928TIP3   OH223740   2.876   1.304   4.731 -0.6115  0.1709  0.3293
 7928TIP3    H123741   2.862   1.336   4.820  0.8264  1.2004  0.2307
 7928TIP3    H223742   2.942   1.363   4.695  0.5588 -1.6247 -0.6226
 7929TIP3   OH223743   1.674   2.525   2.382  0.0429 -0.2663 -0.1107
 7929TIP3    H123744   1.740   2.468   2.423 -0.1028  0.6947  1.5513
 7929TIP3    H223745   1.591   2.482   2.398  0.0840 -0.4280 -0.3372
 7930TIP3   OH223746   1.094   5.600   0.704 -0.3887  0.1242 -0.2631
 7930TIP3    H123747   1.069   5.542   0.632 -1.1311  0.0032  0.0804
 7930TIP3    H223748   1.111   5.541   0.777 -2.7982  0.3581  0.5915
 7931TIP3   OH223749   3.150   6.017   5.391 -0.0530  0.2699  0.2272
 7931TIP3    H123750   3.203   5.944   5.424  2.1642  2.0720  0.9208
 7931TIP3    H223751   3.123   6.064   5.470 -0.5040  0.8359 -0.2596
 7932TIP3   OH223752   3.207   7.610   4.181  0.1656 -0.1494 -0.0571
 7932TIP3    H123753   3.221   7.520   4.152 -1.9743 -1.3087  2.1500
 7932TIP3    H223754   3.295   7.648   4.186  1.2635 -2.5669  0.3390
 7933TIP3   OH223755   3.462   7.719   0.995 -0.1485  0.0259 -0.4701
 7933TIP3    H123756   3.377   7.675   1.007  1.3067 -2.5028  1.8553
 7933TIP3    H223757   3.484   7.705   0.903 -1.8280 -0.0584 -0.8918
 7934TIP3   OH223758   2.004   0.116   0.183 -0.1899 -0.4920 -0.3565
 7934TIP3    H123759   2.068   0.181   0.211 -3.2078  2.2606  0.8090
 7934TIP3    H223760   2.006   0.120   0.087 -0.9636  2.2369 -0.3417
 7935TIP3   OH223761   1.838   5.779   1.681  0.1409 -0.0515  0.2774
 7935TIP3    H123762   1.766   5.754   1.623 -0.2733  0.0218  0.7477
 7935TIP3    H223763   1.841   5.875   1.676 -1.4085  0.1771  2.0769
 7936TIP3   OH223764   1.110   1.990   1.565 -0.6049 -0.5865  0.1135
 7936TIP3    H123765   1.134   1.942   1.486 -1.0008  1.0223 -1.0309
 7936TIP3    H223766   1.015   2.002   1.557 -0.3801  1.1709 -0.1058
 7937TIP3   OH223767   5.143   5.926   2.866  0.4552  0.7209  0.5298
 7937TIP3    H123768   5.054   5.901   2.893  1.4219 -1.4150  1.9993
 7937TIP3    H223769   5.148   5.901   2.774 -0.8980  2.3116 -0.0447
 7938TIP3   OH223770   6.937   1.506   3.532 -0.1205  0.1276  0.1596
 7938TIP3    H123771   6.921   1.418   3.566  1.0386  0.1354  0.7574
 7938TIP3    H223772   7.030   1.508   3.512 -0.3055  0.9407 -0.6807
 7939TIP3   OH223773   1.856   2.848   5.998 -0.4901  0.1123 -0.4218
 7939TIP3    H123774   1.781   2.854   5.939  0.4881  1.9129 -1.5457
 7939TIP3    H223775   1.928   2.819   5.942  0.2473  0.9533  0.0780
 7940TIP3   OH223776   1.526   3.239   5.144  0.0303 -0.5839 -0.5621
 7940TIP3    H123777   1.523   3.315   5.086 -0.6588  1.7305  2.2301
 7940TIP3    H223778   1.605   3.252   5.196 -0.7608 -0.9948  0.8256
 7941TIP3   OH223779   5.555   2.531   3.186  0.4071 -0.3388 -0.3789
 7941TIP3    H123780   5.486   2.490   3.133  1.2699 -0.5312 -1.3890
 7941TIP3    H223781   5.520   2.532   3.275 -1.3055  0.4501 -1.0179
 7942TIP3   OH223782   2.500   4.850   0.477  0.2930  0.6126  0.7114
 7942TIP3    H123783   2.429   4.819   0.534 -0.7515 -0.5731 -1.1498
 7942TIP3    H223784   2.471   4.829   0.388  3.1035 -0.1780 -0.1317
 7943TIP3   OH223785   3.604   5.153   1.480 -0.3185  0.1048 -0.2237
 7943TIP3    H123786   3.546   5.085   1.448 -0.8761  0.0512  0.8593
 7943TIP3    H223787   3.628   5.203   1.402 -1.7195  0.0592 -0.7090
 7944TIP3   OH223788   4.048   2.420   5.146  0.0721 -0.1159  0.1224
 7944TIP3    H123789   4.044   2.481   5.072  0.5732 -0.3972 -0.1378
 7944TIP3    H223790   4.128   2.443   5.192 -0.9936  1.0636  1.4720
 7945TIP3   OH223791   0.243   5.716   1.764  0.1769 -0.4330 -0.6031
 7945TIP3    H123792   0.187   5.777   1.718 -1.6443 -2.5673 -1.4102
 7945TIP3    H223793   0.302   5.771   1.816 -2.2076  1.9497 -0.2425
 7946TIP3   OH223794   4.668   2.252   3.142 -1.4878 -0.4398 -0.0724
 7946TIP3    H123795   4.639   2.326   3.196 -2.5189 -1.1826  0.4268
 7946TIP3    H223796   4.589   2.201   3.127 -0.5835 -2.1175  0.6508
 7947TIP3   OH223797   1.798   1.011   6.698 -0.5183  0.3809  0.2694
 7947TIP3    H123798   1.736   0.951   6.657 -1.0535  0.9649  0.1985
 7947TIP3    H223799   1.778   1.096   6.658 -0.9260  0.9226  1.5796
 7948TIP3   OH223800   2.010   4.296   5.217 -0.3276  0.1304  0.0967
 7948TIP3    H123801   1.963   4.285   5.134  0.8590 -1.0430 -0.4698
 7948TIP3    H223802   1.944   4.282   5.284 -1.2381  0.7363 -0.6469
 7949TIP3   OH223803   3.694   6.361   2.963 -0.3594  0.2099  0.1615
 7949TIP3    H123804   3.704   6.447   2.922 -0.5088  0.4629  0.6390
 7949TIP3    H223805   3.682   6.381   3.056  0.1715 -0.3531  0.3571
 7950TIP3   OH223806   2.264   5.899   6.337 -0.3686  0.1421  0.0909
 7950TIP3    H123807   2.202   5.969   6.321  0.6979  1.3677  1.1192
 7950TIP3    H223808   2.348   5.933   6.306  0.0815 -0.9127  0.0853
 7951TIP3   OH223809   5.657   4.407   0.473  0.4904  0.0137 -0.5210
 7951TIP3    H123810   5.617   4.469   0.412  1.0740  0.6669 -0.2630
 7951TIP3    H223811   5.751   4.422   0.463  0.5821  0.7006  1.1019
 7952TIP3   OH223812   6.902   7.158   4.870  0.6419 -0.0093  0.1886
 7952TIP3    H123813   6.902   7.250   4.894  0.8097  0.2897 -0.8915
 7952TIP3    H223814   6.954   7.115   4.939  2.4110  1.0301 -0.4266
 7953TIP3   OH223815   3.191   6.902   2.574  0.1177 -0.2398 -0.0517
 7953TIP3    H123816   3.212   6.979   2.627 -1.0303 -0.9691  1.5605
 7953TIP3    H223817   3.261   6.840   2.594  0.9706  0.3192 -1.2486
 7954TIP3   OH223818   7.456   5.375   5.509  0.2670  0.1329 -0.2496
 7954TIP3    H123819   7.417   5.399   5.593 -0.5801  0.8026 -0.8182
 7954TIP3    H223820   7.497   5.290   5.525  0.0387  0.2032  0.8120
 7955TIP3   OH223821   6.202   1.705   4.036  0.0295  0.0545  0.1233
 7955TIP3    H123822   6.134   1.759   4.075  1.3595  0.4099  2.1036
 7955TIP3    H223823   6.259   1.766   3.990 -0.3177 -0.0961 -0.5167
 7956TIP3   OH223824   1.040   7.069   4.393 -0.1086  0.4945  0.2718
 7956TIP3    H123825   1.075   7.088   4.306  0.0696 -0.8896  0.0200
 7956TIP3    H223826   0.951   7.039   4.377 -0.1866  0.5516  0.5975
 7957TIP3   OH223827   4.020   5.918   2.806  0.4621 -0.3653 -0.1160
 7957TIP3    H123828   4.039   5.990   2.867 -0.1281 -0.4637  0.1958
 7957TIP3    H223829   4.027   5.839   2.859 -2.8687 -0.3178  0.6390
 7958TIP3   OH223830   0.797   1.651   3.525  0.5592  0.4286 -0.1334
 7958TIP3    H123831   0.742   1.652   3.603  1.3315  2.4145  0.4638
 7958TIP3    H223832   0.735   1.649   3.452 -0.2025 -0.3239  0.5205
 7959TIP3   OH223833   3.912   4.775   0.658  0.4781  0.0531 -0.5730
 7959TIP3    H123834   4.002   4.808   0.660  1.0599 -1.1873 -2.7334
 7959TIP3    H223835   3.918   4.692   0.612 -1.4872 -1.2148  1.2400
 7960TIP3   OH223836   7.589   6.645   2.008  0.8069 -0.2599 -0.6404
 7960TIP3    H123837   7.602   6.551   2.019  1.8501 -0.0890 -0.2681
 7960TIP3    H223838   7.588   6.680   2.098  1.2940  0.1847 -0.8049
 7961TIP3   OH223839   1.788   4.004   1.425  0.4510  0.2599 -0.1304
 7961TIP3    H123840   1.852   3.971   1.361 -0.1519  0.4146 -0.8253
 7961TIP3    H223841   1.836   4.005   1.508  0.5977 -2.0843 -0.1227
 7962TIP3   OH223842   0.419   3.526   0.549 -0.2719 -0.2734 -0.1644
 7962TIP3    H123843   0.458   3.467   0.483 -0.3042 -0.3890 -0.0800
 7962TIP3    H223844   0.391   3.468   0.619 -0.2277 -0.1470 -0.0429
 7963TIP3   OH223845   0.974   4.777   3.584  0.0906 -0.4764 -0.0920
 7963TIP3    H123846   0.886   4.794   3.550  0.7327  2.7797 -0.4910
 7963TIP3    H223847   0.967   4.793   3.678  0.5133  1.4090 -0.3427
 7964TIP3   OH223848   4.659   6.926   6.154  0.3905 -0.0275 -0.6614
 7964TIP3    H123849   4.592   6.991   6.175 -0.7484 -1.4919  0.4251
 7964TIP3    H223850   4.701   6.960   6.075 -0.9319  1.4542 -0.7783
 7965TIP3   OH223851   5.737   4.735   5.698  0.2770 -0.3905  0.1406
 7965TIP3    H123852   5.703   4.656   5.740 -0.6113 -0.2156 -0.2383
 7965TIP3    H223853   5.668   4.763   5.638  0.9850  0.1191 -0.4620
 7966TIP3   OH223854   6.739   6.977   0.162 -0.1247 -0.4389  0.2633
 7966TIP3    H123855   6.788   6.909   0.117 -0.2836 -0.3031 -0.1221
 7966TIP3    H223856   6.648   6.947   0.161 -0.6598  1.0077 -2.3437
 7967TIP3   OH223857   3.494   5.406   0.196 -0.8053  0.2599  0.2057
 7967TIP3    H123858   3.448   5.328   0.227 -0.3834 -0.4821 -0.9536
 7967TIP3    H223859   3.453   5.425   0.111  0.2645  0.2487 -0.3273
 7968TIP3   OH223860   2.066   6.818   3.474 -0.3446 -0.0320  0.7832
 7968TIP3    H123861   2.138   6.755   3.468 -0.9267 -0.5669 -1.3527
 7968TIP3    H223862   2.108   6.903   3.462  0.0027 -0.3130 -0.0523
 7969TIP3   OH223863   5.620   2.524   2.401  0.5039 -0.4629 -0.1430
 7969TIP3    H123864   5.602   2.435   2.371 -0.9622 -0.2648  0.0571
 7969TIP3    H223865   5.547   2.545   2.459  1.4720  0.4321  0.8025
 7970TIP3   OH223866   7.599   6.635   0.555 -0.2558 -0.3559  0.4813
 7970TIP3    H123867   7.531   6.684   0.600 -0.1854  0.4573 -0.2703
 7970TIP3    H223868   7.588   6.545   0.585 -2.1106 -0.3713 -0.1539
 7971TIP3   OH223869   4.781   7.127   5.296  0.1162 -0.2648 -0.3325
 7971TIP3    H123870   4.817   7.211   5.323  0.6771 -0.9930  1.3129
 7971TIP3    H223871   4.793   7.124   5.201  1.6678  0.7713 -0.1885
 7972TIP3   OH223872   2.239   6.636   5.626 -0.9422 -0.4334  0.1588
 7972TIP3    H123873   2.210   6.662   5.539  0.4302  0.5099 -0.0428
 7972TIP3    H223874   2.251   6.718   5.674  2.3656 -0.6256 -0.1330
 7973TIP3   OH223875   4.041   2.382   3.082  0.3809  0.0843 -0.3532
 7973TIP3    H123876   4.003   2.390   2.995  0.1972  0.6929 -0.2239
 7973TIP3    H223877   4.072   2.292   3.087  0.4053  0.0500 -1.0523
 7974TIP3   OH223878   1.820   4.083   5.708 -0.1077  0.5033 -0.0335
 7974TIP3    H123879   1.735   4.096   5.749  1.3633 -0.9636  3.9586
 7974TIP3    H223880   1.875   4.153   5.744  0.7855  0.4912 -1.2918
 7975TIP3   OH223881   1.904   3.609   6.592  0.4374  0.2375 -0.2627
 7975TIP3    H123882   1.934   3.542   6.653 -1.7776  1.2707  2.1192
 7975TIP3    H223883   1.980   3.625   6.535  1.5948 -2.9906  0.1432
 7976TIP3   OH223884   6.212   6.221   1.835 -0.7354  0.0539  0.6270
 7976TIP3    H123885   6.141   6.162   1.812 -1.6778  2.1301 -2.2633
 7976TIP3    H223886   6.286   6.163   1.855 -2.0559 -2.0961 -0.4476
 7977TIP3   OH223887   2.163   6.848   4.081 -0.1332 -0.0117  0.2723
 7977TIP3    H123888   2.104   6.804   4.142 -1.7217 -0.6208 -1.5999
 7977TIP3    H223889   2.213   6.908   4.136 -1.6387 -0.3526  2.1335
 7978TIP3   OH223890   3.323   0.127   4.880  0.3793 -0.0572 -0.4835
 7978TIP3    H123891   3.358   0.216   4.886 -0.5519  0.2771  0.3005
 7978TIP3    H223892   3.299   0.116   4.788  1.9900 -0.1034 -0.9285
 7979TIP3   OH223893   1.632   1.106   5.500 -1.0737  0.1245  0.1690
 7979TIP3    H123894   1.680   1.159   5.436  0.2394  0.1370  1.1295
 7979TIP3    H223895   1.659   1.016   5.482  3.3418  0.4164  3.7381
 7980TIP3   OH223896   1.344   2.361   4.546  0.1575 -0.8964  0.1093
 7980TIP3    H123897   1.283   2.415   4.596 -0.4152 -1.7109  0.3026
 7980TIP3    H223898   1.420   2.352   4.603  0.0124 -0.7923  0.3207
 7981TIP3   OH223899   5.606   5.216   0.782 -0.9215 -0.0127 -0.1914
 7981TIP3    H123900   5.600   5.281   0.853 -1.1774  0.3258 -0.5199
 7981TIP3    H223901   5.515   5.194   0.762 -0.8947  0.6344 -1.0874
 7982TIP3   OH223902   3.373   3.644   1.530  0.3407  0.1208 -0.0673
 7982TIP3    H123903   3.403   3.605   1.448  0.1420 -1.5193  0.6000
 7982TIP3    H223904   3.355   3.569   1.587 -0.3405  1.2013  1.1924
 7983TIP3   OH223905   2.598   2.372   2.124  0.4291 -0.2600  0.3670
 7983TIP3    H123906   2.539   2.302   2.097  0.0699  0.6747 -1.4241
 7983TIP3    H223907   2.680   2.327   2.145 -0.1197 -1.3072  0.3513
 7984TIP3   OH223908   0.463   5.665   2.205  0.0135  0.6117  0.3991
 7984TIP3    H123909   0.432   5.600   2.267 -0.5633 -0.2922 -0.7935
 7984TIP3    H223910   0.552   5.685   2.234  0.6680 -1.6078  0.1522
 7985TIP3   OH223911   5.095   6.169   1.130  0.2858  0.2118 -0.0628
 7985TIP3    H123912   5.111   6.262   1.116  0.0900  0.3614  0.6899
 7985TIP3    H223913   5.136   6.149   1.214  0.0399 -0.3066 -0.0588
 7986TIP3   OH223914   5.153   7.298   5.447  0.1894  0.2123 -0.3814
 7986TIP3    H123915   5.231   7.255   5.484  0.4833  1.9414  1.1243
 7986TIP3    H223916   5.080   7.255   5.492  0.3443 -0.2819 -0.5885
 7987TIP3   OH223917   1.892   3.063   6.190  0.3377  0.3565 -0.4779
 7987TIP3    H123918   1.954   3.040   6.259  1.0322 -0.4581 -1.3561
 7987TIP3    H223919   1.886   2.984   6.136 -1.2394  0.5150 -0.5906
 7988TIP3   OH223920   2.161   5.885   2.523  0.1148 -0.3945 -0.2581
 7988TIP3    H123921   2.169   5.973   2.485 -1.2295  0.6248  1.6347
 7988TIP3    H223922   2.245   5.844   2.506  0.1218  0.5062 -2.9144
 7989TIP3   OH223923   3.108   7.535   5.366  0.5645  0.2349 -0.2824
 7989TIP3    H123924   3.145   7.519   5.453  1.9120  1.4019 -0.6024
 7989TIP3    H223925   3.178   7.510   5.306 -0.5435 -1.0497 -1.0771
 7990TIP3   OH223926   2.947   2.501   5.875 -0.2330  0.0742  0.1699
 7990TIP3    H123927   3.015   2.543   5.928 -0.4001  0.1097  0.3552
 7990TIP3    H223928   2.874   2.488   5.935 -0.9299  1.3310 -0.3672
 7991TIP3   OH223929   7.345   1.804   1.827  0.1750  0.1606  0.1454
 7991TIP3    H123930   7.407   1.812   1.900  0.1048  0.8877  0.1306
 7991TIP3    H223931   7.266   1.767   1.867  0.4270 -0.2549  0.2680
 7992TIP3   OH223932   4.565   2.767   4.810 -0.1765  0.2164 -0.0444
 7992TIP3    H123933   4.513   2.846   4.820  0.7389  0.7554  0.7240
 7992TIP3    H223934   4.656   2.796   4.823  0.2740 -0.7859 -0.7404
 7993TIP3   OH223935   2.247   1.227   6.643  0.1886 -0.1413  0.1045
 7993TIP3    H123936   2.327   1.271   6.614 -0.2747  0.5768 -0.1262
 7993TIP3    H223937   2.177   1.289   6.622 -0.5727 -1.3077 -0.9053
 7994TIP3   OH223938   5.599   2.231   3.083  0.6218  0.1111 -0.3328
 7994TIP3    H123939   5.620   2.260   2.994  3.4483 -1.1335 -0.1947
 7994TIP3    H223940   5.661   2.277   3.139  0.7981 -1.2165  0.6234
 7995TIP3   OH223941   3.206   5.405   3.657  0.3068  0.3217  0.1578
 7995TIP3    H123942   3.196   5.334   3.594 -2.2819  0.9873 -0.2893
 7995TIP3    H223943   3.123   5.409   3.703  0.3779  2.9891  0.2330
 7996TIP3   OH223944   6.277   4.471   6.733  0.2116  0.1522 -0.0007
 7996TIP3    H123945   6.230   4.521   6.666 -1.8677 -1.1907  0.3509
 7996TIP3    H223946   6.331   4.536   6.778 -3.3207  2.4924  1.3251
 7997TIP3   OH223947   5.764   2.089   0.295  0.0154  0.0581  0.2928
 7997TIP3    H123948   5.854   2.099   0.327 -0.0488  0.4148  0.3698
 7997TIP3    H223949   5.709   2.118   0.368 -0.2059 -1.1623  0.6394
 7998TIP3   OH223950   7.413   5.558   4.861 -0.0678  0.4241 -0.3191
 7998TIP3    H123951   7.504   5.571   4.834 -0.5038 -0.6113 -2.4748
 7998TIP3    H223952   7.418   5.541   4.955  1.6823  3.0017  0.1683
 7999TIP3   OH223953   2.411   5.770   2.549  0.5640 -0.0753 -0.0858
 7999TIP3    H123954   2.442   5.725   2.627  0.9442 -1.3552 -0.9383
 7999TIP3    H223955   2.408   5.702   2.481  0.4935  1.0401 -1.2522
 8000TIP3   OH223956   0.421   2.908   1.645  0.1333  0.0511  0.4209
 8000TIP3    H123957   0.456   2.909   1.734  2.9823  1.7361 -0.5795
 8000TIP3    H223958   0.496   2.927   1.590 -1.5318 -0.9286 -2.3963
 8001TIP3   OH223959   7.906   4.789   4.183 -0.2098 -0.2872 -0.0658
 8001TIP3    H123960   7.980   4.728   4.196  0.3672  0.6553  1.3128
 8001TIP3    H223961   7.859   4.787   4.266 -1.9960 -1.1216 -1.0278
 8002TIP3   OH223962   1.901   1.016   2.836 -0.3081 -0.1671 -0.1066
 8002TIP3    H123963   1.964   0.944   2.845  2.1139  2.0493  1.9164
 8002TIP3    H223964   1.896   1.031   2.742  1.4095 -1.0659 -0.3785
 8003TIP3   OH223965   0.052   1.589   0.114 -0.3673  0.2319 -0.4642
 8003TIP3    H123966  -0.005   1.513   0.118 -0.7074  0.4954 -0.3123
 8003TIP3    H223967   0.138   1.554   0.089 -1.0431  0.0666 -2.7472
 8004TIP3   OH223968   4.309   3.125   6.634 -0.5116  0.0299  0.5904
 8004TIP3    H123969   4.251   3.168   6.571 -0.4206  0.3573  0.7316
 8004TIP3    H223970   4.266   3.042   6.653 -0.8073  0.1611  0.4966
 8005TIP3   OH223971   7.278   3.339   3.903 -0.0975 -0.0350  0.0534
 8005TIP3    H123972   7.229   3.259   3.883  0.5202 -0.9855  2.0448
 8005TIP3    H223973   7.215   3.410   3.893 -1.5680 -1.0997  1.2880
 8006TIP3   OH223974   7.434   0.166   6.611  0.2724  0.2371  0.3228
 8006TIP3    H123975   7.406   0.228   6.545 -1.7308  0.0443  0.9223
 8006TIP3    H223976   7.438   0.217   6.692  1.6062  0.2294  0.2753
 8007TIP3   OH223977   4.731   0.980   2.097 -0.2474 -1.1313 -0.1840
 8007TIP3    H123978   4.749   1.032   2.176 -2.5692  1.2834 -1.0575
 8007TIP3    H223979   4.800   1.005   2.036 -0.9259  0.5505 -0.3439
 8008TIP3   OH223980   1.687   3.420   0.059 -0.3067  0.1826 -0.3477
 8008TIP3    H123981   1.605   3.390   0.099 -0.9986 -0.4519 -2.1563
 8008TIP3    H223982   1.718   3.346   0.008  1.9420  0.0824  0.9991
 8009TIP3   OH223983   5.846   0.049   0.789  0.1919 -0.6397 -0.8613
 8009TIP3    H123984   5.751   0.033   0.784  0.1601 -0.5794 -0.4812
 8009TIP3    H223985   5.857   0.105   0.866  0.5210 -0.5103 -1.0007
 8010TIP3   OH223986   0.609   0.686   4.184  0.7589 -1.0862  0.0189
 8010TIP3    H123987   0.551   0.757   4.156  3.1001  1.4966  1.1378
 8010TIP3    H223988   0.551   0.615   4.210 -1.8645  1.0809  0.4762
 8011TIP3   OH223989   2.398   4.989   1.382 -0.0234 -0.5084 -0.3843
 8011TIP3    H123990   2.430   5.046   1.311  0.2165 -0.1777 -0.0176
 8011TIP3    H223991   2.472   4.982   1.442 -0.0598 -1.2074 -0.4235
 8012TIP3   OH223992   6.564   0.406   1.132  0.0932 -0.4240 -0.1577
 8012TIP3    H123993   6.478   0.374   1.160 -1.3010  0.0998 -3.3937
 8012TIP3    H223994   6.606   0.328   1.095  1.6687 -0.9808  2.5537
 8013TIP3   OH223995   6.845   1.626   2.515 -0.5068  0.2904  0.0155
 8013TIP3    H123996   6.886   1.543   2.536 -0.1436  0.3079 -0.6028
 8013TIP3    H223997   6.764   1.627   2.566  0.2562  0.2677  1.2669
 8014TIP3   OH223998   6.709   4.697   6.712 -0.4268 -0.1224  0.0530
 8014TIP3    H123999   6.643   4.744   6.661  0.7326 -0.1249 -1.5287
 8014TIP3    H224000   6.711   4.742   6.797 -2.0232  0.2439 -0.0849
 8015TIP3   OH224001   6.028   1.390   5.135 -0.4045  0.4271 -0.0800
 8015TIP3    H124002   6.005   1.420   5.223  0.6207  1.3763 -0.1161
 8015TIP3    H224003   5.963   1.433   5.078 -2.2317 -1.6230  0.3265
 8016TIP3   OH224004   4.086   6.902   0.797 -0.1970 -0.0226  0.5155
 8016TIP3    H124005   4.107   6.926   0.887  1.9105  0.2459 -0.0033
 8016TIP3    H224006   4.033   6.975   0.764  0.2243  0.5537  1.0989
 8017TIP3   OH224007   3.296   5.216   4.911 -0.5823 -0.2272 -0.6465
 8017TIP3    H124008   3.316   5.234   4.819  2.6210  0.1491 -0.0105
 8017TIP3    H224009   3.335   5.289   4.959 -1.7722 -0.6442  1.0705
 8018TIP3   OH224010   0.289   7.245   6.412  0.3592  0.0185  0.5102
 8018TIP3    H124011   0.331   7.207   6.335 -2.3230  0.0566 -1.0716
 8018TIP3    H224012   0.248   7.171   6.456 -0.6593  0.3947  0.2082
 8019TIP3   OH224013   6.969   1.266   5.175 -0.1824  0.2646  0.1077
 8019TIP3    H124014   6.917   1.236   5.100 -0.2999  0.3766  0.1451
 8019TIP3    H224015   6.970   1.191   5.235 -0.1437  0.1980  0.0238
 8020TIP3   OH224016   7.629   3.004   2.611 -0.3771  0.5855 -0.3636
 8020TIP3    H124017   7.580   2.957   2.678  0.1266  0.3078 -0.1857
 8020TIP3    H224018   7.715   3.020   2.650  0.2361 -0.3773 -1.2488
 8021TIP3   OH224019   5.966   6.509   5.710  0.1058  0.2598 -0.1767
 8021TIP3    H124020   6.034   6.561   5.668 -0.8839  0.7531 -1.2122
 8021TIP3    H224021   6.014   6.439   5.755  1.3147  0.8511 -0.5031
 8022TIP3   OH224022   1.605   6.458   3.303 -0.1358 -0.3293  0.0553
 8022TIP3    H124023   1.516   6.493   3.301 -0.0393 -0.0860  0.0664
 8022TIP3    H224024   1.600   6.386   3.367 -0.2841 -0.2041  0.1872
 8023TIP3   OH224025   7.374   6.465   2.204  0.1194 -0.6678 -0.2250
 8023TIP3    H124026   7.434   6.402   2.163 -0.0632 -0.3340 -1.0351
 8023TIP3    H224027   7.430   6.535   2.237  0.3209 -1.2346  0.6481
 8024TIP3   OH224028   7.249   4.640   5.175 -0.1432 -0.7806  0.0630
 8024TIP3    H124029   7.334   4.680   5.191 -0.3663 -0.2388 -0.0822
 8024TIP3    H224030   7.186   4.712   5.182 -0.4551 -0.8967 -1.1751
 8025TIP3   OH224031   5.662   1.238   6.568  0.2255  0.2238  0.7437
 8025TIP3    H124032   5.571   1.235   6.599 -0.1171 -2.1913 -0.2881
 8025TIP3    H224033   5.702   1.159   6.603  1.9713  1.2380  1.1643
 8026TIP3   OH224034   1.273   2.180   3.442  0.3063 -0.2171 -0.2118
 8026TIP3    H124035   1.360   2.151   3.470  0.7817  0.7692 -0.6143
 8026TIP3    H224036   1.275   2.173   3.347  0.1850  0.4292 -0.2678
 8027TIP3   OH224037   7.425   2.513   6.431 -0.0673 -0.1905  0.2616
 8027TIP3    H124038   7.345   2.478   6.391 -1.1964  0.8424  1.5354
 8027TIP3    H224039   7.431   2.470   6.516  1.5347 -1.2975 -0.3638
 8028TIP3   OH224040   5.246   1.125   5.988 -0.0798 -0.3649  0.6651
 8028TIP3    H124041   5.254   1.104   5.895 -3.5416  0.5612  0.0249
 8028TIP3    H224042   5.336   1.124   6.020  1.0064 -4.5041 -1.7640
 8029TIP3   OH224043   6.367   2.961   2.520  0.9548  0.7665 -0.3776
 8029TIP3    H124044   6.293   2.976   2.579 -0.0241  0.1273 -1.4191
 8029TIP3    H224045   6.363   2.868   2.500  0.5724  1.1746 -2.3532
 8030TIP3   OH224046   0.412   6.324   5.703  0.2529  0.6086 -0.5176
 8030TIP3    H124047   0.471   6.281   5.766 -1.5261 -3.8498 -1.4962
 8030TIP3    H224048   0.469   6.353   5.632  1.5738 -1.5093 -0.4041
 8031TIP3   OH224049   5.242   5.661   0.469 -0.0207  0.0514  0.3945
 8031TIP3    H124050   5.238   5.575   0.428 -0.2968 -0.5892  1.7264
 8031TIP3    H224051   5.185   5.654   0.545  0.7482  1.0989  1.0942
 8032TIP3   OH224052   5.417   6.596   2.549  0.0332  0.3837  0.0038
 8032TIP3    H124053   5.369   6.517   2.526 -0.3445  0.5610  0.1717
 8032TIP3    H224054   5.466   6.619   2.470  0.5389 -0.2934  0.1114
 8033TIP3   OH224055   7.813   1.594   3.687 -0.1074  0.4423  0.1483
 8033TIP3    H124056   7.828   1.633   3.601 -1.9184 -0.3492 -0.5594
 8033TIP3    H224057   7.753   1.654   3.731 -0.5907 -0.0555  0.1733
 8034TIP3   OH224058   1.749   3.731   4.023  0.3160 -0.3804 -0.8225
 8034TIP3    H124059   1.658   3.759   4.015  0.3243 -0.2911 -0.6073
 8034TIP3    H224060   1.757   3.658   3.962  0.0460 -0.5257 -0.6835
 8035TIP3   OH224061   4.353   2.729   2.196  0.1531 -0.5564  0.1763
 8035TIP3    H124062   4.273   2.682   2.216 -0.7598  1.1386  0.7151
 8035TIP3    H224063   4.349   2.743   2.101  0.0706 -0.9131  0.1249
 8036TIP3   OH224064   3.136   0.878   3.094 -0.5914 -0.0148  0.4890
 8036TIP3    H124065   3.091   0.865   3.010 -0.0769  1.2003  0.0073
 8036TIP3    H224066   3.157   0.971   3.096  0.5965 -0.2749  1.3617
 8037TIP3   OH224067   0.188   0.437   3.460  0.5450  0.8907  0.2712
 8037TIP3    H124068   0.107   0.463   3.503 -0.1395  1.5845 -1.3313
 8037TIP3    H224069   0.185   0.341   3.459 -0.7122  0.9091 -0.5152
 8038TIP3   OH224070   5.188   3.104   1.473 -0.3291  0.3309  0.3806
 8038TIP3    H124071   5.260   3.044   1.491 -0.0941  0.8368  1.2011
 8038TIP3    H224072   5.155   3.129   1.560 -1.4168  0.1969  0.0157
 8039TIP3   OH224073   4.084   3.687   3.067  0.1758  0.1977 -0.0755
 8039TIP3    H124074   4.105   3.778   3.046 -1.0695  0.5403  0.0781
 8039TIP3    H224075   4.000   3.671   3.025  0.6284 -1.0701 -0.5530
 8040TIP3   OH224076   0.372   6.096   4.565  0.1329 -0.4323 -0.1245
 8040TIP3    H124077   0.332   6.070   4.648 -1.5377  0.5959 -0.5506
 8040TIP3    H224078   0.307   6.073   4.499  1.1900 -0.7065 -1.1044
 8041TIP3   OH224079   6.025   6.917   0.038  0.4581 -0.6597  0.2922
 8041TIP3    H124080   6.004   6.941  -0.052  0.0934 -4.0848 -0.6926
 8041TIP3    H224081   5.959   6.961   0.091  0.2929  0.9280 -1.1555
 8042TIP3   OH224082   7.455   2.221   0.283  0.4727 -0.5029  0.0229
 8042TIP3    H124083   7.476   2.314   0.271 -2.0232  0.1839  0.4774
 8042TIP3    H224084   7.484   2.202   0.372 -2.2134  0.9321  1.3338
 8043TIP3   OH224085   3.017   2.383   4.448 -0.0495  0.1984  0.7179
 8043TIP3    H124086   2.996   2.333   4.369 -2.7087  0.5373  1.1284
 8043TIP3    H224087   3.109   2.364   4.464 -0.0204 -1.6602 -1.1882
 8044TIP3   OH224088   3.808   4.316   1.993  0.1311  0.6318 -0.7120
 8044TIP3    H124089   3.825   4.223   1.975 -1.4663  0.2155 -0.3214
 8044TIP3    H224090   3.793   4.354   1.906 -1.1876  0.0453 -0.7800
 8045TIP3   OH224091   8.231   5.315   5.943 -0.6864  0.2179 -0.0113
 8045TIP3    H124092   8.149   5.351   5.910 -0.6881 -0.2568 -0.5280
 8045TIP3    H224093   8.206   5.266   6.022 -0.9991 -0.5162 -0.5648
 8046TIP3   OH224094   7.989   6.430   3.690  0.3497 -0.0007  0.0159
 8046TIP3    H124095   7.934   6.356   3.717  2.1578 -1.8429 -1.1004
 8046TIP3    H224096   8.046   6.446   3.766 -0.4838  0.7598  0.5119
 8047TIP3   OH224097   1.921   4.831   4.322 -0.1670  0.4603  0.3455
 8047TIP3    H124098   1.978   4.807   4.249 -1.2334 -0.2632 -0.2748
 8047TIP3    H224099   1.890   4.919   4.302 -1.7512 -0.3413 -0.9532
 8048TIP3   OH224100   1.076   1.757   6.483 -0.0909 -0.3857 -0.0092
 8048TIP3    H124101   1.079   1.717   6.569 -0.3348 -0.1715  0.1004
 8048TIP3    H224102   0.992   1.731   6.446 -0.0558 -0.3469 -0.1185
 8049TIP3   OH224103   3.914   2.283   3.984 -0.0182 -0.4001  0.4346
 8049TIP3    H124104   3.990   2.232   3.955  0.4925  1.2895 -1.3584
 8049TIP3    H224105   3.934   2.373   3.960 -3.3023 -0.0800 -1.7393
 8050TIP3   OH224106   7.023   2.050   3.912 -0.2749  0.3710  0.4557
 8050TIP3    H124107   7.022   1.957   3.890 -0.3154 -0.2539  2.7741
 8050TIP3    H224108   7.116   2.071   3.925 -0.2151  0.8270 -0.6539
 8051TIP3   OH224109   3.773   5.380   4.968 -0.1463 -0.2059 -0.0346
 8051TIP3    H124110   3.718   5.457   4.986  0.2123  0.6837 -2.3835
 8051TIP3    H224111   3.710   5.309   4.953 -0.5172 -0.0588  0.7348
 8052TIP3   OH224112   2.825   6.067   2.865 -0.0053  0.5650  0.3745
 8052TIP3    H124113   2.837   6.115   2.947 -1.5683  0.6469  0.5756
 8052TIP3    H224114   2.769   6.124   2.812 -0.4723 -0.2706 -0.0516
 8053TIP3   OH224115   3.744   1.891   3.966 -0.4831 -0.5057 -0.3977
 8053TIP3    H124116   3.786   1.926   3.887  1.5131 -1.2070  0.3013
 8053TIP3    H224117   3.736   1.967   4.024  1.1657 -0.6102  0.0005
 8054TIP3   OH224118   2.046   4.854   2.287  0.7038  0.1317  0.4302
 8054TIP3    H124119   2.125   4.883   2.334  0.4897 -0.5391  1.2303
 8054TIP3    H224120   2.008   4.786   2.344  0.6456 -0.9875 -0.8964
 8055TIP3   OH224121   5.340   0.143   5.122 -0.0877  0.1848 -0.3123
 8055TIP3    H124122   5.372   0.058   5.091  0.4812  0.3253 -0.1250
 8055TIP3    H224123   5.245   0.132   5.129 -0.1577 -0.0645 -1.4364
 8056TIP3   OH224124   0.225   0.955   4.866  0.0596 -0.2212 -0.4293
 8056TIP3    H124125   0.236   0.900   4.944  0.5034 -0.0978 -0.4037
 8056TIP3    H224126   0.289   0.921   4.804 -0.7910 -0.7871 -1.0068
 8057TIP3   OH224127   7.345   7.691   1.611 -0.8820 -0.2319 -0.3051
 8057TIP3    H124128   7.284   7.759   1.640 -1.6985 -1.0105 -0.1491
 8057TIP3    H224129   7.402   7.735   1.548 -1.9973  0.3686 -0.9168
 8058TIP3   OH224130   3.599   6.300   5.068 -0.4791  0.6405  0.3379
 8058TIP3    H124131   3.555   6.303   4.983  1.4667  2.4380 -0.6941
 8058TIP3    H224132   3.625   6.208   5.078 -0.7590  0.3902 -1.0032
 8059TIP3   OH224133   3.682   3.965   2.367 -0.2982  0.2231 -0.3928
 8059TIP3    H124134   3.754   3.937   2.424  2.4860  0.0501 -3.6771
 8059TIP3    H224135   3.637   4.032   2.418  3.4208  1.8331  1.1899
 8060TIP3   OH224136   0.869   1.635   6.366 -0.6353  0.2643  0.5247
 8060TIP3    H124137   0.936   1.601   6.307 -0.1859 -0.9008  1.6644
 8060TIP3    H224138   0.793   1.579   6.352 -0.6756  0.2642  0.7428
 8061TIP3   OH224139   3.574   6.995   2.281 -0.1374 -0.2497  0.0020
 8061TIP3    H124140   3.574   7.077   2.231 -0.2544 -0.1495  0.1665
 8061TIP3    H224141   3.664   6.963   2.274  0.0975  0.2736  0.5625
 8062TIP3   OH224142   5.731   6.058   1.607 -0.3804 -0.2198 -0.1365
 8062TIP3    H124143   5.821   6.088   1.604 -0.3407 -0.3980 -0.9112
 8062TIP3    H224144   5.706   6.065   1.700  0.8850 -1.5753  0.3409
 8063TIP3   OH224145   6.289   5.657   5.516 -0.0921 -0.6654 -0.1872
 8063TIP3    H124146   6.217   5.595   5.501  0.1008 -1.0568  0.4888
 8063TIP3    H224147   6.351   5.637   5.446 -1.0927  0.3863 -1.4259
 8064TIP3   OH224148   0.441   3.390   4.854 -0.0789  0.3150 -0.1028
 8064TIP3    H124149   0.507   3.448   4.816 -0.1323  1.2212  1.1065
 8064TIP3    H224150   0.484   3.351   4.930 -0.2709 -0.7288 -0.5137
 8065TIP3   OH224151   1.506   6.212   6.583 -0.3885  0.6526 -0.9611
 8065TIP3    H124152   1.557   6.198   6.503  0.3570 -0.0220 -0.3761
 8065TIP3    H224153   1.542   6.150   6.646  1.8913  3.8747  1.2361
 8066TIP3   OH224154   1.871   0.430   4.743  0.7575  0.7810 -0.2744
 8066TIP3    H124155   1.960   0.433   4.776  1.1920 -1.6814 -1.0141
 8066TIP3    H224156   1.816   0.429   4.822  1.4568  0.7558  0.2193
 8067TIP3   OH224157   1.476   6.899   3.592  0.0358 -0.0758 -0.0324
 8067TIP3    H124158   1.490   6.808   3.567  0.5331  0.5353 -2.2124
 8067TIP3    H224159   1.560   6.942   3.575 -1.0037  1.3572 -2.0718
 8068TIP3   OH224160   5.983   5.866   5.786 -0.1181 -0.4574  0.2627
 8068TIP3    H124161   6.061   5.917   5.765  0.5936 -0.9137  1.6982
 8068TIP3    H224162   5.973   5.806   5.712 -0.7449  1.4256 -1.2685
 8069TIP3   OH224163   7.618   7.325   6.062 -0.0531  0.2164  0.3272
 8069TIP3    H124164   7.648   7.409   6.027  1.4363 -0.6521 -0.5152
 8069TIP3    H224165   7.535   7.309   6.018  0.7517  0.1797 -1.2171
 8070TIP3   OH224166   0.680   6.054   4.373  0.6521  0.3740  0.4388
 8070TIP3    H124167   0.616   5.991   4.406  1.5021 -1.1990 -0.8097
 8070TIP3    H224168   0.645   6.139   4.400 -2.4411 -0.3403 -0.9187
 8071TIP3   OH224169   2.823   3.335   0.153  0.6287 -0.0216 -0.3630
 8071TIP3    H124170   2.860   3.412   0.197  1.5489 -0.0686 -1.0253
 8071TIP3    H224171   2.837   3.263   0.215 -0.2150  0.3250  0.2492
 8072TIP3   OH224172   1.825   7.234   5.365  0.2208  0.3761 -0.1475
 8072TIP3    H124173   1.748   7.290   5.353 -0.9714 -0.5221  2.5798
 8072TIP3    H224174   1.874   7.275   5.436  0.6001 -0.7107  0.2393
 8073TIP3   OH224175   6.805   4.447   0.871 -0.1139 -0.7709  0.1616
 8073TIP3    H124176   6.801   4.543   0.871  0.0783 -0.7576 -0.3765
 8073TIP3    H224177   6.894   4.427   0.900  0.5123 -0.7318 -1.6366
 8074TIP3   OH224178   2.441   2.839   2.861 -0.1446  0.1563  0.0922
 8074TIP3    H124179   2.439   2.801   2.948 -0.3253 -0.3239 -0.1159
 8074TIP3    H224180   2.359   2.810   2.821  0.2053 -0.1144 -0.4398
 8075TIP3   OH224181   0.736   5.790   5.318 -0.1326 -0.2846  0.0665
 8075TIP3    H124182   0.690   5.848   5.378 -0.7595  0.6067 -1.2218
 8075TIP3    H224183   0.829   5.809   5.333 -0.1704 -1.4449  2.0473
 8076TIP3   OH224184   1.337   1.488   1.338  0.7977  1.0525 -0.1169
 8076TIP3    H124185   1.275   1.451   1.274  2.3817 -0.0224 -1.1294
 8076TIP3    H224186   1.358   1.575   1.304  0.5566  1.0453 -0.2862
 8077TIP3   OH224187   0.880   4.611   5.905  0.1962  0.2351  0.3903
 8077TIP3    H124188   0.846   4.700   5.896  1.2843  0.6682  0.4748
 8077TIP3    H224189   0.837   4.561   5.836 -1.9106  0.3480  1.5233
 8078TIP3   OH224190   4.653   4.940   0.659 -0.3455 -0.1847 -0.3415
 8078TIP3    H124191   4.578   4.981   0.702  0.0667 -0.3748  0.5771
 8078TIP3    H224192   4.652   4.976   0.570 -2.4880 -1.3855 -0.8856
 8079TIP3   OH224193   2.673   5.499   3.098 -0.0499  0.2907  0.4048
 8079TIP3    H124194   2.681   5.518   3.004  1.2254 -0.8664  0.2470
 8079TIP3    H224195   2.763   5.481   3.126  0.0787  3.3998  2.5274
 8080TIP3   OH224196   7.500   1.601   1.008  0.5340  0.1260  0.2193
 8080TIP3    H124197   7.594   1.620   1.017  0.6650 -1.2101  2.2334
 8080TIP3    H224198   7.495   1.505   1.012 -1.0636  0.2332  2.4014
 8081TIP3   OH224199   4.703   0.059   4.725  0.4373  0.1700 -0.0085
 8081TIP3    H124200   4.759   0.079   4.650  0.0867 -0.1016 -0.3528
 8081TIP3    H224201   4.614   0.077   4.694  0.2365 -0.5470  0.1311
 8082TIP3   OH224202   0.957   5.307   6.098 -0.0458 -0.3140 -0.4451
 8082TIP3    H124203   0.942   5.232   6.157  0.3761 -1.3192 -1.5876
 8082TIP3    H224204   1.015   5.273   6.031  0.8730  1.3124 -0.5056
 8083TIP3   OH224205   8.249   2.893   1.739  1.0388  0.4125  0.1425
 8083TIP3    H124206   8.176   2.951   1.759  1.2248  0.1608  1.6861
 8083TIP3    H224207   8.280   2.922   1.654  1.0387  2.5110  0.7995
 8084TIP3   OH224208   0.539   6.927   6.029 -0.4350 -0.3628 -0.2992
 8084TIP3    H124209   0.544   6.855   6.092  0.5872 -2.4107 -2.5600
 8084TIP3    H224210   0.631   6.948   6.011 -0.7111  0.1083 -1.1830
 8085TIP3   OH224211   1.952   0.971   1.711  0.0230  0.1041 -0.3584
 8085TIP3    H124212   1.865   1.008   1.700 -0.1795 -0.5386 -1.0003
 8085TIP3    H224213   1.995   0.984   1.626  0.4127  0.0787 -0.1659
 8086TIP3   OH224214   0.628   2.346   0.887 -0.0032 -0.0402 -0.0168
 8086TIP3    H124215   0.606   2.262   0.845 -0.6854 -0.5309  1.2773
 8086TIP3    H224216   0.692   2.323   0.954  0.3198  0.5929 -0.0977
 8087TIP3   OH224217   8.137   5.395   2.385  0.5020  0.0204  0.4275
 8087TIP3    H124218   8.063   5.336   2.371  0.7004  0.0803 -1.0360
 8087TIP3    H224219   8.108   5.451   2.457 -1.1051  0.3462 -0.3990
 8088TIP3   OH224220   3.072   3.401   4.086 -0.1337  0.0279  0.4835
 8088TIP3    H124221   3.134   3.418   4.015  0.4721  0.5192  1.1163
 8088TIP3    H224222   3.000   3.355   4.044  1.3439 -1.9865 -0.0106
 8089TIP3   OH224223   7.500   1.514   6.700 -0.2872 -0.0553  0.2803
 8089TIP3    H124224   7.406   1.530   6.704 -0.4922 -1.2899  0.6419
 8089TIP3    H224225   7.512   1.461   6.621  0.2558  0.9309 -0.3310
 8090TIP3   OH224226   7.499   6.781   5.129 -0.0302 -0.0420  0.1675
 8090TIP3    H124227   7.492   6.752   5.038 -0.0418  0.7202 -0.0790
 8090TIP3    H224228   7.553   6.860   5.125 -0.4080  0.2485  0.7728
 8091TIP3   OH224229   6.151   0.728   6.353 -0.2143  0.3881  0.0510
 8091TIP3    H124230   6.121   0.650   6.400 -0.0146  0.1133 -0.2728
 8091TIP3    H224231   6.091   0.797   6.380  0.5038  0.4914  1.5196
 8092TIP3   OH224232   4.347   3.793   3.328  0.0932  0.0067 -0.8577
 8092TIP3    H124233   4.344   3.713   3.380 -4.3302  0.7335  0.4492
 8092TIP3    H224234   4.360   3.763   3.238 -1.8322 -2.2875 -0.4639
 8093TIP3   OH224235   6.154   6.976   6.277 -0.5378  0.1215 -0.0507
 8093TIP3    H124236   6.151   6.899   6.220  0.9235  0.7258 -1.0109
 8093TIP3    H224237   6.173   6.940   6.364 -0.2795 -0.6322 -0.4085
 8094TIP3   OH224238   1.511   0.122   3.461  0.1070 -0.4329  0.2078
 8094TIP3    H124239   1.536   0.088   3.547 -1.5453 -2.4841 -0.0544
 8094TIP3    H224240   1.428   0.080   3.441 -0.7530  1.8358 -1.3859
 8095TIP3   OH224241   1.387   3.013   4.277  0.0762  0.1769 -0.4913
 8095TIP3    H124242   1.438   2.962   4.340 -1.9354 -1.7318 -0.2677
 8095TIP3    H224243   1.374   3.097   4.320 -1.9028 -1.3249  2.1637
 8096TIP3   OH224244   5.963   1.470   3.148  0.1356 -0.2529  0.1909
 8096TIP3    H124245   6.020   1.547   3.145  1.3044 -1.1142 -1.0337
 8096TIP3    H224246   5.905   1.480   3.073 -2.0585  1.0887  1.9566
 8097TIP3   OH224247   4.902   0.313   2.806  0.0105  0.2369 -0.1879
 8097TIP3    H124248   4.988   0.320   2.849 -0.3186  0.7428  0.3983
 8097TIP3    H224249   4.875   0.223   2.823  0.5283  0.0017 -0.5758
 8098TIP3   OH224250   4.911   6.057   0.068  0.1373 -0.2217 -0.2822
 8098TIP3    H124251   4.871   6.141   0.089  2.3361  0.4355  1.8046
 8098TIP3    H224252   5.001   6.065   0.099  0.3413 -3.4685  0.3436
 8099TIP3   OH224253   3.775   0.193   2.328  0.3007 -0.2831  0.3704
 8099TIP3    H124254   3.846   0.139   2.293  1.1623  0.1900  1.3233
 8099TIP3    H224255   3.708   0.131   2.355  0.1969 -0.7243 -0.8632
 8100TIP3   OH224256   3.883   4.263   3.675  0.2315 -0.6792 -0.7820
 8100TIP3    H124257   3.790   4.242   3.663 -0.4349  0.6514  1.4964
 8100TIP3    H224258   3.897   4.340   3.620 -0.7243  0.6412  0.7337
 8101TIP3   OH224259   7.191   5.229   0.752 -0.5923  0.4302 -0.3532
 8101TIP3    H124260   7.231   5.273   0.677 -0.8147 -1.9363 -1.9520
 8101TIP3    H224261   7.113   5.282   0.772 -1.7950 -0.0598 -3.2775
 8102TIP3   OH224262   0.496  -0.017   1.888  0.3139  0.4731 -0.3371
 8102TIP3    H124263   0.461   0.006   1.803  0.6914 -0.0099 -0.6265
 8102TIP3    H224264   0.439   0.028   1.951  0.0375  0.8270 -0.8397
 8103TIP3   OH224265   5.828   4.292   5.616 -0.7509  0.3516  0.5304
 8103TIP3    H124266   5.919   4.303   5.644 -0.8828  0.1825  1.0322
 8103TIP3    H224267   5.817   4.197   5.608 -1.4606  0.2391  2.4428
 8104TIP3   OH224268   6.957   6.947   5.891 -0.1080  0.0227  0.3849
 8104TIP3    H124269   7.001   7.013   5.944 -0.3696  0.6091 -0.1204
 8104TIP3    H224270   7.024   6.914   5.833  0.5772 -1.7000  2.0398
 8105TIP3   OH224271   5.247   2.641   2.830  0.1271  0.1809 -0.1423
 8105TIP3    H124272   5.298   2.589   2.768 -0.5246 -0.9278  0.2152
 8105TIP3    H224273   5.310   2.673   2.894  0.5268 -0.2319 -0.3301
 8106TIP3   OH224274   3.234   2.513   0.068 -0.2750 -0.7141 -0.5526
 8106TIP3    H124275   3.204   2.523  -0.023 -0.9993  0.5522 -0.1997
 8106TIP3    H224276   3.298   2.583   0.079 -0.9590 -0.2023  0.2170
 8107TIP3   OH224277   2.905   7.287   3.449  0.1755 -0.1961  0.6658
 8107TIP3    H124278   2.902   7.376   3.412  2.3549 -0.0306  0.7343
 8107TIP3    H224279   2.899   7.229   3.373 -3.1126 -0.1276  0.7444
 8108TIP3   OH224280   7.236   2.629   2.745  0.0114  0.0841  0.2444
 8108TIP3    H124281   7.170   2.563   2.724  0.0229 -0.8790  2.8811
 8108TIP3    H224282   7.246   2.623   2.840  0.5497  3.4096  0.5078
 8109TIP3   OH224283   7.779   7.123   3.806  0.7516  0.6214 -0.0199
 8109TIP3    H124284   7.775   7.050   3.868 -0.1199  0.0936 -0.6777
 8109TIP3    H224285   7.805   7.198   3.860  1.2624 -0.0838  0.7369
 8110TIP3   OH224286   0.178   2.577   3.578  0.3047 -0.3154 -0.4007
 8110TIP3    H124287   0.145   2.560   3.666  0.4278 -0.8409 -0.4496
 8110TIP3    H224288   0.099   2.595   3.526  0.0204 -1.9503 -0.6043
 8111TIP3   OH224289   1.255   1.127   4.465  0.2559 -0.1683 -0.4930
 8111TIP3    H124290   1.227   1.179   4.389 -0.5382  1.5771  0.9226
 8111TIP3    H224291   1.328   1.176   4.503  0.2553 -0.7023  0.2192
 8112TIP3   OH224292   7.970   5.785   4.890  0.0861  0.1159 -0.2027
 8112TIP3    H124293   8.035   5.725   4.926  0.6806  1.0399  0.3092
 8112TIP3    H224294   7.911   5.729   4.839  0.3121 -0.9609  0.6807
 8113TIP3   OH224295   3.495   4.269   1.762  0.2491 -0.0814 -0.4092
 8113TIP3    H124296   3.573   4.217   1.780  0.3526  0.6666  1.5070
 8113TIP3    H224297   3.521   4.359   1.779 -0.6162  0.3548 -1.2668
 8114TIP3   OH224298   1.363   6.201   5.237  0.5521  0.1546  0.4028
 8114TIP3    H124299   1.406   6.214   5.153 -3.0025  0.6266 -1.5267
 8114TIP3    H224300   1.364   6.106   5.251  0.2033 -0.0310 -0.7565
 8115TIP3   OH224301   4.292   0.061   4.152 -0.2876  0.3366 -0.4368
 8115TIP3    H124302   4.205   0.082   4.188 -0.6876  0.8472 -1.6642
 8115TIP3    H224303   4.278  -0.020   4.103  0.2271 -0.2732  0.3901
 8116TIP3   OH224304   0.596   5.255   2.724 -0.1183  0.0816 -0.3987
 8116TIP3    H124305   0.593   5.168   2.764  0.0736  0.0200 -0.5164
 8116TIP3    H224306   0.526   5.304   2.767 -0.7757 -0.3822 -0.9235
 8117TIP3   OH224307   1.036   3.007   4.744 -0.0332 -0.0375  0.2605
 8117TIP3    H124308   1.025   2.940   4.810  0.4172 -1.0444 -0.6595
 8117TIP3    H224309   1.034   3.090   4.792 -1.4555 -0.6500  1.3184
 8118TIP3   OH224310   4.362   2.908   3.888 -0.6182 -0.1652  0.4275
 8118TIP3    H124311   4.390   2.846   3.821  0.5729 -1.0322  1.6669
 8118TIP3    H224312   4.443   2.953   3.914 -1.4485  1.9966 -0.4698
 8119TIP3   OH224313   4.742   5.312   0.644  0.1557 -0.0013  0.4027
 8119TIP3    H124314   4.667   5.292   0.699  0.2481  1.7939  1.2683
 8119TIP3    H224315   4.817   5.270   0.687 -0.1488 -0.6555  0.2900
 8120TIP3   OH224316   6.867   6.091   4.235 -0.4360 -0.9352  0.1084
 8120TIP3    H124317   6.868   6.182   4.206 -0.5450 -0.5763  1.2038
 8120TIP3    H224318   6.951   6.078   4.279  0.0419 -1.6920 -0.9772
 8121TIP3   OH224319   1.893   6.339   1.018  0.3578  0.8413  0.1071
 8121TIP3    H124320   1.983   6.322   1.045  0.4851  0.7110 -0.3838
 8121TIP3    H224321   1.883   6.290   0.936 -0.5087 -0.0492  0.7311
 8122TIP3   OH224322   8.036   7.847   3.724  0.4730 -0.3883  0.1556
 8122TIP3    H124323   8.067   7.757   3.715  0.0254 -0.6401  1.0085
 8122TIP3    H224324   7.945   7.844   3.694  0.9709  0.1648 -1.5066
 8123TIP3   OH224325   2.312   7.597   0.905 -0.3879  0.2530  0.4801
 8123TIP3    H124326   2.223   7.560   0.901 -0.4801  0.5118  0.1593
 8123TIP3    H224327   2.340   7.602   0.814 -0.7615  1.9018  0.4329
 8124TIP3   OH224328   3.596   0.801   3.935  0.1573  0.2781 -0.1508
 8124TIP3    H124329   3.568   0.709   3.943  0.3617  0.1610 -0.7888
 8124TIP3    H224330   3.683   0.796   3.895  0.7735  0.6868  1.0860
 8125TIP3   OH224331   1.246   0.142   0.108 -0.3900 -0.3092  0.0278
 8125TIP3    H124332   1.297   0.137   0.027 -0.9762  1.1193 -0.4547
 8125TIP3    H224333   1.310   0.168   0.175  0.2401 -2.1481  0.2159
 8126TIP3   OH224334   4.885   3.046   3.012  0.0816  0.4213  0.0232
 8126TIP3    H124335   4.836   3.004   2.942  0.4815 -0.2361  0.1268
 8126TIP3    H224336   4.850   3.135   3.017  0.6294  0.7528 -1.5849
 8127TIP3   OH224337   1.483   4.016   3.544  0.2571 -0.1188  0.3394
 8127TIP3    H124338   1.428   3.938   3.546 -0.0257 -0.1995 -3.2759
 8127TIP3    H224339   1.442   4.073   3.478  2.6848  1.2266 -0.1527
 8128TIP3   OH224340   3.478   6.284   2.831  0.3845 -0.5109 -0.3838
 8128TIP3    H124341   3.570   6.275   2.857 -0.1138  0.9323  2.1951
 8128TIP3    H224342   3.480   6.354   2.765  0.9083  1.9030  2.0020
 8129TIP3   OH224343   1.907   3.015   2.063 -0.2211 -0.3651  0.2269
 8129TIP3    H124344   1.892   3.059   2.147 -0.9827 -0.3006  0.0617
 8129TIP3    H224345   1.960   2.938   2.086  2.4861  1.3844  0.3354
 8130TIP3   OH224346   0.978   0.746   6.051  0.2124 -0.2868  0.0306
 8130TIP3    H124347   1.009   0.832   6.021  0.5097 -0.1877  0.6044
 8130TIP3    H224348   1.051   0.710   6.101  0.1677 -0.9732 -0.3838
 8131TIP3   OH224349   0.481   5.432   2.427 -0.0931  0.0709  0.1312
 8131TIP3    H124350   0.496   5.399   2.339  1.9213 -0.5778  0.6689
 8131TIP3    H224351   0.460   5.353   2.478 -0.7452  0.3747  0.3421
 8132TIP3   OH224352   5.713   3.507   2.684 -0.5262 -0.4599  0.0155
 8132TIP3    H124353   5.700   3.513   2.590  1.9354 -0.4511 -0.4074
 8132TIP3    H224354   5.796   3.460   2.693 -1.1562 -1.2605  2.2160
 8133TIP3   OH224355   4.400   2.094   0.428 -0.3241  0.1768 -0.4706
 8133TIP3    H124356   4.413   2.142   0.510 -2.0189 -0.2181  0.0549
 8133TIP3    H224357   4.305   2.088   0.418 -0.1568  0.0395 -2.3706
 8134TIP3   OH224358   1.352   3.764   5.839 -0.1368 -0.2464 -0.0313
 8134TIP3    H124359   1.433   3.807   5.865 -0.3716  0.6423 -0.7350
 8134TIP3    H224360   1.380   3.686   5.790  0.2856 -0.0416 -0.1181
 8135TIP3   OH224361   2.731   5.388   5.554 -0.0340 -0.7237  0.1463
 8135TIP3    H124362   2.757   5.296   5.555  1.7678 -0.2730 -0.6347
 8135TIP3    H224363   2.733   5.414   5.646 -0.4834 -1.4513  0.3654
 8136TIP3   OH224364   0.243   7.330   0.710  0.4946  0.2391  0.9269
 8136TIP3    H124365   0.305   7.353   0.779 -0.2227  2.0970  1.0229
 8136TIP3    H224366   0.159   7.364   0.741  0.3872  2.5348 -1.4374
 8137TIP3   OH224367   2.676   5.492   2.792 -0.0731 -0.3098  0.5145
 8137TIP3    H124368   2.750   5.551   2.775  0.6512 -1.2306  0.4317
 8137TIP3    H224369   2.652   5.458   2.705  0.1832 -0.9291  0.6820
 8138TIP3   OH224370   1.375   5.298   4.722 -0.0753 -0.1812 -0.0160
 8138TIP3    H124371   1.346   5.389   4.722  1.4588  0.3530  1.2163
 8138TIP3    H224372   1.391   5.278   4.629  0.6406  1.1834 -0.2151
 8139TIP3   OH224373   0.083   4.445   5.564 -0.0058  0.1634  0.0711
 8139TIP3    H124374   0.033   4.519   5.529 -0.2126 -0.4587 -1.0053
 8139TIP3    H224375   0.161   4.442   5.509  0.6651  0.4018  0.9899
 8140TIP3   OH224376   6.660   5.595   5.555 -0.0494 -0.3908  0.2696
 8140TIP3    H124377   6.628   5.630   5.472 -1.7978 -2.2185  0.0851
 8140TIP3    H224378   6.722   5.526   5.530  0.0753 -0.3666  0.5039
 8141TIP3   OH224379   3.558   7.343   5.285  0.2714  0.8051 -0.0084
 8141TIP3    H124380   3.623   7.412   5.278  0.2610  0.8067 -0.0865
 8141TIP3    H224381   3.572   7.289   5.207 -0.1136  1.0561 -0.2533
 8142TIP3   OH224382   6.136   4.669   5.455  0.0058 -0.2317 -0.2840
 8142TIP3    H124383   6.081   4.723   5.511 -1.2428 -2.0691  0.3566
 8142TIP3    H224384   6.214   4.723   5.439 -1.2102  1.7779  0.1725
 8143TIP3   OH224385   6.794   4.769   6.462 -0.5259  0.9317 -0.2557
 8143TIP3    H124386   6.837   4.854   6.473  0.1433  0.7093 -1.0831
 8143TIP3    H224387   6.792   4.732   6.550 -1.2037  1.9803  0.1846
 8144TIP3   OH224388   3.528   1.446   1.744 -0.6679  0.4701 -0.2692
 8144TIP3    H124389   3.559   1.492   1.666  1.5158  1.0381  0.8519
 8144TIP3    H224390   3.556   1.501   1.817  0.9081 -1.9580  1.0920
 8145TIP3   OH224391   7.615   1.676   3.885  0.8272 -0.4022 -0.2707
 8145TIP3    H124392   7.656   1.623   3.953  0.7762  0.4725  0.4692
 8145TIP3    H224393   7.646   1.765   3.903  1.5429 -0.2903 -1.9576
 8146TIP3   OH224394   6.877   7.541   3.734 -0.0898  0.5551  0.1197
 8146TIP3    H124395   6.932   7.550   3.657  1.6015 -2.2412  0.8540
 8146TIP3    H224396   6.787   7.538   3.699  0.5210  0.9135 -1.5532
 8147TIP3   OH224397   8.238   0.529   4.915 -0.7105 -0.2458  0.2195
 8147TIP3    H124398   8.185   0.517   4.835  1.0527  1.9906 -1.4316
 8147TIP3    H224399   8.175   0.559   4.980 -1.5730  2.8292 -1.8098
 8148TIP3   OH224400   0.515   1.877   6.660 -0.3103 -0.3271  0.0259
 8148TIP3    H124401   0.608   1.885   6.639 -0.8494  0.7426 -2.3777
 8148TIP3    H224402   0.482   1.813   6.596 -1.2233 -0.7153  0.8595
 8149TIP3   OH224403   3.390   2.571   3.123 -0.7086  0.1661  0.6133
 8149TIP3    H124404   3.382   2.592   3.030  0.0067  0.1160  0.5299
 8149TIP3    H224405   3.401   2.655   3.166 -0.4634  0.1531  0.5803
 8150TIP3   OH224406   1.542   7.428   1.116 -0.1348 -0.1265 -0.1646
 8150TIP3    H124407   1.573   7.357   1.059 -2.9702 -1.2930 -0.3974
 8150TIP3    H224408   1.495   7.487   1.057  0.0375  0.6287  0.4364
 8151TIP3   OH224409   8.210   0.000   1.616 -0.3067 -0.1007  0.1984
 8151TIP3    H124410   8.255  -0.069   1.665 -1.9194 -0.0020  1.9600
 8151TIP3    H224411   8.210   0.075   1.676  0.8381  1.2635 -1.4228
 8152TIP3   OH224412   3.319   4.096   0.643 -0.0264  0.3277  0.1867
 8152TIP3    H124413   3.246   4.151   0.617 -1.3874 -0.8147  1.4444
 8152TIP3    H224414   3.294   4.007   0.616 -0.1336 -0.4169  2.5194
 8153TIP3   OH224415   5.888   4.413   5.252  0.6700 -0.4115 -0.4929
 8153TIP3    H124416   5.838   4.454   5.323  2.3083  2.2744 -0.7742
 8153TIP3    H224417   5.840   4.438   5.172  1.5179  0.8150 -0.6438
 8154TIP3   OH224418   4.486   2.835   5.607  0.8312 -0.5618  0.4781
 8154TIP3    H124419   4.510   2.813   5.517 -0.8617  0.0684 -0.1725
 8154TIP3    H224420   4.477   2.931   5.606  1.6447 -0.4621  1.5555
 8155TIP3   OH224421   2.677   2.422   0.475 -0.2653 -0.1929 -0.0200
 8155TIP3    H124422   2.618   2.493   0.449 -0.9849  0.2276  2.4794
 8155TIP3    H224423   2.619   2.355   0.513  0.5639 -1.3805 -0.7754
 8156TIP3   OH224424   5.783   3.810   5.122 -0.2037 -0.5031  0.1373
 8156TIP3    H124425   5.873   3.840   5.120 -1.2125  2.9157  0.0658
 8156TIP3    H224426   5.761   3.794   5.030 -0.4855  1.7002 -0.2400
 8157TIP3   OH224427   1.708   0.653   3.997 -0.1160  0.2450  0.4543
 8157TIP3    H124428   1.741   0.566   4.021 -3.3482 -0.6621  2.2287
 8157TIP3    H224429   1.765   0.714   4.044  2.4543 -0.7817 -1.1202
 8158TIP3   OH224430   6.113   7.253   0.698 -0.7277  0.0996 -0.4509
 8158TIP3    H124431   6.151   7.337   0.723  1.6754 -0.7137 -1.0481
 8158TIP3    H224432   6.177   7.215   0.637 -2.0868 -1.8365 -0.7745
 8159TIP3   OH224433   6.744   3.990   0.918 -0.8405  0.3185  0.0054
 8159TIP3    H124434   6.650   3.970   0.916 -1.0452  1.1133  1.0504
 8159TIP3    H224435   6.751   4.064   0.978  0.3957  0.6412 -0.5235
 8160TIP3   OH224436   2.272   3.726   0.313 -0.2553  0.0880 -0.2366
 8160TIP3    H124437   2.221   3.801   0.283 -1.4932 -0.0106  1.5377
 8160TIP3    H224438   2.344   3.764   0.363 -1.1469  0.1141  1.0623
 8161TIP3   OH224439   2.701   3.302   3.815  0.1794 -0.3580 -0.0019
 8161TIP3    H124440   2.722   3.222   3.767  0.2014 -0.4559  0.1705
 8161TIP3    H224441   2.607   3.314   3.802  0.1721 -0.4242 -0.0110
 8162TIP3   OH224442   7.541   1.055   5.225  0.2049 -0.4646  0.0016
 8162TIP3    H124443   7.481   1.078   5.154  0.2116  0.9123  0.4154
 8162TIP3    H224444   7.606   1.125   5.225 -0.4481  0.2358  2.0919
 8163TIP3   OH224445   4.423   0.537   0.630 -0.0102 -0.0758 -0.4171
 8163TIP3    H124446   4.360   0.489   0.683 -2.5327  1.9966 -1.3159
 8163TIP3    H224447   4.466   0.597   0.691 -0.7885  0.2769 -0.2082
 8164TIP3   OH224448   7.127   6.876   2.297 -0.5532  0.0766 -0.0473
 8164TIP3    H124449   7.085   6.864   2.212 -1.1916 -1.6049  0.4588
 8164TIP3    H224450   7.055   6.895   2.357  0.0841  3.4014 -0.1647
 8165TIP3   OH224451   6.866   3.516   3.675 -0.3513  0.2827  0.5115
 8165TIP3    H124452   6.796   3.481   3.730 -0.2268  1.0434  1.1731
 8165TIP3    H224453   6.934   3.543   3.737  0.0635  0.5579 -0.0596
 8166TIP3   OH224454   1.935   6.315   0.159  0.5966  0.7343  0.0411
 8166TIP3    H124455   1.992   6.243   0.187 -0.2464  0.0138 -0.0558
 8166TIP3    H224456   1.937   6.377   0.231  0.9884  0.4052  0.3172
 8167TIP3   OH224457   0.029   4.747   3.724 -0.1027  0.6427  0.4439
 8167TIP3    H124458   0.091   4.675   3.734  0.3097  1.0177  0.5874
 8167TIP3    H224459  -0.055   4.710   3.755  0.1674  0.3233  0.8123
 8168TIP3   OH224460   6.446   4.763   1.920  0.4342 -0.2178  0.8135
 8168TIP3    H124461   6.484   4.840   1.878 -0.1883  0.1957  0.9952
 8168TIP3    H224462   6.394   4.721   1.852  2.0051 -1.3639  0.2670
 8169TIP3   OH224463   6.620   2.869   1.679  0.5267 -0.7687  0.1717
 8169TIP3    H124464   6.646   2.778   1.692 -0.4737 -1.0761  0.1675
 8169TIP3    H224465   6.665   2.918   1.747  2.4027 -0.9932 -0.8570
 8170TIP3   OH224466   7.516   6.266   1.834  0.1651  0.4924 -0.3321
 8170TIP3    H124467   7.572   6.311   1.771 -1.1315  0.6976 -1.3723
 8170TIP3    H224468   7.428   6.271   1.797 -1.0169  2.3255  2.4127
 8171TIP3   OH224469   4.159   7.482   2.997 -0.3744  0.1480 -0.1437
 8171TIP3    H124470   4.158   7.507   3.089  1.4861  1.2492 -0.3668
 8171TIP3    H224471   4.083   7.424   2.987  0.1514 -1.1529  2.3888
 8172TIP3   OH224472   7.220   1.453   4.485  0.2034 -0.5604 -0.0418
 8172TIP3    H124473   7.141   1.402   4.504 -0.1485  0.0414  0.1398
 8172TIP3    H224474   7.225   1.453   4.389  0.7577 -1.7492 -0.0367
 8173TIP3   OH224475   5.653   4.934   6.640  0.4100  0.0297 -0.1624
 8173TIP3    H124476   5.670   4.963   6.730 -0.2680 -2.6166  0.9045
 8173TIP3    H224477   5.739   4.931   6.599  0.8359  0.4541  0.6699
 8174TIP3   OH224478   2.996   3.327   3.029  0.1563 -0.2893  0.4376
 8174TIP3    H124479   2.995   3.367   3.116  0.2616  0.7327 -0.0133
 8174TIP3    H224480   3.051   3.249   3.039  1.7075  0.8036  0.8961
 8175TIP3   OH224481   1.315   2.534   5.681 -0.4803 -0.6485  0.3590
 8175TIP3    H124482   1.272   2.564   5.601 -1.2002  2.3910  1.7307
 8175TIP3    H224483   1.244   2.520   5.744  0.1317 -2.1411  0.7805
 8176TIP3   OH224484   5.137   6.658   1.553 -1.2537 -0.2429  0.0818
 8176TIP3    H124485   5.137   6.594   1.624  1.2384 -0.2740  0.1552
 8176TIP3    H224486   5.079   6.727   1.583 -0.3448 -0.2932  2.1392
 8177TIP3   OH224487   3.679   1.086   2.904  0.1856  0.4608 -0.2972
 8177TIP3    H124488   3.699   1.067   2.812  0.5031 -1.0554  0.0525
 8177TIP3    H224489   3.756   1.134   2.935  0.3159  0.5146 -0.6930
 8178TIP3   OH224490   2.036   6.173   3.015  0.6460 -0.5365 -0.2315
 8178TIP3    H124491   2.017   6.087   3.053  0.7943 -0.6285 -0.3684
 8178TIP3    H224492   1.976   6.232   3.060 -1.5990 -1.1498 -2.1869
 8179TIP3   OH224493   8.256   0.389   0.343 -0.6162  0.0606  0.3959
 8179TIP3    H124494   8.176   0.437   0.320  0.4623  1.3918 -0.7757
 8179TIP3    H224495   8.323   0.427   0.287  0.6714 -1.6694  0.6895
 8180TIP3   OH224496   8.144   4.644   4.121 -0.3995 -0.3981  0.0344
 8180TIP3    H124497   8.203   4.579   4.084  0.1085  0.4199 -0.6212
 8180TIP3    H224498   8.160   4.640   4.216 -0.0937 -0.9535 -0.0394
 8181TIP3   OH224499   3.951   2.966   2.474 -0.4982 -0.0235 -0.6579
 8181TIP3    H124500   3.882   3.030   2.489  1.1621  1.5103  1.0556
 8181TIP3    H224501   3.926   2.889   2.525 -1.2631  0.2466 -0.6252
 8182TIP3   OH224502   1.854   3.875   2.893  0.4949  0.4119  0.3635
 8182TIP3    H124503   1.810   3.960   2.889 -0.8887 -0.2745  0.5087
 8182TIP3    H224504   1.913   3.875   2.818  1.2040  1.8560  0.8776
 8183TIP3   OH224505   3.217   6.292   6.728  0.3883  0.3872 -0.0860
 8183TIP3    H124506   3.222   6.222   6.793 -1.2770  0.8037  0.5348
 8183TIP3    H224507   3.146   6.349   6.759  1.4393  2.1502 -0.7783
 8184TIP3   OH224508   1.760   6.436   2.191 -0.0216 -0.3204 -0.3094
 8184TIP3    H124509   1.787   6.527   2.177 -1.7206  0.1501 -0.7167
 8184TIP3    H224510   1.842   6.390   2.209  0.9022  1.2454 -0.2791
 8185TIP3   OH224511   2.400   6.858   3.644  0.3402 -0.1517  0.2575
 8185TIP3    H124512   2.392   6.888   3.734  0.6643  0.9370 -0.0571
 8185TIP3    H224513   2.346   6.780   3.639  0.1941 -0.1306  1.3534
 8186TIP3   OH224514   5.350   2.492   1.056  0.2075 -0.6961  0.2379
 8186TIP3    H124515   5.370   2.585   1.050  0.3450 -0.7503 -0.1846
 8186TIP3    H224516   5.369   2.469   1.147 -1.0077 -0.0499  0.6847
 8187TIP3   OH224517   3.148   3.415   5.527  0.0153  0.0281  0.1476
 8187TIP3    H124518   3.188   3.482   5.471 -0.6398  0.6654  0.4381
 8187TIP3    H224519   3.153   3.451   5.615 -1.7252  0.3791  0.1220
 8188TIP3   OH224520   2.170   5.534   0.579  0.5301  0.2111 -0.7127
 8188TIP3    H124521   2.181   5.588   0.500 -2.8683 -0.0626 -1.5300
 8188TIP3    H224522   2.214   5.452   0.558  0.5171  0.5004 -1.9618
 8189TIP3   OH224523   1.760   0.630   0.492  0.1645  0.0520 -0.7469
 8189TIP3    H124524   1.674   0.664   0.516  0.4794  0.0817  0.3657
 8189TIP3    H224525   1.818   0.706   0.496  0.6733 -0.3853  0.7522
 8190TIP3   OH224526   5.978   3.918   2.992 -0.2746 -0.4898 -0.1266
 8190TIP3    H124527   5.897   3.960   2.963  0.1570 -0.3524 -1.1847
 8190TIP3    H224528   6.002   3.860   2.919  1.5065  0.7731 -0.6097
 8191TIP3   OH224529   3.143   3.745   3.021 -0.1123 -0.2890  0.4161
 8191TIP3    H124530   3.084   3.820   3.025 -1.2847 -1.1485 -0.0589
 8191TIP3    H224531   3.098   3.682   2.965  0.0711 -2.0024  2.0814
 8192TIP3   OH224532   7.914   5.992  -0.008 -0.4036 -0.1390  0.2925
 8192TIP3    H124533   7.916   6.065   0.053 -0.4920 -0.4428  0.6643
 8192TIP3    H224534   8.006   5.968  -0.019 -0.4159 -0.3690  0.6597
 8193TIP3   OH224535   4.928   3.059   6.620 -0.2196 -0.3496 -0.5483
 8193TIP3    H124536   4.885   2.980   6.587  2.7516 -2.6874  0.6512
 8193TIP3    H224537   5.021   3.044   6.603  0.5915  2.1830  1.1472
 8194TIP3   OH224538   6.717   4.160   3.078 -0.1241  0.2464 -0.4069
 8194TIP3    H124539   6.756   4.207   3.004 -1.0973 -0.4236 -1.3815
 8194TIP3    H224540   6.684   4.079   3.040 -1.0679  0.0961  0.6891
 8195TIP3   OH224541   5.753   0.222   2.514 -0.2924  0.1727 -0.8431
 8195TIP3    H124542   5.659   0.229   2.502 -0.4690 -1.6062 -0.7065
 8195TIP3    H224543   5.775   0.293   2.575 -1.5707  0.4243 -0.6487
 8196TIP3   OH224544   6.858   2.436   6.037  0.0988  0.1400  0.0485
 8196TIP3    H124545   6.787   2.492   6.070 -0.7937 -0.7530 -0.3264
 8196TIP3    H224546   6.926   2.443   6.104 -0.1263  1.3960  0.1794
 8197TIP3   OH224547   3.976   4.692   2.026 -0.6567 -0.7059  0.2258
 8197TIP3    H124548   4.024   4.644   2.093 -1.2851  0.9306  1.9435
 8197TIP3    H224549   4.016   4.665   1.944  0.6384 -2.2479  1.2968
 8198TIP3   OH224550   6.465   0.347   0.819  0.3608  0.3677 -0.6874
 8198TIP3    H124551   6.514   0.420   0.857  0.8953  0.0091 -0.6771
 8198TIP3    H224552   6.533   0.284   0.792 -0.0966 -0.1687 -0.5976
 8199TIP3   OH224553   0.788   5.169   5.918 -0.0522  0.0366  0.1778
 8199TIP3    H124554   0.699   5.189   5.888 -0.1435 -0.5736  0.0267
 8199TIP3    H224555   0.802   5.227   5.993  0.0848  1.4276 -0.8766
 8200TIP3   OH224556   5.871   6.654   0.387 -0.2035 -0.0419 -0.1891
 8200TIP3    H124557   5.828   6.602   0.456  0.0324 -1.2964 -0.9536
 8200TIP3    H224558   5.947   6.692   0.430 -0.2625 -0.5024  0.3369
 8201TIP3   OH224559   6.936   0.024   1.064  0.1331  0.2419 -0.5269
 8201TIP3    H124560   6.994   0.100   1.069 -0.5075  0.7896 -1.3778
 8201TIP3    H224561   6.961  -0.029   1.140  0.4220  1.4007  0.2082
 8202TIP3   OH224562   0.966   6.168   5.214  0.2193  0.4066  0.4551
 8202TIP3    H124563   0.984   6.255   5.177  0.4722  0.7747  1.4053
 8202TIP3    H224564   0.979   6.108   5.141  1.7246  1.0136  0.1835
 8203TIP3   OH224565   7.982   5.949   3.134 -0.3797 -0.1675  0.8846
 8203TIP3    H124566   7.951   6.011   3.201  0.3948 -0.5778  1.6465
 8203TIP3    H224567   7.982   5.864   3.179 -0.8116 -0.6232  0.0469
 8204TIP3   OH224568   7.919   6.330   4.829 -0.5477  0.0216 -0.3118
 8204TIP3    H124569   7.885   6.241   4.834  0.3041 -0.3406 -0.7164
 8204TIP3    H224570   7.844   6.383   4.803 -1.3575 -0.3688  1.1469
 8205TIP3   OH224571   2.003   1.298   3.278  0.1486  0.4203 -0.0792
 8205TIP3    H124572   2.055   1.278   3.200 -0.1939  1.2305 -0.5290
 8205TIP3    H224573   2.064   1.341   3.337  0.8839 -1.7754  0.8805
 8206TIP3   OH224574   6.182   5.871   5.380  0.0135  1.0116 -0.3622
 8206TIP3    H124575   6.257   5.921   5.347 -0.8910  2.8274  0.2092
 8206TIP3    H224576   6.221   5.793   5.419  1.4347  0.9004 -1.8761
 8207TIP3   OH224577   3.275   4.119   1.644 -0.4153  0.0197  0.5516
 8207TIP3    H124578   3.350   4.139   1.700  0.6307  0.0648 -0.8064
 8207TIP3    H224579   3.268   4.196   1.587 -2.1132  0.4389  1.2775
 8208TIP3   OH224580   3.009   2.439   4.048 -0.0213  0.1034  0.1812
 8208TIP3    H124581   3.048   2.354   4.031 -1.6644 -0.2753 -2.3322
 8208TIP3    H224582   3.021   2.487   3.966 -0.1827  1.8642  1.1491
 8209TIP3   OH224583   7.823   4.535   0.478 -0.0527 -0.1856 -0.1123
 8209TIP3    H124584   7.809   4.451   0.521  1.5790 -0.4801 -0.0911
 8209TIP3    H224585   7.865   4.512   0.395  0.1246  0.5896 -0.2397
 8210TIP3   OH224586   5.217   6.924   4.730  0.6884  0.2086 -0.5956
 8210TIP3    H124587   5.184   6.836   4.714  0.8345  0.1653 -0.6594
 8210TIP3    H224588   5.167   6.955   4.806 -0.1666  0.4910 -1.2461
 8211TIP3   OH224589   6.005   0.968   4.624  0.0560 -0.4418  0.3711
 8211TIP3    H124590   5.923   0.927   4.649 -0.6947  0.4665 -0.5423
 8211TIP3    H224591   6.056   0.972   4.705 -1.0986 -0.3111  1.1059
 8212TIP3   OH224592   3.117   2.913   2.710 -0.0954  0.4234  0.3421
 8212TIP3    H124593   3.185   2.936   2.775  1.8811 -1.2405 -0.9980
 8212TIP3    H224594   3.078   2.833   2.745 -0.0500  0.3458  0.2164
 8213TIP3   OH224595   0.981   7.137   5.978 -0.2158  0.2056  0.2412
 8213TIP3    H124596   1.003   7.045   5.993 -1.4952 -0.0206  0.8743
 8213TIP3    H224597   1.034   7.185   6.042  1.8969  0.1264 -1.3283
 8214TIP3   OH224598   7.895   6.214   3.537 -0.4561 -0.1139  0.2231
 8214TIP3    H124599   7.903   6.309   3.548 -1.0257 -0.0877  0.4944
 8214TIP3    H224600   7.825   6.189   3.597  0.4177 -0.8693  0.9597
 8215TIP3   OH224601   5.714   2.794   3.786 -0.3594 -0.0048  1.0762
 8215TIP3    H124602   5.691   2.829   3.872 -1.0613 -0.9973  1.2985
 8215TIP3    H224603   5.750   2.708   3.804  0.5514  0.2336  0.4556
 8216TIP3   OH224604   6.279   2.587   2.851 -0.2232 -0.3688 -0.2506
 8216TIP3    H124605   6.279   2.634   2.767  0.5488 -1.0387 -0.6481
 8216TIP3    H224606   6.367   2.601   2.886 -0.0707 -1.2735 -0.2492
 8217TIP3   OH224607   6.475   1.321   5.193 -0.4073  0.5682  0.1640
 8217TIP3    H124608   6.399   1.349   5.143  0.2371  0.9022 -0.6435
 8217TIP3    H224609   6.545   1.314   5.129  0.3490  0.6587  0.9619
 8218TIP3   OH224610   2.232   0.008   0.339 -0.1891  0.2023  0.5540
 8218TIP3    H124611   2.161   0.031   0.279 -2.5033  0.0200  3.0218
 8218TIP3    H224612   2.192   0.015   0.426  2.2827 -1.8846  1.9817
 8219TIP3   OH224613   0.484   6.104   1.334  0.2373  0.7140  0.3939
 8219TIP3    H124614   0.506   6.028   1.389 -0.6446 -0.3745 -0.6859
 8219TIP3    H224615   0.543   6.096   1.259 -0.7849  0.2705 -0.3946
 8220TIP3   OH224616   2.303   4.591   3.116  0.5733  0.2126 -0.0440
 8220TIP3    H124617   2.361   4.635   3.178 -0.5318 -0.7461  1.7668
 8220TIP3    H224618   2.225   4.646   3.114  0.8504  0.5928 -1.1446
 8221TIP3   OH224619   3.993   5.720   2.032 -0.4590  0.0491 -0.5408
 8221TIP3    H124620   4.050   5.722   1.955  0.5563 -0.7153  0.1604
 8221TIP3    H224621   4.044   5.674   2.098 -1.4632  0.3532  0.4787
 8222TIP3   OH224622   6.016   6.553   6.306 -0.3715 -0.3525 -0.2153
 8222TIP3    H124623   6.089   6.601   6.266  1.2403 -0.9754  1.7713
 8222TIP3    H224624   5.953   6.621   6.330 -0.1632  0.2784 -1.3740
 8223TIP3   OH224625   6.030   3.735   5.682 -0.1553  0.0744 -0.4535
 8223TIP3    H124626   6.108   3.680   5.680  0.6328  0.9477 -5.1099
 8223TIP3    H224627   6.064   3.824   5.696 -0.4197  0.3248 -1.3535
 8224TIP3   OH224628   6.313   6.121   4.250 -0.2667  0.4349  0.0878
 8224TIP3    H124629   6.297   6.143   4.342  1.6372  2.3581  0.0551
 8224TIP3    H224630   6.230   6.086   4.219 -0.7457 -1.0227  2.7192
 8225TIP3   OH224631   6.600   4.524   5.411  0.6471 -0.3068 -0.1330
 8225TIP3    H124632   6.599   4.444   5.359  2.1783  0.0057 -0.6899
 8225TIP3    H224633   6.690   4.531   5.443  0.2984  0.7055  0.6617
 8226TIP3   OH224634   4.598   7.464   3.664  0.6362  0.5975 -0.1815
 8226TIP3    H124635   4.513   7.480   3.705  0.5232  1.1869 -0.6455
 8226TIP3    H224636   4.579   7.460   3.570  1.1350  0.8382 -0.2941
 8227TIP3   OH224637   7.877   0.131   1.377 -0.3851 -0.3228 -0.3895
 8227TIP3    H124638   7.828   0.188   1.318 -1.1213 -1.6678 -1.1391
 8227TIP3    H224639   7.961   0.118   1.334 -0.2469  0.1166 -0.2566
 8228TIP3   OH224640   5.484   2.806   5.982 -0.0800  0.7188  0.2771
 8228TIP3    H124641   5.451   2.814   6.071 -0.6170  1.9220 -0.0015
 8228TIP3    H224642   5.428   2.740   5.941 -1.8076  2.2777  0.0011
 8229TIP3   OH224643   5.224   7.404   6.045 -0.3677  0.2702  0.0345
 8229TIP3    H124644   5.220   7.310   6.026  1.0658  0.3733 -0.9074
 8229TIP3    H224645   5.235   7.409   6.140 -0.6760 -0.4985  0.1163
 8230TIP3   OH224646   5.127   7.758   4.375  0.3407 -0.2614  0.1710
 8230TIP3    H124647   5.197   7.716   4.325  1.2345  0.7884  0.5121
 8230TIP3    H224648   5.116   7.704   4.453  1.0921 -0.1816  0.3339
 8231TIP3   OH224649   4.277   1.275   6.017 -0.2203 -0.7117  0.2450
 8231TIP3    H124650   4.193   1.230   6.014 -1.4886  1.5717 -0.5781
 8231TIP3    H224651   4.270   1.336   6.090  0.0839  0.6168 -0.8004
 8232TIP3   OH224652   3.203   3.450   2.838 -0.4014  0.0388 -0.2777
 8232TIP3    H124653   3.120   3.418   2.872 -0.5960 -2.9634 -3.1214
 8232TIP3    H224654   3.179   3.523   2.781 -1.4116 -1.7539 -2.2796
 8233TIP3   OH224655   4.722   3.033   1.735 -0.3526  0.6044 -0.1317
 8233TIP3    H124656   4.713   3.126   1.756  1.1895  0.7221  0.1616
 8233TIP3    H224657   4.663   3.019   1.661 -0.2780  1.9178 -0.4667
 8234TIP3   OH224658   6.310   1.279   4.414 -0.0102 -0.0070  0.7784
 8234TIP3    H124659   6.389   1.301   4.366 -1.6431  1.4602 -1.4479
 8234TIP3    H224660   6.317   1.185   4.432  1.5224 -0.2164 -0.7234
 8235TIP3   OH224661   7.199   3.215   0.975 -0.2496  0.0582  0.2296
 8235TIP3    H124662   7.199   3.292   1.031  0.2670  0.5419 -0.4228
 8235TIP3    H224663   7.261   3.155   1.017 -1.6541 -0.5839  1.4794
 8236TIP3   OH224664   1.098   4.964   6.067  0.3470  0.1503  0.0353
 8236TIP3    H124665   1.011   4.925   6.067  0.6259 -0.5465 -1.7578
 8236TIP3    H224666   1.100   5.019   6.146 -1.6421  0.0618  0.1817
 8237TIP3   OH224667   3.818   3.101   5.174  0.3676 -0.2881 -0.3451
 8237TIP3    H124668   3.760   3.136   5.106 -1.0618  0.3357  1.1178
 8237TIP3    H224669   3.833   3.176   5.232 -0.2141 -1.3228  1.1799
 8238TIP3   OH224670   4.202   1.826   2.062 -0.2051  0.1380  0.2883
 8238TIP3    H124671   4.183   1.893   2.128  2.7207  0.7144  0.6746
 8238TIP3    H224672   4.204   1.875   1.979 -0.3434  0.0980  0.2619
 8239TIP3   OH224673   1.748   1.215   3.163 -0.6826  0.4843  0.3646
 8239TIP3    H124674   1.829   1.242   3.206 -0.4672  1.7888 -0.7931
 8239TIP3    H224675   1.746   1.120   3.172  1.4128  0.3303 -0.2814
 8240TIP3   OH224676   1.899   2.915   2.431  0.2003  0.4109  0.2899
 8240TIP3    H124677   1.971   2.976   2.447  1.2642 -1.1475  1.8140
 8240TIP3    H224678   1.824   2.971   2.414  1.6637  2.1006 -0.9565
 8241TIP3   OH224679   0.323   1.192   4.735  0.6199  0.1406  0.6187
 8241TIP3    H124680   0.271   1.114   4.752  2.1295 -1.6776 -2.2574
 8241TIP3    H224681   0.260   1.264   4.740 -1.3428 -1.5066  1.0694
 8242TIP3   OH224682   7.350   3.481   0.462  0.7571 -0.3156 -0.6050
 8242TIP3    H124683   7.341   3.491   0.557 -0.0327 -2.3652 -0.4084
 8242TIP3    H224684   7.367   3.570   0.430 -0.2854  0.6363  1.3024
 8243TIP3   OH224685   4.233   5.030   5.578  0.1377  0.3073  0.0595
 8243TIP3    H124686   4.292   5.079   5.636  0.4116  0.4663 -0.3530
 8243TIP3    H224687   4.248   4.938   5.600  0.1258  0.3729  0.3491
 8244TIP3   OH224688   5.032   1.609   5.517  0.4053  0.3811  0.0492
 8244TIP3    H124689   4.962   1.673   5.527  1.6210  2.0918 -1.6803
 8244TIP3    H224690   5.003   1.551   5.447 -0.4378 -0.6963  1.2265
 8245TIP3   OH224691   8.030   2.801   6.053  0.1436  0.0751  0.2610
 8245TIP3    H124692   8.026   2.895   6.036  0.5063 -0.1132 -1.0072
 8245TIP3    H224693   7.949   2.767   6.016  0.2724 -0.1804  0.2148
 8246TIP3   OH224694   0.794   7.600   3.063  0.5897  0.5875  0.1684
 8246TIP3    H124695   0.820   7.682   3.105 -0.1344  0.4398  0.9407
 8246TIP3    H224696   0.832   7.532   3.119 -0.8330  0.3790  0.9413
 8247TIP3   OH224697   1.478   7.673   3.756  0.1590  0.7939 -0.2620
 8247TIP3    H124698   1.549   7.680   3.820  0.8129  1.6042 -1.0459
 8247TIP3    H224699   1.464   7.763   3.726 -1.0137  0.6029 -0.3318
 8248TIP3   OH224700   6.539   0.766   0.577 -0.2675  0.1556 -0.2804
 8248TIP3    H124701   6.610   0.801   0.523  0.4813 -2.0672 -0.8219
 8248TIP3    H224702   6.470   0.744   0.514 -0.8549  0.8969  0.0874
 8249TIP3   OH224703   6.689   0.208   0.793 -0.4018  0.2892  0.0045
 8249TIP3    H124704   6.682   0.210   0.889  1.2939 -0.5424  0.1858
 8249TIP3    H224705   6.782   0.226   0.776 -0.2286 -1.6826 -1.3606
 8250TIP3   OH224706   4.041   2.490   1.987  0.2833 -0.5448 -0.0032
 8250TIP3    H124707   4.067   2.398   1.994  1.7730 -0.1708 -0.3273
 8250TIP3    H224708   3.946   2.487   1.974  0.3240 -2.0402 -0.1384
 8251TIP3   OH224709   1.373   7.567   3.220 -0.1526 -0.3918  0.3707
 8251TIP3    H124710   1.358   7.647   3.170 -0.2327 -0.1947  0.7155
 8251TIP3    H224711   1.468   7.565   3.234  0.0820 -1.2156 -1.0854
 8252TIP3   OH224712   4.617   3.290   1.416 -0.3991 -0.0926 -0.8459
 8252TIP3    H124713   4.702   3.295   1.374 -1.4378  0.0193 -3.0819
 8252TIP3    H224714   4.593   3.197   1.411 -1.1411  0.1370 -1.8579
 8253TIP3   OH224715   3.692   1.048   0.695  1.1546  0.0763 -0.0631
 8253TIP3    H124716   3.738   1.095   0.626 -0.8648  1.7231 -0.4001
 8253TIP3    H224717   3.609   1.023   0.656  0.7046 -0.5585  1.2419
 8254TIP3   OH224718   0.078   6.925   6.161 -0.6081 -0.2344 -0.8344
 8254TIP3    H124719   0.126   6.898   6.083  0.9311 -0.5009  0.1588
 8254TIP3    H224720   0.140   6.913   6.233 -2.3011 -0.9489  0.5733
 8255TIP3   OH224721   2.434   6.725   3.170  0.6968 -0.6036  0.1647
 8255TIP3    H124722   2.432   6.740   3.264  1.9869 -0.4897  0.1949
 8255TIP3    H224723   2.352   6.761   3.138 -1.0725 -3.1056  1.5569
 8256TIP3   OH224724   6.308   4.345   6.078 -0.2362 -0.4802 -0.6570
 8256TIP3    H124725   6.229   4.305   6.041 -0.1891 -0.0033 -1.2725
 8256TIP3    H224726   6.356   4.378   6.002  0.6944 -1.0124 -0.3117
 8257TIP3   OH224727   6.949   5.562   4.144  0.6354  0.1930  0.0315
 8257TIP3    H124728   7.010   5.612   4.197  0.7016 -0.8284  0.9634
 8257TIP3    H224729   6.977   5.471   4.154 -1.3302 -0.3625  0.9237
 8258TIP3   OH224730   1.927   7.715   1.100  0.5271  0.6241 -0.4196
 8258TIP3    H124731   1.964   7.756   1.022 -1.2275  2.0404 -0.5637
 8258TIP3    H224732   1.843   7.679   1.070 -0.0618  0.9880  0.7419
 8259TIP3   OH224733   7.401   4.246   2.820 -0.9086 -0.2065  0.1454
 8259TIP3    H124734   7.420   4.153   2.811 -0.3624 -0.1472  0.5749
 8259TIP3    H224735   7.407   4.281   2.732  0.0274 -0.3819  0.1211
 8260TIP3   OH224736   0.319   7.767   5.003  0.3265 -0.4913 -0.1145
 8260TIP3    H124737   0.399   7.820   5.004  2.7300 -3.7592  2.7495
 8260TIP3    H224738   0.290   7.766   5.094 -2.1462 -0.7488 -0.8255
 8261TIP3   OH224739   6.666   6.670   4.512  0.3559 -0.1494  0.0590
 8261TIP3    H124740   6.701   6.752   4.479 -1.0100  0.3075 -0.3041
 8261TIP3    H224741   6.742   6.625   4.551  1.5948  0.1972 -1.8360
 8262TIP3   OH224742   6.945   4.864   1.578  0.2615  0.1250 -0.0350
 8262TIP3    H124743   6.850   4.871   1.567  0.2146 -0.1747  0.1939
 8262TIP3    H224744   6.979   4.863   1.488  0.0724  0.5375 -0.1151
 8263TIP3   OH224745   8.211   1.697   0.836 -0.4203  0.1419 -0.3197
 8263TIP3    H124746   8.156   1.675   0.911  1.2332 -2.3655  0.2804
 8263TIP3    H224747   8.158   1.672   0.760 -0.5598 -1.1982  0.1939
 8264TIP3   OH224748   4.207   7.131   4.209  0.0947  0.5742  0.0456
 8264TIP3    H124749   4.130   7.186   4.217  0.0912  0.3137  2.2665
 8264TIP3    H224750   4.174   7.047   4.176 -0.7308  0.2148  1.7056
 8265TIP3   OH224751   4.773   5.007   5.756 -0.0681  0.1810  0.8178
 8265TIP3    H124752   4.707   4.953   5.797  0.8890 -1.8807 -0.1799
 8265TIP3    H224753   4.788   5.079   5.817 -0.5392 -1.3388  2.8027
 8266TIP3   OH224754   4.629   0.750   2.270  0.4905 -0.1614 -0.4630
 8266TIP3    H124755   4.605   0.813   2.338  4.2117  0.0916  0.8536
 8266TIP3    H224756   4.675   0.801   2.204  1.8745 -1.1307 -0.3152
 8267TIP3   OH224757   3.503   5.776   3.019  0.1612 -0.2285  0.4199
 8267TIP3    H124758   3.477   5.684   3.029 -1.7815  0.0749 -1.1330
 8267TIP3    H224759   3.420   5.823   3.009  1.0489  1.8848  2.1824
 8268TIP3   OH224760   3.401   4.311   2.563  0.1700 -0.0736  0.6230
 8268TIP3    H124761   3.462   4.252   2.607  0.0936  0.1234  0.9933
 8268TIP3    H224762   3.397   4.278   2.473  1.4091  0.3751  0.3899
 8269TIP3   OH224763   6.605   1.228   3.426  0.3868  0.1243 -0.1585
 8269TIP3    H124764   6.544   1.251   3.496  0.8588 -2.2763  1.1228
 8269TIP3    H224765   6.560   1.161   3.376  0.1595  1.6465 -2.0998
 8270TIP3   OH224766   2.762   3.173   2.230  0.5703  0.1899 -0.3666
 8270TIP3    H124767   2.743   3.152   2.139  0.9519 -0.9930 -0.1916
 8270TIP3    H224768   2.707   3.249   2.249 -0.4626 -0.3187 -1.2147
 8271TIP3   OH224769   8.060   4.601   2.839 -0.3944 -0.6344  0.1540
 8271TIP3    H124770   8.007   4.613   2.918  0.4628  0.0764  0.6393
 8271TIP3    H224771   8.150   4.603   2.870 -0.0545 -0.8969 -0.7793
 8272TIP3   OH224772   1.105   1.206   6.699  0.1497 -0.5764 -0.2863
 8272TIP3    H124773   1.010   1.206   6.689  0.1601  0.0813 -0.4142
 8272TIP3    H224774   1.131   1.118   6.671 -0.4384 -0.8435 -0.0178
 8273TIP3   OH224775   5.671   3.565   5.897 -0.3633  0.3463  0.1383
 8273TIP3    H124776   5.704   3.614   5.973 -1.4591  1.7932 -0.2608
 8273TIP3    H224777   5.697   3.475   5.913 -1.7781  0.3240  2.9850
 8274TIP3   OH224778   7.238   2.303   2.116  0.1749  0.3938  0.9099
 8274TIP3    H124779   7.191   2.219   2.118  0.8345 -0.0111  0.0978
 8274TIP3    H224780   7.327   2.279   2.093  0.7499  1.1823  2.2092
 8275TIP3   OH224781   4.214   4.001   4.936  0.1750 -0.0790 -0.2624
 8275TIP3    H124782   4.160   4.079   4.942 -0.8725 -0.8180  0.2780
 8275TIP3    H224783   4.169   3.936   4.990  1.2815 -0.9106 -0.2902
 8276TIP3   OH224784   3.227   0.161   2.645 -0.1016  0.0546  0.0048
 8276TIP3    H124785   3.154   0.215   2.614  0.7209  1.4237  0.3668
 8276TIP3    H224786   3.208   0.145   2.738  0.6334  1.4683  0.4298
 8277TIP3   OH224787   7.109   0.513   3.962  0.2219 -0.5147  0.1979
 8277TIP3    H124788   7.140   0.427   3.934 -1.0045 -0.3990 -1.7820
 8277TIP3    H224789   7.014   0.509   3.950 -0.0728  0.5149  1.8957
 8278TIP3   OH224790   2.515   2.804   3.606  0.0712 -0.7242 -0.6039
 8278TIP3    H124791   2.479   2.892   3.620 -0.2014 -1.0998  1.3893
 8278TIP3    H224792   2.447   2.745   3.639  0.0779 -1.7415 -2.2823
 8279TIP3   OH224793   0.273   0.387   6.638 -0.4949  0.4113  0.0676
 8279TIP3    H124794   0.316   0.450   6.696 -3.2545  0.7961  1.8829
 8279TIP3    H224795   0.245   0.316   6.696  1.2551 -1.9220 -1.7102
 8280TIP3   OH224796   3.633   1.662   4.028 -0.3392  0.0854 -0.2662
 8280TIP3    H124797   3.540   1.668   4.010 -0.4904  0.0600  0.4739
 8280TIP3    H224798   3.666   1.751   4.015 -0.8431  0.5494  1.4213
 8281TIP3   OH224799   5.357   6.935   0.143  0.0756  0.0475  0.1598
 8281TIP3    H124800   5.289   6.988   0.186  0.2538 -0.9809  1.7830
 8281TIP3    H224801   5.436   6.988   0.151  0.1307 -0.1765  1.2448
 8282TIP3   OH224802   3.085   0.929   0.423 -0.1112 -0.6542 -0.1010
 8282TIP3    H124803   3.035   0.857   0.460 -0.2671  0.4694  1.9921
 8282TIP3    H224804   3.031   0.962   0.351 -0.7482 -1.6205 -0.0718
 8283TIP3   OH224805   5.461   3.072   1.206  0.0669 -0.4678 -0.3330
 8283TIP3    H124806   5.388   3.024   1.169 -0.0128 -0.4003 -0.2634
 8283TIP3    H224807   5.497   3.013   1.273 -0.2966 -0.2594  0.0524
 8284TIP3   OH224808   6.469   4.620   6.057  0.2262  0.7637 -0.2806
 8284TIP3    H124809   6.534   4.661   6.115  0.1964  0.8710 -0.3230
 8284TIP3    H224810   6.403   4.583   6.117  0.6129  0.1652 -0.2136
 8285TIP3   OH224811   0.461   2.103   1.109 -0.4598  0.1820 -0.0870
 8285TIP3    H124812   0.391   2.038   1.101 -2.1580  2.0381 -1.2137
 8285TIP3    H224813   0.458   2.152   1.027  0.2752  2.1210  0.9786
 8286TIP3   OH224814   3.816   7.435   1.449  0.1001  0.6169  0.0196
 8286TIP3    H124815   3.750   7.499   1.476  0.5142  0.8268  0.5519
 8286TIP3    H224816   3.776   7.389   1.375 -0.1452  1.5926 -0.4633
 8287TIP3   OH224817   1.831   6.811   1.263 -0.6064 -0.0972 -0.9417
 8287TIP3    H124818   1.875   6.810   1.348 -0.0445  2.0009 -1.1294
 8287TIP3    H224819   1.870   6.739   1.215  0.1502 -0.3964  0.0714
 8288TIP3   OH224820   7.881   0.600   5.606 -0.0311  0.0771 -0.3070
 8288TIP3    H124821   7.898   0.601   5.511  2.5630  3.1959 -0.0001
 8288TIP3    H224822   7.872   0.692   5.629  0.6988 -0.5133  2.6645
 8289TIP3   OH224823   3.357   0.440   0.163  0.1967  0.1169 -0.8912
 8289TIP3    H124824   3.412   0.471   0.091  1.0032  0.4473 -0.1396
 8289TIP3    H224825   3.408   0.457   0.242 -0.4374 -0.7819 -0.2731
 8290TIP3   OH224826   6.326   2.577   6.515  0.5155  0.1569  0.6011
 8290TIP3    H124827   6.276   2.607   6.591 -0.4626 -0.8763  0.3944
 8290TIP3    H224828   6.361   2.657   6.476 -1.6501  1.0239  0.3143
 8291TIP3   OH224829   7.259   0.658   2.442  0.5622 -0.5385 -0.4839
 8291TIP3    H124830   7.223   0.575   2.412  0.4427 -1.1527  1.2183
 8291TIP3    H224831   7.215   0.674   2.526  0.6468  1.2091 -0.7313
 8292TIP3   OH224832   7.159   3.960   4.167  0.5656  0.4523 -0.0729
 8292TIP3    H124833   7.225   4.028   4.151  0.5716  0.6239  0.6426
 8292TIP3    H224834   7.076   4.005   4.156  0.5358  1.0885  2.2305
 8293TIP3   OH224835   3.185   3.261   1.481 -0.3585  0.7310  0.0179
 8293TIP3    H124836   3.133   3.322   1.534 -1.7656 -0.3761 -0.0467
 8293TIP3    H224837   3.258   3.236   1.538 -0.6667  1.2079  0.6368
 8294TIP3   OH224838   5.168   0.885   2.440 -0.2253 -0.2307  0.1507
 8294TIP3    H124839   5.108   0.879   2.365  0.3450  0.6121 -0.3934
 8294TIP3    H224840   5.193   0.978   2.443  3.7306 -1.0217 -1.8081
 8295TIP3   OH224841   5.737   4.282   4.494  0.6040  0.2557 -0.3384
 8295TIP3    H124842   5.684   4.361   4.482  0.4809  0.3475  0.7866
 8295TIP3    H224843   5.692   4.231   4.560  1.3833 -0.1459 -0.1018
 8296TIP3   OH224844   5.653   3.162   4.609 -0.0071 -0.4911 -0.0263
 8296TIP3    H124845   5.712   3.229   4.573  1.2807 -0.3001  2.2641
 8296TIP3    H224846   5.660   3.089   4.547  0.2153  0.6816 -1.4493
 8297TIP3   OH224847   1.286   3.895   1.587 -0.3358 -0.2210 -0.0603
 8297TIP3    H124848   1.223   3.892   1.658  1.2720 -1.9112  1.3856
 8297TIP3    H224849   1.367   3.862   1.625  1.5878  2.1698 -1.7212
 8298TIP3   OH224850   2.916   7.203   1.775  0.1254  0.2765 -0.0522
 8298TIP3    H124851   2.853   7.139   1.808 -1.0412  1.9214  1.0388
 8298TIP3    H224852   2.864   7.262   1.721  1.0308  0.7485 -0.4191
 8299TIP3   OH224853   0.681   5.421   0.796 -0.0674 -0.4073  0.6856
 8299TIP3    H124854   0.744   5.432   0.867 -0.5498  1.2942  0.9017
 8299TIP3    H224855   0.660   5.511   0.769 -0.7611 -0.9951 -0.8342
 8300TIP3   OH224856   5.351   4.967   4.253 -0.4348  0.4712  0.5781
 8300TIP3    H124857   5.423   5.030   4.247 -0.1599  0.0329 -0.9676
 8300TIP3    H224858   5.283   5.002   4.195 -0.0994 -0.8523 -0.6684
 8301TIP3   OH224859   1.471   4.261   3.677  0.2243  0.5470 -0.3290
 8301TIP3    H124860   1.512   4.180   3.646  3.0179  2.1357 -1.0741
 8301TIP3    H224861   1.377   4.241   3.679  0.8985 -3.3924  1.6941
 8302TIP3   OH224862   1.767   3.618   4.295  0.6498 -0.4973 -0.0641
 8302TIP3    H124863   1.769   3.600   4.201  1.4059  2.4111 -0.7162
 8302TIP3    H224864   1.725   3.542   4.333 -1.0408 -1.1553 -2.9351
 8303TIP3   OH224865   3.918   6.834   5.121  0.3697 -0.4896  0.2792
 8303TIP3    H124866   3.855   6.857   5.052  1.2845 -2.1444 -1.1765
 8303TIP3    H224867   3.863   6.804   5.194 -0.5888 -2.2921 -1.1034
 8304TIP3   OH224868   0.373   1.554   3.203 -0.0395  0.2181  0.2264
 8304TIP3    H124869   0.348   1.547   3.110  0.9317 -0.3884 -0.0038
 8304TIP3    H224870   0.324   1.484   3.246  1.7334 -1.4521 -0.3450
 8305TIP3   OH224871   7.985   5.750   3.307  0.2590 -0.3750  0.1868
 8305TIP3    H124872   7.978   5.660   3.274  0.4912  0.0005 -0.8967
 8305TIP3    H224873   8.071   5.753   3.350  0.6739 -0.3960 -0.6345
 8306TIP3   OH224874   6.601   5.693   0.240  0.0402  0.2208  0.1911
 8306TIP3    H124875   6.651   5.772   0.259  1.3016 -0.8117  1.3284
 8306TIP3    H224876   6.650   5.651   0.169 -0.2152  0.0759  0.1011
 8307TIP3   OH224877   5.198   1.275   0.112  0.5688 -0.0557 -0.3807
 8307TIP3    H124878   5.205   1.192   0.065  1.1953 -0.4420  0.3764
 8307TIP3    H224879   5.104   1.284   0.131  0.4995 -0.5855 -0.4724
 8308TIP3   OH224880   2.786   6.973   3.645 -0.3646 -0.4040 -0.1054
 8308TIP3    H124881   2.709   7.009   3.602 -0.2820  0.8502  0.7219
 8308TIP3    H224882   2.860   7.012   3.599 -0.2482  2.9934  2.5575
 8309TIP3   OH224883   4.654   2.270   0.869 -0.2783 -0.4971 -0.2687
 8309TIP3    H124884   4.597   2.305   0.938 -0.2118 -1.3012  0.2032
 8309TIP3    H224885   4.701   2.347   0.837  0.1349 -0.1862  1.0058
 8310TIP3   OH224886   5.769   2.641   1.819  0.0227 -0.3308 -0.5843
 8310TIP3    H124887   5.769   2.712   1.755  0.2967  0.0578 -0.1627
 8310TIP3    H224888   5.676   2.622   1.834 -0.0557 -1.5328 -2.2843
 8311TIP3   OH224889   7.863   6.379   0.012  0.7925 -1.0151 -0.0485
 8311TIP3    H124890   7.849   6.474   0.004 -2.3609 -1.4220 -0.7922
 8311TIP3    H224891   7.893   6.366   0.102 -0.0268  0.5869  0.4848
 8312TIP3   OH224892   5.962   1.319   0.002 -0.1359 -0.1090 -0.0096
 8312TIP3    H124893   5.931   1.387   0.061 -0.0815 -0.0797 -0.0149
 8312TIP3    H224894   5.992   1.249   0.059  2.1823  0.8692  0.0887
 8313TIP3   OH224895   6.709   1.720   3.738 -0.4834 -0.6839 -0.7953
 8313TIP3    H124896   6.696   1.812   3.712 -0.0191 -0.7297 -1.2135
 8313TIP3    H224897   6.695   1.671   3.657  0.5407 -0.8690 -0.8708
 8314TIP3   OH224898   4.534   2.373   6.300  0.6054 -0.1114 -0.0960
 8314TIP3    H124899   4.533   2.308   6.230 -0.1858 -0.0018 -0.1984
 8314TIP3    H224900   4.590   2.335   6.368  0.1561 -0.8902 -0.1596
 8315TIP3   OH224901   0.713   1.170   3.942 -0.7361 -0.6772 -0.0790
 8315TIP3    H124902   0.687   1.210   3.859 -1.4314  0.1366  0.5047
 8315TIP3    H224903   0.746   1.083   3.918 -0.5773 -0.3126 -1.2331
 8316TIP3   OH224904   7.216   2.799   6.218  0.6001 -0.0062  0.7267
 8316TIP3    H124905   7.288   2.736   6.223  0.3612 -0.4866 -1.1508
 8316TIP3    H224906   7.242   2.861   6.151  0.0088  0.8229  1.2472
 8317TIP3   OH224907   6.533   1.883   0.316 -0.7630  0.5759 -0.0554
 8317TIP3    H124908   6.515   1.836   0.397  0.1066  0.2180 -0.0619
 8317TIP3    H224909   6.621   1.856   0.292 -0.8678  0.9807 -0.9170
 8318TIP3   OH224910   0.513   2.177   2.391  0.3548 -0.2676 -0.0810
 8318TIP3    H124911   0.535   2.267   2.368 -1.7362  0.8706  1.9812
 8318TIP3    H224912   0.475   2.140   2.312  1.6389  0.4801 -1.0785
 8319TIP3   OH224913   6.365   5.264   5.540 -0.2201  0.2518 -0.1671
 8319TIP3    H124914   6.322   5.181   5.559  0.3355  0.0528  0.2339
 8319TIP3    H224915   6.362   5.312   5.623  0.3720  0.2201 -0.1288
 8320TIP3   OH224916   7.884   1.678   4.528 -0.1414 -0.1418 -0.4315
 8320TIP3    H124917   7.795   1.711   4.513 -0.0697 -0.8202 -2.8357
 8320TIP3    H224918   7.938   1.757   4.537 -0.5585  0.3765 -2.1098
 8321TIP3   OH224919   6.843   2.346   2.392  0.4535 -0.0301  0.4384
 8321TIP3    H124920   6.918   2.391   2.354  1.1040  0.5255  2.2453
 8321TIP3    H224921   6.873   2.256   2.406  1.0596  0.3509  1.7648
 8322TIP3   OH224922   5.058   1.125   1.670  0.3854 -0.2888 -0.2419
 8322TIP3    H124923   5.105   1.206   1.652 -0.7622  0.7309  1.0887
 8322TIP3    H224924   4.986   1.125   1.608 -0.2930  0.3422  0.5188
 8323TIP3   OH224925   8.009   1.168   1.339  0.5894 -0.2249  0.4152
 8323TIP3    H124926   8.014   1.143   1.431 -0.6039  1.1788  0.8851
 8323TIP3    H224927   8.081   1.230   1.327  1.3788 -1.1617  0.1126
 8324TIP3   OH224928   0.886   3.856   1.206  0.1901  0.0673 -0.4445
 8324TIP3    H124929   0.966   3.849   1.259 -1.4771  0.1331  2.2622
 8324TIP3    H224930   0.883   3.948   1.180  1.0611  0.0291 -0.7166
 8325TIP3   OH224931   6.828   5.457   4.545  0.0987 -0.4593 -0.6137
 8325TIP3    H124932   6.805   5.412   4.626  0.3071 -0.3302 -0.4816
 8325TIP3    H224933   6.911   5.501   4.564 -1.4548  2.3721  0.2223
 8326TIP3   OH224934   4.453   7.354   1.412  0.2909  0.0278 -0.1303
 8326TIP3    H124935   4.361   7.353   1.384  0.4408 -0.6349 -0.6237
 8326TIP3    H224936   4.463   7.438   1.457 -0.6189  0.0089  0.1442
 8327TIP3   OH224937   4.606   5.008   3.508  0.0916  0.2357  0.0759
 8327TIP3    H124938   4.640   5.080   3.457  0.6360 -0.8640 -1.1722
 8327TIP3    H224939   4.684   4.960   3.537 -0.2905 -0.4968 -0.0888
 8328TIP3   OH224940   2.826   1.611   3.495 -0.0480 -0.5565 -0.4424
 8328TIP3    H124941   2.842   1.537   3.436  2.8803 -0.6481  0.2987
 8328TIP3    H224942   2.887   1.679   3.466 -1.1168  0.7729  0.2636
 8329TIP3   OH224943   5.776   4.228   2.535 -0.1082  0.0532 -0.1462
 8329TIP3    H124944   5.709   4.296   2.531 -0.8491 -0.6364  0.1983
 8329TIP3    H224945   5.774   4.186   2.449  1.8938  1.8469 -1.1759
 8330TIP3   OH224946   8.031   5.176   4.040  0.1096 -0.2507 -0.2341
 8330TIP3    H124947   8.036   5.267   4.067 -0.0452  0.2526 -1.7801
 8330TIP3    H224948   7.945   5.168   3.997  0.9563 -0.5572 -1.9517
 8331TIP3   OH224949   3.568   7.550   4.706 -0.0823  0.2817 -0.0515
 8331TIP3    H124950   3.507   7.619   4.679 -0.3623  0.0890  0.0756
 8331TIP3    H224951   3.603   7.516   4.624 -1.4329 -0.7570 -0.2445
 8332TIP3   OH224952   4.105   2.113   3.862  0.3641 -0.5024  0.0038
 8332TIP3    H124953   4.150   2.039   3.823  2.1872  0.6007 -0.1069
 8332TIP3    H224954   4.075   2.165   3.788 -1.3866 -1.3420  0.0719
 8333TIP3   OH224955   4.277   1.471   6.225 -0.8339  0.3644 -0.3528
 8333TIP3    H124956   4.334   1.515   6.288 -1.6019 -0.7269  1.1657
 8333TIP3    H224957   4.190   1.473   6.265 -1.2478 -0.8532 -1.1081
 8334TIP3   OH224958   6.375   1.626   2.276  0.4348 -0.2587  0.0470
 8334TIP3    H124959   6.401   1.692   2.340  1.9831 -1.5363  0.8266
 8334TIP3    H224960   6.281   1.614   2.290  0.3763  0.8768  0.7312
 8335TIP3   OH224961   7.116   5.224   5.188 -0.0679  0.3409  0.5196
 8335TIP3    H124962   7.166   5.161   5.240  2.3098  0.4827 -1.4352
 8335TIP3    H224963   7.147   5.310   5.217 -0.0873  0.4765  0.1487
 8336TIP3   OH224964   7.166   2.844   4.808 -0.1106  0.2462 -0.0135
 8336TIP3    H124965   7.132   2.910   4.870 -0.9989 -0.6812  0.5204
 8336TIP3    H224966   7.174   2.891   4.725 -0.7067  1.0447  0.3643
 8337TIP3   OH224967   7.546   5.194   2.018  0.3053  0.0670  0.2164
 8337TIP3    H124968   7.518   5.242   2.096 -0.2501  1.9242 -1.0523
 8337TIP3    H224969   7.618   5.245   1.983  1.4385 -1.4707  0.2042
 8338TIP3   OH224970   8.116   0.478   4.408  0.2513  0.5178  0.5855
 8338TIP3    H124971   8.109   0.386   4.436  0.2052 -0.1688 -1.4891
 8338TIP3    H224972   8.077   0.478   4.320 -0.2837  2.6630  0.7786
 8339TIP3   OH224973   8.261   2.650   3.428 -0.2163  0.6228 -0.7074
 8339TIP3    H124974   8.184   2.705   3.442  0.6713  1.9343 -0.8069
 8339TIP3    H224975   8.297   2.680   3.344  1.0288  0.8101 -0.1229
 8340TIP3   OH224976   5.178   1.744   0.810 -0.4071 -0.3855  0.3404
 8340TIP3    H124977   5.105   1.706   0.760 -0.3933  0.3182 -0.2342
 8340TIP3    H224978   5.256   1.720   0.760 -0.4905  1.4742 -0.7813
 8341TIP3   OH224979   4.406   6.763   1.058  0.0871 -0.0785 -0.2917
 8341TIP3    H124980   4.376   6.839   1.008 -1.3665  0.1167  0.7997
 8341TIP3    H224981   4.488   6.792   1.099  0.0748  0.5501 -0.6965
 8342TIP3   OH224982   4.060   7.634   0.927  0.1257 -0.0424  0.1258
 8342TIP3    H124983   4.119   7.702   0.958 -0.4691  0.5558 -0.0349
 8342TIP3    H224984   4.062   7.568   0.996 -1.0746  1.2029  1.4067
 8343TIP3   OH224985   2.752   4.489   6.612  1.2000  0.3359  0.1248
 8343TIP3    H124986   2.701   4.426   6.663 -0.6737 -0.9254 -3.0212
 8343TIP3    H224987   2.726   4.574   6.648  1.1318 -0.5017  2.2024
 8344TIP3   OH224988   1.467   0.416   4.099  0.2073  0.2955 -0.6008
 8344TIP3    H124989   1.495   0.329   4.072  1.3189  1.3584 -3.1308
 8344TIP3    H224990   1.522   0.436   4.175  0.8730 -0.6707 -0.8118
 8345TIP3   OH224991   6.873   0.084   2.367 -0.1022 -0.5030  0.3601
 8345TIP3    H124992   6.791   0.110   2.326  0.2828 -0.4015 -0.3589
 8345TIP3    H224993   6.869   0.122   2.455 -0.4033  0.3261 -0.0059
 8346TIP3   OH224994   7.977   3.394   0.293 -0.6632  0.2391  0.4578
 8346TIP3    H124995   7.894   3.369   0.332 -1.0994 -1.4472 -1.4279
 8346TIP3    H224996   7.955   3.461   0.228 -0.7190 -0.9260 -0.7518
 8347TIP3   OH224997   8.213   2.625   0.244  0.5463  0.3335  0.1413
 8347TIP3    H124998   8.254   2.662   0.166 -0.0696 -0.8928 -0.7747
 8347TIP3    H224999   8.165   2.549   0.213  0.6247 -0.4263  1.7767
 8348TIP3   OH225000   5.923   3.484   5.653 -0.4345  0.3200 -0.5589
 8348TIP3    H125001   5.936   3.579   5.652  0.3448  0.2329 -1.9585
 8348TIP3    H225002   5.952   3.456   5.566  0.6416 -1.3694  0.3038
 8349TIP3   OH225003   3.584   0.077   6.626 -0.2181  0.3066  0.3601
 8349TIP3    H125004   3.620  -0.011   6.630 -0.5587  0.1963  1.2276
 8349TIP3    H225005   3.625   0.123   6.699 -1.0122  0.4878  0.7052
 8350TIP3   OH225006   4.402   3.102   5.608 -0.2676 -0.1290 -0.5561
 8350TIP3    H125007   4.380   3.061   5.691  1.1490 -1.6090 -0.8721
 8350TIP3    H225008   4.379   3.194   5.620 -1.9126 -0.6578  0.7715
 8351TIP3   OH225009   7.655   0.424   2.504 -0.4161  0.1419 -0.0544
 8351TIP3    H125010   7.656   0.483   2.579 -1.0167 -0.2974  0.3077
 8351TIP3    H225011   7.677   0.479   2.429  0.0823  0.6062  0.4281
 8352TIP3   OH225012   7.577   4.231   3.141  0.1547  0.1380  0.7151
 8352TIP3    H125013   7.576   4.136   3.149 -0.5272  0.2164  1.8633
 8352TIP3    H225014   7.509   4.261   3.202 -0.1755  1.3244 -0.1914
 8353TIP3   OH225015   5.543   1.000   6.380  0.2041  0.3638  0.1700
 8353TIP3    H125016   5.459   0.998   6.426  0.7234  0.7539  1.1637
 8353TIP3    H225017   5.535   1.075   6.321 -0.5022 -0.1995 -0.4765
 8354TIP3   OH225018   2.770   7.592   4.839  0.2706  0.1061 -0.5953
 8354TIP3    H125019   2.767   7.679   4.800  0.8671 -0.1340 -1.2061
 8354TIP3    H225020   2.733   7.534   4.771  0.9527 -0.2650 -0.6606
 8355TIP3   OH225021   6.446   4.225   0.755  0.0515 -0.3898  0.2517
 8355TIP3    H125022   6.502   4.230   0.832  1.3154  0.3776 -0.6674
 8355TIP3    H225023   6.404   4.311   0.750 -0.6220 -0.6963  0.4955
 8356TIP3   OH225024   5.459   2.370   4.178 -0.1916  0.8437 -0.2540
 8356TIP3    H125025   5.451   2.296   4.238 -0.9877  3.2082  2.8156
 8356TIP3    H225026   5.431   2.336   4.094  0.7048 -2.6294  0.6953
 8357TIP3   OH225027   2.380   1.883   6.362  0.3706  0.1843  0.1477
 8357TIP3    H125028   2.430   1.801   6.367  1.3843  0.8803  2.9976
 8357TIP3    H225029   2.362   1.893   6.269  1.0438 -2.7760 -0.4225
 8358TIP3   OH225030   0.598   2.924   3.069  0.1225  0.5712  0.0677
 8358TIP3    H125031   0.540   2.906   2.995 -2.1030 -0.1290  1.8708
 8358TIP3    H225032   0.681   2.882   3.045 -0.5409  0.3623 -2.0077
 8359TIP3   OH225033   4.251   1.899   3.736 -0.5420  0.1866  0.1510
 8359TIP3    H125034   4.343   1.889   3.762 -1.1425 -0.9808  2.0278
 8359TIP3    H225035   4.230   1.816   3.693 -0.7623  0.3737 -0.0990
 8360TIP3   OH225036   5.398   3.229   4.035 -0.0914 -0.3590  0.5697
 8360TIP3    H125037   5.480   3.229   3.986 -0.8960  0.6846 -0.8535
 8360TIP3    H225038   5.352   3.151   4.005 -0.3285 -0.0404  0.0956
 8361TIP3   OH225039   4.791   0.058   0.900  0.9115  0.0768  0.1046
 8361TIP3    H125040   4.718   0.108   0.863 -0.0551 -0.6234  1.0102
 8361TIP3    H225041   4.869   0.105   0.872  0.0752  1.3632 -0.1311
 8362TIP3   OH225042   8.148   0.666   2.673  0.9785  0.1645 -0.3340
 8362TIP3    H125043   8.057   0.677   2.701  0.4758 -1.3057 -1.3049
 8362TIP3    H225044   8.192   0.631   2.751  0.8982  1.5247  0.3547
 8363TIP3   OH225045   1.654   4.364   5.308  0.3361 -0.2003 -0.0264
 8363TIP3    H125046   1.659   4.448   5.352 -1.3087  0.3107 -0.7253
 8363TIP3    H225047   1.714   4.307   5.356  2.8312  1.7762 -0.5687
 8364TIP3   OH225048   6.867   4.514   5.459  0.2087 -0.6700  0.7961
 8364TIP3    H125049   6.956   4.547   5.471  1.4768 -2.8547 -1.7198
 8364TIP3    H225050   6.853   4.456   5.534  1.8222 -1.9879  0.1507
 8365TIP3   OH225051   1.520   4.844   3.318 -0.4575  0.4087  0.3393
 8365TIP3    H125052   1.570   4.912   3.362 -0.8472  1.0771 -0.2404
 8365TIP3    H225053   1.428   4.865   3.337 -0.6590  0.9799 -1.1455
 8366TIP3   OH225054   7.473   4.783   5.508  0.4408 -0.4215  0.3594
 8366TIP3    H125055   7.451   4.711   5.449  0.3350  1.0912 -1.5316
 8366TIP3    H225056   7.391   4.805   5.551 -0.2494  0.5290 -1.3515
 8367TIP3   OH225057   5.034   5.255   2.018  0.6942 -0.1225  0.7592
 8367TIP3    H125058   5.105   5.318   2.033 -0.1465  1.5537 -1.6624
 8367TIP3    H225059   4.955   5.309   2.012 -0.5366 -1.7474  1.4039
 8368TIP3   OH225060   0.942   1.191   3.685  0.0889 -0.2670 -0.0039
 8368TIP3    H125061   0.892   1.122   3.641  0.0429 -0.6950  0.7141
 8368TIP3    H225062   0.893   1.209   3.765 -1.7631  2.9254 -1.6417
 8369TIP3   OH225063   3.533   2.550   5.754 -0.0598 -0.2872  0.4700
 8369TIP3    H125064   3.520   2.511   5.668 -0.9529  0.5578  0.2139
 8369TIP3    H225065   3.448   2.546   5.796  0.1382  0.1976  0.9340
 8370TIP3   OH225066   2.586   1.872   4.486 -0.3304  0.1478  0.1800
 8370TIP3    H125067   2.681   1.867   4.490 -0.1303  3.1355  0.6848
 8370TIP3    H225068   2.556   1.798   4.540  1.5948 -1.7695 -1.1994
 8371TIP3   OH225069   2.853   6.299   1.162 -0.3616  0.0034 -0.1615
 8371TIP3    H125070   2.883   6.265   1.246 -0.3834 -1.3687 -0.6765
 8371TIP3    H225071   2.928   6.348   1.127 -0.4295  0.7609  0.7349
 8372TIP3   OH225072   2.878   4.438   2.414 -0.0165  0.4607  0.8073
 8372TIP3    H125073   2.899   4.346   2.424 -1.0714  0.2048  0.7771
 8372TIP3    H225074   2.915   4.463   2.329 -0.3388 -0.1136  0.4981
 8373TIP3   OH225075   1.359   7.014   5.029  0.1496  0.0340  0.0613
 8373TIP3    H125076   1.439   7.029   4.978  2.2419 -0.6237  2.8859
 8373TIP3    H225077   1.316   7.099   5.031  1.4998  0.7620 -0.4433
 8374TIP3   OH225078   4.625   7.256   1.877  0.5752 -0.4610  0.2652
 8374TIP3    H125079   4.619   7.309   1.957 -0.9129  0.7181 -0.5538
 8374TIP3    H225080   4.677   7.309   1.817  1.3936 -1.1859  0.3161
 8375TIP3   OH225081   5.799  -0.005   6.128 -0.0741 -0.1426  0.4207
 8375TIP3    H125082   5.802   0.073   6.183  2.3893  0.2709 -0.1897
 8375TIP3    H225083   5.751   0.022   6.050  0.3861  0.6315  0.4058
 8376TIP3   OH225084   1.125   3.898   1.803 -0.1765  0.0658  0.2928
 8376TIP3    H125085   1.059   3.887   1.871  0.2660  2.2999  1.1664
 8376TIP3    H225086   1.187   3.962   1.839  1.1916 -0.2074 -1.4181
 8377TIP3   OH225087   1.376   5.231   2.725  0.4665 -0.3204  0.0205
 8377TIP3    H125088   1.424   5.148   2.716 -2.3478 -1.9356 -1.4279
 8377TIP3    H225089   1.411   5.270   2.805  3.6962 -1.6099 -0.6074
 8378TIP3   OH225090   6.351   6.508   4.555 -0.1812  0.5046 -0.0462
 8378TIP3    H125091   6.433   6.469   4.524  1.2463  2.5064  0.9666
 8378TIP3    H225092   6.315   6.443   4.615  1.5707  0.2554  0.8035
 8379TIP3   OH225093   4.403   6.456   0.189  0.4063 -0.6836 -0.0151
 8379TIP3    H125094   4.461   6.530   0.208  2.2523 -1.9384 -0.4791
 8379TIP3    H225095   4.390   6.460   0.095  0.8570 -1.1599 -0.1048
 8380TIP3   OH225096   3.023   0.962   1.910  0.2252  0.4194 -0.7336
 8380TIP3    H125097   3.027   1.055   1.888 -0.6486  0.5430 -0.3923
 8380TIP3    H225098   3.007   0.919   1.826 -0.0157  0.6366 -0.8018
 8381TIP3   OH225099   0.948   5.687   3.390  0.3011 -0.1546  0.6415
 8381TIP3    H125100   0.932   5.660   3.300  0.9843  0.5104  0.3085
 8381TIP3    H225101   0.864   5.674   3.435 -0.8331  1.8958 -0.6928
 8382TIP3   OH225102   0.621   7.808   2.017 -0.6043 -0.1002  0.6823
 8382TIP3    H125103   0.664   7.732   2.056  1.4746  0.4155 -0.4175
 8382TIP3    H225104   0.688   7.877   2.021 -2.3656  1.6534  1.5094
 8383TIP3   OH225105   7.324   4.113   4.738 -0.4772  0.1197 -0.4502
 8383TIP3    H125106   7.245   4.060   4.733  0.4305 -1.4641  1.0231
 8383TIP3    H225107   7.375   4.088   4.661 -1.3485  1.1640 -1.4198
 8384TIP3   OH225108   7.844   0.239   0.454  0.8252 -0.0962 -0.1600
 8384TIP3    H125109   7.781   0.190   0.401 -0.6454 -0.9973  2.2577
 8384TIP3    H225110   7.793   0.308   0.495  2.3403  1.8593 -1.3894
 8385TIP3   OH225111   3.265   5.594   6.603  0.2430 -0.0147 -0.0466
 8385TIP3    H125112   3.355   5.576   6.574  0.1751  0.5869 -0.6754
 8385TIP3    H225113   3.213   5.521   6.569  0.2954  0.2815 -0.7797
 8386TIP3   OH225114   6.239   3.276   0.346  0.0902  0.2830  0.1960
 8386TIP3    H125115   6.245   3.297   0.439 -0.0313 -0.4742  0.3833
 8386TIP3    H225116   6.239   3.180   0.343  0.7440  0.2984 -0.6282
 8387TIP3   OH225117   5.767   7.446   5.965 -0.1003 -0.2589 -0.0508
 8387TIP3    H125118   5.732   7.387   5.899 -0.4280 -1.0179  0.7732
 8387TIP3    H225119   5.843   7.487   5.924 -0.8860  0.0508 -1.2328
 8388TIP3   OH225120   8.058   4.609   2.550 -0.4411 -0.1749 -0.1288
 8388TIP3    H125121   7.985   4.670   2.557 -0.2727 -0.1087  1.4119
 8388TIP3    H225122   8.074   4.580   2.640  0.3200 -1.5001 -0.6605
 8389TIP3   OH225123   8.131   3.304   0.844  0.4386  0.3975 -0.4239
 8389TIP3    H125124   8.225   3.323   0.850  0.2414  1.1168  0.7635
 8389TIP3    H225125   8.125   3.235   0.778  1.6490  1.3660 -1.6110
 8390TIP3   OH225126   0.335   5.402   5.529  0.2521 -0.9002 -0.7987
 8390TIP3    H125127   0.281   5.468   5.486  1.3671  0.7906  0.2504
 8390TIP3    H225128   0.276   5.329   5.546 -1.2833  0.2105 -1.1568
 8391TIP3   OH225129   4.495   3.334   2.843  0.4770 -0.5068 -0.1409
 8391TIP3    H125130   4.432   3.401   2.818  0.6375 -0.6607 -0.9968
 8391TIP3    H225131   4.570   3.348   2.784  0.1821 -1.9315 -0.9007
 8392TIP3   OH225132   0.303   0.234   0.674 -0.3007 -0.7595  0.1975
 8392TIP3    H125133   0.257   0.171   0.730 -0.5836 -0.8736 -0.1646
 8392TIP3    H225134   0.249   0.241   0.596 -0.7373  0.5732  0.5784
 8393TIP3   OH225135   7.617   7.534   2.308  0.3975  0.4900  0.1650
 8393TIP3    H125136   7.655   7.470   2.248 -0.3537  0.5905 -0.4391
 8393TIP3    H225137   7.669   7.613   2.294  0.2584  0.5002 -0.3426
 8394TIP3   OH225138   2.731   4.658   6.277 -0.1531 -0.4917 -0.3544
 8394TIP3    H125139   2.806   4.719   6.277  0.5436 -1.3052  0.6194
 8394TIP3    H225140   2.655   4.713   6.260  0.4483  0.6840  0.6332
 8395TIP3   OH225141   7.066   7.360   4.422 -0.1686  0.2106 -0.0021
 8395TIP3    H125142   7.082   7.303   4.497  2.0803 -0.1639 -0.6787
 8395TIP3    H225143   7.071   7.449   4.458  0.5711  0.0286  0.3731
 8396TIP3   OH225144   5.865   7.602   2.950  0.1528 -0.0026 -0.1870
 8396TIP3    H125145   5.936   7.640   3.002  2.0491 -1.0894 -1.8219
 8396TIP3    H225146   5.809   7.676   2.928  2.1984  1.4209 -0.9602
 8397TIP3   OH225147   4.514   2.214   1.551  0.2107  0.2479  0.1669
 8397TIP3    H125148   4.441   2.153   1.557  0.2562  0.2493  0.8386
 8397TIP3    H225149   4.477   2.291   1.507 -0.3451  0.4510  0.9541
 8398TIP3   OH225150   2.723   0.150   3.809  0.4501 -0.3176  0.2906
 8398TIP3    H125151   2.635   0.126   3.781  0.6652  0.6265 -1.2730
 8398TIP3    H225152   2.746   0.226   3.757  2.3403 -0.7357  0.4176
 8399TIP3   OH225153   7.690   0.299   1.236  0.3072 -0.5563 -0.0896
 8399TIP3    H125154   7.652   0.280   1.151  1.4266  0.9846 -0.9800
 8399TIP3    H225155   7.774   0.342   1.217  0.0868  0.8630  1.7518
 8400TIP3   OH225156   1.723   2.213   2.718 -0.4683 -0.5339  1.0800
 8400TIP3    H125157   1.700   2.191   2.628  2.2166 -0.6658  0.3238
 8400TIP3    H225158   1.697   2.137   2.770 -0.8421 -1.0058  0.2108
 8401TIP3   OH225159   1.614   3.844   5.859 -0.2069 -0.0909 -0.4196
 8401TIP3    H125160   1.634   3.750   5.854  2.6256  0.4756 -1.6212
 8401TIP3    H225161   1.653   3.871   5.942 -0.4363  0.1618 -0.3943
 8402TIP3   OH225162   4.509   3.514   2.394 -0.2677  0.0491  0.0105
 8402TIP3    H125163   4.541   3.534   2.306  1.2131 -2.7808 -0.1883
 8402TIP3    H225164   4.443   3.446   2.380  1.5091 -2.0207  1.1311
 8403TIP3   OH225165   5.630   0.646   5.227  0.2086 -0.2755 -0.0263
 8403TIP3    H125166   5.688   0.666   5.300 -2.1062  0.7289  1.6320
 8403TIP3    H225167   5.565   0.716   5.227 -2.4122 -2.5379 -0.2666
 8404TIP3   OH225168   5.848   2.009   1.040  0.7911  0.2033  0.4821
 8404TIP3    H125169   5.819   2.043   1.125  1.4341 -0.0091  0.7928
 8404TIP3    H225170   5.803   1.924   1.032 -0.1191  0.7066  0.1065
 8405TIP3   OH225171   4.464   4.146   1.252 -0.4820 -0.8848  0.5153
 8405TIP3    H125172   4.551   4.127   1.218 -0.6719  1.0607 -1.2157
 8405TIP3    H225173   4.479   4.207   1.325 -0.4277  0.7739 -0.8354
 8406TIP3   OH225174   1.805   5.890   0.744  0.5350 -0.6346  0.7808
 8406TIP3    H125175   1.774   5.965   0.694 -0.9088 -1.1266  0.8869
 8406TIP3    H225176   1.764   5.814   0.702 -1.4925 -1.0125  3.1390
 8407TIP3   OH225177   3.435   7.428   4.932  0.4034 -0.1107 -0.0889
 8407TIP3    H125178   3.512   7.380   4.960  0.4867  0.7673  1.3006
 8407TIP3    H225179   3.469   7.499   4.877  0.7177  0.8362  1.2786
 8408TIP3   OH225180   1.193   7.263   2.000 -0.7052 -0.1464 -0.6314
 8408TIP3    H125181   1.257   7.261   2.071  0.4068 -0.0647 -1.5791
 8408TIP3    H225182   1.189   7.172   1.969 -0.2638  0.0226 -1.2183
 8409TIP3   OH225183   4.953   3.693   2.390 -0.6714 -0.0610 -0.5049
 8409TIP3    H125184   4.889   3.645   2.442  2.7106 -1.7836  2.3681
 8409TIP3    H225185   4.957   3.645   2.307 -2.1065 -0.6830 -0.2471
 8410TIP3   OH225186   3.032   6.156   6.078 -0.2315  0.0247 -0.0993
 8410TIP3    H125187   2.994   6.075   6.111 -1.6752  0.5874 -0.3089
 8410TIP3    H225188   3.050   6.139   5.986  1.9366 -0.8882  0.4352
 8411TIP3   OH225189   5.334   6.291   6.182 -0.3305 -0.2839 -0.3732
 8411TIP3    H125190   5.281   6.322   6.109 -2.2311 -0.4923  0.8318
 8411TIP3    H225191   5.349   6.369   6.235  1.0172 -0.1364 -0.9420
 8412TIP3   OH225192   8.064   4.907   5.885 -0.0814  0.0061  0.1878
 8412TIP3    H125193   8.065   4.976   5.951  1.5243  0.9174 -0.7334
 8412TIP3    H225194   8.034   4.950   5.805 -2.1415 -1.1151  0.2826
 8413TIP3   OH225195   7.414   7.696   6.424  0.0258  0.4815 -0.7310
 8413TIP3    H125196   7.448   7.748   6.497 -0.5661  3.0794 -2.1883
 8413TIP3    H225197   7.455   7.734   6.346 -1.1260 -0.6941 -1.9591
 8414TIP3   OH225198   6.729   3.116   5.118  0.0407 -0.4961  0.0879
 8414TIP3    H125199   6.668   3.188   5.134 -0.0764 -0.6458  0.3290
 8414TIP3    H225200   6.682   3.037   5.147  0.4902 -0.5640  0.6551
 8415TIP3   OH225201   0.669   5.129   1.024 -0.2099  0.1043  0.4128
 8415TIP3    H125202   0.765   5.124   1.032 -0.2025  0.6764  0.7389
 8415TIP3    H225203   0.637   5.072   1.094 -0.1085 -0.9361 -0.3752
 8416TIP3   OH225204   0.360   2.991   0.378 -0.0923  0.5398 -0.1280
 8416TIP3    H125205   0.440   2.940   0.378 -1.3270 -1.6859 -3.3311
 8416TIP3    H225206   0.297   2.937   0.425 -0.3492  1.1929  0.3008
 8417TIP3   OH225207   5.865   2.009   1.779 -0.7124 -0.2167 -0.1465
 8417TIP3    H125208   5.939   2.066   1.757 -1.3570  0.8388  0.3478
 8417TIP3    H225209   5.902   1.945   1.841 -0.3566  0.7288  0.6499
 8418TIP3   OH225210   0.312   0.692   0.310 -0.0110  0.4875 -0.0334
 8418TIP3    H125211   0.235   0.748   0.305 -0.0957  0.4183  0.4366
 8418TIP3    H225212   0.307   0.652   0.397 -0.6035 -1.1877 -0.7914
 8419TIP3   OH225213   7.835   0.869   5.677 -0.0771  0.3319 -0.2775
 8419TIP3    H125214   7.841   0.829   5.763  0.6238  0.0560 -0.4526
 8419TIP3    H225215   7.760   0.929   5.684  0.3300  0.7489  0.6906
 8420TIP3   OH225216   4.473   3.869   0.251 -0.4768  0.4013 -0.0275
 8420TIP3    H125217   4.511   3.918   0.324  0.2436  0.1273 -0.2056
 8420TIP3    H225218   4.537   3.877   0.180  0.7601 -2.5468  0.6029
 8421TIP3   OH225219   8.025   3.479   3.269 -0.0375  0.4138  0.9384
 8421TIP3    H125220   8.023   3.409   3.204  1.7973 -1.7639  3.0271
 8421TIP3    H225221   8.051   3.557   3.220 -1.2930 -0.5015 -1.3326
 8422TIP3   OH225222   1.963   6.317   0.754  0.2822  0.0137  0.4423
 8422TIP3    H125223   1.944   6.328   0.661 -1.3588  0.0083  0.7343
 8422TIP3    H225224   2.028   6.384   0.774  1.1411 -0.4211 -0.8392
 8423TIP3   OH225225   2.952   0.486   4.034 -1.0158  0.7590  0.6199
 8423TIP3    H125226   2.947   0.402   3.989 -0.3858  0.5484  0.9299
 8423TIP3    H225227   2.896   0.544   3.983 -0.2461  0.5514 -0.4967
 8424TIP3   OH225228   3.564   7.526   1.566  0.3222 -0.2067 -0.1007
 8424TIP3    H125229   3.524   7.479   1.639  0.5657 -0.7909 -0.3378
 8424TIP3    H225230   3.515   7.497   1.489  0.6659 -0.3031 -0.2843
 8425TIP3   OH225231   4.755   1.620   4.162  0.1154 -0.0875 -0.2316
 8425TIP3    H125232   4.681   1.656   4.210  0.5231  0.1020  0.2568
 8425TIP3    H225233   4.762   1.674   4.084 -0.7330 -0.5779 -0.6662
 8426TIP3   OH225234   6.908   6.766   0.035  0.0228 -0.2020  0.0828
 8426TIP3    H125235   6.896   6.672   0.050  0.7570 -0.2284  0.5774
 8426TIP3    H225236   6.886   6.779  -0.057 -1.6234 -0.5811  0.4056
 8427TIP3   OH225237   3.698   5.818   6.017  0.5702  0.2114 -0.0921
 8427TIP3    H125238   3.622   5.875   6.030  0.0332 -0.4764 -0.1471
 8427TIP3    H225239   3.668   5.754   5.952  0.3941 -1.4793  1.5634
 8428TIP3   OH225240   7.411   4.544   5.391 -0.5334  0.6553 -0.2229
 8428TIP3    H125241   7.405   4.477   5.459 -0.5909  2.1067  1.2463
 8428TIP3    H225242   7.420   4.494   5.310 -1.5360 -1.1494  0.7080
 8429TIP3   OH225243   4.284   1.379   4.518  0.2923  0.5213  0.1526
 8429TIP3    H125244   4.348   1.319   4.478  0.1467  1.4659 -1.6192
 8429TIP3    H225245   4.337   1.445   4.562  0.4590 -1.2044  2.7690
 8430TIP3   OH225246   3.889   4.795   5.686 -0.6237  0.2512 -0.2218
 8430TIP3    H125247   3.937   4.877   5.697 -0.6629  0.2521 -0.0586
 8430TIP3    H225248   3.850   4.778   5.771 -1.0577  0.3392 -0.4014
 8431TIP3   OH225249   7.343   7.496   5.784  0.0862 -0.5514  0.3060
 8431TIP3    H125250   7.361   7.417   5.836  2.2907  0.2959  0.9608
 8431TIP3    H225251   7.401   7.489   5.708  0.2078  0.3506  0.3032
 8432TIP3   OH225252   5.304   6.875   4.271 -0.1239 -0.2903  0.2892
 8432TIP3    H125253   5.320   6.897   4.363  0.1134 -0.1775  0.2239
 8432TIP3    H225254   5.392   6.873   4.232 -0.3101  1.6580 -0.3805
 8433TIP3   OH225255   5.079   4.022   5.906  0.3001  0.3541  0.3254
 8433TIP3    H125256   5.091   3.943   5.959 -0.0523 -1.5956 -2.3373
 8433TIP3    H225257   5.163   4.068   5.912  0.9523 -0.8627  0.9442
 8434TIP3   OH225258   3.331   6.500   0.933  0.6963 -0.2015  0.0865
 8434TIP3    H125259   3.300   6.588   0.911 -0.7500 -0.3392  1.3945
 8434TIP3    H225260   3.300   6.445   0.862 -1.0204 -0.1119  0.7276
 8435TIP3   OH225261   4.848   3.860   3.534 -0.1375 -0.0735 -0.0366
 8435TIP3    H125262   4.879   3.770   3.526  0.0795 -0.0767  0.7382
 8435TIP3    H225263   4.757   3.857   3.506  0.0709 -0.4002 -0.6797
 8436TIP3   OH225264   3.126   2.913   3.356  0.2745  0.1003  0.1694
 8436TIP3    H125265   3.093   2.855   3.287  0.0021 -1.5711  1.6252
 8436TIP3    H225266   3.221   2.902   3.354  0.4249  1.3259 -0.9652
 8437TIP3   OH225267   3.443   3.128   2.483  0.0549 -0.0138 -0.3154
 8437TIP3    H125268   3.452   3.223   2.488  1.8233 -0.2120  1.1689
 8437TIP3    H225269   3.392   3.113   2.403  0.8382  2.1087 -1.2848
 8438TIP3   OH225270   2.298   6.736   6.235 -0.1462 -0.1983 -0.2528
 8438TIP3    H125271   2.340   6.651   6.242  2.6572  1.0924 -0.1237
 8438TIP3    H225272   2.209   6.722   6.268  0.7749 -2.6517  1.4234
 8439TIP3   OH225273   6.572   2.340   2.814  0.3609  0.3963  0.2991
 8439TIP3    H125274   6.507   2.318   2.747  0.3411  2.1215 -0.2835
 8439TIP3    H225275   6.641   2.274   2.803 -0.4419 -0.3685 -0.2692
 8440TIP3   OH225276   6.412   2.869   0.355  0.2788  0.5427 -0.4653
 8440TIP3    H125277   6.418   2.921   0.435 -2.0028 -1.3129  1.0468
 8440TIP3    H225278   6.502   2.841   0.338  0.7224  0.1840  2.0746
 8441TIP3   OH225279   7.725   7.458   2.924  0.2930  0.6114  0.2727
 8441TIP3    H125280   7.799   7.471   2.983 -0.5023 -0.2717  1.5291
 8441TIP3    H225281   7.729   7.366   2.900  0.6657  0.9850 -1.1793
 8442TIP3   OH225282   5.789   3.772   4.638  0.2296  0.6135  0.2855
 8442TIP3    H125283   5.869   3.783   4.587  0.5960  0.5750  0.8363
 8442TIP3    H225284   5.820   3.743   4.724 -0.4907 -1.3016 -0.0576
 8443TIP3   OH225285   5.096   2.364   1.036 -0.0447 -0.2546  0.3284
 8443TIP3    H125286   5.030   2.425   1.068  0.1486 -0.7961  1.8372
 8443TIP3    H225287   5.178   2.395   1.075 -0.0175 -1.7109  1.5473
 8444TIP3   OH225288   2.993   6.196   3.603 -0.3591 -0.1495 -0.5789
 8444TIP3    H125289   3.027   6.230   3.521  0.2314  0.0558 -0.2511
 8444TIP3    H225290   2.955   6.272   3.646  0.6637  0.0446  0.0042
 8445TIP3   OH225291   1.505   5.837   4.263  0.8946  0.0257 -0.0826
 8445TIP3    H125292   1.507   5.828   4.358 -0.3313 -1.2711 -0.1473
 8445TIP3    H225293   1.558   5.765   4.231  0.8083  0.1035 -0.4046
 8446TIP3   OH225294   8.024   3.505   4.803  0.2704  0.0543  0.2664
 8446TIP3    H125295   8.071   3.587   4.814  1.0613 -0.4314  0.6244
 8446TIP3    H225296   8.037   3.458   4.886 -0.8486 -0.1015  0.3759
 8447TIP3   OH225297   3.539   2.390   1.841  0.1713 -0.0980  0.5000
 8447TIP3    H125298   3.503   2.399   1.929 -0.2181  0.0411  0.3282
 8447TIP3    H225299   3.632   2.372   1.855  0.2586  0.6424  0.9336
 8448TIP3   OH225300   3.474   2.655   5.145  0.1384 -0.1010  0.0513
 8448TIP3    H125301   3.466   2.748   5.127 -2.0993 -0.1071  0.7269
 8448TIP3    H225302   3.417   2.613   5.081  0.4117 -0.9386  0.3459
 8449TIP3   OH225303   6.855   5.039   2.399  0.0922 -0.4763  0.2878
 8449TIP3    H125304   6.812   4.957   2.376  1.8636 -0.6629 -2.8175
 8449TIP3    H225305   6.944   5.031   2.365 -0.1310  3.3286 -1.6972
 8450TIP3   OH225306   7.247   2.548   2.993 -0.1664  0.0344 -0.6644
 8450TIP3    H125307   7.269   2.604   3.067  1.3957  0.2716 -1.2794
 8450TIP3    H225308   7.216   2.467   3.033 -0.1815  0.4755  0.2373
 8451TIP3   OH225309   4.102   4.669   6.455  0.0488 -0.0851  0.5252
 8451TIP3    H125310   4.077   4.613   6.529 -2.7642 -0.5443 -0.6254
 8451TIP3    H225311   4.125   4.607   6.386 -0.3219  0.2429  0.1031
 8452TIP3   OH225312   5.340   2.938   0.819 -0.3967 -0.2564 -0.3314
 8452TIP3    H125313   5.423   2.981   0.841 -0.4478 -0.6066  0.5896
 8452TIP3    H225314   5.293   3.003   0.767  0.1079  0.2728 -0.1469
 8453TIP3   OH225315   8.308   4.732   2.698 -0.2463 -0.5005 -0.5826
 8453TIP3    H125316   8.262   4.788   2.760 -0.4631 -1.3191  0.0257
 8453TIP3    H225317   8.248   4.722   2.625 -0.9508 -1.3488  0.0900
 8454TIP3   OH225318   7.108   1.212   0.397  0.1962  0.3419 -0.0609
 8454TIP3    H125319   7.017   1.192   0.375  0.2850 -1.0863  0.7317
 8454TIP3    H225320   7.120   1.176   0.485  0.4699  3.8980  1.5239
 8455TIP3   OH225321   4.532   6.486   3.042  0.0457  0.8233  0.1535
 8455TIP3    H125322   4.570   6.501   2.955  1.3450  0.5936  0.6581
 8455TIP3    H225323   4.547   6.393   3.059 -1.7785  0.4418 -0.0778
 8456TIP3   OH225324   3.749   6.247   5.602 -0.2121 -0.3655 -0.0815
 8456TIP3    H125325   3.731   6.157   5.628  1.5740 -0.8193 -0.2710
 8456TIP3    H225326   3.733   6.249   5.507 -2.2878  0.1076  0.2265
 8457TIP3   OH225327   1.104   0.797   3.995 -0.3779 -0.2219  0.0097
 8457TIP3    H125328   1.180   0.738   3.989 -0.7774 -0.7139 -0.2393
 8457TIP3    H225329   1.029   0.739   4.009 -0.9338  0.1366 -1.3595
 8458TIP3   OH225330   6.774   0.100   1.330  0.5129  0.1928  0.4012
 8458TIP3    H125331   6.699   0.127   1.384  1.8458  3.1293  0.9962
 8458TIP3    H225332   6.802   0.016   1.367 -2.3408 -0.9437  0.2297
 8459TIP3   OH225333   4.533   7.531   1.627  0.0674 -0.3003 -0.1239
 8459TIP3    H125334   4.497   7.531   1.716 -0.0969 -0.3877 -0.1899
 8459TIP3    H225335   4.520   7.621   1.596  1.5536  0.1685  0.5097
 8460TIP3   OH225336   7.428   4.673   2.532 -0.1916  0.0949  0.0486
 8460TIP3    H125337   7.423   4.639   2.622  1.2610 -1.7562 -0.4916
 8460TIP3    H225338   7.385   4.758   2.536  0.2547  0.2854  2.6073
 8461TIP3   OH225339   4.961   1.415   3.095  0.5159  0.1112 -0.6442
 8461TIP3    H125340   5.027   1.389   3.160  0.1320  0.0809 -0.2620
 8461TIP3    H225341   5.012   1.435   3.016  0.9247 -0.5304 -0.5471
 8462TIP3   OH225342   4.185   7.535   0.656  0.6138 -0.4965  0.4892
 8462TIP3    H125343   4.174   7.544   0.751  0.0961 -1.6679  0.5507
 8462TIP3    H225344   4.096   7.535   0.622  0.7379 -1.4860  0.1465
 8463TIP3   OH225345   6.658   0.793   2.670 -0.1034 -0.0720 -0.4772
 8463TIP3    H125346   6.660   0.833   2.757 -0.6891  1.5702 -1.1871
 8463TIP3    H225347   6.566   0.771   2.655 -0.3057  1.2286 -1.3339
 8464TIP3   OH225348   5.357   7.500   1.917 -0.1522 -0.3288  0.4691
 8464TIP3    H125349   5.285   7.445   1.947 -1.0406  1.1054  1.0946
 8464TIP3    H225350   5.387   7.545   1.996 -0.7986  1.5678 -0.2945
 8465TIP3   OH225351   7.423   1.352   4.664 -0.4563 -0.4253 -0.3279
 8465TIP3    H125352   7.343   1.348   4.716 -0.5649  1.6902 -0.2504
 8465TIP3    H225353   7.397   1.397   4.584  0.7210  0.6258 -0.1428
 8466TIP3   OH225354   0.177   3.048   5.828 -0.6061  0.0663  0.6103
 8466TIP3    H125355   0.201   3.093   5.748 -1.1337 -0.5108  0.1063
 8466TIP3    H225356   0.081   3.040   5.823 -0.8216  1.2625  1.9765
 8467TIP3   OH225357   8.222   1.413   2.236 -0.2001 -0.1932  0.0571
 8467TIP3    H125358   8.230   1.401   2.141 -1.5085  1.7794 -0.3603
 8467TIP3    H225359   8.141   1.367   2.259 -0.2170 -0.1374  0.1080
 8468TIP3   OH225360   0.157   6.231   0.993 -0.0819 -0.2345  0.2057
 8468TIP3    H125361   0.104   6.304   1.023  0.3841  0.0567  0.3396
 8468TIP3    H225362   0.189   6.190   1.074  0.2810 -0.1215  0.1193
 8469TIP3   OH225363   6.779   6.864   6.144  0.3917  0.0220  0.5499
 8469TIP3    H125364   6.830   6.823   6.214 -1.0263 -0.9197  1.0861
 8469TIP3    H225365   6.821   6.836   6.063  2.1767  1.2732  0.9790
 8470TIP3   OH225366   7.839   6.613   6.023 -0.4399 -0.3717  0.0875
 8470TIP3    H125367   7.798   6.527   6.031 -1.2869 -0.1113 -1.2306
 8470TIP3    H225368   7.853   6.625   5.929  1.7315  0.0143  0.3884
 8471TIP3   OH225369   1.106   3.711   2.103  0.3039  0.6114 -0.9160
 8471TIP3    H125370   1.078   3.705   2.194  1.3329 -1.7468 -0.6676
 8471TIP3    H225371   1.051   3.780   2.065 -1.3739  0.4531  1.0429
 8472TIP3   OH225372   4.542   7.068   0.343  0.6001  0.1884  0.0441
 8472TIP3    H125373   4.475   7.046   0.408 -0.9331 -0.7235 -1.7462
 8472TIP3    H225374   4.519   7.155   0.313 -0.4247 -0.4934 -1.2534
 8473TIP3   OH225375   1.698   6.505   3.644  0.1744 -0.1994  0.4575
 8473TIP3    H125376   1.631   6.521   3.710 -0.7389 -0.9814 -0.2409
 8473TIP3    H225377   1.769   6.566   3.666 -0.6607  0.4854  1.3522
 8474TIP3   OH225378   3.988   4.163   4.313  0.0371 -0.4678 -0.3799
 8474TIP3    H125379   4.060   4.124   4.362  0.5815  1.7361  0.6618
 8474TIP3    H225380   3.914   4.162   4.374  0.4934  1.5264  0.2735
 8475TIP3   OH225381   2.006   5.271   6.680  0.0320  0.4538  0.4231
 8475TIP3    H125382   1.977   5.237   6.595 -0.9062  1.5408  0.2905
 8475TIP3    H225383   1.967   5.358   6.687  0.8694  0.7743  1.5657
 8476TIP3   OH225384   5.826   0.201   1.048 -0.2907 -0.1889  0.2476
 8476TIP3    H125385   5.864   0.151   1.121 -0.0805 -1.0913 -0.4660
 8476TIP3    H225386   5.759   0.256   1.089  1.8475  1.5919  1.5977
 8477TIP3   OH225387   2.496   7.519   5.735  0.2464  0.5593  0.0231
 8477TIP3    H125388   2.490   7.575   5.813 -3.7009  3.1149 -1.7838
 8477TIP3    H225389   2.451   7.438   5.761  0.7746  0.5584  0.9810
 8478TIP3   OH225390   1.220   1.505   5.974  0.0998  0.1273  0.0535
 8478TIP3    H125391   1.271   1.586   5.965  0.3338 -0.0297 -0.0631
 8478TIP3    H225392   1.266   1.443   5.918 -1.3747  0.5128 -1.6791
 8479TIP3   OH225393   5.918   0.668   0.557  0.2506  0.0274  0.1502
 8479TIP3    H125394   5.890   0.657   0.466 -2.3443 -0.1475  0.8802
 8479TIP3    H225395   5.929   0.579   0.590 -0.5278  0.0258  0.4411
 8480TIP3   OH225396   2.617   0.646   1.520  0.2972  0.3653  0.8548
 8480TIP3    H125397   2.615   0.606   1.433 -0.3512  1.4350  0.3551
 8480TIP3    H225398   2.527   0.672   1.537  0.2063 -0.8280  2.3496
 8481TIP3   OH225399   6.139   7.605   2.071 -0.0303 -0.2912  0.0226
 8481TIP3    H125400   6.183   7.525   2.100  1.7100  0.9107  0.8257
 8481TIP3    H225401   6.146   7.602   1.975 -0.0526 -1.1242  0.0372
 8482TIP3   OH225402   6.458   2.963   3.726 -0.4420 -0.3194 -0.3556
 8482TIP3    H125403   6.412   2.958   3.643  0.7440  1.4857 -1.1893
 8482TIP3    H225404   6.470   2.872   3.753 -2.0026 -0.8910 -1.4781
 8483TIP3   OH225405   7.951   5.369   4.343  1.0243 -0.7470  0.0835
 8483TIP3    H125406   7.920   5.279   4.356  0.5310 -0.5328  0.4262
 8483TIP3    H225407   8.015   5.383   4.413  0.5127 -0.5693  0.5230
 8484TIP3   OH225408   1.591   6.682   2.904  0.2762 -0.0341 -0.0721
 8484TIP3    H125409   1.679   6.646   2.888  1.1397  1.5346  0.9185
 8484TIP3    H225410   1.580   6.678   2.999 -0.7328 -0.1842 -0.1847
 8485TIP3   OH225411   1.461   1.382   6.636  0.0537  0.5391  0.6181
 8485TIP3    H125412   1.473   1.309   6.697 -2.0278 -1.7137 -1.4740
 8485TIP3    H225413   1.414   1.448   6.686 -1.0241 -0.9702  1.6721
 8486TIP3   OH225414   8.177   6.732   3.360 -0.0935 -0.4119  0.2955
 8486TIP3    H125415   8.115   6.660   3.369  0.0538 -0.8623 -1.8207
 8486TIP3    H225416   8.135   6.806   3.403 -1.9113 -0.8158 -0.7016
 8487TIP3   OH225417   2.406   0.476   4.667 -0.6345 -0.0147  0.3361
 8487TIP3    H125418   2.474   0.523   4.715  0.1315 -0.3072 -0.4191
 8487TIP3    H225419   2.454   0.428   4.599 -1.6180 -0.0875 -0.3292
 8488TIP3   OH225420   0.923   6.463   5.941  0.0346  0.1895 -0.0548
 8488TIP3    H125421   1.005   6.512   5.941 -0.0909  0.4022  0.2654
 8488TIP3    H225422   0.856   6.529   5.959 -0.0295 -0.2682  1.4899
 8489TIP3   OH225423   1.433   3.620   4.404  0.1476  0.6469 -0.3917
 8489TIP3    H125424   1.397   3.558   4.342 -0.7489  0.0802  0.6559
 8489TIP3    H225425   1.361   3.638   4.464  1.2644  0.3823  1.0869
 8490TIP3   OH225426   0.987   4.310   1.485  0.0517  0.0462 -0.7857
 8490TIP3    H125427   0.979   4.283   1.576 -0.1587  0.3382 -0.7157
 8490TIP3    H225428   1.054   4.253   1.448  0.7693  0.5085 -0.2221
 8491TIP3   OH225429   8.007   7.705   1.637 -0.6941  0.3120  0.0438
 8491TIP3    H125430   8.000   7.798   1.616  0.7273  0.4278 -0.0235
 8491TIP3    H225431   7.992   7.699   1.731 -1.8673  0.4584 -0.1220
 8492TIP3   OH225432   0.276   4.096   5.101  0.6649 -0.4934  0.3946
 8492TIP3    H125433   0.266   4.131   5.013  0.9836  2.8260  1.5388
 8492TIP3    H225434   0.371   4.094   5.116  0.5696  1.2769  1.4391
 8493TIP3   OH225435   3.823   5.500   2.862  0.3647  0.3973 -0.6671
 8493TIP3    H125436   3.898   5.443   2.849 -0.9893 -1.5873 -0.1351
 8493TIP3    H225437   3.793   5.481   2.951 -1.7282 -0.0681 -1.4223
 8494TIP3   OH225438   6.116   7.707   0.860 -0.1220  0.5412 -0.1940
 8494TIP3    H125439   6.188   7.753   0.904  0.2399 -0.6303  0.4905
 8494TIP3    H225440   6.108   7.625   0.908 -0.6558 -0.1729 -1.4696
 8495TIP3   OH225441   7.394   1.460   5.616  0.5232  0.3109  0.2790
 8495TIP3    H125442   7.323   1.445   5.678  1.1209 -0.2154  0.8605
 8495TIP3    H225443   7.414   1.554   5.624 -0.4161  0.5648 -0.2500
 8496TIP3   OH225444   0.188   1.819   3.193 -0.1811 -0.1202  0.2384
 8496TIP3    H125445   0.130   1.794   3.264 -0.1337  1.2367  0.7772
 8496TIP3    H225446   0.249   1.746   3.185 -0.4595 -0.4842  1.2978
 8497TIP3   OH225447   1.645   2.923   6.538  0.6900  0.8361 -0.0537
 8497TIP3    H125448   1.715   2.863   6.563 -0.4678 -1.8943 -2.7215
 8497TIP3    H225449   1.569   2.895   6.589  0.7262  1.7370  0.5242
 8498TIP3   OH225450   0.421   5.354   6.529  0.3898 -0.2595  0.2015
 8498TIP3    H125451   0.384   5.266   6.527  0.6998 -0.3930  0.2795
 8498TIP3    H225452   0.467   5.359   6.613 -1.2236  0.6332  1.0866
 8499TIP3   OH225453   0.715   6.953   4.581  0.6837 -0.1162  0.0172
 8499TIP3    H125454   0.693   6.900   4.658  0.0022 -0.9149 -0.6966
 8499TIP3    H225455   0.655   7.027   4.585  1.8690  0.8233  1.2056
 8500TIP3   OH225456   4.207   0.384   4.350  0.2752 -0.2035 -0.5031
 8500TIP3    H125457   4.213   0.292   4.326 -1.9965  0.1592 -3.1239
 8500TIP3    H225458   4.146   0.421   4.285  1.3276  3.2065  0.2406
 8501TIP3   OH225459   0.771   3.851   2.958 -0.6677  0.3958 -1.3276
 8501TIP3    H125460   0.778   3.867   3.052 -1.2639 -1.0035 -1.0236
 8501TIP3    H225461   0.691   3.896   2.931  0.4406  2.3745 -1.5803
 8502TIP3   OH225462   5.042   2.779   4.002 -0.2993 -0.5409 -0.5421
 8502TIP3    H125463   4.976   2.739   3.946  1.1343 -3.3348 -0.3812
 8502TIP3    H225464   5.098   2.707   4.030  2.3215  1.5505  0.0607
 8503TIP3   OH225465   1.324   2.184   0.156 -0.2924 -0.1639 -0.9550
 8503TIP3    H125466   1.274   2.265   0.150 -0.1309 -0.1048 -1.5541
 8503TIP3    H225467   1.394   2.193   0.091  1.3130  0.3002  0.7602
 8504TIP3   OH225468   4.741   0.367   5.273 -0.9508 -0.4729 -0.0262
 8504TIP3    H125469   4.660   0.318   5.291 -1.2756 -0.4873 -1.3992
 8504TIP3    H225470   4.712   0.455   5.252 -0.5865 -0.3945 -0.2116
 8505TIP3   OH225471   4.803   1.669   5.685  0.0374  0.7149 -0.2976
 8505TIP3    H125472   4.755   1.739   5.730 -0.3408  0.6460 -0.5886
 8505TIP3    H225473   4.877   1.649   5.743 -0.6035  0.4243  0.4319
 8506TIP3   OH225474   8.301   7.538   1.206 -0.5292  0.0096  0.5409
 8506TIP3    H125475   8.210   7.561   1.186 -0.7442  0.7803  2.1803
 8506TIP3    H225476   8.308   7.446   1.184 -0.9699  0.5101 -1.9703
 8507TIP3   OH225477   6.202   0.597   0.079 -0.3907 -0.3015  0.1810
 8507TIP3    H125478   6.203   0.538   0.154 -0.9787 -1.4378 -0.6750
 8507TIP3    H225479   6.195   0.540   0.003 -1.8728  0.8868 -0.6366
 8508TIP3   OH225480   7.923   6.043   1.365 -0.4268 -0.2095  0.3457
 8508TIP3    H125481   8.005   6.048   1.316 -0.2670 -0.2774  0.6031
 8508TIP3    H225482   7.915   5.951   1.388 -0.7623 -0.2677  0.0086
 8509TIP3   OH225483   3.737   7.587   5.552 -0.1612 -0.0048  0.2390
 8509TIP3    H125484   3.692   7.524   5.608 -0.6600  1.0830  1.0800
 8509TIP3    H225485   3.668   7.645   5.520 -0.3030 -1.9257 -3.4239
 8510TIP3   OH225486   6.901   5.064   6.447  0.3362 -0.0171  0.3952
 8510TIP3    H125487   6.818   5.055   6.494  0.2537 -0.1384  0.2268
 8510TIP3    H225488   6.951   5.127   6.499 -1.2690  2.9795 -1.3654
 8511TIP3   OH225489   1.743   1.648   2.816  0.2017 -0.3370 -0.0192
 8511TIP3    H125490   1.821   1.703   2.806  0.5861 -0.8237  0.2706
 8511TIP3    H225491   1.755   1.605   2.901 -1.2820  1.0233  0.9587
 8512TIP3   OH225492   5.224   5.823   2.523 -0.3991  0.2675 -0.1138
 8512TIP3    H125493   5.287   5.762   2.561 -1.7190 -0.8090  0.3866
 8512TIP3    H225494   5.223   5.802   2.429 -1.9919 -1.6026  0.2709
 8513TIP3   OH225495   0.053   6.316   5.587 -0.9982  0.0078 -0.5047
 8513TIP3    H125496   0.124   6.379   5.598 -1.5784  0.6787 -0.5635
 8513TIP3    H225497   0.095   6.239   5.548 -0.1924  0.1565  0.0498
 8514TIP3   OH225498   0.717   3.975   4.197  0.0578 -0.1397  0.0396
 8514TIP3    H125499   0.674   3.892   4.174 -1.0860  0.2181  0.8062
 8514TIP3    H225500   0.669   4.007   4.274  1.1198  0.7489  0.3725
 8515TIP3   OH225501   6.871   0.960   1.297  0.3017  0.1292  0.6782
 8515TIP3    H125502   6.833   0.923   1.218  1.5405  1.3959 -0.5712
 8515TIP3    H225503   6.805   1.022   1.330  0.5615  1.0882 -0.5329
 8516TIP3   OH225504   4.280   6.516   1.825  0.1691  0.0686  0.3103
 8516TIP3    H125505   4.195   6.528   1.869  0.5712 -0.2147  1.1957
 8516TIP3    H225506   4.325   6.600   1.837  0.2479  0.0182  0.3653
 8517TIP3   OH225507   6.390   5.164   2.300  0.0518 -0.3531  0.1705
 8517TIP3    H125508   6.422   5.146   2.389 -0.6135 -1.8780  0.1282
 8517TIP3    H225509   6.374   5.258   2.300 -0.0340 -0.3313  1.7075
 8518TIP3   OH225510   6.692   3.292   4.455  0.5065  0.3850 -0.3207
 8518TIP3    H125511   6.665   3.381   4.477  1.0447  0.7248 -1.0032
 8518TIP3    H225512   6.710   3.295   4.361  0.0031 -0.5822 -0.4554
 8519TIP3   OH225513   2.018   1.317   0.070 -0.1615 -0.9218  0.0607
 8519TIP3    H125514   1.974   1.364   0.141  2.0282  1.2623  0.0907
 8519TIP3    H225515   1.958   1.323  -0.004  0.1121  2.3683 -0.0403
 8520TIP3   OH225516   1.674   6.477   2.665 -0.3133 -0.5032 -0.1229
 8520TIP3    H125517   1.700   6.386   2.658  2.0920  0.0017  1.1810
 8520TIP3    H225518   1.708   6.505   2.751 -1.1405  1.5612 -0.4145
 8521TIP3   OH225519   1.301   5.545   1.840 -0.3716  0.1254  0.4196
 8521TIP3    H125520   1.338   5.594   1.767 -1.0103 -1.5343 -1.0875
 8521TIP3    H225521   1.374   5.496   1.876 -0.3029 -0.0362  0.0603
 8522TIP3   OH225522   4.220   1.652   0.498  0.2679  0.6336 -0.2836
 8522TIP3    H125523   4.285   1.714   0.529 -0.0215  0.9230 -0.2460
 8522TIP3    H225524   4.138   1.681   0.539  0.3343 -0.4629  0.6849
 8523TIP3   OH225525   7.738   5.365   1.040 -0.2140  0.0675  0.9400
 8523TIP3    H125526   7.704   5.287   0.996 -2.1075  1.7127 -0.7390
 8523TIP3    H225527   7.815   5.335   1.088 -1.3497 -2.9699  1.0494
 8524TIP3   OH225528   0.244   6.052   2.721  0.0660  0.3211 -0.2336
 8524TIP3    H125529   0.181   5.983   2.741 -1.6593  2.1086  0.8953
 8524TIP3    H225530   0.253   6.050   2.626 -0.3310 -1.0742 -0.2690
 8525TIP3   OH225531   3.305   1.340   1.313  0.0273  0.2945 -0.3108
 8525TIP3    H125532   3.354   1.417   1.342  0.6717 -0.6500  1.2171
 8525TIP3    H225533   3.233   1.332   1.375  0.1718 -0.5310 -0.2386
 8526TIP3   OH225534   0.987   5.970   2.534 -0.2773  0.4225 -0.1896
 8526TIP3    H125535   1.037   5.920   2.598 -1.0737 -1.1886 -0.7785
 8526TIP3    H225536   0.986   6.059   2.569  1.1718  0.0573  0.8917
 8527TIP3   OH225537   4.700   7.612   4.892 -0.0323 -0.1434  0.4694
 8527TIP3    H125538   4.778   7.600   4.837 -0.1512  1.1567 -0.0325
 8527TIP3    H225539   4.641   7.665   4.838 -1.4004 -1.3318  0.7412
 8528TIP3   OH225540   0.057   3.343   4.181 -0.2794  0.1222 -0.2812
 8528TIP3    H125541   0.021   3.432   4.186  0.6549  0.5409 -0.8138
 8528TIP3    H225542  -0.005   3.290   4.230 -1.1803  0.9664 -0.4635
 8529TIP3   OH225543   2.163   4.371   3.227  0.1707 -0.1734 -0.3391
 8529TIP3    H125544   2.243   4.419   3.206  0.4883 -0.8823 -0.8241
 8529TIP3    H225545   2.116   4.365   3.144 -0.0606 -0.3374 -0.1987
 8530TIP3   OH225546   6.748   1.559   4.988 -0.2384  0.1653  0.0456
 8530TIP3    H125547   6.676   1.622   4.993 -0.6317 -0.1870 -0.9073
 8530TIP3    H225548   6.827   1.612   4.993 -0.5378  0.9397 -2.2531
 8531TIP3   OH225549   5.356   2.604   3.848  0.5277  0.1224 -0.1304
 8531TIP3    H125550   5.359   2.512   3.874 -1.8434  0.5570  2.1829
 8531TIP3    H225551   5.380   2.652   3.928  0.3972  1.5206 -0.8968
 8532TIP3   OH225552   5.549   6.356   2.270 -0.2844  0.2650 -0.2782
 8532TIP3    H125553   5.549   6.447   2.240 -1.3886 -0.1576 -1.6833
 8532TIP3    H225554   5.457   6.334   2.283 -0.0440 -0.6940 -0.0736
 8533TIP3   OH225555   0.488   4.098   2.261  0.0037 -0.8442 -0.3492
 8533TIP3    H125556   0.451   4.018   2.297 -2.1166 -0.4984 -1.6027
 8533TIP3    H225557   0.468   4.165   2.327 -0.1009 -0.9751 -0.2474
 8534TIP3   OH225558   7.437   6.206   4.858  0.5845 -0.5392  0.0406
 8534TIP3    H125559   7.507   6.164   4.808 -0.9642 -0.2612 -2.5307
 8534TIP3    H225560   7.428   6.293   4.819 -0.4829 -0.1743  1.0364
 8535TIP3   OH225561   5.675   7.036   2.241 -0.2896 -0.7268  0.0425
 8535TIP3    H125562   5.711   7.125   2.241  0.3715 -0.9782  1.2398
 8535TIP3    H225563   5.599   7.042   2.299 -0.0765 -1.0037  0.3512
 8536TIP3   OH225564   7.166   1.305   2.653 -0.3971 -0.2922 -0.1989
 8536TIP3    H125565   7.137   1.293   2.743  1.5536 -0.2522  0.4808
 8536TIP3    H225566   7.249   1.259   2.648  0.9183  1.9897 -1.1484
 8537TIP3   OH225567   5.019   1.628   1.151 -0.2387  0.6258  0.4251
 8537TIP3    H125568   4.965   1.673   1.086  0.3442  1.0563  0.2274
 8537TIP3    H225569   5.109   1.653   1.129  0.0564 -0.2062  0.6486
 8538TIP3   OH225570   3.536   3.681   0.077  0.2313 -0.7410  0.3136
 8538TIP3    H125571   3.491   3.657  -0.004 -0.0802  1.8515 -0.3713
 8538TIP3    H225572   3.482   3.749   0.116  1.3609 -0.5870  1.7167
 8539TIP3   OH225573   5.508   5.623   3.277  0.6601  0.8583 -0.7763
 8539TIP3    H125574   5.601   5.642   3.271  0.8269  0.7300  0.9415
 8539TIP3    H225575   5.491   5.611   3.370 -1.0058  0.4945 -1.0783
 8540TIP3   OH225576   1.854   1.648   6.543  0.2453  0.5176  0.0756
 8540TIP3    H125577   1.846   1.628   6.450  0.1680 -1.4151  0.4710
 8540TIP3    H225578   1.818   1.737   6.551 -0.8688  0.2618 -1.5421
 8541TIP3   OH225579   1.447   5.497   4.383 -0.5214  0.3633  0.0999
 8541TIP3    H125580   1.429   5.406   4.404  0.2601  0.1925  0.0538
 8541TIP3    H225581   1.523   5.520   4.435 -0.9660  1.1274  0.4355
 8542TIP3   OH225582   7.394   2.223   6.339 -0.4609 -0.3894  0.3464
 8542TIP3    H125583   7.391   2.158   6.269 -1.6877 -1.9717  1.7857
 8542TIP3    H225584   7.467   2.195   6.395 -2.4079 -2.0591  2.2537
 8543TIP3   OH225585   1.716   1.778   1.816  0.1150  0.1968  0.0204
 8543TIP3    H125586   1.755   1.820   1.892  1.5881  0.2070 -0.7110
 8543TIP3    H225587   1.634   1.741   1.849  1.3762 -1.0665  2.0025
 8544TIP3   OH225588   4.378   7.091   4.407  0.4751 -0.2193 -0.1687
 8544TIP3    H125589   4.449   7.153   4.390 -1.4812  2.7736  1.6560
 8544TIP3    H225590   4.315   7.108   4.337 -0.9331  1.4383  1.3850
 8545TIP3   OH225591   5.319   1.343   1.399 -0.2486 -0.0531  0.1656
 8545TIP3    H125592   5.301   1.290   1.321  0.3547 -2.9519  1.8594
 8545TIP3    H225593   5.369   1.418   1.366  0.6053 -1.5243 -2.1312
 8546TIP3   OH225594   4.434   5.713   4.102  0.1833 -0.1637  0.5338
 8546TIP3    H125595   4.490   5.755   4.037 -0.2180 -0.6090 -0.1023
 8546TIP3    H225596   4.428   5.622   4.073 -0.4625 -0.2320  0.8814
 8547TIP3   OH225597   4.512   6.579   3.544  0.6374 -0.1104  0.6798
 8547TIP3    H125598   4.547   6.500   3.502 -2.5185 -1.7830  0.8966
 8547TIP3    H225599   4.502   6.642   3.473  2.0178 -0.3115  0.2769
 8548TIP3   OH225600   3.175   0.465   6.758 -0.4763 -0.1217  0.1388
 8548TIP3    H125601   3.188   0.488   6.666 -0.1291  1.4068  0.5467
 8548TIP3    H225602   3.097   0.410   6.759  0.4064 -1.4929 -1.2451
 8549TIP3   OH225603   0.426   6.399   0.639 -0.3887 -0.3897  0.1979
 8549TIP3    H125604   0.469   6.336   0.696 -0.4664 -0.4174  0.2263
 8549TIP3    H225605   0.497   6.450   0.600 -0.3000 -0.8089 -0.1928
 8550TIP3   OH225606   1.275   6.911   1.629  0.1536  0.1623 -0.0879
 8550TIP3    H125607   1.204   6.903   1.565  0.8316  2.5513 -1.2220
 8550TIP3    H225608   1.346   6.953   1.582  1.4321  0.1102  1.6989
 8551TIP3   OH225609   7.428   4.996   4.395  0.4551 -0.2592  0.3704
 8551TIP3    H125610   7.391   4.910   4.375  3.4432 -1.1662 -2.1510
 8551TIP3    H225611   7.361   5.040   4.446 -2.7574 -2.7110 -1.3654
 8552TIP3   OH225612   6.893   4.099   4.789  0.3579 -0.0201  0.2161
 8552TIP3    H125613   6.922   4.028   4.732  0.2851  0.2647 -0.1861
 8552TIP3    H225614   6.966   4.115   4.848 -0.0116 -1.1188  0.9935
 8553TIP3   OH225615   5.941   3.070   4.017 -0.0937  0.2584  0.2021
 8553TIP3    H125616   5.929   3.155   4.059  2.2537 -0.7883  3.3756
 8553TIP3    H225617   5.906   3.007   4.080  0.0603 -1.2414 -1.1531
 8554TIP3   OH225618   2.588   1.212   3.920 -0.3727 -0.6486 -0.2712
 8554TIP3    H125619   2.664   1.196   3.863  0.6121  0.7300  0.5771
 8554TIP3    H225620   2.627   1.240   4.003 -1.7813  2.5036 -0.5493
 8555TIP3   OH225621   6.771   4.351   4.747  0.7086  0.2022  0.4624
 8555TIP3    H125622   6.696   4.370   4.804 -0.1774  0.2083 -0.6782
 8555TIP3    H225623   6.802   4.266   4.777  1.4010  1.0039  2.1369
 8556TIP3   OH225624   0.756   5.327   4.262 -0.1114  0.1287 -0.3010
 8556TIP3    H125625   0.768   5.232   4.264  0.2929  0.1632 -0.9808
 8556TIP3    H225626   0.694   5.343   4.190 -1.2157  0.2827  0.6497
 8557TIP3   OH225627   0.676   5.611   4.663  0.5394  0.0571  0.3293
 8557TIP3    H125628   0.704   5.519   4.658 -0.2654 -0.1246 -1.3346
 8557TIP3    H225629   0.747   5.655   4.710  0.7962 -1.4515  1.4462
 8558TIP3   OH225630   3.435   5.307   6.028 -0.0927  0.2421  0.6335
 8558TIP3    H125631   3.413   5.395   5.996  0.4553 -0.2201 -1.1023
 8558TIP3    H225632   3.374   5.249   5.983 -0.2861 -0.3190  1.5815
 8559TIP3   OH225633   2.593   0.290   6.738  0.0886  0.1218  0.2756
 8559TIP3    H125634   2.603   0.204   6.696 -1.5982  0.0412 -0.0120
 8559TIP3    H225635   2.504   0.318   6.715 -0.0208  1.1590  1.8451
 8560TIP3   OH225636   1.604   6.130   3.241  0.3634 -0.1673  0.2036
 8560TIP3    H125637   1.611   6.171   3.327  0.2267 -1.2749  0.7646
 8560TIP3    H225638   1.646   6.192   3.181 -0.7343  1.2629  0.8414
 8561TIP3   OH225639   1.758   4.637   5.379  0.6231 -0.4291 -0.3237
 8561TIP3    H125640   1.682   4.695   5.389  0.8176 -0.2181 -0.0497
 8561TIP3    H225641   1.800   4.668   5.299  1.0304  0.1678  0.1133
 8562TIP3   OH225642   3.532   5.263   0.938  0.4078 -0.6360  0.3198
 8562TIP3    H125643   3.623   5.242   0.961  0.7306  1.0195  0.7118
 8562TIP3    H225644   3.514   5.210   0.861  2.0985 -0.2170 -0.4241
 8563TIP3   OH225645   2.858   6.201   3.097  0.0033  0.2535  0.4457
 8563TIP3    H125646   2.944   6.242   3.104  0.7646 -0.8239 -1.6540
 8563TIP3    H225647   2.810   6.233   3.173  2.2894  0.7712  1.7772
 8564TIP3   OH225648   3.866   7.500   0.261  0.1847 -0.1403 -0.2741
 8564TIP3    H125649   3.869   7.421   0.316 -0.0344  0.2701  0.3411
 8564TIP3    H225650   3.922   7.479   0.186 -0.3130 -1.0851 -0.3924
 8565TIP3   OH225651   4.674   1.324   1.290 -0.0664 -0.3209 -0.7258
 8565TIP3    H125652   4.756   1.347   1.247  0.2627 -1.3296 -0.6636
 8565TIP3    H225653   4.607   1.336   1.223 -0.1322  2.1519 -0.3141
 8566TIP3   OH225654   3.817   2.103   0.299 -0.3381 -0.2246 -0.2476
 8566TIP3    H125655   3.758   2.029   0.292 -1.3507  0.5982 -0.7288
 8566TIP3    H225656   3.838   2.126   0.209 -0.5099  0.4292 -0.1279
 8567TIP3   OH225657   0.413   6.179   5.340  0.1917  0.1513  0.7293
 8567TIP3    H125658   0.460   6.262   5.341 -0.6881  0.6549  1.3356
 8567TIP3    H225659   0.440   6.137   5.258 -2.3702  2.7934 -1.7325
 8568TIP3   OH225660   5.552   4.129   3.447  0.3176 -0.4581  0.3336
 8568TIP3    H125661   5.479   4.097   3.498  0.3410 -0.3689  0.4229
 8568TIP3    H225662   5.582   4.207   3.493  0.0097 -0.0808 -0.0980
 8569TIP3   OH225663   4.074   6.314   2.659  0.4757 -0.1031  0.0276
 8569TIP3    H125664   4.008   6.250   2.685  0.2006  0.3612  0.4887
 8569TIP3    H225665   4.156   6.265   2.655  0.2365 -0.5171  0.2131
 8570TIP3   OH225666   2.451   4.787   6.638  0.6824  0.0287  0.0894
 8570TIP3    H125667   2.473   4.875   6.669  0.4758  0.0736  0.1095
 8570TIP3    H225668   2.531   4.736   6.651  0.3791 -0.1437  1.4094
 8571TIP3   OH225669   5.340  -0.005   0.087 -0.6846  0.1418  0.1313
 8571TIP3    H125670   5.284   0.062   0.048  0.2137 -0.2965 -2.0752
 8571TIP3    H225671   5.409  -0.019   0.022 -0.7881 -2.8547  0.5309
 8572TIP3   OH225672   2.059   6.443   2.938 -0.3675 -0.4820  0.1135
 8572TIP3    H125673   2.089   6.456   2.848 -0.8523 -0.1471 -0.0006
 8572TIP3    H225674   2.086   6.353   2.959 -1.3400 -0.9993 -0.7935
 8573TIP3   OH225675   6.006   6.665   5.090  0.0134  0.4254  0.2245
 8573TIP3    H125676   6.071   6.643   5.158 -0.4826 -0.4880  0.4265
 8573TIP3    H225677   5.927   6.618   5.117 -0.3304  0.4270 -0.7473
 8574TIP3   OH225678   2.774   5.961   3.391  0.0686  0.1299 -0.1160
 8574TIP3    H125679   2.751   5.970   3.299 -0.6430  1.0810  0.1424
 8574TIP3    H225680   2.793   6.050   3.420  1.1077 -0.2594  0.4544
 8575TIP3   OH225681   4.213   4.370   5.374  0.3687  0.0226  0.0135
 8575TIP3    H125682   4.139   4.326   5.416  0.2410 -1.5582 -1.7674
 8575TIP3    H225683   4.230   4.445   5.430 -1.1389 -0.8146  1.7039
 8576TIP3   OH225684   1.352   0.120   5.957  0.1528 -0.1518  0.5017
 8576TIP3    H125685   1.442   0.112   5.990  0.2888  2.9223  1.2582
 8576TIP3    H225686   1.355   0.086   5.868  1.6231 -1.6911  1.0913
 8577TIP3   OH225687   7.813   0.535   2.770  0.1672  0.3768 -0.4650
 8577TIP3    H125688   7.815   0.630   2.779  0.3777  0.6866 -3.0649
 8577TIP3    H225689   7.903   0.507   2.786 -0.0085  0.5303  0.8421
 8578TIP3   OH225690   3.085   3.807   2.415 -0.3394  0.3246  0.2536
 8578TIP3    H125691   3.098   3.874   2.482  0.3081  1.1177 -0.6390
 8578TIP3    H225692   3.135   3.838   2.339 -2.6129  0.4402 -1.2902
 8579TIP3   OH225693   7.895   0.203   3.705 -0.3017 -0.2647 -0.3756
 8579TIP3    H125694   7.801   0.208   3.721 -0.3091 -0.2795 -0.4146
 8579TIP3    H225695   7.917   0.287   3.664 -0.1490  0.0894  0.4133
 8580TIP3   OH225696   3.998   3.663   2.269  0.3366 -0.0316 -0.0862
 8580TIP3    H125697   4.078   3.685   2.223  1.5404  0.5479  2.1660
 8580TIP3    H225698   3.962   3.747   2.298 -2.1215 -0.0798 -2.5102
 8581TIP3   OH225699   5.049   3.931   0.036  0.3186 -0.4244  0.4768
 8581TIP3    H125700   5.019   3.874   0.108 -2.6882  0.8630  0.3889
 8581TIP3    H225701   5.078   4.011   0.080  0.1553 -0.3024  0.3632
 8582TIP3   OH225702   5.612   2.486   5.082 -0.7961  0.2883  0.3293
 8582TIP3    H125703   5.637   2.394   5.090  0.7086  0.4319 -1.9078
 8582TIP3    H225704   5.602   2.516   5.173  1.4678 -1.3736  1.2325
 8583TIP3   OH225705   4.773   1.690   0.057 -0.2255  0.4325 -0.1222
 8583TIP3    H125706   4.791   1.764  -0.001  2.3776 -0.6382 -0.8288
 8583TIP3    H225707   4.850   1.684   0.114 -0.8038 -1.1332  0.5682
 8584TIP3   OH225708   0.339   6.061   2.458 -0.2463 -0.7046  0.1771
 8584TIP3    H125709   0.313   6.153   2.450  0.8336 -0.4571 -0.7542
 8584TIP3    H225710   0.361   6.035   2.368 -0.5319 -1.8737  0.4368
 8585TIP3   OH225711   2.375   6.027   5.228  0.2348  0.0344 -0.0996
 8585TIP3    H125712   2.298   6.042   5.283  1.3969 -0.6803  1.8069
 8585TIP3    H225713   2.411   5.944   5.259  2.7404  1.1781  0.2859
 8586TIP3   OH225714   7.935   5.762   1.434  0.2608 -0.0228  0.9690
 8586TIP3    H125715   7.942   5.727   1.346  0.8916 -2.5400  1.9278
 8586TIP3    H225716   7.911   5.686   1.488  0.4910  1.3003  3.0527
 8587TIP3   OH225717   7.688   1.616   5.228 -0.9733 -0.0724 -0.2416
 8587TIP3    H125718   7.779   1.643   5.224 -0.6123 -1.3157 -0.8935
 8587TIP3    H225719   7.686   1.548   5.295 -1.5170  0.2435  0.0750
 8588TIP3   OH225720   2.438   5.758   5.227 -0.5248 -0.0392  0.1826
 8588TIP3    H125721   2.481   5.766   5.142 -0.1479 -1.2367  0.2369
 8588TIP3    H225722   2.466   5.672   5.260 -2.0758 -0.3782  0.7200
 8589TIP3   OH225723   0.177   1.971   6.426  0.2066  0.4179  0.2166
 8589TIP3    H125724   0.085   1.983   6.449  0.4788 -0.7027  2.0427
 8589TIP3    H225725   0.225   1.996   6.504  1.5047  1.0833 -0.7501
 8590TIP3   OH225726   1.047   2.458   1.029  0.7296 -0.1078 -0.3913
 8590TIP3    H125727   1.060   2.516   0.954  3.4327 -1.5713 -1.1846
 8590TIP3    H225728   1.083   2.507   1.103  1.3483 -0.0566 -0.7206
 8591TIP3   OH225729   4.372   1.627   3.703 -0.0872  0.0204  0.0647
 8591TIP3    H125730   4.313   1.552   3.693 -0.1775  0.1869 -0.6303
 8591TIP3    H225731   4.453   1.599   3.660  0.1148  0.0578  0.4154
 8592TIP3   OH225732   0.423   1.759   4.985 -0.1731  0.0442  0.7166
 8592TIP3    H125733   0.378   1.803   5.058  0.0502  2.2593 -0.3921
 8592TIP3    H225734   0.353   1.716   4.936 -0.4651 -0.4677  1.5603
 8593TIP3   OH225735   2.449   4.715   4.226  0.1788  0.4268  0.2984
 8593TIP3    H125736   2.470   4.771   4.301  1.5993 -1.1726  1.1497
 8593TIP3    H225737   2.378   4.761   4.181  0.4317  2.2540  1.6716
 8594TIP3   OH225738   4.667   6.543   0.839 -0.2613  0.2601  0.0407
 8594TIP3    H125739   4.614   6.508   0.910 -1.8663  2.4434  0.0280
 8594TIP3    H225740   4.732   6.599   0.883 -0.5920  0.7986 -0.1510
 8595TIP3   OH225741   2.779   3.110   4.968  0.0135 -0.1009 -0.4836
 8595TIP3    H125742   2.773   3.045   4.898 -2.0780 -0.3939 -0.0960
 8595TIP3    H225743   2.784   3.059   5.049  2.2124  0.2397 -0.3561
 8596TIP3   OH225744   2.884   5.698   4.457  0.0812  0.0209 -0.3267
 8596TIP3    H125745   2.793   5.711   4.431  0.1652  0.1375 -0.5597
 8596TIP3    H225746   2.914   5.785   4.483 -0.2023 -0.2012  0.8078
 8597TIP3   OH225747   5.446   1.826   5.072  0.2300  0.1228 -0.0149
 8597TIP3    H125748   5.499   1.861   5.001  0.3275 -0.6078 -0.3179
 8597TIP3    H225749   5.369   1.789   5.029  0.6787 -1.0663  0.1621
 8598TIP3   OH225750   5.733   3.826   2.460  0.4594 -0.4888  0.1663
 8598TIP3    H125751   5.729   3.916   2.426 -0.0772 -0.7152 -0.4030
 8598TIP3    H225752   5.665   3.779   2.411  1.8912 -1.6305 -0.8450
 8599TIP3   OH225753   6.157   4.917   6.410  0.2792  0.0718 -0.0349
 8599TIP3    H125754   6.245   4.879   6.405  0.5065  0.2816  1.7073
 8599TIP3    H225755   6.167   5.006   6.379  0.5977 -0.0244 -0.2113
 8600TIP3   OH225756   0.795   1.569   5.994 -0.2253  0.1693 -0.2520
 8600TIP3    H125757   0.767   1.652   5.955 -2.1164 -0.1932  0.1930
 8600TIP3    H225758   0.823   1.516   5.920  1.1496  1.2346 -0.5298
 8601TIP3   OH225759   6.203   5.046   1.732 -0.6484 -0.7897  0.5836
 8601TIP3    H125760   6.171   5.009   1.814 -1.0235  1.5665  1.5707
 8601TIP3    H225761   6.153   5.127   1.721 -0.9956 -1.2817 -2.2785
 8602TIP3   OH225762   0.767   4.396   5.004  0.0279 -0.2073  0.0536
 8602TIP3    H125763   0.813   4.476   5.028 -0.5590  0.6099 -1.4147
 8602TIP3    H225764   0.713   4.376   5.081 -0.6284  1.4151  0.0523
 8603TIP3   OH225765   4.301   7.380   2.304 -0.1898 -0.5995 -0.6891
 8603TIP3    H125766   4.307   7.474   2.290  0.5214 -0.6482 -0.7485
 8603TIP3    H225767   4.212   7.357   2.277 -1.5401  0.5540  2.3152
 8604TIP3   OH225768   3.246   7.333   4.761  1.0568  0.2340 -0.1296
 8604TIP3    H125769   3.204   7.401   4.709  0.6815 -0.4410 -0.7199
 8604TIP3    H225770   3.268   7.377   4.844 -1.9237  0.3049  0.7149
 8605TIP3   OH225771   2.170   2.703   1.931 -0.1734  0.2123 -0.1009
 8605TIP3    H125772   2.256   2.675   1.963 -0.0080 -0.1825 -0.8618
 8605TIP3    H225773   2.123   2.731   2.010  0.2515 -0.6452  0.4768
 8606TIP3   OH225774   4.564   1.177   3.025 -0.1948  0.3278 -0.4360
 8606TIP3    H125775   4.553   1.247   3.090 -1.2969 -1.1658  1.0590
 8606TIP3    H225776   4.490   1.188   2.966 -1.5296 -0.7291  0.9674
 8607TIP3   OH225777   5.560   6.806   4.145  0.4019 -0.4044  0.0005
 8607TIP3    H125778   5.637   6.801   4.202  0.9216 -0.9696 -0.7224
 8607TIP3    H225779   5.596   6.803   4.056 -0.2808  1.8988 -0.4037
 8608TIP3   OH225780   5.254   7.769   6.608 -0.1811  0.5213 -0.7602
 8608TIP3    H125781   5.181   7.770   6.669 -2.4160 -0.7902 -3.2301
 8608TIP3    H225782   5.250   7.855   6.564 -0.0594  0.5615 -0.6926
 8609TIP3   OH225783   0.155   6.522   1.341 -0.1503  0.3282  0.4097
 8609TIP3    H125784   0.147   6.525   1.437  0.4792 -1.1937  0.5365
 8609TIP3    H225785   0.249   6.512   1.326  0.3835  4.5736 -0.5612
 8610TIP3   OH225786   5.569   2.617   0.415 -0.1715  0.3216 -0.5234
 8610TIP3    H125787   5.607   2.546   0.466  0.9442 -0.0421 -1.7951
 8610TIP3    H225788   5.518   2.668   0.478 -0.4452 -1.2114  0.5369
 8611TIP3   OH225789   1.438   6.123   6.312 -0.3077  0.0084  0.2283
 8611TIP3    H125790   1.529   6.111   6.339 -0.4543  0.7517  1.0678
 8611TIP3    H225791   1.423   6.217   6.317 -0.8327 -0.0009 -0.8732
 8612TIP3   OH225792   7.151   1.344   4.031 -0.7296 -0.6199 -0.1637
 8612TIP3    H125793   7.217   1.284   3.996  0.5255 -0.0953  1.1752
 8612TIP3    H225794   7.150   1.417   3.970  0.6297 -0.2166  0.2437
 8613TIP3   OH225795   5.110   7.179   4.547 -0.2000  0.1227  0.3420
 8613TIP3    H125796   5.017   7.182   4.566 -0.1740 -0.0211  0.4898
 8613TIP3    H225797   5.122   7.099   4.495 -0.4050  0.9324 -1.0092
 8614TIP3   OH225798   4.973   1.494   5.241  0.1675 -0.6155 -0.4342
 8614TIP3    H125799   5.046   1.454   5.194  0.9861 -0.1748  0.4277
 8614TIP3    H225800   4.919   1.533   5.172  0.7216 -0.9812 -1.0925
 8615TIP3   OH225801   5.696   0.367   4.156 -0.2653  0.2786 -0.3239
 8615TIP3    H125802   5.791   0.377   4.163 -0.3086  0.2368  0.4005
 8615TIP3    H225803   5.684   0.292   4.098  0.1829 -0.9350  1.0989
 8616TIP3   OH225804   0.730   4.011   3.732  0.3953  0.5179  0.0724
 8616TIP3    H125805   0.678   3.931   3.725  1.6417 -0.3054 -0.0076
 8616TIP3    H225806   0.667   4.078   3.759 -0.6473 -0.5083  0.2557
 8617TIP3   OH225807   6.729   3.414   0.587  0.3352  0.5020  0.2095
 8617TIP3    H125808   6.782   3.492   0.571  0.2461  0.2835 -1.2471
 8617TIP3    H225809   6.640   3.439   0.561  0.2245  0.0563  0.1382
 8618TIP3   OH225810   2.412   5.850   4.023 -0.4195 -0.8230 -0.0563
 8618TIP3    H125811   2.494   5.897   4.008 -0.8732  0.1447  0.3886
 8618TIP3    H225812   2.365   5.903   4.087 -0.6378 -2.2789  1.0615
 8619TIP3   OH225813   5.539   2.424   0.598 -0.4545  0.5243 -0.3918
 8619TIP3    H125814   5.588   2.350   0.562 -1.5969  0.0205 -0.9448
 8619TIP3    H225815   5.483   2.385   0.665 -2.5549  0.4948 -2.0504
 8620TIP3   OH225816   6.212   4.032   0.693 -0.3352  0.5849 -0.3830
 8620TIP3    H125817   6.222   4.017   0.599  1.3448  0.2935 -0.2006
 8620TIP3    H225818   6.272   4.105   0.712 -0.2700  0.3089  0.5280
 8621TIP3   OH225819   1.495   6.220   5.946  0.1804 -0.5574 -0.5500
 8621TIP3    H125820   1.423   6.276   5.917  0.8343 -0.7511 -2.7127
 8621TIP3    H225821   1.451   6.140   5.976 -0.5856  0.0067 -0.1111
 8622TIP3   OH225822   0.159   5.364   4.117  0.0440 -0.2499  0.2291
 8622TIP3    H125823   0.126   5.322   4.197 -2.0074  0.2548 -0.3115
 8622TIP3    H225824   0.081   5.380   4.064  1.3699 -0.6736 -1.9516
 8623TIP3   OH225825   1.244   5.683   3.327  0.0518  0.1320  0.0389
 8623TIP3    H125826   1.281   5.770   3.343 -0.4315 -0.0031  2.1070
 8623TIP3    H225827   1.151   5.692   3.348  0.2716 -1.2114  1.8006
 8624TIP3   OH225828   7.052   6.025   0.435  0.1407  0.1185 -0.3930
 8624TIP3    H125829   7.115   5.956   0.455 -0.5137 -0.7028 -1.1027
 8624TIP3    H225830   7.105   6.097   0.399  0.9529  0.4160  1.2766
 8625TIP3   OH225831   1.807   3.570   1.101  0.5345  0.4561 -0.3097
 8625TIP3    H125832   1.800   3.574   1.005 -1.0998  1.4894 -0.1883
 8625TIP3    H225833   1.716   3.571   1.131  1.0338  0.1188  1.2604
 8626TIP3   OH225834   6.611   5.995   0.200  0.5326  0.0839  0.7099
 8626TIP3    H125835   6.674   5.960   0.137 -0.5123  1.1531 -0.9870
 8626TIP3    H225836   6.665   6.037   0.267  1.9249 -4.7725  3.1116
 8627TIP3   OH225837   7.714   7.367   6.629  0.4535  0.6785  0.8212
 8627TIP3    H125838   7.655   7.322   6.569  0.0309 -0.0530  1.7529
 8627TIP3    H225839   7.734   7.301   6.697  0.8213  1.5120  1.5448
 8628TIP3   OH225840   3.986   0.530   0.571 -0.2239  0.0633 -0.3557
 8628TIP3    H125841   3.977   0.452   0.517  0.4164 -0.3831  0.1649
 8628TIP3    H225842   3.996   0.602   0.508 -2.1893 -0.0627 -0.8609
 8629TIP3   OH225843   4.898   4.145   2.671  0.6745 -0.1606  0.2294
 8629TIP3    H125844   4.935   4.121   2.586  3.1394  1.8258  0.6047
 8629TIP3    H225845   4.904   4.065   2.723  1.2803 -0.8100 -0.7938
 8630TIP3   OH225846   2.610   6.748   2.954  0.0709 -0.3690 -0.5732
 8630TIP3    H125847   2.610   6.842   2.935  0.6682 -0.4540 -0.9839
 8630TIP3    H225848   2.559   6.741   3.035  0.4358  0.3656 -0.2683
 8631TIP3   OH225849   1.809   3.959   4.346  0.5410  0.1898  0.0930
 8631TIP3    H125850   1.763   3.911   4.277  2.1962  0.2372 -1.0937
 8631TIP3    H225851   1.761   4.042   4.353 -0.1320 -0.1468 -0.4299
 8632TIP3   OH225852   0.943   5.479   1.432 -0.6615  0.4213 -0.0208
 8632TIP3    H125853   1.008   5.413   1.456  0.0383  1.1361  0.0857
 8632TIP3    H225854   0.860   5.443   1.464 -0.8446 -1.8898 -2.6556
 8633TIP3   OH225855   4.706   0.368   4.666  0.6202 -0.7328  0.2089
 8633TIP3    H125856   4.753   0.451   4.655 -0.2587 -0.2260  0.2015
 8633TIP3    H225857   4.692   0.336   4.577 -1.4889  0.5283  0.0253
 8634TIP3   OH225858   6.196   4.118   4.732  0.2342  0.1567 -0.1892
 8634TIP3    H125859   6.153   4.192   4.690 -2.4228 -0.6515  0.8727
 8634TIP3    H225860   6.219   4.059   4.660 -0.0644  0.8047 -0.8226
 8635TIP3   OH225861   2.391   6.629   0.686  0.1854 -0.5499 -0.4853
 8635TIP3    H125862   2.381   6.652   0.778  2.0564 -1.2186 -0.0680
 8635TIP3    H225863   2.364   6.538   0.680 -0.5515 -0.3237 -0.7493
 8636TIP3   OH225864   2.497   2.202   5.933 -0.5998  0.2566 -0.2788
 8636TIP3    H125865   2.588   2.209   5.903 -0.1843 -1.5885  0.4117
 8636TIP3    H225866   2.504   2.190   6.028 -1.6442  1.1777 -0.0601
 8637TIP3   OH225867   4.085   3.802   6.334 -0.5189  0.3787 -0.5380
 8637TIP3    H125868   4.174   3.775   6.356  0.0832  2.0110 -0.8580
 8637TIP3    H225869   4.031   3.772   6.407  0.8088  2.2254  1.2911
 8638TIP3   OH225870   6.188   6.853   0.261  0.1550  0.5065 -0.2283
 8638TIP3    H125871   6.176   6.758   0.258  0.7362  0.4051  0.4825
 8638TIP3    H225872   6.146   6.884   0.181  1.0751 -0.4700 -1.1237
 8639TIP3   OH225873   6.058   5.496   0.673 -0.1926  0.1760 -0.1191
 8639TIP3    H125874   6.105   5.467   0.751 -2.5448 -0.2576  1.2459
 8639TIP3    H225875   6.106   5.458   0.600 -0.3656 -3.2331  1.3412
 8640TIP3   OH225876   4.190   5.728   2.527 -0.6757  0.1198  0.2421
 8640TIP3    H125877   4.110   5.771   2.494 -0.4154  0.2732 -0.2042
 8640TIP3    H225878   4.248   5.725   2.451  0.4331  1.6191  0.9602
 8641TIP3   OH225879   3.995   5.061   5.757 -0.1953 -0.0043  0.0735
 8641TIP3    H125880   4.014   5.143   5.803  0.0726 -0.6471  1.1256
 8641TIP3    H225881   4.066   5.053   5.692 -1.2341  1.5148 -1.3494
 8642TIP3   OH225882   4.016   6.881   3.192 -0.5218 -0.0972 -0.6522
 8642TIP3    H125883   4.041   6.805   3.140  0.6912  0.1643 -0.4798
 8642TIP3    H225884   4.059   6.869   3.276 -1.8208 -0.1175  0.0393
 8643TIP3   OH225885   3.204   2.585   2.331 -0.0172  0.0630  0.0314
 8643TIP3    H125886   3.177   2.631   2.252  0.7637 -1.0952 -0.9633
 8643TIP3    H225887   3.150   2.621   2.401  0.4455  2.3154 -0.7154
 8644TIP3   OH225888   2.375   6.159   5.625 -0.1157 -0.6445 -0.0863
 8644TIP3    H125889   2.385   6.081   5.679 -0.9375 -0.7142 -0.0202
 8644TIP3    H225890   2.362   6.230   5.688 -1.9677 -0.8593 -0.1859
 8645TIP3   OH225891   4.048   3.186   2.043  0.5884 -0.3740  0.0759
 8645TIP3    H125892   4.009   3.103   2.070 -0.3565 -0.9298 -2.6626
 8645TIP3    H225893   4.005   3.252   2.098 -1.4232 -1.3577 -0.2439
 8646TIP3   OH225894   1.636   3.445   5.473 -0.2363  0.6045 -0.6701
 8646TIP3    H125895   1.654   3.351   5.477 -0.3301  0.5620 -1.1074
 8646TIP3    H225896   1.669   3.472   5.386  1.1426  1.2697  0.0198
 8647TIP3   OH225897   6.514   4.077   4.419 -0.6076 -0.4189  0.4183
 8647TIP3    H125898   6.550   4.085   4.331 -1.3313  1.4446  0.2506
 8647TIP3    H225899   6.483   4.165   4.440 -2.3515 -1.2938  1.7194
 8648TIP3   OH225900   2.819   3.644   0.655 -0.7189  0.1942  0.0474
 8648TIP3    H125901   2.734   3.644   0.699 -0.8924 -1.3854 -0.2384
 8648TIP3    H225902   2.802   3.690   0.572 -1.4728 -0.6486 -0.2898
 8649TIP3   OH225903   2.539   6.550   2.783  0.5113 -0.5922  0.2618
 8649TIP3    H125904   2.534   6.461   2.820 -0.9880  0.3528  2.5584
 8649TIP3    H225905   2.585   6.600   2.850  2.1547  0.2513 -1.4062
 8650TIP3   OH225906   4.611   7.595   2.737  0.0713 -0.6556  0.1332
 8650TIP3    H125907   4.602   7.512   2.690  1.1705  0.9644 -3.2770
 8650TIP3    H225908   4.702   7.597   2.766  0.2500 -0.3422 -0.4423
 8651TIP3   OH225909   7.456   3.078   6.325 -0.0478  0.2574 -0.2959
 8651TIP3    H125910   7.437   3.096   6.233  0.8525  0.5280 -0.4345
 8651TIP3    H225911   7.531   3.019   6.323  1.2975  1.8792  0.2855
 8652TIP3   OH225912   8.229   7.547   1.568 -0.1803 -0.1688 -0.8033
 8652TIP3    H125913   8.151   7.600   1.584  0.1722  0.4378 -1.0503
 8652TIP3    H225914   8.281   7.600   1.508  1.0106  0.0136  0.3478
 8653TIP3   OH225915   2.773   6.998   6.476  0.0123 -0.4066  0.0531
 8653TIP3    H125916   2.707   6.949   6.427  0.2913  0.0520 -0.8010
 8653TIP3    H225917   2.853   6.990   6.423  0.0433  1.0248 -0.1583
 8654TIP3   OH225918   4.417   6.832   3.490 -0.3493  0.3776 -0.3023
 8654TIP3    H125919   4.414   6.777   3.568 -0.1033  1.5210  0.5500
 8654TIP3    H225920   4.337   6.811   3.442  0.4150 -1.7449 -0.7705
 8655TIP3   OH225921   5.970   4.400   6.672 -0.3043 -0.1334  0.3767
 8655TIP3    H125922   5.987   4.486   6.632  1.9559 -0.5088  0.3578
 8655TIP3    H225923   5.989   4.413   6.765  1.0042 -0.7868  0.2302
 8656TIP3   OH225924   5.857   4.653   4.555 -0.0451  0.2375 -0.3582
 8656TIP3    H125925   5.880   4.714   4.485 -2.6597  0.6296 -0.9811
 8656TIP3    H225926   5.877   4.567   4.518 -0.5955  0.4908 -1.2758
 8657TIP3   OH225927   4.946   1.560   2.698  0.2022  0.1537 -0.0029
 8657TIP3    H125928   4.892   1.525   2.627  0.3706  1.1904 -0.6650
 8657TIP3    H225929   4.957   1.653   2.676 -0.1764  0.6272  1.6460
 8658TIP3   OH225930   5.986   7.476   1.032  0.3600 -0.1412  0.0009
 8658TIP3    H125931   6.044   7.401   1.044  0.1652 -0.2530  0.2684
 8658TIP3    H225932   5.959   7.500   1.121 -0.8642 -0.7780 -0.1769
 8659TIP3   OH225933   0.594   6.309   4.478  0.1613 -0.1443  0.6113
 8659TIP3    H125934   0.502   6.329   4.494  0.8293  3.6319  0.6933
 8659TIP3    H225935   0.640   6.341   4.556  1.7531  0.8881 -0.6773
 8660TIP3   OH225936   1.231   5.552   4.643  0.1529 -0.3064  0.6889
 8660TIP3    H125937   1.143   5.585   4.663  0.1538 -1.2658  2.4131
 8660TIP3    H225938   1.226   5.529   4.550 -0.3320  2.8591 -0.1949
 8661TIP3   OH225939   3.780   1.019   6.062 -0.1780  0.3718 -0.7324
 8661TIP3    H125940   3.758   1.014   6.155 -0.2428 -2.2530 -0.8301
 8661TIP3    H225941   3.873   1.001   6.059 -0.0316  1.1393 -1.1665
 8662TIP3   OH225942   0.096   1.255   0.596 -0.0005  0.5223 -0.2471
 8662TIP3    H125943   0.118   1.207   0.676 -1.8117 -1.3477 -0.7890
 8662TIP3    H225944   0.050   1.333   0.628 -1.4155 -0.5951  0.5881
 8663TIP3   OH225945   7.542   6.705   2.269  0.1393  0.2246  0.2834
 8663TIP3    H125946   7.458   6.747   2.287  0.5664  1.7054 -0.9266
 8663TIP3    H225947   7.601   6.738   2.336  0.1105  0.4092  0.2202
 8664TIP3   OH225948   4.091   2.266   5.590  0.6670 -0.5490  0.0498
 8664TIP3    H125949   4.070   2.205   5.519  0.9861  0.2495 -0.7431
 8664TIP3    H225950   4.098   2.210   5.668 -1.1265 -1.2463 -0.2521
 8665TIP3   OH225951   1.284   2.542   3.487 -0.0301  0.0667 -0.4460
 8665TIP3    H125952   1.298   2.556   3.393 -0.8934 -1.0465 -0.7576
 8665TIP3    H225953   1.288   2.630   3.525  2.2601  0.3643 -1.2324
 8666TIP3   OH225954   5.370   7.168   5.960  0.1270  0.0683 -0.5127
 8666TIP3    H125955   5.364   7.218   5.879  1.4388 -1.8465 -1.8849
 8666TIP3    H225956   5.458   7.185   5.993 -0.2609  0.5239  0.3351
 8667TIP3   OH225957   7.472   4.043   4.510  0.6501 -0.1732  0.4428
 8667TIP3    H125958   7.383   4.021   4.481  0.3952 -1.4170  2.0395
 8667TIP3    H225959   7.527   4.021   4.435 -0.3157  0.0082 -0.3456
 8668TIP3   OH225960   2.878   0.598   4.273  0.6327  0.3195 -0.0561
 8668TIP3    H125961   2.896   0.533   4.205 -0.8994  0.8392 -1.0390
 8668TIP3    H225962   2.859   0.679   4.224 -2.5496  0.2324  0.7785
 8669TIP3   OH225963   1.234   1.696   1.975 -0.1666 -0.1269  0.3786
 8669TIP3    H125964   1.245   1.766   1.910 -0.7234 -0.7990 -0.4542
 8669TIP3    H225965   1.249   1.615   1.926  0.2304 -0.6098  1.2839
 8670TIP3   OH225966   1.929   6.078   5.304 -0.3269 -0.8620 -0.2870
 8670TIP3    H125967   2.017   6.072   5.340 -0.4100 -3.6093 -0.2672
 8670TIP3    H225968   1.942   6.091   5.210  0.0624 -0.1058 -0.1299
 8671TIP3   OH225969   6.688   2.945   3.419 -0.1851  0.7895 -0.6165
 8671TIP3    H125970   6.697   3.022   3.475 -0.6657  0.1543  0.3690
 8671TIP3    H225971   6.777   2.911   3.411 -0.1996  0.5053  0.3376
 8672TIP3   OH225972   4.162   1.129   1.835 -0.4404 -0.8110 -0.4024
 8672TIP3    H125973   4.137   1.039   1.811  0.0659 -1.7063  2.1551
 8672TIP3    H225974   4.245   1.119   1.882 -2.3052  0.4434  3.5050
 8673TIP3   OH225975   1.939   5.702   0.226 -0.7511  0.5480  0.1566
 8673TIP3    H125976   1.982   5.709   0.141 -1.9007  1.1110 -0.3964
 8673TIP3    H225977   1.995   5.751   0.286 -0.5063  1.0919 -0.5085
 8674TIP3   OH225978   5.042   4.746   2.103  0.2754 -0.5135 -0.4967
 8674TIP3    H125979   5.078   4.834   2.094 -0.7625  0.1176  1.0666
 8674TIP3    H225980   5.031   4.715   2.013  0.9558  0.8170 -1.0675
 8675TIP3   OH225981   6.247   7.721   3.479  0.1327 -0.0805  0.5264
 8675TIP3    H125982   6.294   7.639   3.490  1.5290  0.5769 -0.2861
 8675TIP3    H225983   6.299   7.770   3.415  0.4264  2.2189  2.3929
 8676TIP3   OH225984   5.285   2.956   1.888  0.8243  0.0429 -0.1352
 8676TIP3    H125985   5.332   2.873   1.893  1.2469  0.3035  0.2708
 8676TIP3    H225986   5.247   2.966   1.975  0.3047  0.0060 -0.3553
 8677TIP3   OH225987   3.089   3.992   4.267 -0.4598 -0.6923 -0.1592
 8677TIP3    H125988   3.005   4.005   4.311 -0.0918  0.2349  0.2983
 8677TIP3    H225989   3.098   4.069   4.211  0.8436  0.1039  1.0674
 8678TIP3   OH225990   4.174   4.060   6.629  0.2565 -0.1226  0.0288
 8678TIP3    H125991   4.265   4.071   6.602  0.2823  0.4693  0.3357
 8678TIP3    H225992   4.158   3.966   6.622  0.8314 -0.2063 -0.2130
 8679TIP3   OH225993   7.801   3.423   5.117 -0.5777  0.4595 -0.5747
 8679TIP3    H125994   7.846   3.493   5.166 -0.8979  0.6150 -0.4970
 8679TIP3    H225995   7.779   3.358   5.184 -1.1447  0.7390 -0.4822
 8680TIP3   OH225996   2.438   2.686   1.499 -0.2131  0.5578 -0.4172
 8680TIP3    H125997   2.531   2.707   1.487  0.3803 -1.3385  0.5353
 8680TIP3    H225998   2.406   2.756   1.555  1.4924 -0.4865  2.0166
 8681TIP3   OH225999   5.830   2.766   5.381  0.7773 -0.1435  0.0036
 8681TIP3    H126000   5.816   2.672   5.369  1.4234 -0.3522  0.7798
 8681TIP3    H226001   5.752   2.797   5.427  1.3982 -0.6841  1.4809
 8682TIP3   OH226002   5.610   7.081   0.668 -0.3981  0.3863  0.1198
 8682TIP3    H126003   5.637   7.139   0.739 -1.1897  0.7588  0.1273
 8682TIP3    H226004   5.555   7.136   0.612 -0.9561 -0.3001 -0.0097
 8683TIP3   OH226005   3.420   4.838   6.620 -0.4530 -0.6421 -1.1278
 8683TIP3    H126006   3.434   4.930   6.597 -0.4729 -0.1008  0.8254
 8683TIP3    H226007   3.466   4.789   6.552  0.1388  0.8208 -1.8310
 8684TIP3   OH226008   6.425   7.505   0.859  0.0769 -0.0811 -0.7151
 8684TIP3    H126009   6.403   7.528   0.769 -0.5407  2.0728 -0.0701
 8684TIP3    H226010   6.486   7.573   0.887  2.6662 -2.3373 -0.3603
 8685TIP3   OH226011   1.812   3.290   2.909  0.4211 -0.3706  0.4341
 8685TIP3    H126012   1.871   3.332   2.846  0.0896 -0.2772  0.1803
 8685TIP3    H226013   1.847   3.314   2.995  0.1348  0.5910  0.2995
 8686TIP3   OH226014   5.179   1.707   6.788 -0.0851 -0.3524 -0.3549
 8686TIP3    H126015   5.271   1.731   6.795 -0.4699  1.9392 -2.1083
 8686TIP3    H226016   5.170   1.667   6.702 -0.8889  0.3482 -0.6143
 8687TIP3   OH226017   4.477   7.196   4.888  0.0412  0.3858  0.3523
 8687TIP3    H126018   4.460   7.102   4.879 -0.9675  0.2857  2.5301
 8687TIP3    H226019   4.437   7.235   4.811 -1.6643 -0.7879  0.5722
 8688TIP3   OH226020   2.252   2.929   0.311 -0.4115 -0.0676  0.0163
 8688TIP3    H126021   2.171   2.886   0.284  0.0138  0.0133 -1.4698
 8688TIP3    H226022   2.308   2.925   0.233  0.1984  1.8311  0.3163
 8689TIP3   OH226023   0.227   1.741   0.682 -0.0053  0.0598 -0.3249
 8689TIP3    H126024   0.133   1.750   0.699 -0.1522 -0.8936 -0.5893
 8689TIP3    H226025   0.266   1.729   0.769  0.2185  2.9732  0.0788
 8690TIP3   OH226026   0.979   6.462   5.385  0.0817 -0.4008 -0.7484
 8690TIP3    H126027   1.018   6.377   5.406 -0.0040 -0.2024  0.2672
 8690TIP3    H226028   1.021   6.487   5.303  1.0473 -0.8449 -0.4126
 8691TIP3   OH226029   5.455   1.619   3.979  0.7438  0.0007 -0.4746
 8691TIP3    H126030   5.499   1.703   3.961 -0.7735  0.9693  0.1872
 8691TIP3    H226031   5.527   1.559   3.998  1.8536  1.2634 -0.4898
 8692TIP3   OH226032   7.428   1.440   4.223 -0.8742  0.2412  0.3278
 8692TIP3    H126033   7.493   1.473   4.285 -1.8670  0.5851  1.2278
 8692TIP3    H226034   7.405   1.516   4.169  1.8483 -0.5993 -2.2863
 8693TIP3   OH226035   1.858   2.157   6.344 -0.1300  0.2451  0.0422
 8693TIP3    H126036   1.792   2.225   6.330 -0.6639 -0.4525 -0.8873
 8693TIP3    H226037   1.908   2.155   6.262  0.3214 -0.0099  0.3213
 8694TIP3   OH226038   6.183   6.826   2.246 -0.2732 -0.4340  0.1293
 8694TIP3    H126039   6.241   6.799   2.317  0.1757  1.1311  0.4065
 8694TIP3    H226040   6.097   6.835   2.287 -0.5010 -1.6684 -0.0366
 8695TIP3   OH226041   8.024   6.483   6.190 -0.2382  0.2732  0.1533
 8695TIP3    H126042   7.947   6.535   6.165 -0.5131  0.4034  1.2323
 8695TIP3    H226043   8.090   6.506   6.125 -0.6048  1.4021  0.1551
 8696TIP3   OH226044   4.648   1.220   5.035  0.1399 -0.0465  0.3269
 8696TIP3    H126045   4.628   1.310   5.009  3.0219  0.1284 -1.7065
 8696TIP3    H226046   4.602   1.166   4.970 -1.6250 -0.1521  1.5719
 8697TIP3   OH226047   1.774   2.506   5.846  0.1742  0.0125 -0.0800
 8697TIP3    H126048   1.788   2.415   5.869  0.9644 -0.1391 -1.0658
 8697TIP3    H226049   1.684   2.510   5.816  0.7210 -0.9138 -2.0058
 8698TIP3   OH226050   5.231   3.434   1.026 -0.3048  0.1884 -0.3796
 8698TIP3    H126051   5.277   3.476   0.953 -1.7832  2.4771 -0.0810
 8698TIP3    H226052   5.194   3.354   0.989 -1.0219  1.3038 -2.1416
 8699TIP3   OH226053   0.526   2.717   3.918 -0.0135  0.0398  0.3734
 8699TIP3    H126054   0.619   2.732   3.900 -0.0621 -0.5134 -0.4024
 8699TIP3    H226055   0.481   2.795   3.885  0.1968  0.4545  1.0466
 8700TIP3   OH226056   4.980   7.684   6.502  0.2665 -0.1916  0.0932
 8700TIP3    H126057   5.013   7.621   6.437  0.6009  0.8322 -0.7517
 8700TIP3    H226058   4.967   7.765   6.453 -1.7106 -0.0151  0.8221
 8701TIP3   OH226059   7.028   4.433   4.685 -0.2950 -0.5977 -0.1197
 8701TIP3    H126060   7.065   4.482   4.758 -0.8156 -2.0452  1.1603
 8701TIP3    H226061   6.937   4.417   4.711 -0.8564 -0.0832 -1.6601
 8702TIP3   OH226062   5.085   5.028   0.951 -0.2579  0.1899  0.2898
 8702TIP3    H126063   5.158   4.970   0.973 -0.3135  0.4552  1.2407
 8702TIP3    H226064   5.127   5.113   0.936 -0.3687  0.3609  0.9170
 8703TIP3   OH226065   7.930   3.312   1.886  0.0051  0.1731  0.6276
 8703TIP3    H126066   7.969   3.353   1.964 -1.9289  1.7431  0.8320
 8703TIP3    H226067   7.867   3.250   1.921 -1.3036  1.3120  0.3565
 8704TIP3   OH226068   1.827   4.115   6.723  0.1877 -0.3878  0.2968
 8704TIP3    H126069   1.788   4.127   6.637  0.8803  1.2455  0.1760
 8704TIP3    H226070   1.861   4.025   6.722  0.4118 -0.3108 -1.2114
 8705TIP3   OH226071   2.578   4.303   3.283 -0.0356 -0.8801 -0.6101
 8705TIP3    H126072   2.507   4.329   3.342  0.4108  1.0960 -0.8838
 8705TIP3    H226073   2.555   4.213   3.257 -2.0543 -0.5581 -0.1517
 8706TIP3   OH226074   5.337   0.876   3.028 -0.2601  0.0397  0.6218
 8706TIP3    H126075   5.340   0.968   2.999  1.0424 -0.3140 -0.4739
 8706TIP3    H226076   5.307   0.827   2.951 -0.8282 -0.4855  1.1649
 8707TIP3   OH226077   2.079   2.699   0.734  0.0986  0.3873  0.6982
 8707TIP3    H126078   2.043   2.682   0.821  1.1531  0.5549  1.1840
 8707TIP3    H226079   2.004   2.726   0.682 -0.8780 -1.5124  1.0458
 8708TIP3   OH226080   0.437   6.768   3.176 -0.2733  0.1255  0.5950
 8708TIP3    H126081   0.366   6.762   3.112  0.6968  0.4025 -0.5556
 8708TIP3    H226082   0.421   6.851   3.222 -0.8273  0.0625  0.5231
 8709TIP3   OH226083   8.036   4.942   0.708  0.6678  0.0842 -0.2037
 8709TIP3    H126084   8.013   4.867   0.762 -0.2033  1.0476  0.8270
 8709TIP3    H226085   7.980   4.934   0.630  0.0306  0.0626  0.2509
 8710TIP3   OH226086   1.819   0.559   3.766  0.1838  0.5926 -0.5721
 8710TIP3    H126087   1.766   0.604   3.831  0.8917 -0.8573  1.0761
 8710TIP3    H226088   1.907   0.595   3.777  0.1109  1.0986 -1.4927
 8711TIP3   OH226089   1.701   6.078   6.085 -0.2828  0.0838  0.2922
 8711TIP3    H126090   1.642   6.148   6.057 -0.9933 -0.4707  0.3829
 8711TIP3    H226091   1.788   6.106   6.054 -0.4905  1.1795  0.6520
 8712TIP3   OH226092   3.456   5.863   4.495 -0.0784 -0.5691  0.0210
 8712TIP3    H126093   3.407   5.820   4.565  2.2528 -1.0449  1.4868
 8712TIP3    H226094   3.389   5.904   4.440 -2.4152 -4.6967 -0.6426
 8713TIP3   OH226095   6.729   4.666   3.281 -0.3791 -0.1499  0.1464
 8713TIP3    H126096   6.696   4.602   3.345 -1.4881 -0.3390 -0.5720
 8713TIP3    H226097   6.717   4.622   3.196  2.1267 -0.3736 -0.1685
 8714TIP3   OH226098   0.295   7.487   0.131  0.2093 -0.4434  0.0140
 8714TIP3    H126099   0.271   7.428   0.202 -1.1396  1.0334  0.8732
 8714TIP3    H226100   0.382   7.518   0.154  0.2370 -0.8218  0.4455
 8715TIP3   OH226101   6.337   6.316   3.010  0.2197 -0.1896  0.3876
 8715TIP3    H126102   6.244   6.294   3.007 -0.3384  1.9886 -2.8677
 8715TIP3    H226103   6.374   6.275   2.932  1.3555  1.3079  0.0921
 8716TIP3   OH226104   7.676   4.401   6.612 -0.5640 -0.6157  0.1307
 8716TIP3    H126105   7.656   4.364   6.527  0.7345 -2.6996  0.6503
 8716TIP3    H226106   7.598   4.384   6.665 -1.6216  1.2312 -0.7260
 8717TIP3   OH226107   2.842   5.631   6.100 -0.5587 -0.0749  0.1224
 8717TIP3    H126108   2.775   5.685   6.142 -0.9996 -0.5449  0.0367
 8717TIP3    H226109   2.844   5.551   6.153 -0.5490 -0.3396 -0.2739
 8718TIP3   OH226110   1.390   5.792   5.049 -0.2935 -0.3587  0.5521
 8718TIP3    H126111   1.391   5.706   5.092 -0.2222 -0.8264 -0.3627
 8718TIP3    H226112   1.429   5.776   4.963  3.3763  1.3159  1.6888
 8719TIP3   OH226113   1.655   4.671   0.082  0.3728 -0.2308  0.0614
 8719TIP3    H126114   1.690   4.674   0.171  1.5530 -1.7587 -0.3147
 8719TIP3    H226115   1.564   4.698   0.091  0.5822  0.0082  1.6756
 8720TIP3   OH226116   2.829   2.300   6.265 -0.5843 -0.5582 -0.1052
 8720TIP3    H126117   2.887   2.310   6.341  0.9080 -3.5611 -0.6815
 8720TIP3    H226118   2.746   2.271   6.303 -0.2086 -0.9134  0.4649
 8721TIP3   OH226119   7.248   5.025   5.336 -0.4419 -0.0794  0.1471
 8721TIP3    H126120   7.322   5.064   5.383 -0.3890 -1.0745  0.9099
 8721TIP3    H226121   7.207   4.967   5.400 -1.3919 -0.1733 -0.5271
 8722TIP3   OH226122   2.227   7.460   2.278 -0.3877 -0.0467  0.2001
 8722TIP3    H126123   2.193   7.545   2.252 -0.4728  0.4555  1.8660
 8722TIP3    H226124   2.322   7.469   2.272 -0.4002  0.1238  0.2681
 8723TIP3   OH226125   7.857   5.139   0.764  0.3634  0.1135 -0.3406
 8723TIP3    H126126   7.923   5.070   0.760 -0.1785 -0.3883 -0.8633
 8723TIP3    H226127   7.852   5.171   0.674 -0.6623 -0.3944 -0.4774
 8724TIP3   OH226128   4.983   2.513   3.685 -0.1085 -0.0666 -0.1114
 8724TIP3    H126129   5.057   2.573   3.675 -0.8371  0.7683 -0.6815
 8724TIP3    H226130   4.993   2.476   3.772 -0.7570  2.4601  1.1228
 8725TIP3   OH226131   1.721   6.180   2.685  0.6041  0.0204  0.0860
 8725TIP3    H126132   1.801   6.161   2.734  1.7022  2.8372 -0.4017
 8725TIP3    H226133   1.727   6.126   2.607  0.1529 -2.5153  1.6913
 8726TIP3   OH226134   3.501   5.354   5.060  0.3927 -0.1541  0.1488
 8726TIP3    H126135   3.522   5.291   5.128 -1.5252  0.1775  1.0994
 8726TIP3    H226136   3.443   5.417   5.102  1.0799  1.4405 -1.1668
 8727TIP3   OH226137   0.436   0.460   4.197 -0.0006 -0.2621 -0.2378
 8727TIP3    H126138   0.354   0.498   4.228  0.6541  2.0382 -1.1277
 8727TIP3    H226139   0.411   0.402   4.125 -0.8213  0.9155 -0.9322
 8728TIP3   OH226140   0.226   3.581   3.108 -0.4725 -0.1557  0.0301
 8728TIP3    H126141   0.321   3.577   3.097 -0.5440  0.4284 -0.9300
 8728TIP3    H226142   0.194   3.621   3.027 -1.4265  0.7462  0.8167
 8729TIP3   OH226143   5.111   2.524   4.490 -0.3175 -0.3186  0.0962
 8729TIP3    H126144   5.198   2.492   4.466 -0.8204 -1.4866 -0.2679
 8729TIP3    H226145   5.096   2.487   4.577 -0.4984 -0.2114  0.1101
 8730TIP3   OH226146   5.843   2.451   3.484  0.5820  0.4905  0.2540
 8730TIP3    H126147   5.814   2.487   3.568  1.3544  0.4140  0.5628
 8730TIP3    H226148   5.914   2.391   3.506  0.8403  0.5154 -0.4565
 8731TIP3   OH226149   6.627   3.383   1.784 -0.5311 -0.7598  0.3525
 8731TIP3    H126150   6.675   3.332   1.719 -2.5580 -0.9094 -1.1433
 8731TIP3    H226151   6.669   3.469   1.784  0.9038 -1.4463  0.5200
 8732TIP3   OH226152   5.083   3.633   5.153 -0.1375 -0.2427  0.0907
 8732TIP3    H126153   5.166   3.666   5.117  0.4406  0.0656  1.6407
 8732TIP3    H226154   5.105   3.546   5.186 -0.6602 -0.5180 -0.2695
 8733TIP3   OH226155   1.496   2.437   5.894  0.2933  0.3601  0.1780
 8733TIP3    H126156   1.445   2.436   5.813  0.6152  1.7183 -0.0622
 8733TIP3    H226157   1.508   2.344   5.916  0.2413 -0.0296 -1.3451
 8734TIP3   OH226158   7.965   1.988   5.129  0.1637 -0.2979 -0.2525
 8734TIP3    H126159   7.885   2.018   5.172  0.7100 -1.0135  1.3478
 8734TIP3    H226160   8.025   2.063   5.133 -0.6056  0.4743 -2.0732
 8735TIP3   OH226161   0.609   3.387   4.361  0.0649 -0.1150  0.1141
 8735TIP3    H126162   0.556   3.312   4.332 -1.1421  0.4568  0.7634
 8735TIP3    H226163   0.568   3.462   4.319  1.2251  0.2132 -0.4722
 8736TIP3   OH226164   6.697   7.604   2.712 -0.5729 -0.1494  0.0997
 8736TIP3    H126165   6.704   7.545   2.637 -0.2159  1.1134 -0.9068
 8736TIP3    H226166   6.787   7.630   2.730 -0.6813 -0.2679  0.8441
 8737TIP3   OH226167   7.233   0.237   1.326 -0.9452  0.4346  0.1325
 8737TIP3    H126168   7.265   0.204   1.242  0.5814 -3.0637  1.8797
 8737TIP3    H226169   7.310   0.276   1.368 -2.0894  3.8901 -0.6596
 8738TIP3   OH226170   3.619   7.269   3.212  0.1612  0.2127  0.2968
 8738TIP3    H126171   3.678   7.245   3.283 -0.3817  0.2242  0.7576
 8738TIP3    H226172   3.548   7.318   3.254  0.4841  1.3384 -0.4249
 8739TIP3   OH226173   0.131   5.801   6.211 -0.4399  0.3363 -1.0388
 8739TIP3    H126174   0.152   5.864   6.280 -3.4425 -0.6498  1.0068
 8739TIP3    H226175   0.090   5.853   6.143 -2.0833  0.8046  0.2393
 8740TIP3   OH226176   3.635   5.987   2.435  0.0001  0.0619 -0.0548
 8740TIP3    H126177   3.722   5.966   2.471 -1.0235 -1.1353  1.8872
 8740TIP3    H226178   3.591   6.035   2.505 -0.9228  0.6502 -1.0180
 8741TIP3   OH226179   1.485   5.208   4.472 -0.0206  0.1563 -0.3351
 8741TIP3    H126180   1.578   5.199   4.491  0.5936  0.5682 -2.8372
 8741TIP3    H226181   1.458   5.122   4.440 -1.3318 -0.8957  3.1824
 8742TIP3   OH226182   2.875   1.234   2.717 -0.1570 -0.1088  0.4528
 8742TIP3    H126183   2.796   1.280   2.687 -0.5393 -0.4459  0.9227
 8742TIP3    H226184   2.922   1.298   2.769  1.4720  1.1189 -2.3055
 8743TIP3   OH226185   0.517   5.899   1.500 -0.1519 -0.4867  0.4062
 8743TIP3    H126186   0.542   5.807   1.504  0.5113 -0.2778  1.5669
 8743TIP3    H226187   0.560   5.939   1.576 -0.4897  0.7652 -0.0346
 8744TIP3   OH226188   2.642   6.043   1.935  0.4185 -0.4119  0.0702
 8744TIP3    H126189   2.722   6.089   1.910  1.0809 -0.7700  1.4664
 8744TIP3    H226190   2.587   6.110   1.976  0.4981 -0.4281  0.2010
 8745TIP3   OH226191   7.134   5.780   2.523 -0.5248 -0.0145  0.8432
 8745TIP3    H126192   7.158   5.848   2.461 -2.1055  1.4959  1.7644
 8745TIP3    H226193   7.054   5.742   2.487  0.2982 -1.3574  0.3825
 8746TIP3   OH226194   0.517   1.594   0.955  0.4611  0.1362  0.0236
 8746TIP3    H126195   0.462   1.518   0.934 -0.4275  0.5554  0.7483
 8746TIP3    H226196   0.606   1.561   0.950  0.0656 -1.3888  1.7934
 8747TIP3   OH226197   0.001   0.065   4.366  0.2115 -0.3452  0.0799
 8747TIP3    H126198  -0.059   0.110   4.425 -1.1211 -1.1914 -0.5980
 8747TIP3    H226199   0.088   0.098   4.390 -0.7178  3.3782 -1.0027
 8748TIP3   OH226200   0.889   4.645   0.816  0.0006 -0.4925  0.0227
 8748TIP3    H126201   0.833   4.616   0.744 -0.3501 -1.0571  0.5047
 8748TIP3    H226202   0.830   4.697   0.872  0.8837  2.3081 -1.4378
 8749TIP3   OH226203   2.128   4.124   1.178 -0.4309  0.0972  0.3632
 8749TIP3    H126204   2.213   4.112   1.136 -0.0678 -0.3879  1.2026
 8749TIP3    H226205   2.092   4.036   1.185 -0.9585  0.2895  0.1144
 8750TIP3   OH226206   7.080   2.761   1.388 -0.8604 -0.5665 -0.0814
 8750TIP3    H126207   7.067   2.693   1.321  1.1896 -0.6166 -0.4940
 8750TIP3    H226208   7.087   2.712   1.470  0.1848 -0.8485 -0.3231
 8751TIP3   OH226209   1.765   7.252   3.130  0.0483  0.7091  0.2351
 8751TIP3    H126210   1.810   7.334   3.150  0.2525  0.6516  0.0112
 8751TIP3    H226211   1.690   7.251   3.189  0.9711  0.2536  1.4496
 8752TIP3   OH226212   6.685   2.755   0.491 -0.4569  0.8831 -0.2020
 8752TIP3    H126213   6.693   2.760   0.586  0.7103 -0.4574 -0.1899
 8752TIP3    H226214   6.604   2.706   0.477 -0.7519  1.2829  0.0964
 8753TIP3   OH226215   2.474   0.191   3.051 -0.0432 -0.3765  0.1993
 8753TIP3    H126216   2.526   0.126   3.096 -0.8362 -2.0209 -1.1341
 8753TIP3    H226217   2.482   0.169   2.958  0.8229  2.3307 -0.4570
 8754TIP3   OH226218   6.685   3.092   3.773 -0.4261  0.2887 -0.3161
 8754TIP3    H126219   6.723   3.117   3.689 -1.8905  1.0243 -0.7903
 8754TIP3    H226220   6.595   3.066   3.751 -0.0058 -2.2010  0.6395
 8755TIP3   OH226221   5.368   6.289   6.496  0.5511  0.0397  0.1535
 8755TIP3    H126222   5.410   6.356   6.441  0.9596  0.4629  0.9664
 8755TIP3    H226223   5.293   6.259   6.444  1.0740  0.2457 -0.7432
 8756TIP3   OH226224   7.419   2.910   3.805 -0.0044  0.6705 -0.3593
 8756TIP3    H126225   7.504   2.949   3.826  0.5160  0.1564 -1.4169
 8756TIP3    H226226   7.392   2.954   3.724 -0.5439  0.5255 -0.2588
 8757TIP3   OH226227   2.897   2.936   1.382  0.0929 -0.3794 -0.4486
 8757TIP3    H126228   2.931   2.992   1.313 -0.5386  1.5453  0.6964
 8757TIP3    H226229   2.955   2.952   1.457 -0.5514 -0.6769  0.1310
 8758TIP3   OH226230   4.451   7.749   3.539  0.0718  0.0483  0.2840
 8758TIP3    H126231   4.533   7.721   3.498  0.6735  2.3434 -0.2416
 8758TIP3    H226232   4.446   7.699   3.620  2.6037  0.6367  0.8794
 8759TIP3   OH226233   8.233   3.059   1.118 -0.2292  0.5090 -0.0382
 8759TIP3    H126234   8.262   2.992   1.057  1.2225  0.1069  1.0358
 8759TIP3    H226235   8.298   3.129   1.110 -0.0255  0.4598  1.0018
 8760TIP3   OH226236   3.341   3.802   0.220  0.3465 -0.0706 -1.0118
 8760TIP3    H126237   3.380   3.829   0.302  1.1115 -0.6524 -1.1669
 8760TIP3    H226238   3.255   3.769   0.244  0.7846 -0.7763 -0.3523
 8761TIP3   OH226239   0.483   2.996   3.839 -0.2602  0.4385 -0.0906
 8761TIP3    H126240   0.466   3.053   3.913 -0.6181  0.7021 -0.3722
 8761TIP3    H226241   0.399   2.989   3.793 -0.2048 -0.2562 -0.1018
 8762TIP3   OH226242   1.924   7.584   0.294 -0.0895 -0.1224 -0.0479
 8762TIP3    H126243   1.959   7.610   0.209 -2.7041 -1.0221 -1.4893
 8762TIP3    H226244   1.937   7.489   0.297  0.4148 -0.0373  0.7970
 8763TIP3   OH226245   7.886   6.188   3.845 -0.5045 -0.0145  0.0951
 8763TIP3    H126246   7.879   6.221   3.934 -1.6048  0.6601 -0.2132
 8763TIP3    H226247   7.808   6.136   3.832  1.2483 -3.0069  0.5950
 8764TIP3   OH226248   0.341   5.019   4.318 -0.1776 -0.1332  0.1578
 8764TIP3    H126249   0.319   5.033   4.410 -0.1774  1.3872 -0.0512
 8764TIP3    H226250   0.257   5.021   4.272 -0.2121 -1.2576  0.1574
 8765TIP3   OH226251   2.973   7.535   2.239  0.0760  0.0655 -0.2042
 8765TIP3    H126252   2.934   7.593   2.304  2.0306 -0.1875  1.2959
 8765TIP3    H226253   2.973   7.586   2.158  0.5367  1.6706  0.7619
 8766TIP3   OH226254   5.866   0.967   2.002  0.6613 -0.9247 -0.1150
 8766TIP3    H126255   5.866   0.936   1.911 -0.2968 -3.0776  0.5654
 8766TIP3    H226256   5.950   0.938   2.037  0.6326 -0.9167 -0.0412
 8767TIP3   OH226257   0.437   1.496   5.232 -0.3088 -0.5998  0.7525
 8767TIP3    H126258   0.410   1.587   5.239 -0.0268 -0.3560 -0.9731
 8767TIP3    H226259   0.482   1.478   5.315  1.2240  1.3881  0.4286
 8768TIP3   OH226260   3.493   2.150   0.034 -0.7695 -0.0707  0.7624
 8768TIP3    H126261   3.420   2.185   0.085  0.4185  1.5038  1.4617
 8768TIP3    H226262   3.466   2.161  -0.057 -1.3704  0.5940  1.0067
 8769TIP3   OH226263   6.582   1.587   2.629 -0.2602 -0.2333 -0.5557
 8769TIP3    H126264   6.545   1.525   2.691 -1.6008  0.3932 -0.6893
 8769TIP3    H226265   6.533   1.668   2.644 -0.0164  0.1754 -1.8231
 8770TIP3   OH226266   3.682   0.760   0.119 -0.0321  0.0273 -0.1947
 8770TIP3    H126267   3.656   0.818   0.191 -1.5724  0.3005 -0.9386
 8770TIP3    H226268   3.686   0.817   0.042 -0.4684 -0.6325 -0.7160
 8771TIP3   OH226269   3.402   0.237   1.381 -0.3027  0.4050  0.1768
 8771TIP3    H126270   3.320   0.285   1.365 -0.0543  1.4485  1.8359
 8771TIP3    H226271   3.470   0.303   1.371  0.0706  0.3845  2.2335
 8772TIP3   OH226272   7.860   3.607   5.836  0.1743 -0.2248 -0.0116
 8772TIP3    H126273   7.785   3.581   5.783  0.8558 -1.4155 -0.4357
 8772TIP3    H226274   7.932   3.615   5.774  0.1965  1.9775  0.2342
 8773TIP3   OH226275   5.874   4.601   2.698  0.1017 -0.5376  0.0115
 8773TIP3    H126276   5.890   4.673   2.636 -1.7629 -0.3066 -0.2468
 8773TIP3    H226277   5.836   4.643   2.775  0.2746 -1.0969  0.4090
 8774TIP3   OH226278   1.553   2.197   0.876 -0.1375  0.1633  0.0119
 8774TIP3    H126279   1.486   2.247   0.829  0.2013 -1.0072 -1.8043
 8774TIP3    H226280   1.514   2.110   0.887  1.1467 -0.6235 -1.3452
 8775TIP3   OH226281   5.615   5.416   2.479  0.3039 -0.2539  0.4378
 8775TIP3    H126282   5.636   5.423   2.386 -0.5185 -4.2825 -0.2158
 8775TIP3    H226283   5.698   5.396   2.521  0.4225  0.0221  0.3349
 8776TIP3   OH226284   2.382   5.119   4.590 -0.3965 -0.1892  0.5528
 8776TIP3    H126285   2.313   5.054   4.601 -2.5198  2.0666  1.4328
 8776TIP3    H226286   2.359   5.167   4.511  0.1595  0.5920  0.8471
 8777TIP3   OH226287   2.945   4.621   2.836 -0.1786  0.1410 -0.0964
 8777TIP3    H126288   2.970   4.560   2.906  1.8864  0.4297 -0.4995
 8777TIP3    H226289   2.923   4.702   2.881  1.8487  0.5539  0.2660
 8778TIP3   OH226290   1.396   6.085   4.835 -0.3622 -0.0709 -0.2455
 8778TIP3    H126291   1.336   6.035   4.780 -1.1266  0.2077  0.3165
 8778TIP3    H226292   1.474   6.030   4.843 -0.4925 -0.3826 -1.0874
 8779TIP3   OH226293   0.836   0.597   0.864  0.0589  0.1849  0.0492
 8779TIP3    H126294   0.757   0.582   0.811 -0.0118  1.7534 -0.3371
 8779TIP3    H226295   0.905   0.549   0.819 -0.4198 -0.1760 -0.3092
 8780TIP3   OH226296   6.176   7.258   3.541 -0.3589 -0.2667 -0.0326
 8780TIP3    H126297   6.152   7.199   3.613 -2.3642  1.3355  0.7155
 8780TIP3    H226298   6.105   7.322   3.539  1.3274  1.6620 -1.3243
 8781TIP3   OH226299   1.304   1.726   4.694 -0.1561 -0.1105  0.2201
 8781TIP3    H126300   1.275   1.809   4.656  0.2984  1.6285  3.3332
 8781TIP3    H226301   1.226   1.669   4.689 -0.6013  0.6006 -1.5975
 8782TIP3   OH226302   0.812   4.111   1.810  0.0132 -0.8028  0.0076
 8782TIP3    H126303   0.762   4.134   1.888 -0.7919 -0.8356 -0.4824
 8782TIP3    H226304   0.882   4.176   1.805 -0.4487 -0.2790  0.2839
 8783TIP3   OH226305   4.073   0.067   1.698  0.1967  0.1575  0.7189
 8783TIP3    H126306   4.051   0.014   1.776  2.3857  0.0279  1.2981
 8783TIP3    H226307   4.167   0.055   1.687  0.2281  1.6409 -0.8946
 8784TIP3   OH226308   6.020   6.889   1.925 -0.2687  0.1320 -0.0950
 8784TIP3    H126309   6.020   6.981   1.951 -1.6433 -0.1221  0.8706
 8784TIP3    H226310   6.098   6.880   1.870  0.7597  1.5094  1.0595
 8785TIP3   OH226311   6.159   4.403   2.388 -0.3924 -0.1155  0.4422
 8785TIP3    H126312   6.219   4.424   2.316 -0.8111  0.4873  0.2570
 8785TIP3    H226313   6.211   4.417   2.468  0.1298 -0.9763  0.2600
 8786TIP3   OH226314   3.649   1.628   1.912  0.5936 -0.0376 -0.0865
 8786TIP3    H126315   3.582   1.687   1.946 -0.3024 -1.4577  0.6956
 8786TIP3    H226316   3.728   1.683   1.905 -0.1806  1.2178  0.6798
 8787TIP3   OH226317   0.146   5.237   5.672  0.2173  0.2030  0.4267
 8787TIP3    H126318   0.156   5.180   5.748  0.6619 -0.5171 -0.1667
 8787TIP3    H226319   0.103   5.315   5.707 -0.6447 -0.5947  1.1978
 8788TIP3   OH226320   7.524   3.638   2.334  0.2798  0.1502 -0.2194
 8788TIP3    H126321   7.587   3.709   2.342 -1.0797  1.4573 -0.5026
 8788TIP3    H226322   7.561   3.580   2.267  0.7713  1.3469 -1.0092
 8789TIP3   OH226323   2.804   1.785   4.623 -0.3008  0.4948  0.1728
 8789TIP3    H126324   2.883   1.748   4.584 -0.4396  0.7874 -0.4021
 8789TIP3    H226325   2.783   1.727   4.696 -0.6984 -0.7704 -0.8996
 8790TIP3   OH226326   2.259   5.707   1.763 -0.5970 -0.2334  0.3974
 8790TIP3    H126327   2.184   5.693   1.822 -0.2133  0.0046  0.9479
 8790TIP3    H226328   2.248   5.797   1.732 -1.3212 -0.6663 -0.6539
 8791TIP3   OH226329   6.160   0.187   3.570  0.3524 -0.6101  0.4206
 8791TIP3    H126330   6.135   0.106   3.526 -0.3101 -0.4364  0.4640
 8791TIP3    H226331   6.085   0.245   3.558  0.4150 -0.3467  1.2362
 8792TIP3   OH226332   3.194   2.515   2.667  0.1606 -0.7248  0.3309
 8792TIP3    H126333   3.147   2.437   2.637  1.1098 -0.9733 -0.5279
 8792TIP3    H226334   3.278   2.482   2.699  1.2890  0.0939 -1.6453
 8793TIP3   OH226335   0.411   0.369   2.954  0.1036  0.0246 -0.6359
 8793TIP3    H126336   0.322   0.335   2.964 -0.4527  2.0369  2.8365
 8793TIP3    H226337   0.466   0.291   2.946 -1.5599 -1.5917  2.0549
 8794TIP3   OH226338   6.770   7.202   0.984  0.3476 -0.3505  0.3984
 8794TIP3    H126339   6.806   7.276   1.033 -0.1968  1.3260 -1.6029
 8794TIP3    H226340   6.676   7.218   0.983  0.2480 -0.9680 -0.2558
 8795TIP3   OH226341   0.555   6.991   2.992  0.3356 -0.9966 -0.4768
 8795TIP3    H126342   0.504   7.038   2.926 -0.7649 -1.3377  0.0929
 8795TIP3    H226343   0.590   6.915   2.945  1.7135  0.0793 -1.2753
 8796TIP3   OH226344   3.055   1.266   1.900 -0.0018  0.1168  0.0310
 8796TIP3    H126345   3.136   1.285   1.948 -0.2782  0.2846  0.4319
 8796TIP3    H226346   3.036   1.348   1.854  0.4171 -0.1291 -0.6095
 8797TIP3   OH226347   3.269   0.870   4.327 -0.1976  0.1105  0.0813
 8797TIP3    H126348   3.353   0.874   4.373  0.7169  2.6099 -1.5531
 8797TIP3    H226349   3.285   0.812   4.253  0.1934  0.7640 -0.3571
 8798TIP3   OH226350   6.201   0.189   4.704  0.2911 -0.3144  0.1534
 8798TIP3    H126351   6.251   0.191   4.786 -0.4636 -0.0070  0.6143
 8798TIP3    H226352   6.237   0.261   4.653  0.6735 -0.4204  0.2684
 8799TIP3   OH226353   3.117   7.733   3.325  0.1628  0.3160  0.6053
 8799TIP3    H126354   3.046   7.795   3.341 -0.2126  0.3861 -1.0829
 8799TIP3    H226355   3.125   7.730   3.229  2.4908  0.3369  0.7438
 8800TIP3   OH226356   5.141   0.207   0.192  0.4406 -0.0080 -0.1332
 8800TIP3    H126357   5.227   0.218   0.233  0.1055 -3.2665  1.7666
 8800TIP3    H226358   5.081   0.196   0.266 -0.8441 -2.1675 -1.4013
 8801TIP3   OH226359   5.548   4.196   5.122 -0.1802 -0.3280 -0.0706
 8801TIP3    H126360   5.637   4.223   5.099  0.3305  0.4940  2.5579
 8801TIP3    H226361   5.496   4.219   5.045  1.7006 -0.0364 -1.3382
 8802TIP3   OH226362   2.341   5.395   0.262  0.2123 -0.3996 -0.4376
 8802TIP3    H126363   2.320   5.304   0.238 -1.1780 -0.8811  2.1848
 8802TIP3    H226364   2.265   5.445   0.234 -0.3710 -0.5787  0.7782
 8803TIP3   OH226365   0.916   5.169   6.671 -0.1796  0.2308  0.1488
 8803TIP3    H126366   0.823   5.149   6.678  0.0107 -1.0551 -0.7380
 8803TIP3    H226367   0.918   5.259   6.637 -1.0886  0.3240  0.3177
 8804TIP3   OH226368   5.301   1.016   2.780  0.6154 -0.6370 -0.3715
 8804TIP3    H126369   5.216   0.975   2.795  0.9369 -0.6143  1.7390
 8804TIP3    H226370   5.340   0.965   2.708 -0.6568 -1.4292 -0.5197
 8805TIP3   OH226371   2.331   2.369   2.393 -0.2006  0.4545 -0.0750
 8805TIP3    H126372   2.415   2.337   2.426  1.4392  1.7659 -2.6376
 8805TIP3    H226373   2.327   2.460   2.421 -1.0124  0.2793  0.4127
 8806TIP3   OH226374   7.195   3.454   4.251 -0.1601 -0.2558 -0.0052
 8806TIP3    H126375   7.236   3.538   4.231 -2.9063  1.0313 -0.6247
 8806TIP3    H226376   7.176   3.459   4.345 -1.2126  0.2790 -0.2316
 8807TIP3   OH226377   2.202   7.705   1.660 -0.2006 -0.3317 -0.6241
 8807TIP3    H126378   2.146   7.774   1.624  0.9813 -0.1132 -2.1694
 8807TIP3    H226379   2.265   7.687   1.590  2.4732  0.3330  1.4580
 8808TIP3   OH226380   5.208   5.068   3.113 -0.0349 -0.2931  0.2915
 8808TIP3    H126381   5.139   5.132   3.097 -0.1362 -0.6741 -0.8859
 8808TIP3    H226382   5.269   5.081   3.040  0.2272 -1.1664  0.3488
 8809TIP3   OH226383   7.390   1.774   3.544  0.4233 -0.6000 -0.1895
 8809TIP3    H126384   7.436   1.834   3.485  1.1011 -0.5863  0.3524
 8809TIP3    H226385   7.351   1.831   3.611  0.9438 -0.7463  0.2423
 8810TIP3   OH226386   4.044   6.902   5.572  0.0107  0.0893  0.2871
 8810TIP3    H126387   3.993   6.828   5.541  0.6205  0.0735 -0.7070
 8810TIP3    H226388   4.065   6.952   5.493 -2.2027  2.5356  1.0723
 8811TIP3   OH226389   4.479   1.913   0.055  0.3411 -0.4458 -0.2214
 8811TIP3    H126390   4.531   1.882  -0.019 -0.0470 -0.1427 -0.6307
 8811TIP3    H226391   4.399   1.860   0.051  1.2746 -2.0867  1.3909
 8812TIP3   OH226392   6.329   2.823   2.220  0.2857 -0.2756  0.1088
 8812TIP3    H126393   6.419   2.807   2.249  0.0832  0.8994  1.4842
 8812TIP3    H226394   6.317   2.917   2.229 -0.9721 -0.3664 -0.4174
 8813TIP3   OH226395   0.579   0.277   2.052 -0.0202 -0.0535  0.0283
 8813TIP3    H126396   0.506   0.227   2.017  1.6655 -2.0208 -0.9442
 8813TIP3    H226397   0.576   0.260   2.147 -1.1377  0.3881  0.0855
 8814TIP3   OH226398   4.084   6.920   0.274  0.5240  0.1607  0.0743
 8814TIP3    H126399   3.996   6.926   0.310  1.3728  1.8821  2.0829
 8814TIP3    H226400   4.125   6.848   0.322  0.5576  0.1380  0.0110
 8815TIP3   OH226401   3.794   5.981   5.411 -0.1371 -0.0246 -0.1618
 8815TIP3    H126402   3.705   6.011   5.428  0.6848  1.9288  1.0460
 8815TIP3    H226403   3.821   6.027   5.332  0.4464  0.9812  0.5919
 8816TIP3   OH226404   3.276   7.229   0.167 -0.1907  0.3859 -0.1463
 8816TIP3    H126405   3.270   7.261   0.257  0.3437 -1.1453  0.4730
 8816TIP3    H226406   3.370   7.213   0.153 -0.3745 -0.3609 -0.6041
 8817TIP3   OH226407   4.582   2.539   1.197 -0.4000 -0.3220  0.4085
 8817TIP3    H126408   4.640   2.468   1.169 -2.8444 -2.2784  0.0532
 8817TIP3    H226409   4.524   2.554   1.123 -0.1577  1.9193  0.5874
 8818TIP3   OH226410   7.638   3.230   2.412 -0.2804  1.0325  0.3066
 8818TIP3    H126411   7.575   3.299   2.431  0.4000  0.9432  3.4193
 8818TIP3    H226412   7.609   3.155   2.464  1.1312  0.2598  0.0504
 8819TIP3   OH226413   4.777   4.659   4.209 -0.2389  0.4989 -0.1662
 8819TIP3    H126414   4.780   4.598   4.136 -0.1059  0.9450 -0.5432
 8819TIP3    H226415   4.727   4.614   4.277  0.2229 -0.1870 -0.2804
 8820TIP3   OH226416   2.321   3.236   3.286 -0.0532 -0.4095 -0.1413
 8820TIP3    H126417   2.245   3.179   3.287  0.2635 -0.9091  2.3951
 8820TIP3    H226418   2.371   3.211   3.363  2.6673 -0.0340 -1.6403
 8821TIP3   OH226419   6.425   3.657   3.021 -0.2984  0.9928 -0.4062
 8821TIP3    H126420   6.520   3.647   3.014 -0.3319 -1.9610  1.5879
 8821TIP3    H226421   6.411   3.695   3.108 -0.9186 -1.7385  0.8030
 8822TIP3   OH226422   5.755   2.682   1.372  0.2402  0.1197 -0.1409
 8822TIP3    H126423   5.828   2.721   1.419  0.7629  1.2262 -1.7604
 8822TIP3    H226424   5.715   2.621   1.434  0.8663  1.4959  1.7025
 8823TIP3   OH226425   1.865   3.689   6.324 -0.2250  0.2374  0.1017
 8823TIP3    H126426   1.823   3.692   6.411 -0.0353  1.6566  0.1678
 8823TIP3    H226427   1.952   3.725   6.339 -0.3793  1.0091 -0.7626
 8824TIP3   OH226428   0.912   6.534   0.645  0.1188  0.1369  0.2272
 8824TIP3    H126429   0.947   6.490   0.723 -0.8338 -0.6885  0.2033
 8824TIP3    H226430   0.979   6.598   0.622  0.9642 -0.4447  1.0060
 8825TIP3   OH226431   6.289   7.196   3.923 -0.4734 -0.0986  0.1875
 8825TIP3    H126432   6.245   7.254   3.985 -3.4528 -1.2942 -0.6407
 8825TIP3    H226433   6.218   7.147   3.882  1.5718 -1.0236 -2.5005
 8826TIP3   OH226434   7.328   7.656   0.589 -0.4248 -0.0097 -0.0855
 8826TIP3    H126435   7.282   7.729   0.549  0.9481  0.5495 -0.6797
 8826TIP3    H226436   7.263   7.617   0.648 -0.6998  2.7170  1.5856
 8827TIP3   OH226437   7.529   6.675   0.937  0.5509 -0.0065 -0.2861
 8827TIP3    H126438   7.485   6.669   0.852  0.1811  2.2437 -0.3206
 8827TIP3    H226439   7.583   6.596   0.941 -1.2957 -1.4350 -1.4864
 8828TIP3   OH226440   1.115   2.990   4.190 -0.2157 -0.3428 -0.5366
 8828TIP3    H126441   1.208   2.995   4.212 -0.5241 -1.0008  1.0462
 8828TIP3    H226442   1.070   2.992   4.275 -1.6052 -0.7522 -1.2398
 8829TIP3   OH226443   0.151   4.209   4.838 -0.4686  0.5731 -0.5098
 8829TIP3    H126444   0.244   4.226   4.824 -0.3786  1.5164  1.0021
 8829TIP3    H226445   0.109   4.238   4.757  0.6547 -1.3393 -1.8566
 8830TIP3   OH226446   0.531   6.994   4.195 -0.2701  0.1522  0.1853
 8830TIP3    H126447   0.534   7.026   4.105 -1.9763 -1.3651 -0.4652
 8830TIP3    H226448   0.599   6.926   4.199 -1.1618 -0.7948 -0.4091
 8831TIP3   OH226449   6.195   6.667   1.040 -0.0640 -0.0315 -0.4540
 8831TIP3    H126450   6.290   6.678   1.028 -0.0998  0.0150 -0.7077
 8831TIP3    H226451   6.171   6.599   0.977 -0.0780 -0.5776  0.1266
 8832TIP3   OH226452   6.679   1.655   1.874  0.1384 -0.1408  0.0000
 8832TIP3    H126453   6.606   1.667   1.936  0.6545 -0.8637  0.7615
 8832TIP3    H226454   6.752   1.627   1.929  1.1578  1.0908 -0.6752
 8833TIP3   OH226455   5.562   6.636   2.313 -0.0009  0.0625 -0.1378
 8833TIP3    H126456   5.653   6.659   2.296  0.4493 -0.8538  0.8617
 8833TIP3    H226457   5.511   6.685   2.248  1.2342  0.2548 -0.9823
 8834TIP3   OH226458   7.354   7.760   2.046  0.7161 -0.0028 -0.3110
 8834TIP3    H126459   7.345   7.717   2.131  0.9392 -0.9385 -0.7445
 8834TIP3    H226460   7.350   7.854   2.066 -0.4211 -0.2191  0.5835
 8835TIP3   OH226461   6.979   6.267   1.998  0.1274 -0.2977 -0.2207
 8835TIP3    H126462   7.005   6.358   2.010 -1.7653  0.6996 -2.7137
 8835TIP3    H226463   6.948   6.239   2.084 -0.5478  1.8811  0.3163
 8836TIP3   OH226464   3.461   1.723   6.148  0.6100  0.4597 -0.1560
 8836TIP3    H126465   3.436   1.734   6.240  0.2866 -0.7124 -0.0964
 8836TIP3    H226466   3.522   1.650   6.147 -0.6824 -0.6651 -1.0606
 8837TIP3   OH226467   2.898   4.326   0.447  0.2995  0.6861  0.1947
 8837TIP3    H126468   2.908   4.372   0.364  0.4083 -0.4108 -0.4218
 8837TIP3    H226469   2.804   4.331   0.466  0.4237  1.8574  0.5663
 8838TIP3   OH226470   3.592   0.393   2.472  0.2770 -0.3939 -0.3679
 8838TIP3    H126471   3.633   0.477   2.450  1.1457 -0.5731  0.5193
 8838TIP3    H226472   3.617   0.335   2.400 -2.0856  0.5951 -2.1381
 8839TIP3   OH226473   2.597   7.407   6.403  0.0488  0.7454 -0.4968
 8839TIP3    H126474   2.677   7.449   6.372  0.7610  0.4528  0.8579
 8839TIP3    H226475   2.544   7.395   6.324  1.9093 -0.2988 -1.6613
 8840TIP3   OH226476   7.152   2.847   3.351 -0.1026 -0.4598 -0.2321
 8840TIP3    H126477   7.106   2.910   3.406 -0.4272  0.2354 -1.2746
 8840TIP3    H226478   7.086   2.819   3.288 -0.1284 -2.2687  0.5295
 8841TIP3   OH226479   7.673   7.035   5.085 -0.2624  0.6084  0.5058
 8841TIP3    H126480   7.668   7.131   5.079 -0.0079  0.5511 -0.8515
 8841TIP3    H226481   7.659   7.004   4.996  2.5190 -0.4708  0.3284
 8842TIP3   OH226482   0.279   3.014   2.389  0.4165  0.4850  0.2444
 8842TIP3    H126483   0.241   3.100   2.369 -2.5600 -0.5579  0.8323
 8842TIP3    H226484   0.283   2.970   2.304  3.2441  1.5800 -0.2767
 8843TIP3   OH226485   8.144   6.141   1.617  0.5385  0.3230 -0.6108
 8843TIP3    H126486   8.154   6.202   1.690  0.9878  0.8532 -1.1103
 8843TIP3    H226487   8.094   6.190   1.551  1.2625  0.3183 -1.1852
 8844TIP3   OH226488   3.994   6.434   6.621  0.8541 -0.6441 -0.6478
 8844TIP3    H126489   3.946   6.361   6.660  1.5238  0.1592  1.9254
 8844TIP3    H226490   4.085   6.407   6.622  1.1968  0.3621  0.9503
 8845TIP3   OH226491   3.787   3.821   5.777 -0.2415 -0.1589 -0.0613
 8845TIP3    H126492   3.701   3.791   5.807 -0.0602 -0.7769 -0.1363
 8845TIP3    H226493   3.825   3.744   5.733  0.4303  0.0427  0.1494
 8846TIP3   OH226494   1.355   4.937   5.716 -0.3819 -0.1571 -0.1964
 8846TIP3    H126495   1.437   4.984   5.698  0.6861 -1.3317  1.3115
 8846TIP3    H226496   1.366   4.853   5.670 -0.1511 -0.8245  1.0244
 8847TIP3   OH226497   5.594   0.183   4.473 -0.1457  0.4063  0.1093
 8847TIP3    H126498   5.613   0.274   4.450 -1.5824  1.2782  2.1176
 8847TIP3    H226499   5.511   0.186   4.520 -0.7166 -2.0902 -0.5535
 8848TIP3   OH226500   4.477   6.211   6.181  0.1305  0.0747  0.3896
 8848TIP3    H126501   4.440   6.273   6.118  0.2863  0.5969  0.8029
 8848TIP3    H226502   4.551   6.258   6.220 -0.6141  0.1793  1.7473
 8849TIP3   OH226503   3.073   1.692   3.391 -0.0687 -0.3242 -0.0673
 8849TIP3    H126504   3.135   1.686   3.318  1.0586 -1.2794  0.9316
 8849TIP3    H226505   3.116   1.750   3.454 -1.0459  0.5179 -0.1525
 8850TIP3   OH226506   3.432   1.848   0.047  0.2624  0.1214 -0.3134
 8850TIP3    H126507   3.478   1.931   0.046 -1.3401  1.0913 -2.7800
 8850TIP3    H226508   3.351   1.866   0.095  0.0939 -0.1568 -0.4902
 8851TIP3   OH226509   6.138   2.447   3.213 -0.0826  0.5854 -0.5908
 8851TIP3    H126510   6.117   2.468   3.122 -1.9900 -1.4314 -0.7216
 8851TIP3    H226511   6.120   2.353   3.220  1.5664  0.3572  1.4890
 8852TIP3   OH226512   0.403   7.499   1.732  0.2780  0.1444  0.9389
 8852TIP3    H126513   0.385   7.587   1.766  1.9236  0.1800  1.7895
 8852TIP3    H226514   0.395   7.509   1.637 -0.9716  0.8514  1.0881
 8853TIP3   OH226515   1.458   2.216   4.340  0.1924 -0.2422 -0.4675
 8853TIP3    H126516   1.431   2.265   4.418  1.1075  0.9118 -0.8529
 8853TIP3    H226517   1.468   2.282   4.272 -0.3144 -1.2005 -1.5080
 8854TIP3   OH226518   0.382   3.045   1.330 -0.4484 -0.7086  0.2864
 8854TIP3    H126519   0.310   2.983   1.340 -2.6663  1.3725 -1.5007
 8854TIP3    H226520   0.346   3.129   1.360  0.3784  0.8750 -2.7112
 8855TIP3   OH226521   4.697   0.330   3.132 -0.2737 -0.3202  0.4488
 8855TIP3    H126522   4.720   0.408   3.183  0.8824 -0.4425  0.1560
 8855TIP3    H226523   4.634   0.284   3.186  0.9129 -0.4408  1.7963
 8856TIP3   OH226524   7.880   1.756   4.206  0.6732 -0.7670 -0.1657
 8856TIP3    H126525   7.974   1.771   4.198  0.5054 -0.2918 -1.4544
 8856TIP3    H226526   7.844   1.840   4.234  0.4666 -0.5005 -1.1915
 8857TIP3   OH226527   5.626   0.624   2.358 -0.0380 -0.6252 -0.4214
 8857TIP3    H126528   5.688   0.656   2.292  0.5194 -1.2174 -0.1938
 8857TIP3    H226529   5.555   0.689   2.357  1.0841  0.6703  0.0746
 8858TIP3   OH226530   7.230   5.091   4.007 -0.1514 -0.3503 -0.7050
 8858TIP3    H126531   7.249   5.172   4.055 -2.3273 -0.9464  1.3104
 8858TIP3    H226532   7.134   5.088   4.002 -0.0710 -2.0865 -2.0650
 8859TIP3   OH226533   2.954   0.567   6.473 -0.3975  0.6293  0.2429
 8859TIP3    H126534   2.937   0.473   6.460 -0.3284  0.5313  0.8655
 8859TIP3    H226535   2.871   0.610   6.455 -1.6381  0.1037  4.0418
 8860TIP3   OH226536   4.875   1.740   0.718  0.1294 -0.2210  0.1916
 8860TIP3    H126537   4.895   1.746   0.812  2.9003  1.0831 -0.3545
 8860TIP3    H226538   4.917   1.818   0.681  0.7038 -1.6475 -2.3456
 8861TIP3   OH226539   3.145   5.201   0.313 -0.4058 -0.1119 -0.8804
 8861TIP3    H126540   3.169   5.271   0.252 -2.0651  1.7952  0.5508
 8861TIP3    H226541   3.212   5.205   0.381 -0.5088  0.0801 -0.7913
 8862TIP3   OH226542   5.817   5.713   0.369 -0.2450 -0.3219  0.0236
 8862TIP3    H126543   5.782   5.632   0.406  0.8494 -1.9395 -2.2092
 8862TIP3    H226544   5.813   5.699   0.274  1.3785  1.6469 -0.3958
 8863TIP3   OH226545   8.076   3.459   0.550 -0.4768 -0.1509  0.3074
 8863TIP3    H126546   8.032   3.445   0.466  0.4144  0.2625 -0.2343
 8863TIP3    H226547   8.144   3.392   0.553  0.1377  0.4673  0.2483
 8864TIP3   OH226548   1.713   1.247   2.442 -0.0727 -0.5133  0.4740
 8864TIP3    H126549   1.643   1.313   2.436  0.4363  0.0376  0.5145
 8864TIP3    H226550   1.710   1.203   2.357 -0.5367 -0.5693  0.5124
 8865TIP3   OH226551   2.799   4.843   5.226  0.4372 -0.2556 -0.0726
 8865TIP3    H126552   2.795   4.917   5.165  0.5262  0.6310  0.9570
 8865TIP3    H226553   2.885   4.804   5.211  0.5907  0.1613 -0.2971
 8866TIP3   OH226554   5.756   1.479   1.964 -0.4396 -0.9765  0.1945
 8866TIP3    H126555   5.715   1.535   1.897 -0.1845 -0.0544  0.7885
 8866TIP3    H226556   5.689   1.415   1.986 -1.9841  1.0608  1.8292
 8867TIP3   OH226557   7.699   4.602   0.116 -0.3865  0.2532  0.2365
 8867TIP3    H126558   7.657   4.573   0.035 -1.1166  0.6426  0.4686
 8867TIP3    H226559   7.740   4.523   0.151 -0.2236  0.0422 -0.4137
 8868TIP3   OH226560   5.453   7.195   1.196 -0.3914  0.0210 -0.2357
 8868TIP3    H126561   5.530   7.137   1.191  0.2885  0.7101  1.4523
 8868TIP3    H226562   5.446   7.217   1.289  0.0038  3.4831 -0.8959
 8869TIP3   OH226563   2.661   2.047   4.806 -0.1784  0.2569 -0.3443
 8869TIP3    H126564   2.620   2.042   4.720 -0.5191  0.5628 -0.2026
 8869TIP3    H226565   2.713   1.967   4.813 -2.3963 -1.2414  0.3020
 8870TIP3   OH226566   3.262   7.287   2.963 -0.8088 -0.3222 -0.9260
 8870TIP3    H126567   3.304   7.372   2.968 -0.8782 -0.2623 -1.3346
 8870TIP3    H226568   3.183   7.296   3.017  0.1397 -0.7079  0.5772
 8871TIP3   OH226569   0.390   3.997   5.529 -0.3188  0.0420  0.2714
 8871TIP3    H126570   0.379   3.931   5.599  0.2584 -2.1402 -1.5674
 8871TIP3    H226571   0.485   4.009   5.523 -0.4216  1.0325  0.5409
 8872TIP3   OH226572   2.848   3.541   1.977  0.1122  0.5032 -0.3402
 8872TIP3    H126573   2.867   3.465   2.033 -1.0580  0.2571 -0.2537
 8872TIP3    H226574   2.932   3.585   1.967  0.6889 -0.4637  0.1231
 8873TIP3   OH226575   6.324   0.494   4.888  0.6084 -0.5594  0.3487
 8873TIP3    H126576   6.332   0.544   4.970 -0.7054 -1.6901  1.2216
 8873TIP3    H226577   6.318   0.403   4.917 -1.0781 -0.8864 -0.9144
 8874TIP3   OH226578   0.264   1.927   4.716  0.3688  0.2910 -0.3105
 8874TIP3    H126579   0.335   1.954   4.658 -0.4602  0.6191 -1.2110
 8874TIP3    H226580   0.277   1.978   4.796  1.8889 -0.6209  0.0578
 8875TIP3   OH226581   5.332   4.817   3.991  0.1216  0.0365 -0.6424
 8875TIP3    H126582   5.276   4.815   3.913 -1.2734  0.4018  0.3038
 8875TIP3    H226583   5.276   4.783   4.061  0.6568  1.6130  0.6010
 8876TIP3   OH226584   2.109   3.069   3.366 -0.5607 -0.2227  0.3208
 8876TIP3    H126585   2.142   3.041   3.451 -1.1362 -1.2368  0.2178
 8876TIP3    H226586   2.026   3.112   3.385 -0.1172  0.6224  0.3843
 8877TIP3   OH226587   5.682   1.609   4.990 -0.4073 -0.1852 -0.3888
 8877TIP3    H126588   5.773   1.637   5.000 -0.4850 -0.2292  0.4767
 8877TIP3    H226589   5.632   1.691   4.996 -0.4260 -0.1528 -0.9310
 8878TIP3   OH226590   5.550   4.846   3.106  0.7927  0.7191  0.0872
 8878TIP3    H126591   5.631   4.881   3.069  1.3486 -0.9596 -0.4169
 8878TIP3    H226592   5.522   4.779   3.043 -0.5973  0.7733  0.6113
 8879TIP3   OH226593   4.578   1.243   5.313 -0.3324  0.1476  0.1461
 8879TIP3    H126594   4.601   1.194   5.235  0.9722  0.4615  0.3161
 8879TIP3    H226595   4.494   1.284   5.292 -0.0203  0.1827 -1.0645
 8880TIP3   OH226596   4.239   4.039   3.362 -0.1396  0.2967  0.4531
 8880TIP3    H126597   4.308   3.978   3.337 -1.2323 -0.2969 -1.3106
 8880TIP3    H226598   4.175   3.985   3.409  0.8535  0.9876  2.7773
 8881TIP3   OH226599   0.647   5.079   4.469 -0.6038 -0.2998  0.3152
 8881TIP3    H126600   0.701   5.124   4.534  0.6783 -1.4984  0.1517
 8881TIP3    H226601   0.569   5.052   4.517 -0.3557  0.1343  0.9776
 8882TIP3   OH226602   2.866   4.002   4.467 -0.7729  0.0488  0.4947
 8882TIP3    H126603   2.778   3.996   4.431  0.0737  0.8606 -1.9180
 8882TIP3    H226604   2.872   3.928   4.527 -2.2949 -1.5522 -1.1749
 8883TIP3   OH226605   6.149   4.454   5.280  0.2511 -0.1435 -0.4357
 8883TIP3    H126606   6.060   4.433   5.251  0.4668 -0.9241 -0.5602
 8883TIP3    H226607   6.137   4.524   5.344 -0.2548  1.6133 -2.3285
 8884TIP3   OH226608   3.449   5.445   5.472  0.2151 -0.6136 -0.3769
 8884TIP3    H126609   3.435   5.352   5.491 -1.2697 -0.8748 -2.3679
 8884TIP3    H226610   3.430   5.489   5.555 -1.9281 -1.9191 -0.0741
 8885TIP3   OH226611   7.235   2.305   1.787 -0.2795  0.0408 -0.0961
 8885TIP3    H126612   7.152   2.299   1.834  0.7023 -1.2473  1.5945
 8885TIP3    H226613   7.261   2.214   1.773  0.5539  0.4295 -1.1824
 8886TIP3   OH226614   3.006   7.116   0.066  0.2097  0.2756 -0.2199
 8886TIP3    H126615   3.006   7.177   0.140  1.0141  0.4657 -0.3652
 8886TIP3    H226616   2.960   7.163  -0.004 -0.9333 -0.0699  0.2789
 8887TIP3   OH226617   7.042   6.160   2.584  0.2879 -0.6483 -0.1378
 8887TIP3    H126618   7.020   6.084   2.638  1.9616 -0.7548  0.4496
 8887TIP3    H226619   7.073   6.122   2.502  1.7867 -0.6418  0.4111
 8888TIP3   OH226620   0.110   6.956   2.326  0.0844 -0.0583  0.6676
 8888TIP3    H126621   0.196   6.917   2.307 -0.4505 -1.2277  0.5440
 8888TIP3    H226622   0.049   6.907   2.271 -0.4212  2.3093 -1.0351
 8889TIP3   OH226623   4.778   0.426   5.770  0.0388  0.6772 -0.0178
 8889TIP3    H126624   4.760   0.518   5.749  0.1847  0.7216  0.0558
 8889TIP3    H226625   4.841   0.429   5.841 -0.9869  0.5400  0.9304
 8890TIP3   OH226626   0.495   6.761   5.779  0.5351 -0.2148 -0.1506
 8890TIP3    H126627   0.533   6.834   5.828  0.5209 -0.8892  0.9178
 8890TIP3    H226628   0.524   6.774   5.689 -0.6762  1.8878 -0.2749
 8891TIP3   OH226629   5.013   2.815   1.992  0.2683 -0.9709 -0.1212
 8891TIP3    H126630   5.082   2.871   2.028  0.8028 -1.8097  0.2020
 8891TIP3    H226631   4.947   2.812   2.061  0.5233 -1.2180  0.1204
 8892TIP3   OH226632   0.654   6.268   4.009 -0.0405 -0.1204 -0.0617
 8892TIP3    H126633   0.714   6.272   4.084  1.2549  0.5419 -1.0900
 8892TIP3    H226634   0.622   6.178   4.009  2.7600 -1.2057 -0.7938
 8893TIP3   OH226635   5.408   6.267   3.288 -0.3200  0.1929 -0.0034
 8893TIP3    H126636   5.334   6.322   3.259  0.3775  0.9174 -0.4562
 8893TIP3    H226637   5.468   6.268   3.213  1.3265  1.7262  1.2513
 8894TIP3   OH226638   4.920   3.302   4.293 -0.9294 -0.4481 -0.2895
 8894TIP3    H126639   4.968   3.342   4.221 -1.0964 -1.5397 -1.0294
 8894TIP3    H226640   4.987   3.260   4.347 -0.8608 -0.1401 -0.1330
 8895TIP3   OH226641   3.861   2.429   2.258  0.2673 -0.4760  0.0868
 8895TIP3    H126642   3.797   2.373   2.301 -0.0724 -0.1235  0.0557
 8895TIP3    H226643   3.822   2.448   2.172  0.5292 -0.4633 -0.0302
 8896TIP3   OH226644   5.148   7.767   4.895 -0.1845 -0.0080  0.2310
 8896TIP3    H126645   5.159   7.861   4.912 -0.5445  0.5946 -2.4364
 8896TIP3    H226646   5.117   7.763   4.804  0.5659 -2.7544  0.0278
 8897TIP3   OH226647   1.397   4.581   2.499 -0.4547  0.0140 -0.5602
 8897TIP3    H126648   1.471   4.521   2.499  0.7751  1.3771  1.9884
 8897TIP3    H226649   1.432   4.664   2.469 -1.0479  0.5574  0.1966
 8898TIP3   OH226650   7.323   4.336   0.887 -0.0448 -0.0635  0.5023
 8898TIP3    H126651   7.305   4.245   0.863  0.4218  0.0862 -0.4348
 8898TIP3    H226652   7.417   4.340   0.900  0.2952  0.7832 -1.7666
 8899TIP3   OH226653   4.549   5.275   6.433 -0.7681  0.1197  0.1210
 8899TIP3    H126654   4.480   5.212   6.411 -0.6949  0.0076  0.2108
 8899TIP3    H226655   4.508   5.361   6.422 -0.9723  0.0511  0.3494
 8900TIP3   OH226656   6.613   2.896   1.413  0.8674  0.4680  0.5601
 8900TIP3    H126657   6.608   2.906   1.508  1.1275  0.2317  0.5982
 8900TIP3    H226658   6.684   2.834   1.399  0.8948  0.5780  0.2056
 8901TIP3   OH226659   1.562   7.380   2.498 -0.1004 -0.0642  0.1079
 8901TIP3    H126660   1.594   7.326   2.570  1.5969  0.2365 -0.3655
 8901TIP3    H226661   1.583   7.330   2.419 -3.8827 -1.4287 -0.2594
 8902TIP3   OH226662   4.721   2.297   5.083 -0.7946 -0.2948  0.6826
 8902TIP3    H126663   4.728   2.223   5.023  0.7289  1.2671 -1.2490
 8902TIP3    H226664   4.696   2.370   5.026 -1.0553  0.9118  2.2915
 8903TIP3   OH226665   5.148   5.786   3.206 -0.6899  0.1992  0.0852
 8903TIP3    H126666   5.191   5.869   3.186 -0.6935  0.7601  2.1386
 8903TIP3    H226667   5.054   5.805   3.197 -0.6604  0.2241 -0.1556
 8904TIP3   OH226668   4.392   5.472   5.020  0.4042 -0.6813  0.5395
 8904TIP3    H126669   4.437   5.539   4.968  0.3570 -0.6094  0.5923
 8904TIP3    H226670   4.434   5.476   5.106  0.3360 -0.6561  0.5707
 8905TIP3   OH226671   1.539   5.502   6.021 -0.1806 -0.2130 -0.3411
 8905TIP3    H126672   1.497   5.586   6.042 -1.0919 -0.9059  0.6532
 8905TIP3    H226673   1.590   5.481   6.100 -0.0166 -0.6375 -0.5599
 8906TIP3   OH226674   4.486   5.313   6.003  0.1624 -0.1683 -0.3018
 8906TIP3    H126675   4.525   5.399   5.986 -1.1217  0.4889 -0.0627
 8906TIP3    H226676   4.551   5.268   6.057  0.8118  0.6803 -0.3446
 8907TIP3   OH226677   7.268   7.568   0.120 -0.1248  0.3727 -0.5532
 8907TIP3    H126678   7.203   7.522   0.066  0.1506  0.2909 -0.8173
 8907TIP3    H226679   7.313   7.498   0.167  0.6732  0.3123 -1.3719
 8908TIP3   OH226680   7.256   6.155   0.985 -0.0040 -0.4289 -0.7859
 8908TIP3    H126681   7.340   6.149   1.030 -0.5234 -1.4847  0.0781
 8908TIP3    H226682   7.252   6.077   0.930 -0.5970 -0.6147 -0.4887
 8909TIP3   OH226683   7.514   6.881   3.508  0.0030  0.3492  0.2898
 8909TIP3    H126684   7.424   6.852   3.493 -0.6533  1.9877  0.8217
 8909TIP3    H226685   7.547   6.825   3.578  0.7518 -2.7909 -2.3260
 8910TIP3   OH226686   2.364   4.957   3.605  0.2596 -0.2802  0.1459
 8910TIP3    H126687   2.344   4.940   3.513  0.2278  0.0119  0.0997
 8910TIP3    H226688   2.314   5.035   3.627 -0.9579 -1.2180  0.8398
 8911TIP3   OH226689   1.886   0.537   3.182 -0.4436  0.2644  0.6283
 8911TIP3    H126690   1.871   0.598   3.109  1.4132 -1.3731 -1.2346
 8911TIP3    H226691   1.833   0.461   3.161  0.7418 -0.5552  0.5140
 8912TIP3   OH226692   5.138   0.230   2.223 -0.0083 -0.0923 -0.2438
 8912TIP3    H126693   5.227   0.262   2.205  0.2946 -1.7873 -2.2029
 8912TIP3    H226694   5.083   0.308   2.212  1.2624  1.3163  2.3403
 8913TIP3   OH226695   3.307   4.032   4.759 -0.3807 -0.2815 -0.4920
 8913TIP3    H126696   3.271   4.029   4.671 -0.1076 -1.0382 -0.5810
 8913TIP3    H226697   3.341   3.944   4.775 -0.6710 -0.2350  0.4713
 8914TIP3   OH226698   0.395   3.234   6.050 -0.2229 -0.5277  0.0794
 8914TIP3    H126699   0.331   3.306   6.046 -0.9524 -1.1492  0.4127
 8914TIP3    H226700   0.376   3.181   5.973  0.2588 -0.4234 -0.1162
 8915TIP3   OH226701   1.248   4.051   4.269  0.6484  0.2642 -0.2162
 8915TIP3    H126702   1.273   4.033   4.178  2.0318  0.4312  0.1032
 8915TIP3    H226703   1.191   4.127   4.264  1.7971  1.1157 -0.8528
 8916TIP3   OH226704   4.237   7.713   2.704 -0.5495 -0.0245  0.3286
 8916TIP3    H126705   4.267   7.658   2.777 -1.7039  1.6197  2.1278
 8916TIP3    H226706   4.305   7.780   2.694 -0.3898 -0.2479 -0.1472
 8917TIP3   OH226707   0.918   4.722   1.618  0.0033  0.5997  0.3461
 8917TIP3    H126708   0.826   4.728   1.593 -0.3602 -2.0025  0.7714
 8917TIP3    H226709   0.947   4.813   1.626 -2.6374  1.4953  0.6806
 8918TIP3   OH226710   1.201   5.615   4.300 -0.0615 -0.0584 -0.0085
 8918TIP3    H126711   1.291   5.587   4.319 -0.2364 -0.4143  0.3314
 8918TIP3    H226712   1.147   5.544   4.336 -0.5045  0.5476  0.5363
 8919TIP3   OH226713   7.288   3.267   2.349 -0.5311 -0.3862 -0.5019
 8919TIP3    H126714   7.218   3.245   2.411  0.4655  0.5432  1.0264
 8919TIP3    H226715   7.338   3.336   2.393 -1.0444  1.9329 -3.2768
 8920TIP3   OH226716   5.400   3.904   2.490 -0.6865 -0.7405 -0.0502
 8920TIP3    H126717   5.357   3.989   2.480  2.8412  1.3178  0.5161
 8920TIP3    H226718   5.380   3.878   2.580 -0.6981  0.1789  0.2253
 8921TIP3   OH226719   5.622   1.053   3.409  0.4007  0.8158 -0.4041
 8921TIP3    H126720   5.623   1.046   3.314 -1.2476  1.9563 -0.5483
 8921TIP3    H226721   5.602   1.145   3.426 -1.5740  0.1963  0.9785
 8922TIP3   OH226722   0.977   5.756   1.511  0.1658  0.3813 -0.1774
 8922TIP3    H126723   0.940   5.763   1.599 -0.8450  1.2076 -0.6509
 8922TIP3    H226724   0.986   5.662   1.496  1.6165  0.2331  1.3036
 8923TIP3   OH226725   0.181   6.868   1.526 -0.0600  0.1757 -0.4908
 8923TIP3    H126726   0.088   6.845   1.536 -0.4847  1.4888 -1.1412
 8923TIP3    H226727   0.227   6.805   1.581 -1.4823  0.6278  1.3261
 8924TIP3   OH226728   2.799   4.160   1.721 -0.3003 -0.1222  0.0380
 8924TIP3    H126729   2.783   4.104   1.797 -0.6038  1.2476  1.0101
 8924TIP3    H226730   2.712   4.178   1.686 -0.2487  0.3302  0.1488
 8925TIP3   OH226731   4.274   0.692   1.242 -0.0978 -0.1259  0.1786
 8925TIP3    H126732   4.223   0.616   1.214 -0.3124 -0.5235  1.5589
 8925TIP3    H226733   4.222   0.768   1.217 -0.2371 -0.4526 -0.5352
 8926TIP3   OH226734   6.575   7.766   0.886 -0.4979  0.0084 -0.0610
 8926TIP3    H126735   6.650   7.795   0.939  0.8312  0.3398 -2.0176
 8926TIP3    H226736   6.584   7.812   0.803 -2.2594 -0.8147 -0.7687
 8927TIP3   OH226737   3.190   2.708   2.071 -0.3469 -0.0406  0.1982
 8927TIP3    H126738   3.180   2.653   1.994 -1.3737  0.0446  0.2588
 8927TIP3    H226739   3.252   2.775   2.045  0.7921 -1.1047  0.0667
 8928TIP3   OH226740   6.183   4.187   1.095 -0.4920  0.7233 -0.1289
 8928TIP3    H126741   6.191   4.237   1.014  0.1907  1.2559  0.2623
 8928TIP3    H226742   6.116   4.121   1.075 -1.3459  1.7179 -0.6744
 8929TIP3   OH226743   0.046   7.397   2.802  0.0804 -0.3126 -0.4440
 8929TIP3    H126744   0.137   7.404   2.772  0.2206  0.8434  0.1783
 8929TIP3    H226745  -0.006   7.398   2.722  0.5723  0.1107 -0.7670
 8930TIP3   OH226746   6.074   2.503   1.382 -0.2422 -0.2941  0.1585
 8930TIP3    H126747   6.057   2.582   1.433  1.5152  0.3987 -0.2573
 8930TIP3    H226748   6.004   2.501   1.317 -1.6198 -0.3557  1.5861
 8931TIP3   OH226749   4.290   4.383   5.997 -0.2004  0.5652  0.2022
 8931TIP3    H126750   4.327   4.316   5.939 -1.6791 -0.6724  0.6211
 8931TIP3    H226751   4.244   4.443   5.939 -1.1734 -0.3376  0.0122
 8932TIP3   OH226752   3.855   4.425   4.541  0.2686  0.8479  0.3757
 8932TIP3    H126753   3.799   4.500   4.520  0.0602  1.0713  1.6116
 8932TIP3    H226754   3.845   4.415   4.636 -0.1015 -1.0575  0.1719
 8933TIP3   OH226755   5.041   2.769   1.259  0.1433  0.1432  0.2565
 8933TIP3    H126756   4.986   2.844   1.283 -0.2558 -0.4886  1.4011
 8933TIP3    H226757   5.072   2.735   1.343 -3.3283 -3.7359  0.2581
 8934TIP3   OH226758   2.906   2.798   5.395  0.3336  0.2558  0.1853
 8934TIP3    H126759   2.879   2.744   5.469 -0.4546  0.9192  0.3981
 8934TIP3    H226760   2.924   2.884   5.433  0.1107  0.5495 -0.3607
 8935TIP3   OH226761   1.671   7.179   2.869  0.1482 -0.2347 -0.1300
 8935TIP3    H126762   1.585   7.221   2.866  0.2793  0.0019 -0.9060
 8935TIP3    H226763   1.709   7.209   2.951 -0.4965 -0.3255  0.2140
 8936TIP3   OH226764   4.358   2.989   5.340 -0.6802 -0.2970 -0.6006
 8936TIP3    H126765   4.291   2.978   5.407 -1.5243 -0.9141 -1.5115
 8936TIP3    H226766   4.309   2.992   5.257  0.4748 -2.2130 -1.4290
 8937TIP3   OH226767   0.363   4.176   6.769  0.3191  0.1549  0.0208
 8937TIP3    H126768   0.360   4.221   6.685 -1.7454  0.6564  0.3244
 8937TIP3    H226769   0.273   4.152   6.787  0.9653 -1.4865  1.2962
 8938TIP3   OH226770   3.524   3.102   0.471  0.3992 -0.2272  0.6082
 8938TIP3    H126771   3.462   3.052   0.418 -1.0852  0.9466  1.1570
 8938TIP3    H226772   3.493   3.090   0.561  0.4290  1.0857  0.8046
 8939TIP3   OH226773   0.987   3.333   1.230 -0.1651 -0.0309 -0.0427
 8939TIP3    H126774   1.024   3.323   1.318  0.7079  2.5968 -0.0374
 8939TIP3    H226775   0.949   3.421   1.230  1.7027  0.8918 -2.9240
 8940TIP3   OH226776   0.374   5.910   2.197 -0.3469 -0.0972  0.0116
 8940TIP3    H126777   0.437   5.979   2.219 -1.4157  0.7044  0.7035
 8940TIP3    H226778   0.425   5.829   2.199  1.0115  0.6715 -1.0781
 8941TIP3   OH226779   1.032   0.411   1.537 -0.5698 -0.2106 -0.3481
 8941TIP3    H126780   1.026   0.482   1.474 -0.2488 -1.4156 -1.7935
 8941TIP3    H226781   1.007   0.333   1.488 -1.5480 -1.0267  1.3669
 8942TIP3   OH226782   5.703   6.919   5.892  0.3309  0.4562 -0.3173
 8942TIP3    H126783   5.738   6.964   5.815  1.5194  0.4227  0.1869
 8942TIP3    H226784   5.745   6.833   5.890  1.4803  0.9418  1.1071
 8943TIP3   OH226785   6.500   3.358   3.510 -0.1734  0.2726  0.2615
 8943TIP3    H126786   6.447   3.429   3.544  2.0154  1.8899  0.5337
 8943TIP3    H226787   6.460   3.334   3.427  0.3546  3.5597 -1.0799
 8944TIP3   OH226788   6.907   6.543   1.816 -0.0935  0.2706  0.4545
 8944TIP3    H126789   6.990   6.565   1.858  0.3079  0.0873 -0.2309
 8944TIP3    H226790   6.924   6.554   1.722 -0.3650 -1.3081  0.1884
 8945TIP3   OH226791   7.984   7.305   3.271  0.4271  0.1453  0.2627
 8945TIP3    H126792   7.924   7.277   3.340  0.7518  0.0963  0.5252
 8945TIP3    H226793   8.071   7.294   3.309  0.5682  1.4946  0.3762
 8946TIP3   OH226794   0.345   6.655   0.617  0.1020  0.0905  0.5579
 8946TIP3    H126795   0.355   6.575   0.668  0.2346  0.2282  0.7481
 8946TIP3    H226796   0.262   6.693   0.647  0.0718  0.0580  0.5151
 8947TIP3   OH226797   3.182   2.808   5.603 -0.3412  0.2263  0.3880
 8947TIP3    H126798   3.108   2.861   5.575 -1.0955 -1.5008 -1.1300
 8947TIP3    H226799   3.259   2.862   5.584 -0.9719  0.1619 -2.8288
 8948TIP3   OH226800   2.720   5.384   2.545  0.1907 -0.8811 -0.0223
 8948TIP3    H126801   2.675   5.346   2.470  1.5325 -1.9427 -0.3355
 8948TIP3    H226802   2.803   5.336   2.550  1.1852  0.8132  0.6773
 8949TIP3   OH226803   8.261   0.244   5.737  0.4421 -0.2225  0.3365
 8949TIP3    H126804   8.215   0.212   5.660 -0.8112  1.5837  0.2700
 8949TIP3    H226805   8.273   0.167   5.792  0.6136 -1.3900 -1.2762
 8950TIP3   OH226806   1.303   4.749   0.083  0.0747  0.1630  0.2813
 8950TIP3    H126807   1.369   4.818   0.091  0.5712 -0.3414  0.5534
 8950TIP3    H226808   1.283   4.725   0.174 -0.7036  0.5132  0.2157
 8951TIP3   OH226809   4.263   4.356   6.659  0.2687  0.0512 -0.2021
 8951TIP3    H126810   4.261   4.274   6.611  1.1946  0.7665 -1.5115
 8951TIP3    H226811   4.347   4.355   6.705  0.0428  0.0295  0.2135
 8952TIP3   OH226812   3.720   4.004   3.035  0.0125 -0.3633  0.9682
 8952TIP3    H126813   3.812   4.031   3.023  0.4346 -1.7595  0.9261
 8952TIP3    H226814   3.716   3.916   2.999 -1.6187  0.0645 -0.0248
 8953TIP3   OH226815   0.351   6.273   6.063  0.2771  0.1805 -0.0634
 8953TIP3    H126816   0.421   6.334   6.087  0.1055  1.5485 -2.6835
 8953TIP3    H226817   0.397   6.193   6.036  0.7480  0.5730 -0.4318
 8954TIP3   OH226818   6.716   6.373   0.375  0.0031 -0.1063 -0.0238
 8954TIP3    H126819   6.730   6.429   0.451 -0.7780  0.1284 -0.0439
 8954TIP3    H226820   6.729   6.284   0.408  0.2223  0.0267  0.2504
 8955TIP3   OH226821   2.558   3.271   0.136 -0.0098 -0.0069  0.3572
 8955TIP3    H126822   2.537   3.202   0.199 -1.8175  0.3661  0.2164
 8955TIP3    H226823   2.651   3.289   0.150  0.1797 -1.5370  1.3027
 8956TIP3   OH226824   2.992   5.818   3.286 -0.2328 -0.1397 -0.1019
 8956TIP3    H126825   2.988   5.846   3.377  1.2931  0.1721 -0.1028
 8956TIP3    H226826   2.924   5.870   3.242 -3.0369 -2.3750  1.3006
 8957TIP3   OH226827   3.426   7.080   0.558 -0.1741 -0.4718 -0.4946
 8957TIP3    H126828   3.380   7.018   0.502 -1.1335 -1.1171  0.9633
 8957TIP3    H226829   3.519   7.066   0.538 -0.5215 -0.0966 -2.4974
 8958TIP3   OH226830   5.600   1.911   4.449  0.0830  0.0932  0.0857
 8958TIP3    H126831   5.608   2.006   4.454  0.1284  0.1602 -0.9701
 8958TIP3    H226832   5.515   1.897   4.407  0.6099 -0.2980 -0.8666
 8959TIP3   OH226833   2.198   2.905   1.474 -0.1609  0.1485 -0.8173
 8959TIP3    H126834   2.208   2.998   1.493  0.2453  0.0971 -0.7667
 8959TIP3    H226835   2.218   2.862   1.557 -0.7876  0.0361 -0.7212
 8960TIP3   OH226836   7.068   4.342   2.861 -0.2389  0.2479  0.3546
 8960TIP3    H126837   7.070   4.255   2.823 -0.3150 -0.2788  1.5146
 8960TIP3    H226838   7.131   4.339   2.933 -1.2290  0.7068  1.2874
 8961TIP3   OH226839   2.323   5.394   6.071 -0.4516 -0.1838 -0.1087
 8961TIP3    H126840   2.319   5.464   6.137  0.2143  1.0439 -1.3094
 8961TIP3    H226841   2.277   5.431   5.995 -2.2658 -2.0245  0.0238
 8962TIP3   OH226842   3.537   6.568   0.292  0.3318 -0.1383 -0.0716
 8962TIP3    H126843   3.594   6.506   0.338  0.8562  0.3487 -0.0434
 8962TIP3    H226844   3.585   6.651   0.296 -0.6389  0.4110  0.4304
 8963TIP3   OH226845   4.934   1.082   4.296  0.1943 -0.6710 -0.6799
 8963TIP3    H126846   4.901   1.129   4.219 -0.9709  0.5951  0.5502
 8963TIP3    H226847   4.982   1.007   4.259 -1.1806 -0.6694 -2.6082
 8964TIP3   OH226848   4.180   0.680   3.843 -0.1851  0.2612  0.0258
 8964TIP3    H126849   4.154   0.765   3.877  0.3228  0.3447  0.2058
 8964TIP3    H226850   4.275   0.686   3.832 -0.2796  0.0756 -0.9560
 8965TIP3   OH226851   8.225   0.027   2.714  0.1917  0.6226 -0.0634
 8965TIP3    H126852   8.265   0.079   2.644 -1.0890  1.5998 -0.0925
 8965TIP3    H226853   8.155   0.081   2.748 -0.6986 -0.7829  0.4293
 8966TIP3   OH226854   5.667   4.745   4.819 -0.4655 -0.2740 -0.2055
 8966TIP3    H126855   5.657   4.820   4.878  1.0824  0.1278 -0.4060
 8966TIP3    H226856   5.631   4.776   4.735 -0.9548 -0.2038  0.0227
 8967TIP3   OH226857   7.684   4.079   5.873 -0.4247  0.0628 -0.0659
 8967TIP3    H126858   7.737   4.152   5.904  0.9984 -1.2747  0.8118
 8967TIP3    H226859   7.729   4.001   5.906 -1.1473 -1.2920 -2.0605
 8968TIP3   OH226860   2.416   6.166   3.788  0.2592 -0.4373 -0.3831
 8968TIP3    H126861   2.382   6.166   3.877  0.2371 -2.9149 -0.3186
 8968TIP3    H226862   2.507   6.193   3.797  0.4038 -1.1692  0.4776
 8969TIP3   OH226863   0.234   6.380   5.138  0.8891 -0.2022 -0.2006
 8969TIP3    H126864   0.167   6.425   5.189  1.8048 -0.1849  1.0324
 8969TIP3    H226865   0.201   6.291   5.128  1.2258 -0.5667  1.5322
 8970TIP3   OH226866   0.697   2.125   1.936  0.3141 -0.3536 -0.3697
 8970TIP3    H126867   0.735   2.198   1.984 -0.4298 -0.2027  0.0076
 8970TIP3    H226868   0.656   2.165   1.859 -0.6975 -0.2622  0.1903
 8971TIP3   OH226869   6.002   7.719   5.926 -0.0005 -0.2712  0.1406
 8971TIP3    H126870   6.047   7.636   5.940  1.9034  0.2656 -2.1000
 8971TIP3    H226871   6.069   7.785   5.944 -1.0577  0.7391  0.4694
 8972TIP3   OH226872   7.358   3.383   4.633  0.1971  0.6615  0.6620
 8972TIP3    H126873   7.395   3.314   4.689  0.3408  1.9389  2.1966
 8972TIP3    H226874   7.430   3.408   4.575 -0.1366 -1.1143 -0.5954
 8973TIP3   OH226875   1.501   2.923   4.498 -0.3629  0.0984  0.0087
 8973TIP3    H126876   1.591   2.946   4.518 -0.7713  0.7490  1.2179
 8973TIP3    H226877   1.471   2.872   4.573 -0.6304 -1.2208 -0.9564
 8974TIP3   OH226878   4.196   5.678   6.382  0.1101  0.2172  0.3075
 8974TIP3    H126879   4.256   5.738   6.337 -0.7238  0.9714  0.1627
 8974TIP3    H226880   4.159   5.624   6.311  1.7544 -1.3423  0.5631
 8975TIP3   OH226881   4.328   3.961   5.570 -0.2261  0.3965  0.2168
 8975TIP3    H126882   4.409   4.011   5.580 -0.0673  0.6976 -2.0394
 8975TIP3    H226883   4.260   4.018   5.606 -0.0081  2.2223 -2.0348
 8976TIP3   OH226884   6.767   1.058   5.011  0.1521 -0.0489 -0.1383
 8976TIP3    H126885   6.726   1.139   4.982 -0.4211  0.2781  1.4537
 8976TIP3    H226886   6.773   1.004   4.932 -1.3971  0.7251 -0.8340
 8977TIP3   OH226887   7.100   5.415   3.808  0.0968 -0.2548  0.2834
 8977TIP3    H126888   7.179   5.406   3.755 -0.5635 -1.9153 -0.5096
 8977TIP3    H226889   7.035   5.361   3.762 -1.1557  0.1154  1.5608
 8978TIP3   OH226890   8.124   0.143   0.467 -0.2327 -0.4546 -0.8909
 8978TIP3    H126891   8.173   0.213   0.424 -0.4075  1.3974  1.6227
 8978TIP3    H226892   8.032   0.164   0.450 -0.2610 -0.8305 -1.2072
 8979TIP3   OH226893   3.708   5.960   1.402  0.3202  0.0272 -0.1475
 8979TIP3    H126894   3.692   5.903   1.478 -0.2713  1.2267  0.6615
 8979TIP3    H226895   3.801   5.982   1.407  0.8686 -1.8375 -1.1935
 8980TIP3   OH226896   2.232   5.882   0.878  0.3227  0.2120  0.2913
 8980TIP3    H126897   2.163   5.949   0.873  1.6381  1.6663  0.6236
 8980TIP3    H226898   2.301   5.915   0.820  0.7042 -1.2859 -0.1506
 8981TIP3   OH226899   5.344   3.436   1.634 -0.4433  0.1448  0.0931
 8981TIP3    H126900   5.314   3.457   1.545  0.3976  0.4016 -0.1397
 8981TIP3    H226901   5.427   3.391   1.621  0.5979  1.7789  0.7943
 8982TIP3   OH226902   1.260   7.372   5.886 -0.5514 -0.0994  1.3133
 8982TIP3    H126903   1.351   7.392   5.910 -0.0887 -1.6100  0.9503
 8982TIP3    H226904   1.228   7.453   5.846  1.7151 -0.4299 -1.5592
 8983TIP3   OH226905   5.743   3.065   2.412 -0.4758  0.0655  0.0071
 8983TIP3    H126906   5.832   3.060   2.447 -0.4971  1.9552  0.3906
 8983TIP3    H226907   5.747   3.015   2.331  0.5479 -1.1107  0.7396
 8984TIP3   OH226908   1.511   1.470   4.792  0.5058  0.5197 -0.3692
 8984TIP3    H126909   1.449   1.525   4.744 -2.2952 -0.8354  1.4467
 8984TIP3    H226910   1.542   1.526   4.864 -2.0265  0.0153  1.2363
 8985TIP3   OH226911   3.300   1.987   0.252  0.3332 -0.1436  0.2608
 8985TIP3    H126912   3.293   2.079   0.230 -1.1235 -0.4573 -0.7647
 8985TIP3    H226913   3.337   1.985   0.340  1.5385  1.3574 -0.1923
 8986TIP3   OH226914   5.260   1.877   0.073  0.2246 -0.5138 -0.6128
 8986TIP3    H126915   5.223   1.885   0.161  0.4888 -2.0655 -0.3335
 8986TIP3    H226916   5.197   1.821   0.027 -0.1583  0.6688 -1.5800
 8987TIP3   OH226917   4.585   1.681   6.621  0.2081 -0.5471 -0.4252
 8987TIP3    H126918   4.666   1.701   6.573  0.2615  0.3613  0.0046
 8987TIP3    H226919   4.610   1.689   6.713 -0.4039 -0.1068 -0.2938
 8988TIP3   OH226920   5.598   6.282   5.166 -0.4773 -0.4460  0.4269
 8988TIP3    H126921   5.537   6.258   5.236 -2.0188  1.4638 -0.1648
 8988TIP3    H226922   5.679   6.237   5.188 -1.5390 -1.5555  2.2997
 8989TIP3   OH226923   7.317   6.283   3.142  0.2248 -0.0165  0.1372
 8989TIP3    H126924   7.251   6.342   3.177  0.0498 -0.6155  0.8584
 8989TIP3    H226925   7.281   6.251   3.060 -0.5287 -0.5893  0.6871
 8990TIP3   OH226926   7.938   1.466   1.732  0.2848 -0.4154 -0.3038
 8990TIP3    H126927   8.020   1.423   1.759  0.4650  0.1890  0.1219
 8990TIP3    H226928   7.925   1.535   1.797 -0.0059  0.1775 -0.9885
 8991TIP3   OH226929   2.994   4.390   6.142  0.0674  0.1240  0.1143
 8991TIP3    H126930   2.971   4.424   6.229 -0.8395  1.0491 -0.4601
 8991TIP3    H226931   2.948   4.307   6.136 -0.7311  0.5573  0.1235
 8992TIP3   OH226932   8.184   1.297   1.965 -0.0565 -0.5202  0.2018
 8992TIP3    H126933   8.148   1.283   1.878 -0.1484 -1.4422  0.3757
 8992TIP3    H226934   8.266   1.247   1.966 -0.2655 -0.8607  0.7738
 8993TIP3   OH226935   0.268   3.370   1.999  0.0548 -0.4572 -0.1150
 8993TIP3    H126936   0.350   3.417   1.986 -0.2439 -0.4328 -2.3187
 8993TIP3    H226937   0.207   3.436   2.031  0.6458 -0.2784  0.6754
 8994TIP3   OH226938   0.393   4.046   4.140 -0.4766 -0.6829 -0.7887
 8994TIP3    H126939   0.412   4.039   4.234 -2.2272 -0.0890 -0.3510
 8994TIP3    H226940   0.451   3.982   4.099  2.5305  1.1150  0.3285
 8995TIP3   OH226941   5.191   7.754   6.207 -0.6510  0.7422 -0.3266
 8995TIP3    H126942   5.134   7.830   6.218 -0.4395  0.7814  0.6104
 8995TIP3    H226943   5.137   7.680   6.234 -0.8169  0.5635 -1.1194
 8996TIP3   OH226944   1.177   2.189   1.913  0.3259 -0.6119  0.4250
 8996TIP3    H126945   1.199   2.098   1.893  0.4875 -0.4545 -0.1189
 8996TIP3    H226946   1.140   2.185   2.002 -1.7467 -1.5379 -0.4037
 8997TIP3   OH226947   3.241   1.896   3.268 -0.3437 -0.1270  0.0688
 8997TIP3    H126948   3.194   1.948   3.333  0.6793 -0.1040  0.8123
 8997TIP3    H226949   3.180   1.889   3.194 -1.7824 -0.6514  1.2449
 8998TIP3   OH226950   1.993   4.716   6.359  0.0339  0.1814  0.3756
 8998TIP3    H126951   2.037   4.786   6.407 -0.7300 -1.0958  3.1325
 8998TIP3    H226952   1.936   4.675   6.423 -0.6722 -2.0362 -1.5291
 8999TIP3   OH226953   1.681   3.057   2.982 -0.1440 -0.2910 -0.4394
 8999TIP3    H126954   1.702   2.976   2.935 -0.0953 -0.8973  0.6102
 8999TIP3    H226955   1.747   3.119   2.951  0.4376 -0.9303 -0.5248
 9000TIP3   OH226956   0.680   1.401   6.455  0.3265  0.2866 -0.3018
 9000TIP3    H126957   0.637   1.423   6.372 -0.3177  0.2877  0.0206
 9000TIP3    H226958   0.723   1.317   6.438  0.2298  0.3024 -0.6491
 9001TIP3   OH226959   2.704   5.946   2.370  0.0044 -0.5065 -0.2160
 9001TIP3    H126960   2.766   6.019   2.365  0.9223 -1.2413  0.0763
 9001TIP3    H226961   2.637   5.976   2.431 -0.3566  0.6087 -1.1361
 9002TIP3   OH226962   6.326   3.535   6.065 -0.3020 -0.2802  0.2593
 9002TIP3    H126963   6.391   3.536   5.995 -1.3577 -1.8786 -0.8197
 9002TIP3    H226964   6.271   3.612   6.048 -1.0351 -1.0814 -1.2115
 9003TIP3   OH226965   7.817   7.125   6.071 -0.1371 -0.2849  0.0220
 9003TIP3    H126966   7.755   7.197   6.069  1.1635  1.0091  2.1914
 9003TIP3    H226967   7.899   7.162   6.038  0.7351 -0.5026  1.8204
 9004TIP3   OH226968   0.404   2.237   1.940  0.1797 -0.4469  0.7282
 9004TIP3    H126969   0.452   2.292   1.879 -1.5789  0.5740  0.1675
 9004TIP3    H226970   0.351   2.180   1.884 -1.6270  0.6563  1.2211
 9005TIP3   OH226971   1.031   7.596   1.413  0.2886 -0.6904 -0.1233
 9005TIP3    H126972   1.047   7.689   1.402 -0.3867 -0.5282  0.2409
 9005TIP3    H226973   0.958   7.577   1.353 -0.0963 -0.8198  0.3827
 9006TIP3   OH226974   7.813   4.016   2.742 -0.0770  0.0107  0.1168
 9006TIP3    H126975   7.791   4.047   2.655 -2.6655 -0.0810  0.6750
 9006TIP3    H226976   7.857   3.932   2.727 -2.6431 -1.2344 -1.1066
 9007TIP3   OH226977   3.047   6.917   0.623  0.1875  0.1843 -0.1826
 9007TIP3    H126978   3.063   6.825   0.607 -1.8519 -0.6034  1.7479
 9007TIP3    H226979   2.976   6.940   0.564  0.2949  0.3544 -0.2471
 9008TIP3   OH226980   8.083   3.331   5.026 -0.0597 -0.5149 -0.0637
 9008TIP3    H126981   8.095   3.363   5.115  1.5677 -0.7940 -0.1563
 9008TIP3    H226982   8.011   3.268   5.032 -0.0849 -0.3950  1.0200
 9009TIP3   OH226983   0.109   6.863   3.972  0.5042  0.5974 -0.0703
 9009TIP3    H126984   0.140   6.785   3.927 -0.6098  0.0693  0.0661
 9009TIP3    H226985   0.151   6.936   3.925  1.7676 -0.0690 -0.0275
 9010TIP3   OH226986   1.517   3.311   1.484  0.1411 -0.0844  0.4619
 9010TIP3    H126987   1.546   3.360   1.406  3.2449  0.2226  1.6827
 9010TIP3    H226988   1.427   3.341   1.498  0.1503  1.3241 -1.8504
 9011TIP3   OH226989   1.288   5.505   3.111  0.1341 -0.2959  0.1108
 9011TIP3    H126990   1.294   5.580   3.171  2.7267 -0.4269  0.1342
 9011TIP3    H226991   1.234   5.442   3.157 -1.3912  1.1894  0.4676
 9012TIP3   OH226992   5.366   4.360   3.008 -0.4936  0.4156  0.4968
 9012TIP3    H126993   5.276   4.347   3.038 -0.7206  0.2283 -0.2337
 9012TIP3    H226994   5.421   4.332   3.081 -1.0266 -0.3831  0.6034
 9013TIP3   OH226995   4.700   2.281   3.762 -0.9619 -0.3428 -0.3274
 9013TIP3    H126996   4.608   2.298   3.741 -1.4947 -0.9094  1.3560
 9013TIP3    H226997   4.723   2.348   3.827  0.1790  0.4807 -1.5234
 9014TIP3   OH226998   6.185   0.003   5.688  0.1303 -0.5186 -0.2599
 9014TIP3    H126999   6.148   0.083   5.649  0.5077 -0.3526 -0.2826
 9014TIP3    H227000   6.175  -0.063   5.620 -0.2154 -0.4982 -0.2295
 9015TIP3   OH227001   3.315   5.763   5.447 -0.8193 -0.2485  0.0691
 9015TIP3    H127002   3.233   5.719   5.426 -0.3439 -0.9458 -0.3742
 9015TIP3    H227003   3.356   5.708   5.513 -0.3146 -0.3690 -0.3368
 9016TIP3   OH227004   0.709   1.540   0.030 -0.7586 -0.2944 -0.0913
 9016TIP3    H127005   0.798   1.518   0.056 -0.9469 -1.4398 -0.3527
 9016TIP3    H227006   0.715   1.557  -0.064 -0.6248  0.7940  0.0976
 9017TIP3   OH227007   0.632   7.673   5.498  0.0182  0.0804  0.2893
 9017TIP3    H127008   0.658   7.691   5.589 -1.1127 -1.7004  1.0256
 9017TIP3    H227009   0.544   7.635   5.506 -0.1301 -0.0313 -1.5665
 9018TIP3   OH227010   2.495   0.392   2.117  0.2103  0.0296 -0.1145
 9018TIP3    H127011   2.408   0.364   2.143 -1.3883  3.9197 -0.5347
 9018TIP3    H227012   2.536   0.420   2.199  1.0946 -1.6811  0.0650
 9019TIP3   OH227013   5.293   2.229   2.175 -0.1577  0.9704  0.0967
 9019TIP3    H127014   5.211   2.187   2.200  1.1634 -1.0446  1.3015
 9019TIP3    H227015   5.328   2.175   2.104  0.5132  1.3266  0.1469
 9020TIP3   OH227016   2.944   7.607   1.140  0.3258 -0.2605 -0.0389
 9020TIP3    H127017   2.891   7.602   1.220 -0.2429 -0.8984 -0.4453
 9020TIP3    H227018   2.896   7.668   1.084  0.4570 -0.2002 -0.0845
 9021TIP3   OH227019   3.434   4.065   5.106  0.1092 -0.0533 -0.1408
 9021TIP3    H127020   3.499   4.003   5.139  0.6770  1.0700  0.8860
 9021TIP3    H227021   3.353   4.014   5.103  0.4406 -0.7076  1.2218
 9022TIP3   OH227022   7.433   5.113   0.798 -0.5861  0.1447 -0.0877
 9022TIP3    H127023   7.349   5.158   0.803 -0.2048  0.8354  0.3118
 9022TIP3    H227024   7.432   5.070   0.713 -1.0826  0.6777 -0.3606
 9023TIP3   OH227025   6.774   3.665   1.489  0.7112  0.2260 -0.0183
 9023TIP3    H127026   6.726   3.672   1.407  0.7134 -0.4591 -0.0840
 9023TIP3    H227027   6.767   3.573   1.514  1.4816  0.2335  0.2788
 9024TIP3   OH227028   1.028   0.211   2.928 -0.7434  0.0429  0.1112
 9024TIP3    H127029   1.069   0.287   2.968  0.7972 -0.3575 -0.6542
 9024TIP3    H227030   0.941   0.206   2.969 -0.2022  1.1568  1.4477
 9025TIP3   OH227031   0.179   5.229   3.735  0.0681 -0.4092 -0.0631
 9025TIP3    H127032   0.129   5.180   3.670  0.8337 -1.8970  0.4354
 9025TIP3    H227033   0.267   5.191   3.732  0.8703  1.3139 -0.0369
 9026TIP3   OH227034   5.183   7.573   1.690  0.2625  0.1503  0.1695
 9026TIP3    H127035   5.161   7.666   1.679 -0.0753  0.4366  2.6628
 9026TIP3    H227036   5.233   7.570   1.771 -2.4624 -2.1599  1.9696
 9027TIP3   OH227037   7.031   6.000   5.001 -0.1181  0.4402  0.7292
 9027TIP3    H127038   7.096   5.990   4.932 -1.1294 -2.0230  0.0418
 9027TIP3    H227039   6.947   5.989   4.957 -0.8429  0.1473  2.1393
 9028TIP3   OH227040   6.482   6.232   1.858 -0.0175  0.0223  0.4796
 9028TIP3    H127041   6.519   6.319   1.874  0.8048  0.1122 -1.5743
 9028TIP3    H227042   6.539   6.173   1.907 -0.7782  0.6004  2.1662
 9029TIP3   OH227043   7.059   1.797   3.520 -0.0023 -0.3776  0.1337
 9029TIP3    H127044   7.128   1.803   3.585  0.1500 -0.1652 -0.0442
 9029TIP3    H227045   6.998   1.868   3.543  0.2511 -0.0531 -0.1825
 9030TIP3   OH227046   3.737   0.539   1.106 -0.4096 -0.9997  0.2218
 9030TIP3    H127047   3.786   0.609   1.063 -0.0966 -2.3358 -1.7653
 9030TIP3    H227048   3.650   0.575   1.120 -0.2131 -0.1543 -0.6195
 9031TIP3   OH227049   6.383   1.548   5.453  0.7157  0.1561  0.3861
 9031TIP3    H127050   6.383   1.603   5.532 -0.8338  0.0894  0.4695
 9031TIP3    H227051   6.340   1.601   5.387 -0.9021 -0.9517  0.4906
 9032TIP3   OH227052   7.896   7.495   1.498 -0.1883  0.1800  0.1174
 9032TIP3    H127053   7.803   7.510   1.481 -0.0644 -1.6711 -2.7984
 9032TIP3    H227054   7.925   7.575   1.543 -2.3345  2.5880 -2.4482
 9033TIP3   OH227055   6.867   0.086   3.783  0.0857 -0.2050 -0.5138
 9033TIP3    H127056   6.887   0.083   3.690  1.0274 -0.3624 -0.3127
 9033TIP3    H227057   6.950   0.108   3.825 -0.5009  0.6553  0.2311
 9034TIP3   OH227058   6.179   2.534   5.923 -0.6041  0.0854  0.0865
 9034TIP3    H127059   6.085   2.517   5.930 -0.5836  0.0257  0.2165
 9034TIP3    H227060   6.188   2.585   5.843 -0.6700 -0.4955 -0.3005
 9035TIP3   OH227061   6.031   3.408   4.859 -0.0427  0.0284  0.7589
 9035TIP3    H127062   6.117   3.440   4.883 -0.2147  0.3688  0.9214
 9035TIP3    H227063   6.045   3.359   4.777  0.2088  0.5458  0.4920
 9036TIP3   OH227064   5.764   5.683   3.341  0.3619  0.5149  0.4029
 9036TIP3    H127065   5.757   5.729   3.425 -0.7017  0.1330  0.5366
 9036TIP3    H227066   5.833   5.619   3.354  2.0162  2.1557  0.1599
 9037TIP3   OH227067   1.118   6.651   5.903  0.4963 -0.7594  0.4186
 9037TIP3    H127068   1.081   6.642   5.815  2.7481  3.3125 -1.1707
 9037TIP3    H227069   1.058   6.709   5.949  0.6314 -0.8716  0.7431
 9038TIP3   OH227070   7.373   6.115   5.672 -0.2176  0.7307  0.2797
 9038TIP3    H127071   7.288   6.157   5.684 -0.4312  0.0180  1.4062
 9038TIP3    H227072   7.373   6.089   5.579 -2.1133 -1.0464  0.6858
 9039TIP3   OH227073   6.103   7.012   4.313 -0.4335 -0.2741  0.1111
 9039TIP3    H127074   6.101   6.974   4.401  0.0051 -0.0791  0.2052
 9039TIP3    H227075   6.188   6.987   4.278 -0.1619  0.5641  0.1473
 9040TIP3   OH227076   1.213   7.536   5.120 -0.7116 -0.7326 -0.0983
 9040TIP3    H127077   1.234   7.573   5.034 -0.8222  0.2918  0.2986
 9040TIP3    H227078   1.123   7.566   5.137 -0.2632  0.1262  0.9003
 9041TIP3   OH227079   2.989   7.049   2.153 -0.1333  0.2537  0.2968
 9041TIP3    H127080   2.960   7.018   2.067  0.6222  0.8914 -0.2051
 9041TIP3    H227081   2.949   7.135   2.162  0.9444  0.8136 -0.0719
 9042TIP3   OH227082   7.399   2.466   4.471 -0.1697 -0.1472 -0.3085
 9042TIP3    H127083   7.449   2.390   4.501  1.9887  0.0177 -3.0315
 9042TIP3    H227084   7.390   2.453   4.377 -2.2018  1.6674 -0.4436
 9043TIP3   OH227085   4.341   3.548   3.821 -0.4910  0.2652  0.4939
 9043TIP3    H127086   4.268   3.486   3.816 -1.8451  1.8476 -0.9217
 9043TIP3    H227087   4.419   3.494   3.823 -1.6385 -1.4855  0.1535
 9044TIP3   OH227088   1.676   7.658   0.697 -0.2555 -0.3602 -0.5673
 9044TIP3    H127089   1.659   7.680   0.788  1.9397 -1.9713  0.3109
 9044TIP3    H227090   1.664   7.740   0.650  0.9958  1.1235  1.5427
 9045TIP3   OH227091   4.083   2.319   3.678 -0.1465  0.6961  0.1194
 9045TIP3    H127092   4.094   2.404   3.721  0.0733  0.1297  1.2195
 9045TIP3    H227093   4.022   2.337   3.607 -0.2708  1.7405  0.4587
 9046TIP3   OH227094   5.157   5.965   5.688 -0.1663  0.7332 -0.0960
 9046TIP3    H127095   5.184   6.055   5.708  0.2286  0.6146 -0.0900
 9046TIP3    H227096   5.222   5.910   5.732 -0.0226  0.4513 -0.6506
 9047TIP3   OH227097   6.372   4.848   1.489 -0.4304  0.2097 -0.0149
 9047TIP3    H127098   6.353   4.788   1.561 -0.1009  1.4372  1.1382
 9047TIP3    H227099   6.287   4.879   1.459 -0.6340 -1.1443 -0.9389
 9048TIP3   OH227100   1.649   2.203   1.823  0.4141 -0.5621 -0.0193
 9048TIP3    H127101   1.742   2.221   1.834  0.5327 -0.4492 -1.1329
 9048TIP3    H227102   1.608   2.289   1.815  0.0244 -0.5463  1.6424
 9049TIP3   OH227103   5.285   0.177   1.181 -0.3468  0.5017 -0.3237
 9049TIP3    H127104   5.312   0.115   1.249 -2.2590 -0.0454 -0.0027
 9049TIP3    H227105   5.222   0.128   1.128  0.6715  1.0932 -2.1979
 9050TIP3   OH227106   5.187   6.232   0.828 -0.1973  0.2743 -0.1420
 9050TIP3    H127107   5.261   6.290   0.809 -0.1751  0.2212 -0.2182
 9050TIP3    H227108   5.227   6.149   0.854 -0.1657 -0.9657 -3.6836
 9051TIP3   OH227109   1.959   1.458   0.572  0.4310 -0.0084  0.7915
 9051TIP3    H127110   1.910   1.538   0.590  0.1145  0.7900 -2.7765
 9051TIP3    H227111   1.893   1.396   0.538  1.2393 -0.3725 -0.1674
 9052TIP3   OH227112   5.672   3.729   3.652  0.2047 -0.4229  0.3249
 9052TIP3    H127113   5.677   3.817   3.690 -1.3447  0.9152 -2.2240
 9052TIP3    H227114   5.722   3.735   3.571 -1.3356 -1.3291 -0.7487
 9053TIP3   OH227115   3.662   0.417   2.112 -0.1971  0.1433 -0.1706
 9053TIP3    H127116   3.619   0.492   2.070  4.3914  1.4951 -3.2739
 9053TIP3    H227117   3.706   0.455   2.189 -0.2828 -0.0413 -0.0305
 9054TIP3   OH227118   1.321   6.582   6.089  0.8504  0.2844  0.0065
 9054TIP3    H127119   1.255   6.584   6.020 -1.0253  1.3608  1.7148
 9054TIP3    H227120   1.359   6.670   6.087  0.4216  0.4915  0.6455
 9055TIP3   OH227121   2.508   0.799   6.428 -0.1456  0.1538  0.5439
 9055TIP3    H127122   2.429   0.779   6.378 -1.4200  1.4609  1.9517
 9055TIP3    H227123   2.491   0.760   6.514  0.6293  0.6869  0.9400
 9056TIP3   OH227124   7.657   2.342   2.717 -0.1657 -0.3438 -0.1520
 9056TIP3    H127125   7.563   2.324   2.715 -0.3733  0.6640 -0.0152
 9056TIP3    H227126   7.665   2.432   2.686  0.9220 -0.9931 -1.9210
 9057TIP3   OH227127   0.542   1.361   0.314 -0.1396 -0.5984 -0.3354
 9057TIP3    H127128   0.547   1.266   0.306  1.0090 -0.8821  2.6065
 9057TIP3    H227129   0.475   1.387   0.250  1.1573 -3.0685 -2.8825
 9058TIP3   OH227130   5.284   1.651   1.068 -0.4065  0.3896 -0.0427
 9058TIP3    H127131   5.279   1.712   0.994 -2.0602  0.3047 -0.0193
 9058TIP3    H227132   5.348   1.691   1.127  2.5602 -0.5547 -2.3690
 9059TIP3   OH227133   1.313   0.355   1.233  0.8281 -0.6227  0.2934
 9059TIP3    H127134   1.286   0.447   1.232  0.2011 -0.7685  1.6887
 9059TIP3    H227135   1.408   0.358   1.232  0.8599  0.1273  1.8648
 9060TIP3   OH227136   5.014   5.613   6.003  0.1815 -0.4232  0.2041
 9060TIP3    H127137   4.993   5.639   6.093 -0.0746  2.3473 -0.5691
 9060TIP3    H227138   5.067   5.534   6.013 -1.3526 -1.2768  2.6824
 9061TIP3   OH227139   1.388   3.142   5.444 -0.1458 -0.1313  0.0752
 9061TIP3    H127140   1.471   3.155   5.399  0.4724  1.1890  1.5267
 9061TIP3    H227141   1.368   3.049   5.431  2.1101 -0.7511  0.5995
 9062TIP3   OH227142   8.126   6.287   5.278  0.2312 -0.1300 -0.6136
 9062TIP3    H127143   8.056   6.349   5.259 -1.1401 -1.6795 -0.7747
 9062TIP3    H227144   8.205   6.341   5.280 -0.8764  1.5867 -0.9304
 9063TIP3   OH227145   5.974   4.736   1.758 -0.1166 -0.2109 -0.0941
 9063TIP3    H127146   5.954   4.812   1.704 -2.3556 -0.3825  0.4186
 9063TIP3    H227147   6.006   4.772   1.840  0.7275  0.0987 -0.5421
 9064TIP3   OH227148   3.646   3.435   3.454  0.7779  0.1276 -0.0429
 9064TIP3    H127149   3.556   3.421   3.482 -0.2140  0.5040 -2.7870
 9064TIP3    H227150   3.668   3.523   3.484 -0.6246  0.9569 -1.3881
 9065TIP3   OH227151   4.843   1.316   5.373  0.2327 -0.1229 -0.3874
 9065TIP3    H127152   4.753   1.314   5.341  0.5229  1.0775 -1.3586
 9065TIP3    H227153   4.880   1.395   5.334  1.5972 -0.3929  0.3120
 9066TIP3   OH227154   5.991   3.722   6.683 -0.0467 -0.1070  0.2401
 9066TIP3    H127155   6.054   3.722   6.755 -0.4544 -0.4848  0.6067
 9066TIP3    H227156   5.957   3.811   6.681 -0.8726 -0.3860  1.2698
 9067TIP3   OH227157   1.745   4.590   0.745 -0.5052  0.2998  1.0044
 9067TIP3    H127158   1.750   4.633   0.830  4.0276  1.5424  0.3819
 9067TIP3    H227159   1.767   4.499   0.762  0.3000  0.5268  1.2429
 9068TIP3   OH227160   5.821   4.866   3.515 -0.2551  0.4534  0.3284
 9068TIP3    H127161   5.769   4.905   3.585 -0.8841  2.2597 -1.0861
 9068TIP3    H227162   5.900   4.920   3.511  1.0104 -1.2229  1.3117
 9069TIP3   OH227163   5.139   3.952   1.569  0.9328 -0.5897  0.2291
 9069TIP3    H127164   5.078   3.983   1.501 -0.5597 -2.4386  0.6647
 9069TIP3    H227165   5.225   3.983   1.539  0.1233 -0.0713 -1.7206
 9070TIP3   OH227166   6.430   6.807   3.160  0.4416 -0.1053 -0.2260
 9070TIP3    H127167   6.515   6.848   3.168  0.2310  0.2082  0.4804
 9070TIP3    H227168   6.449   6.717   3.134  0.8888  0.4746 -2.0413
 9071TIP3   OH227169   2.625   7.793   4.230  0.0753  0.0910  0.5906
 9071TIP3    H127170   2.593   7.763   4.315  1.4291 -0.2350  1.0093
 9071TIP3    H227171   2.646   7.885   4.244 -0.8405  0.3668  0.2525
 9072TIP3   OH227172   6.681   6.945   3.191  0.5913  0.4560  0.0299
 9072TIP3    H127173   6.711   7.030   3.158  0.1381  0.3137 -0.7716
 9072TIP3    H227174   6.752   6.915   3.247  1.2089  0.8955 -0.5011
 9073TIP3   OH227175   2.662   7.376   1.934  0.0860  0.2164  0.4294
 9073TIP3    H127176   2.704   7.368   1.848 -0.6995 -1.0370  0.1391
 9073TIP3    H227177   2.607   7.454   1.926 -2.5527 -1.6584 -1.4006
 9074TIP3   OH227178   6.981   0.360   6.194 -0.4475 -0.0858 -0.2174
 9074TIP3    H127179   7.004   0.420   6.264  0.1370  0.9552 -1.2651
 9074TIP3    H227180   7.066   0.329   6.161 -0.7096 -0.3563 -0.6449
 9075TIP3   OH227181   5.114   5.369   4.022  0.2136  0.5861 -0.3712
 9075TIP3    H127182   5.081   5.301   3.964 -1.2774  0.0952  0.9728
 9075TIP3    H227183   5.207   5.350   4.032  0.1558 -0.2434 -1.3276
 9076TIP3   OH227184   3.453   1.684   0.264 -0.7653  0.2339  0.1749
 9076TIP3    H127185   3.452   1.756   0.201  2.7068  1.2101  1.0039
 9076TIP3    H227186   3.422   1.608   0.214 -3.0829  1.9422 -1.1549
 9077TIP3   OH227187   5.869   6.500   6.622  0.0335  0.0625  0.4695
 9077TIP3    H127188   5.876   6.575   6.564 -2.4654 -0.4740 -0.6536
 9077TIP3    H227189   5.812   6.530   6.693 -2.1462 -1.0643 -0.6990
 9078TIP3   OH227190   2.475   3.019   5.672  0.1437  0.2767 -0.4063
 9078TIP3    H127191   2.385   3.025   5.640 -0.7344  1.4977  1.9922
 9078TIP3    H227192   2.471   3.056   5.761  2.5034 -2.0273  0.8050
 9079TIP3   OH227193   7.119   5.735   4.250  0.6651 -0.1413  0.7060
 9079TIP3    H127194   7.210   5.711   4.232  0.3832 -1.6857  1.1439
 9079TIP3    H227195   7.124   5.792   4.327  1.5331  3.1741 -1.6228
 9080TIP3   OH227196   4.209   5.837   5.625  0.7257  0.4897 -0.2116
 9080TIP3    H127197   4.167   5.818   5.541  0.3364  1.4735 -0.2576
 9080TIP3    H227198   4.136   5.858   5.684  1.0013 -0.0750  0.3413
 9081TIP3   OH227199   1.882   0.659   5.970  0.0977 -0.1210  0.1278
 9081TIP3    H127200   1.831   0.700   6.039 -1.0212  0.4652 -0.9998
 9081TIP3    H227201   1.946   0.725   5.944 -0.6363  0.3496 -0.5650
 9082TIP3   OH227202   5.941   3.112   1.560 -0.3697 -0.3157  0.4568
 9082TIP3    H127203   5.920   3.101   1.467  0.7218 -0.8125  0.2559
 9082TIP3    H227204   6.025   3.157   1.561  0.1524 -1.2700  1.1802
 9083TIP3   OH227205   7.891   3.852   0.118  0.5884  0.5135 -0.0369
 9083TIP3    H127206   7.893   3.757   0.126 -0.3906  0.2206 -2.3207
 9083TIP3    H227207   7.880   3.884   0.208  0.9116 -1.5069  0.7675
 9084TIP3   OH227208   0.020   2.215   2.845  0.1902 -0.1471  0.5629
 9084TIP3    H127209   0.077   2.291   2.832 -0.9105  0.9527  1.9509
 9084TIP3    H227210   0.000   2.215   2.938 -2.8167  0.0416  0.0149
 9085TIP3   OH227211   3.018   5.561   6.450 -0.3034  0.1903 -0.2108
 9085TIP3    H127212   2.978   5.479   6.421 -1.7209  0.0814  1.8362
 9085TIP3    H227213   3.090   5.575   6.389 -2.0027 -0.8586 -2.6282
 9086TIP3   OH227214   7.986   4.111   0.972  0.1490 -0.2059 -0.2661
 9086TIP3    H127215   8.051   4.181   0.965  0.1217 -0.3489 -2.2849
 9086TIP3    H227216   7.907   4.156   1.003 -0.1106  0.8588 -2.3058
 9087TIP3   OH227217   3.585   0.370   4.698  0.0830 -0.5258 -0.1187
 9087TIP3    H127218   3.609   0.299   4.640 -0.5203 -0.3595 -0.5819
 9087TIP3    H227219   3.638   0.445   4.669  0.8291 -0.8111  0.4651
 9088TIP3   OH227220   0.750   0.674   4.473  0.0261  0.2118  0.1935
 9088TIP3    H127221   0.713   0.702   4.390  0.1984 -0.0507  0.0259
 9088TIP3    H227222   0.675   0.658   4.529 -0.1023 -0.0473 -0.0540
 9089TIP3   OH227223   1.845   6.399   5.510  0.0364 -0.1254 -0.3459
 9089TIP3    H127224   1.794   6.320   5.527 -1.0179  0.6538  0.2206
 9089TIP3    H227225   1.795   6.445   5.443 -1.0443  1.5183  1.4764
 9090TIP3   OH227226   5.035   4.653   1.838 -0.3802 -0.0879 -0.1670
 9090TIP3    H127227   5.095   4.582   1.861 -0.6220  0.0858  1.0659
 9090TIP3    H227228   5.000   4.629   1.753  2.9751  0.7690 -1.9878
 9091TIP3   OH227229   5.311   6.366   2.462 -0.8771  0.0315  0.2167
 9091TIP3    H127230   5.307   6.283   2.509 -1.1065 -1.0668 -1.6394
 9091TIP3    H227231   5.254   6.353   2.385  0.2833  1.3599 -0.9258
 9092TIP3   OH227232   3.666   2.142   5.033  0.2391  0.0552  0.3904
 9092TIP3    H127233   3.752   2.180   5.050  1.4151 -2.1821 -0.1129
 9092TIP3    H227234   3.606   2.190   5.090  1.7915  1.7416  0.6799
 9093TIP3   OH227235   8.143   5.448   0.656 -0.1619 -0.1628 -1.0206
 9093TIP3    H127236   8.238   5.447   0.654 -0.1430 -0.7902 -0.2929
 9093TIP3    H227237   8.120   5.391   0.730 -1.1975 -3.5332 -3.6843
 9094TIP3   OH227238   2.900   4.561   0.293  0.4500  0.1847 -0.1486
 9094TIP3    H127239   2.836   4.592   0.358  1.5616 -0.5574  1.3785
 9094TIP3    H227240   2.940   4.641   0.259 -0.8960  0.6316 -0.7406
 9095TIP3   OH227241   2.503   2.827   4.728  0.2225  0.3944  0.1639
 9095TIP3    H127242   2.551   2.874   4.660  0.3959  1.0328  0.7172
 9095TIP3    H227243   2.432   2.784   4.681 -1.6329  3.4246 -0.0740
 9096TIP3   OH227244   7.150   1.260   0.723 -0.0258  0.4634  0.1463
 9096TIP3    H127245   7.214   1.258   0.651 -0.5605 -0.5562 -0.3319
 9096TIP3    H227246   7.200   1.233   0.800  0.3043  0.4633 -0.0653
 9097TIP3   OH227247   7.242   1.896   5.458  0.3684 -0.2974  0.5766
 9097TIP3    H127248   7.155   1.934   5.447 -0.4479 -1.9520  1.1167
 9097TIP3    H227249   7.299   1.972   5.473 -0.8581  0.8594 -0.3832
 9098TIP3   OH227250   4.610   1.614   6.086 -0.4201 -0.1988 -0.4628
 9098TIP3    H127251   4.624   1.528   6.046  0.0870 -0.2077 -0.2648
 9098TIP3    H227252   4.612   1.675   6.013 -2.6332 -0.5225 -0.8760
 9099TIP3   OH227253   5.115   1.607   6.526 -0.0868 -0.1791 -0.1592
 9099TIP3    H127254   5.119   1.515   6.502 -0.1931 -0.8049  2.0190
 9099TIP3    H227255   5.155   1.653   6.453 -1.2047 -1.8186 -1.8918
 9100TIP3   OH227256   0.392   4.932   6.162  0.7804  0.7433 -0.6947
 9100TIP3    H127257   0.394   4.873   6.237 -0.5662 -0.4172 -1.5162
 9100TIP3    H227258   0.304   4.921   6.125  1.5993  0.7749 -2.8050
 9101TIP3   OH227259   1.149   4.830   5.069 -0.3575  0.2189  0.3282
 9101TIP3    H127260   1.154   4.777   4.989 -1.4031 -0.7342  0.8752
 9101TIP3    H227261   1.095   4.905   5.044  1.2148  1.1500 -0.4794
 9102TIP3   OH227262   4.550   4.798   3.972 -0.3528 -0.5882  0.3389
 9102TIP3    H127263   4.509   4.880   4.000 -0.3157 -0.6026  0.4379
 9102TIP3    H227264   4.525   4.734   4.039  0.4287 -0.4266  0.8031
 9103TIP3   OH227265   5.018   4.037   4.885 -0.1837 -0.1133 -0.2164
 9103TIP3    H127266   5.013   3.947   4.854 -2.4216  0.0538 -0.5345
 9103TIP3    H227267   5.073   4.082   4.821 -0.7708 -0.8160 -1.2429
 9104TIP3   OH227268   1.368   3.340   2.068 -0.6160  0.2530  0.0604
 9104TIP3    H127269   1.278   3.370   2.055 -1.0075 -0.6609  0.6052
 9104TIP3    H227270   1.381   3.272   2.002  0.4625  1.9201 -1.5546
 9105TIP3   OH227271   1.194   1.150   0.154 -0.4168  0.0587 -0.1994
 9105TIP3    H127272   1.110   1.104   0.157 -0.2550 -0.2074  0.7251
 9105TIP3    H227273   1.171   1.242   0.167 -0.6575  0.1390 -1.1086
 9106TIP3   OH227274   7.968   7.509   6.104  0.4343  0.6528  0.0751
 9106TIP3    H127275   7.922   7.538   6.183 -1.0060 -0.3148 -0.3632
 9106TIP3    H227276   8.030   7.580   6.085  0.0849  1.3794  1.4745
 9107TIP3   OH227277   2.746   1.090   4.893  0.7615  0.2846 -0.0529
 9107TIP3    H127278   2.840   1.081   4.877  0.2870 -1.1461 -2.5393
 9107TIP3    H227279   2.726   1.181   4.872  1.2193 -0.0336 -1.9945
 9108TIP3   OH227280   0.610   3.592   1.384 -0.4413 -0.3360 -0.4388
 9108TIP3    H127281   0.521   3.627   1.375  0.8164  3.3269 -0.4830
 9108TIP3    H227282   0.606   3.534   1.460 -2.5761  1.0335  0.6031
 9109TIP3   OH227283   0.107   1.096   3.668 -0.3784 -0.1390 -0.2372
 9109TIP3    H127284   0.093   1.026   3.604  0.7122 -1.9606  1.4066
 9109TIP3    H227285   0.188   1.139   3.639  0.4868 -1.3916  0.1986
 9110TIP3   OH227286   1.832   2.940  -0.009 -0.4939 -0.2515  0.0654
 9110TIP3    H127287   1.886   2.868  -0.042  0.6336 -0.0212  1.2972
 9110TIP3    H227288   1.782   2.902   0.063 -0.6514 -0.0609  0.0570
 9111TIP3   OH227289   4.133   1.171   2.386 -0.1479 -0.0694 -0.0187
 9111TIP3    H127290   4.077   1.241   2.350  1.5079  0.1669 -2.3405
 9111TIP3    H227291   4.204   1.218   2.430  0.4212 -0.2750 -0.6987
 9112TIP3   OH227292   5.076   4.049   6.422 -0.2412 -0.0859 -0.4803
 9112TIP3    H127293   5.084   3.989   6.496  1.0842  2.4293  1.5706
 9112TIP3    H227294   4.985   4.077   6.423 -0.2788 -0.2167  0.1214
 9113TIP3   OH227295   4.762   7.187   1.595  0.2042 -0.5258 -0.0863
 9113TIP3    H127296   4.812   7.220   1.521 -0.7504 -1.2898 -1.0959
 9113TIP3    H227297   4.676   7.230   1.588  0.8038  1.1964  1.9301
 9114TIP3   OH227298   4.712   7.375   0.446 -0.1310  0.1509  0.5132
 9114TIP3    H127299   4.698   7.461   0.406  1.7450  0.9232  1.4003
 9114TIP3    H227300   4.744   7.320   0.374  1.9080  1.1611  0.5847
 9115TIP3   OH227301   3.551   2.306   2.995  0.4611 -0.8513 -0.5123
 9115TIP3    H127302   3.521   2.336   3.081  2.0264  1.4405 -0.6606
 9115TIP3    H227303   3.631   2.256   3.014  0.8617 -0.2616 -0.6137
 9116TIP3   OH227304   5.171   4.252   1.763 -0.0316 -0.6252 -0.2313
 9116TIP3    H127305   5.115   4.241   1.686 -0.2324  2.0185 -0.5640
 9116TIP3    H227306   5.237   4.317   1.736 -0.0842  0.3396  1.7709
 9117TIP3   OH227307   2.981   2.856   6.120  0.3343 -0.0932 -0.3317
 9117TIP3    H127308   2.990   2.765   6.149  1.3764 -0.1738 -0.8399
 9117TIP3    H227309   3.068   2.894   6.134 -0.1845  0.9215  0.1716
 9118TIP3   OH227310   2.135   0.464   6.327  0.1027 -0.4701 -0.3857
 9118TIP3    H127311   2.045   0.433   6.315  0.2341 -0.8490 -0.4118
 9118TIP3    H227312   2.188   0.402   6.277  0.5106 -1.1158  0.7898
 9119TIP3   OH227313   4.721   1.534   3.099 -0.4883 -0.0562  0.0189
 9119TIP3    H127314   4.806   1.491   3.110 -0.1132  1.1126  2.1354
 9119TIP3    H227315   4.741   1.615   3.052  0.0321  1.3630  2.5002
 9120TIP3   OH227316   1.646   6.402   1.659  0.4199 -0.1343  0.1889
 9120TIP3    H127317   1.716   6.380   1.720  0.6208 -0.3306 -0.1086
 9120TIP3    H227318   1.661   6.494   1.637  0.1155  0.0459  0.7351
 9121TIP3   OH227319   1.206   6.073   5.922 -0.2565  0.2150 -0.1021
 9121TIP3    H127320   1.155   5.999   5.891  0.4463 -0.5489  0.5331
 9121TIP3    H227321   1.215   6.129   5.844 -2.9022  0.9182  0.0052
 9122TIP3   OH227322   5.041   5.910   4.055  0.5216  0.2064  0.0223
 9122TIP3    H127323   4.982   5.937   4.125  0.8034  0.2169  0.2574
 9122TIP3    H227324   4.996   5.837   4.013  2.6042 -3.5885  3.6153
 9123TIP3   OH227325   7.447   1.199   1.378 -0.0483  0.1113  0.2989
 9123TIP3    H127326   7.360   1.183   1.340  0.5189  0.7124 -1.3324
 9123TIP3    H227327   7.457   1.132   1.445 -1.9922  0.3700  0.9040
 9124TIP3   OH227328   6.293   2.099   3.853  0.2627 -0.0876  0.2362
 9124TIP3    H127329   6.201   2.075   3.855 -0.4434  2.1646 -1.2553
 9124TIP3    H227330   6.340   2.016   3.851 -1.7229 -1.2796  0.4477
 9125TIP3   OH227331   6.611   1.998   3.640  0.1067  0.2888  0.1305
 9125TIP3    H127332   6.593   2.080   3.687 -0.7015  0.2543 -0.0995
 9125TIP3    H227333   6.633   2.025   3.551  1.2859  0.3331  0.4225
 9126TIP3   OH227334   5.546   1.808   1.979 -0.0242  0.3565  0.8122
 9126TIP3    H127335   5.532   1.718   2.010 -0.1875  0.3493  0.7201
 9126TIP3    H227336   5.478   1.821   1.912  1.8447 -0.5054 -1.3991
 9127TIP3   OH227337   5.285   5.842   1.767 -0.4705 -0.1211  0.4601
 9127TIP3    H127338   5.194   5.817   1.758 -0.7618  0.2081  2.0612
 9127TIP3    H227339   5.287   5.936   1.745 -0.0240 -0.6506 -2.0306
 9128TIP3   OH227340   3.149   6.768   2.353 -0.3449  0.1126 -0.0595
 9128TIP3    H127341   3.233   6.765   2.308  1.0312 -0.4413  2.3577
 9128TIP3    H227342   3.162   6.829   2.425 -1.0483 -2.0072  2.0121
 9129TIP3   OH227343   3.346   0.077   5.343 -0.1055  0.0465  0.2362
 9129TIP3    H127344   3.308   0.011   5.400 -0.3177  0.7745  0.9583
 9129TIP3    H227345   3.387   0.140   5.402 -0.5094  0.9313 -0.4035
 9130TIP3   OH227346   4.258   0.218   5.866 -0.1570  0.1648  0.5680
 9130TIP3    H127347   4.197   0.290   5.850  0.5583  0.9718  1.3817
 9130TIP3    H227348   4.332   0.235   5.808 -0.6754 -0.8059 -0.4053
 9131TIP3   OH227349   7.010   1.276  -0.001  0.1774  0.1169  0.2944
 9131TIP3    H127350   6.941   1.251  -0.063  0.0889  0.0493  0.4211
 9131TIP3    H227351   6.964   1.319   0.071  0.4136  1.7097 -0.4561
 9132TIP3   OH227352   2.144   7.526   4.037  0.7987 -0.7410 -0.2619
 9132TIP3    H127353   2.223   7.560   3.995 -0.8423  4.4107  0.0960
 9132TIP3    H227354   2.081   7.516   3.965 -0.6225  3.7340  0.0332
 9133TIP3   OH227355   4.957   7.345   1.109 -0.4386  0.7618 -0.3608
 9133TIP3    H127356   5.041   7.311   1.079 -0.4342  0.0505  0.3873
 9133TIP3    H227357   4.963   7.439   1.098  0.2491  0.6735 -0.8176
 9134TIP3   OH227358   6.173   4.879   2.487 -0.3837  0.5438  0.2373
 9134TIP3    H127359   6.212   4.816   2.547  1.2561 -0.5341 -1.8201
 9134TIP3    H227360   6.080   4.856   2.485 -0.4336  0.4472  2.0831
 9135TIP3   OH227361   3.072   5.838   0.291  0.3076 -0.0528  0.2872
 9135TIP3    H127362   3.093   5.830   0.198  0.6755 -0.7639  0.4271
 9135TIP3    H227363   3.097   5.928   0.313 -4.4187  1.9923 -1.4482
 9136TIP3   OH227364   8.052   7.487   6.673 -0.4213  0.1917 -0.3263
 9136TIP3    H127365   8.069   7.440   6.592 -1.2797 -2.1936  0.7935
 9136TIP3    H227366   8.016   7.571   6.645  2.3322  0.7941 -2.4246
 9137TIP3   OH227367   4.554   7.036   5.424  0.0648  0.4448  0.0234
 9137TIP3    H127368   4.493   7.031   5.351  0.0692  1.0178 -0.0267
 9137TIP3    H227369   4.637   7.063   5.385  1.1401 -2.9309 -0.3292
 9138TIP3   OH227370   5.048   5.786   0.252 -0.4765  0.6066  0.7200
 9138TIP3    H127371   5.099   5.821   0.325 -0.2727 -0.1573  0.9565
 9138TIP3    H227372   4.957   5.805   0.276 -0.6381 -1.9520  2.5276
 9139TIP3   OH227373   4.763   6.746   1.659 -0.5040 -0.1669 -0.0021
 9139TIP3    H127374   4.728   6.817   1.604 -1.9843 -0.5761  0.3526
 9139TIP3    H227375   4.722   6.667   1.623  1.4041 -0.9181 -0.6234
 9140TIP3   OH227376   1.174   4.511   3.932  0.1119  0.5706 -0.9056
 9140TIP3    H127377   1.211   4.545   3.850  0.3549  0.8096 -0.6978
 9140TIP3    H227378   1.244   4.459   3.970  0.1541  0.8277 -0.6292
 9141TIP3   OH227379   0.269   2.016   0.871 -0.2198 -0.0581 -0.0832
 9141TIP3    H127380   0.319   2.037   0.793 -0.8336 -1.0823 -0.7826
 9141TIP3    H227381   0.295   1.926   0.893 -2.6596 -1.1567 -1.2723
 9142TIP3   OH227382   5.988   7.770   1.621  0.8950  0.2460 -0.0812
 9142TIP3    H127383   5.903   7.753   1.580  0.8231 -1.7347  0.7502
 9142TIP3    H227384   6.050   7.770   1.549  0.6148 -1.9527 -0.4039
 9143TIP3   OH227385   2.053   3.837   6.134  0.6413  0.0774 -0.3300
 9143TIP3    H127386   2.101   3.770   6.086 -0.8529 -1.9920  0.9023
 9143TIP3    H227387   1.968   3.842   6.091  0.0599 -0.2255  0.7351
 9144TIP3   OH227388   6.833   1.262   0.241  0.2460 -0.2767  0.4039
 9144TIP3    H127389   6.762   1.322   0.219  0.7549  0.4038  0.6111
 9144TIP3    H227390   6.802   1.216   0.319 -0.5814 -1.0471 -0.3434
 9145TIP3   OH227391   0.005   1.948   6.650  0.2886 -0.1633 -0.0572
 9145TIP3    H127392   0.083   1.927   6.703 -1.9606  1.2461  4.3651
 9145TIP3    H227393  -0.063   1.891   6.685 -1.1981  0.1560 -2.2627
 9146TIP3   OH227394   4.088   6.206   2.994  0.4479 -0.2402 -0.6469
 9146TIP3    H127395   4.080   6.288   2.946  0.7004 -0.0731 -0.4058
 9146TIP3    H227396   4.147   6.226   3.067 -4.3573  1.3041  3.4605
 9147TIP3   OH227397   3.675   4.048   1.823  0.0355 -0.3125 -0.0230
 9147TIP3    H127398   3.764   4.083   1.813  0.0820 -0.7264 -1.2051
 9147TIP3    H227399   3.663   3.991   1.747 -1.1282 -0.5268  0.3039
 9148TIP3   OH227400   3.215   2.173   2.003 -0.2862  0.2561 -0.0318
 9148TIP3    H127401   3.257   2.087   2.004  1.3574  1.0230  0.6770
 9148TIP3    H227402   3.127   2.157   2.036 -1.0460 -1.5997 -2.6431
 9149TIP3   OH227403   2.786   1.044   5.220 -0.1691 -0.5393  0.4682
 9149TIP3    H127404   2.692   1.042   5.200 -0.3704 -1.3244  1.4315
 9149TIP3    H227405   2.811   1.136   5.209 -1.2435 -0.1581  1.0926
 9150TIP3   OH227406   5.648   0.459   5.670 -0.5549 -0.2381 -0.4311
 9150TIP3    H127407   5.609   0.523   5.610  0.1589  0.6648  0.0350
 9150TIP3    H227408   5.657   0.507   5.753  2.4156 -0.0481 -0.7449
 9151TIP3   OH227409   4.849   0.021   3.486 -0.5510  0.4025 -0.0148
 9151TIP3    H127410   4.763   0.040   3.524 -0.7048  0.4267 -0.3660
 9151TIP3    H227411   4.829  -0.018   3.401 -0.2048  1.5123 -0.6301
 9152TIP3   OH227412   1.439   2.316   1.138  0.3350  0.2557  0.0538
 9152TIP3    H127413   1.397   2.309   1.052  2.3710 -0.6207 -0.9432
 9152TIP3    H227414   1.480   2.402   1.137 -1.1035  0.9771  0.8944
 9153TIP3   OH227415   0.869   0.951   3.875 -0.1132  0.8375 -0.0889
 9153TIP3    H127416   0.957   0.928   3.906 -0.2442  1.7126  0.9915
 9153TIP3    H227417   0.842   0.875   3.823  0.4739 -0.3297  1.2325
 9154TIP3   OH227418   0.216   1.991   5.502 -0.4492 -0.2318  0.2861
 9154TIP3    H127419   0.257   1.914   5.462 -0.6433 -0.5168  0.6284
 9154TIP3    H227420   0.191   2.046   5.428 -3.3194 -1.9911 -0.2297
 9155TIP3   OH227421   5.845   1.496   0.339 -0.4468 -0.0125 -0.2721
 9155TIP3    H127422   5.893   1.533   0.266  1.1682 -1.6085 -0.1110
 9155TIP3    H227423   5.806   1.571   0.384  3.3468  1.6992  0.5803
 9156TIP3   OH227424   2.850   6.818   0.250  0.1397 -0.2876 -0.5455
 9156TIP3    H127425   2.755   6.806   0.259  0.2406 -0.4367  0.3814
 9156TIP3    H227426   2.862   6.844   0.159 -0.8677  0.4153 -0.4923
 9157TIP3   OH227427   4.661   2.987   5.155 -0.4986 -0.0901  0.9789
 9157TIP3    H127428   4.618   2.932   5.221  0.1615 -0.7078  0.8996
 9157TIP3    H227429   4.680   3.069   5.201 -2.5926  0.5837  0.7704
 9158TIP3   OH227430   1.832   6.731   3.371 -0.2055 -0.3029  0.3321
 9158TIP3    H127431   1.820   6.778   3.288  1.0551  0.9919  0.8304
 9158TIP3    H227432   1.923   6.751   3.396 -0.8007 -0.0225  2.4171
 9159TIP3   OH227433   5.781   2.915   3.279  0.1343 -0.1543 -0.3751
 9159TIP3    H127434   5.819   2.950   3.360  1.7637  0.2333 -1.2732
 9159TIP3    H227435   5.797   2.821   3.284  2.3229  0.1176 -1.2452
 9160TIP3   OH227436   6.908   7.163   3.430  0.7703 -0.0622 -0.8280
 9160TIP3    H127437   6.973   7.092   3.432 -2.2409 -3.0813  0.3724
 9160TIP3    H227438   6.882   7.169   3.338  0.7365 -0.8738 -0.8765
 9161TIP3   OH227439   3.330   1.723   2.357 -0.3451 -1.0193 -0.1056
 9161TIP3    H127440   3.283   1.692   2.434  0.0366 -0.4854  0.3447
 9161TIP3    H227441   3.293   1.809   2.338  0.2817 -0.6913  0.1164
 9162TIP3   OH227442   5.155   2.601   5.020 -0.0233  0.1010  0.1752
 9162TIP3    H127443   5.210   2.678   5.005 -1.9151  1.0686 -2.5180
 9162TIP3    H227444   5.192   2.534   4.963 -0.0139 -0.1494  0.4711
 9163TIP3   OH227445   8.050   2.365   0.664  0.1417  0.6929  0.3678
 9163TIP3    H127446   8.100   2.408   0.594 -1.9493  1.6713 -0.6143
 9163TIP3    H227447   8.073   2.414   0.743  1.3642  0.5720  0.1072
 9164TIP3   OH227448   5.874   2.779   4.850 -0.2344  0.3354 -0.0812
 9164TIP3    H127449   5.884   2.769   4.755  0.9791  1.9567 -0.1888
 9164TIP3    H227450   5.822   2.859   4.860 -0.2210  0.2651  0.6098
 9165TIP3   OH227451   7.274   0.844   3.439 -0.4114  0.7319  0.4510
 9165TIP3    H127452   7.342   0.781   3.416  0.4779  2.0799 -0.7881
 9165TIP3    H227453   7.311   0.895   3.510 -0.8753  0.2779  1.0231
 9166TIP3   OH227454   7.060   3.940   0.745 -0.3855  0.1971 -0.1803
 9166TIP3    H127455   6.981   3.909   0.700 -0.2959  1.1102 -0.9816
 9166TIP3    H227456   7.058   3.894   0.829 -2.0806  0.6346  0.0645
 9167TIP3   OH227457   0.135   5.438   0.671 -0.3219 -0.1026  0.1290
 9167TIP3    H127458   0.192   5.443   0.595 -1.4982  0.0432 -0.7730
 9167TIP3    H227459   0.146   5.348   0.704 -1.8440 -1.1038 -1.8912
 9168TIP3   OH227460   4.773   6.837   0.795 -0.1265 -0.4298 -0.3014
 9168TIP3    H127461   4.693   6.803   0.753 -1.1059 -0.0379  1.1783
 9168TIP3    H227462   4.772   6.931   0.777 -0.6733 -0.2226  0.7646
 9169TIP3   OH227463   2.246   3.408   6.214  0.1421  0.1828 -0.2844
 9169TIP3    H127464   2.274   3.319   6.236  1.6331  0.3132 -1.5177
 9169TIP3    H227465   2.212   3.443   6.297  0.6232 -1.1313  0.5037
 9170TIP3   OH227466   6.630   4.557   0.017 -0.5178 -0.2676  0.3838
 9170TIP3    H127467   6.577   4.572   0.095  0.4000 -0.9121  1.1452
 9170TIP3    H227468   6.631   4.462   0.006  1.8816 -0.4556  1.4354
 9171TIP3   OH227469   2.252   6.877   1.888 -0.2414  0.1487 -0.3006
 9171TIP3    H127470   2.327   6.829   1.855  1.5327  2.4277  0.1380
 9171TIP3    H227471   2.257   6.962   1.845 -2.3504  0.5016  0.0618
 9172TIP3   OH227472   5.354   2.282   5.892 -0.3127  0.0199 -0.0848
 9172TIP3    H127473   5.278   2.320   5.847 -0.8873 -0.4566  0.4665
 9172TIP3    H227474   5.421   2.351   5.888 -0.4681  0.1249 -1.3399
 9173TIP3   OH227475   4.687   2.505   5.289 -0.0677 -0.1890  0.9087
 9173TIP3    H127476   4.778   2.502   5.318 -0.0514  2.0759  1.2619
 9173TIP3    H227477   4.680   2.434   5.225  2.1611  0.0801  0.2718
 9174TIP3   OH227478   2.314   3.095   0.741  0.2998  0.1728  0.2357
 9174TIP3    H127479   2.259   3.117   0.816  1.1564  0.5840  0.7547
 9174TIP3    H227480   2.273   3.141   0.667  0.5950  1.4361  0.8381
 9175TIP3   OH227481   1.116   1.543   5.323  0.7533 -0.6438 -0.0860
 9175TIP3    H127482   1.147   1.499   5.403  1.4967  0.9623  0.5583
 9175TIP3    H227483   1.092   1.472   5.264  1.3520 -1.8930  1.1191
 9176TIP3   OH227484   3.940   3.742   1.842  0.7020  0.7913 -0.3774
 9176TIP3    H127485   3.932   3.649   1.860 -0.4489  0.7360 -1.0700
 9176TIP3    H227486   3.933   3.749   1.747 -0.0576  1.6381 -0.2808
 9177TIP3   OH227487   7.101   5.952   4.410 -0.3202 -0.1889 -0.0668
 9177TIP3    H127488   7.065   5.922   4.493  0.2253 -0.6282  0.0221
 9177TIP3    H227489   7.174   6.009   4.434 -1.1085  0.9300 -0.2399
 9178TIP3   OH227490   1.167   4.687   6.136  0.4162 -0.9909  0.1587
 9178TIP3    H127491   1.164   4.782   6.133 -0.0383 -0.9362  1.6977
 9178TIP3    H227492   1.260   4.666   6.143  0.4811 -0.6359  0.3942
 9179TIP3   OH227493   4.373   6.409   6.045  0.1106  0.0898  0.0663
 9179TIP3    H127494   4.370   6.497   6.084 -0.3392  0.2433 -0.3080
 9179TIP3    H227495   4.305   6.410   5.978  0.9494 -0.1375 -0.8103
 9180TIP3   OH227496   5.190   5.454   5.649  0.1618 -0.5936  0.6254
 9180TIP3    H127497   5.107   5.422   5.685 -0.2636  0.8878  1.0404
 9180TIP3    H227498   5.163   5.524   5.589  1.1554  0.5454  1.4749
 9181TIP3   OH227499   6.715   4.845   2.083  0.1027 -0.2362  0.4383
 9181TIP3    H127500   6.756   4.805   2.006  0.7374  0.2406  0.5240
 9181TIP3    H227501   6.720   4.939   2.067 -0.2560 -0.1499  0.8160
 9182TIP3   OH227502   3.830   7.562   1.775 -0.1540  0.6856  0.0930
 9182TIP3    H127503   3.858   7.473   1.754 -3.7656 -1.3968  2.8654
 9182TIP3    H227504   3.760   7.581   1.712 -1.4482  0.2097  1.3344
 9183TIP3   OH227505   2.384   3.455  -0.007 -0.7453 -0.1872 -0.8246
 9183TIP3    H127506   2.444   3.390   0.030 -1.6509 -0.5220  0.0838
 9183TIP3    H227507   2.439   3.533  -0.019 -0.5302  0.1844  1.9455
 9184TIP3   OH227508   0.767   7.153   3.044 -0.6711 -0.3852  0.0392
 9184TIP3    H127509   0.782   7.220   2.978  1.4182 -0.5908  0.2458
 9184TIP3    H227510   0.709   7.090   3.002 -0.1564 -0.0204 -1.2530
 9185TIP3   OH227511   3.895   2.186   5.243  0.0923 -0.6509  0.4495
 9185TIP3    H127512   3.941   2.266   5.218 -1.1839 -0.4045 -1.2925
 9185TIP3    H227513   3.961   2.134   5.290  1.8846  0.0413 -1.1805
 9186TIP3   OH227514   7.106   1.739   1.951  0.0398 -0.7855  0.2468
 9186TIP3    H127515   7.046   1.700   2.014  0.2427  1.0774  1.7090
 9186TIP3    H227516   7.059   1.815   1.916  0.6573 -0.6608 -0.3408
 9187TIP3   OH227517   8.217   0.694   5.762  0.1041  0.6351 -0.4487
 9187TIP3    H127518   8.254   0.781   5.780 -0.0618  1.0684 -2.0134
 9187TIP3    H227519   8.291   0.634   5.765 -0.0959  0.4059  2.9006
 9188TIP3   OH227520   4.068   1.971   0.853 -0.3555 -0.1076  0.1282
 9188TIP3    H127521   3.983   1.975   0.810  0.1518 -1.1982 -1.0542
 9188TIP3    H227522   4.104   2.059   0.842 -1.3292  0.3816  0.6936
 9189TIP3   OH227523   2.364   0.402   1.486 -0.3937  0.4446  0.0284
 9189TIP3    H127524   2.321   0.486   1.504 -0.3508  0.5227 -0.2295
 9189TIP3    H227525   2.382   0.405   1.393 -1.9398 -0.5652 -0.3444
 9190TIP3   OH227526   3.612   2.993   5.314  0.8400 -0.1002  0.0463
 9190TIP3    H127527   3.572   3.055   5.375  1.4502  0.2509  0.0957
 9190TIP3    H227528   3.665   3.046   5.255  1.5098 -0.5763  0.1976
 9191TIP3   OH227529   2.764   0.338   3.608 -0.5568  0.6511 -0.3566
 9191TIP3    H127530   2.677   0.361   3.575 -0.7955  1.1497  0.5638
 9191TIP3    H227531   2.824   0.395   3.560 -0.7845  0.6288 -0.6706
 9192TIP3   OH227532   8.169   2.402   4.017  0.4215 -0.4900 -0.0560
 9192TIP3    H127533   8.237   2.438   4.074  0.5552 -1.0242  0.1320
 9192TIP3    H227534   8.204   2.317   3.990 -0.1463 -0.7409 -0.0100
 9193TIP3   OH227535   0.467   0.427   3.233 -0.4648  0.0536  0.1849
 9193TIP3    H127536   0.453   0.337   3.264  1.7312 -0.3279  0.2297
 9193TIP3    H227537   0.485   0.417   3.139  1.3581  0.2314  0.4849
 9194TIP3   OH227538   2.481   4.935   3.869  0.5150  0.3913  0.1231
 9194TIP3    H127539   2.492   4.921   3.775 -0.2027  0.5668  0.0097
 9194TIP3    H227540   2.520   4.857   3.909 -1.7785 -1.1350 -0.4272
 9195TIP3   OH227541   5.975   1.613   0.648  0.6278  0.0763  0.8469
 9195TIP3    H127542   5.942   1.619   0.737 -3.1100 -0.2386 -0.3554
 9195TIP3    H227543   6.000   1.521   0.638 -1.1569 -0.4442  0.9285
 9196TIP3   OH227544   6.504   1.736   2.897 -0.1055  0.5824 -0.0998
 9196TIP3    H127545   6.532   1.766   2.984 -2.0253 -0.1807  0.8277
 9196TIP3    H227546   6.472   1.647   2.911  3.4401 -1.3137 -2.3842
 9197TIP3   OH227547   4.415   4.565   1.715  0.0382  0.6184 -0.7468
 9197TIP3    H127548   4.444   4.491   1.768 -0.3131  0.3548 -0.9181
 9197TIP3    H227549   4.322   4.548   1.699 -0.3327  1.6342  0.1317
 9198TIP3   OH227550   1.683   5.629   5.606 -1.5181  0.3428  0.1719
 9198TIP3    H127551   1.594   5.618   5.574 -0.9623  0.1973 -1.4139
 9198TIP3    H227552   1.737   5.581   5.543 -0.3770 -0.1939  1.5112
 9199TIP3   OH227553   5.449   4.216   0.603 -0.9448 -0.5928 -0.0410
 9199TIP3    H127554   5.524   4.159   0.591  0.4950  1.1248  0.4544
 9199TIP3    H227555   5.411   4.188   0.687  0.4190 -0.1182  0.7549
 9200TIP3   OH227556   4.749   1.820   1.265  0.2119 -0.8316  0.2037
 9200TIP3    H127557   4.780   1.880   1.333 -2.8253  1.1311  0.0445
 9200TIP3    H227558   4.684   1.766   1.309 -0.2874 -0.9423 -0.6555
 9201TIP3   OH227559   2.350   0.372   0.526 -0.5975  0.0741  0.0438
 9201TIP3    H127560   2.291   0.379   0.451  0.5373  1.5106 -0.7687
 9201TIP3    H227561   2.325   0.445   0.583 -0.0525  0.2919  0.0118
 9202TIP3   OH227562   4.646   3.641   5.356  0.0025 -0.3050  0.8598
 9202TIP3    H127563   4.710   3.688   5.303 -0.3303 -0.5481  0.2409
 9202TIP3    H227564   4.583   3.709   5.383  0.5026 -0.0652  1.4709
 9203TIP3   OH227565   4.813   2.694   0.927 -0.7079  0.2916  0.0603
 9203TIP3    H127566   4.864   2.773   0.909  0.8636 -0.2973  1.6672
 9203TIP3    H227567   4.835   2.634   0.856 -0.0565  0.4574  0.1170
 9204TIP3   OH227568   2.884   4.565   5.293  0.0723  0.1372  0.5218
 9204TIP3    H127569   2.836   4.483   5.307 -0.6271  0.3668 -0.4296
 9204TIP3    H227570   2.970   4.537   5.261 -0.4276 -0.2266 -0.5536
 9205TIP3   OH227571   5.137   4.164   0.170 -0.0709 -0.1413  0.2820
 9205TIP3    H127572   5.215   4.136   0.217 -0.6865  0.4787  1.7410
 9205TIP3    H227573   5.137   4.260   0.178 -0.2793 -0.0311 -0.8620
 9206TIP3   OH227574   4.591   6.268   1.990  0.0116  0.1484 -0.3923
 9206TIP3    H127575   4.526   6.330   2.024  0.3276  0.3912 -0.2286
 9206TIP3    H227576   4.665   6.323   1.963  0.0569 -0.1054 -0.8025
 9207TIP3   OH227577   5.893   6.459   0.777  0.2563  0.0910  0.3862
 9207TIP3    H127578   5.809   6.467   0.732 -0.4277 -1.6422  1.2879
 9207TIP3    H227579   5.948   6.410   0.716  0.4310  0.6964  0.0498
 9208TIP3   OH227580   3.118   0.694   5.486  0.2691 -0.0169 -0.1215
 9208TIP3    H127581   3.079   0.683   5.572 -1.2647 -0.0649 -0.7832
 9208TIP3    H227582   3.055   0.656   5.425  0.7455  1.0580 -1.3650
 9209TIP3   OH227583   3.237   4.419   5.495 -0.1615  0.3030  0.4234
 9209TIP3    H127584   3.159   4.471   5.515  0.1772  0.9011  0.2229
 9209TIP3    H227585   3.309   4.467   5.537  0.0622 -0.4244  0.8960
 9210TIP3   OH227586   2.020   4.836   5.663  0.3142 -0.2741  0.2335
 9210TIP3    H127587   2.095   4.857   5.718  0.3128  0.0720  0.1082
 9210TIP3    H227588   1.957   4.795   5.722  1.2776 -2.1841  0.0062
 9211TIP3   OH227589   3.062   5.801   4.165 -0.4107  0.3921  0.2048
 9211TIP3    H127590   3.034   5.791   4.074  0.2067  0.4777 -0.0000
 9211TIP3    H227591   3.031   5.721   4.208  0.2809 -0.1883 -0.3394
 9212TIP3   OH227592   7.619   5.846   3.635  0.3697  0.0845  0.1786
 9212TIP3    H127593   7.526   5.832   3.649  0.4899  0.3141  1.2504
 9212TIP3    H227594   7.624   5.886   3.548 -0.5915  0.8021  0.4367
 9213TIP3   OH227595   0.283   3.236   4.696 -0.3241 -0.0183  0.3837
 9213TIP3    H127596   0.337   3.308   4.729  1.8927 -0.8126 -1.2439
 9213TIP3    H227597   0.287   3.169   4.764  0.4192  0.1024  0.4670
 9214TIP3   OH227598   6.067   5.151   2.846 -0.1901  0.8080  0.8599
 9214TIP3    H127599   6.107   5.146   2.759  1.5897 -0.7381  1.7047
 9214TIP3    H227600   6.027   5.238   2.849 -0.3747  0.8654 -1.5138
 9215TIP3   OH227601   4.322   2.455   3.096  0.1403 -0.2645 -0.1236
 9215TIP3    H127602   4.233   2.425   3.074 -0.9045 -0.0660  3.2570
 9215TIP3    H227603   4.372   2.374   3.109  0.1686 -0.3863 -0.9408
 9216TIP3   OH227604   4.738   7.122   2.145  0.3793 -0.4107 -0.6911
 9216TIP3    H127605   4.663   7.182   2.137  0.4679 -0.2906 -0.6179
 9216TIP3    H227606   4.721   7.055   2.079 -0.6565 -1.3224  0.4522
 9217TIP3   OH227607   0.401   0.281   3.951  0.1034  0.0211 -0.7107
 9217TIP3    H127608   0.494   0.287   3.929 -0.0900  0.6998 -1.4240
 9217TIP3    H227609   0.357   0.266   3.867 -0.2528 -3.1962 -0.0818
 9218TIP3   OH227610   6.450   7.009   1.125 -0.4502  0.0852 -0.2622
 9218TIP3    H127611   6.448   7.048   1.037  0.4145  2.2921  0.6214
 9218TIP3    H227612   6.530   6.957   1.126 -0.3118  0.2854 -0.6736
 9219TIP3   OH227613   3.976   5.374   6.763  0.0998  0.1313  0.0961
 9219TIP3    H127614   3.913   5.398   6.831 -0.3904 -0.4363 -0.1517
 9219TIP3    H227615   3.980   5.451   6.706 -0.2131  0.2518  0.2329
 9220TIP3   OH227616   4.920   6.641   0.669  0.5237  0.3321  0.5393
 9220TIP3    H127617   4.884   6.718   0.712  0.4813 -0.0834  1.2594
 9220TIP3    H227618   4.915   6.572   0.735 -0.1288 -0.4796 -0.3336
 9221TIP3   OH227619   5.592   0.245   3.140 -0.2579 -0.2228 -0.1676
 9221TIP3    H127620   5.568   0.337   3.151 -0.9007 -0.4026  0.0143
 9221TIP3    H227621   5.535   0.214   3.070 -0.5982 -0.6721  0.2933
 9222TIP3   OH227622   2.268   7.037   4.296 -0.4391  0.2187  0.4843
 9222TIP3    H127623   2.247   7.053   4.388 -0.3327  0.7663  0.4138
 9222TIP3    H227624   2.239   7.116   4.250 -0.2216  0.0701  0.0879
 9223TIP3   OH227625   3.508   4.447   1.074 -0.0919  0.4720 -0.2899
 9223TIP3    H127626   3.446   4.520   1.067  0.6210  1.3648  1.8122
 9223TIP3    H227627   3.459   4.377   1.116 -0.2953  0.3679 -0.7001
 9224TIP3   OH227628   0.206   4.625   0.055  0.3307 -0.0247 -0.1407
 9224TIP3    H127629   0.286   4.673   0.033  0.4733  0.1207  0.6580
 9224TIP3    H227630   0.225   4.534   0.029 -0.4883  0.5198 -3.0723
 9225TIP3   OH227631   7.355   7.634   2.274  0.1407 -0.2060  0.5051
 9225TIP3    H127632   7.445   7.602   2.278  0.1622 -0.1112  0.8650
 9225TIP3    H227633   7.325   7.631   2.365 -0.0075  0.3741  0.4777
 9226TIP3   OH227634   8.264   1.046   3.018 -0.3590  0.9152 -0.3523
 9226TIP3    H127635   8.336   0.984   3.008 -0.3300  1.2877 -3.7435
 9226TIP3    H227636   8.307   1.129   3.037  0.1963  1.1230 -2.2955
 9227TIP3   OH227637   5.635   6.216   4.587  0.1997  0.1618 -0.0499
 9227TIP3    H127638   5.723   6.242   4.614  0.5800 -0.4986 -0.6433
 9227TIP3    H227639   5.619   6.134   4.634  0.7322 -0.8162 -1.5057
 9228TIP3   OH227640   2.100   0.735   4.830  0.3045  0.0343  0.3568
 9228TIP3    H127641   2.137   0.707   4.747 -1.0728 -0.5912 -0.0555
 9228TIP3    H227642   2.007   0.713   4.825  0.2282 -0.2137  2.1355
 9229TIP3   OH227643   5.379   2.538   4.388 -0.1201  0.3190 -0.5167
 9229TIP3    H127644   5.401   2.487   4.310 -0.6926 -2.3726  0.9570
 9229TIP3    H227645   5.462   2.547   4.435  0.0590  1.1759 -0.9732
 9230TIP3   OH227646   2.122   6.334   4.268 -0.4346 -0.1632  0.4846
 9230TIP3    H127647   2.153   6.295   4.349  1.3877  0.2675  0.0421
 9230TIP3    H227648   2.096   6.259   4.214 -1.2614 -0.4719  1.2816
 9231TIP3   OH227649   0.502   5.091   2.323 -0.4486  0.6438 -0.1723
 9231TIP3    H127650   0.424   5.045   2.293 -0.0012 -0.4417  0.2835
 9231TIP3    H227651   0.508   5.167   2.265 -0.0859 -0.9237 -2.3417
 9232TIP3   OH227652   0.513   0.717   0.112  0.2962 -0.5370 -0.3784
 9232TIP3    H127653   0.582   0.777   0.139  0.7199 -0.7452 -0.9879
 9232TIP3    H227654   0.460   0.704   0.191  0.2048  0.6205 -0.2448
 9233TIP3   OH227655   5.841   3.834   0.512 -0.0880 -0.2112 -0.2982
 9233TIP3    H127656   5.857   3.809   0.420  0.6722 -1.6913  0.2018
 9233TIP3    H227657   5.765   3.782   0.537 -0.0017 -0.1713  0.0444
 9234TIP3   OH227658   0.171   4.635   6.069  0.1317  0.5515 -0.0819
 9234TIP3    H127659   0.141   4.726   6.075  0.8240  0.7414  0.9041
 9234TIP3    H227660   0.177   4.617   5.976 -1.5390  0.9946 -0.2991
 9235TIP3   OH227661   4.747   0.577   3.764 -0.5609 -0.2116  0.1769
 9235TIP3    H127662   4.658   0.610   3.777 -0.6499 -0.4342  0.1419
 9235TIP3    H227663   4.804   0.644   3.803 -0.8026 -0.6282  1.3015
 9236TIP3   OH227664   5.171   1.991   4.806  0.3292  0.9747 -0.6253
 9236TIP3    H127665   5.232   1.922   4.780 -1.0694 -0.3527 -0.5281
 9236TIP3    H227666   5.085   1.950   4.800 -0.4771  2.4540  0.3085
 9237TIP3   OH227667   7.839   0.721   5.035 -0.0228  0.2128  0.0001
 9237TIP3    H127668   7.912   0.776   5.007 -0.3055  0.2001 -0.7804
 9237TIP3    H227669   7.766   0.747   4.979 -0.2084 -0.8383 -0.2737
 9238TIP3   OH227670   7.610   5.344   4.741  0.2097  0.5507 -0.3314
 9238TIP3    H127671   7.620   5.251   4.721  0.5904  0.6418 -0.6039
 9238TIP3    H227672   7.556   5.347   4.819  2.1283 -0.0121  1.0868
 9239TIP3   OH227673   7.351   2.961   6.035  0.4783 -0.4249  0.1286
 9239TIP3    H127674   7.436   2.934   6.002  0.3402  0.5666 -1.1015
 9239TIP3    H227675   7.361   3.055   6.053 -0.8422  0.1525 -1.8315
 9240TIP3   OH227676   4.858   1.588   4.990 -0.4478 -0.4081  0.0460
 9240TIP3    H127677   4.764   1.580   4.979 -0.6660 -1.4794  2.1936
 9240TIP3    H227678   4.895   1.549   4.911 -1.7829 -0.1220 -0.7449
 9241TIP3   OH227679   5.723   5.034   5.230  0.0647  0.0086 -0.3797
 9241TIP3    H127680   5.636   5.008   5.260  0.5301 -0.4613  0.6089
 9241TIP3    H227681   5.749   4.965   5.168 -0.7017  0.7293 -1.5376
 9242TIP3   OH227682   2.811   2.891   0.430  0.2582 -0.1783  0.2069
 9242TIP3    H127683   2.872   2.897   0.503 -0.0461  0.8217  0.3997
 9242TIP3    H227684   2.833   2.809   0.386  1.6792  0.1264  0.3201
 9243TIP3   OH227685   7.490   5.335   2.248 -0.0389  0.1214  0.1848
 9243TIP3    H127686   7.404   5.320   2.288  0.3324 -0.7073  0.6913
 9243TIP3    H227687   7.548   5.353   2.322  0.3986 -0.1675 -0.0821
 9244TIP3   OH227688   6.775   1.687   4.341  0.1486  0.3354  0.2223
 9244TIP3    H127689   6.767   1.619   4.274  0.6167 -0.5894  1.0833
 9244TIP3    H227690   6.699   1.743   4.327 -0.7888 -0.9248  0.0925
 9245TIP3   OH227691   4.438   1.822   1.668 -0.2679 -0.7591 -0.5766
 9245TIP3    H127692   4.402   1.786   1.749 -0.5389  0.3527 -0.1810
 9245TIP3    H227693   4.526   1.786   1.662  0.6599  1.0162  1.4921
 9246TIP3   OH227694   1.560   1.955   5.293  0.0185  0.8267  0.1604
 9246TIP3    H127695   1.466   1.973   5.294 -0.3288 -0.8918  1.0240
 9246TIP3    H227696   1.581   1.945   5.200 -0.8541  0.2925  0.0052
 9247TIP3   OH227697   0.061   2.802   0.044 -0.1681  0.1460  0.0005
 9247TIP3    H127698   0.068   2.897   0.042  0.7203  0.0971  0.1988
 9247TIP3    H227699   0.004   2.779  -0.029 -1.2557  0.8917  0.5831
 9248TIP3   OH227700   4.050   1.888   6.425 -0.4779  0.3660 -0.7098
 9248TIP3    H127701   3.976   1.893   6.486 -0.6544 -0.2865 -0.8622
 9248TIP3    H227702   4.099   1.969   6.440 -1.6533  1.1962 -1.1556
 9249TIP3   OH227703   5.179   4.906   0.090  0.1876  0.1322  0.2018
 9249TIP3    H127704   5.196   4.995   0.060  0.2135  0.9150  2.3602
 9249TIP3    H227705   5.252   4.886   0.149 -0.2362 -1.0191  0.3591
 9250TIP3   OH227706   7.769   3.237   5.304  0.3174 -0.7993  0.3020
 9250TIP3    H127707   7.681   3.274   5.317  0.3814 -0.7198  0.5143
 9250TIP3    H227708   7.753   3.146   5.281  0.1983 -0.9365  0.9089
 9251TIP3   OH227709   6.610   7.353   5.283 -0.2725 -0.6920  0.2605
 9251TIP3    H127710   6.676   7.354   5.213 -0.0569  0.8186  0.4438
 9251TIP3    H227711   6.603   7.445   5.310 -2.2815 -0.8431  0.4112
 9252TIP3   OH227712   5.325   2.413   0.406  0.3315  0.1959  0.1164
 9252TIP3    H127713   5.355   2.345   0.346  0.2528  0.2240  0.0459
 9252TIP3    H227714   5.406   2.448   0.445  0.4509  0.9272 -0.7754
 9253TIP3   OH227715   6.107   7.478   6.624 -0.1285  0.0490 -0.3085
 9253TIP3    H127716   6.013   7.479   6.639  0.0278  0.9554  0.8183
 9253TIP3    H227717   6.119   7.523   6.540 -0.6318  1.0326  0.1341
 9254TIP3   OH227718   4.383   5.689   2.329  0.0963 -0.1718 -0.1421
 9254TIP3    H127719   4.475   5.687   2.301 -0.3747 -0.6640 -1.7654
 9254TIP3    H227720   4.356   5.598   2.330 -1.2423  0.0827 -2.9306
 9255TIP3   OH227721   6.453   4.598   0.211  0.9554 -0.0548  0.0764
 9255TIP3    H127722   6.426   4.690   0.208 -0.9986 -0.5744  0.3876
 9255TIP3    H227723   6.385   4.552   0.161  0.4518 -1.6145  2.0740
 9256TIP3   OH227724   6.817   7.565   3.982  0.5475 -0.2826 -0.3953
 9256TIP3    H127725   6.735   7.517   3.978  0.1441  0.4614 -1.3521
 9256TIP3    H227726   6.850   7.564   3.892  1.6492 -0.6561 -0.0110
 9257TIP3   OH227727   4.653   1.229   2.461 -0.1084  0.3569  0.5700
 9257TIP3    H127728   4.569   1.239   2.418 -1.2020 -0.4968  2.3830
 9257TIP3    H227729   4.712   1.199   2.391 -1.4995  0.1199 -0.5540
 9258TIP3   OH227730   5.949   0.116   1.648 -0.3196  0.1810  0.4176
 9258TIP3    H127731   5.998   0.150   1.573 -1.3564 -0.3953 -0.5508
 9258TIP3    H227732   5.968   0.177   1.719  1.3492  0.2754 -0.0761
 9259TIP3   OH227733   0.334   6.048   6.767  0.3999  0.8033  0.1936
 9259TIP3    H127734   0.259   6.078   6.818  0.0502  0.6317 -0.2167
 9259TIP3    H227735   0.322   6.087   6.681 -0.7017 -1.3820 -0.7380
 9260TIP3   OH227736   2.468   0.734   2.435 -0.0911  0.0884  0.0708
 9260TIP3    H127737   2.431   0.744   2.347 -0.7025  1.1134  0.4276
 9260TIP3    H227738   2.432   0.808   2.484  0.3967 -0.3699  1.1322
 9261TIP3   OH227739   0.218   0.597   4.929  0.2936 -0.2044  0.6082
 9261TIP3    H127740   0.277   0.530   4.964 -0.1854  0.4401  2.8235
 9261TIP3    H227741   0.135   0.551   4.916  0.0786 -0.1658  1.7382
 9262TIP3   OH227742   3.796   0.766   2.180 -0.0853 -0.2007 -0.7385
 9262TIP3    H127743   3.704   0.790   2.192  0.0363  0.1951 -0.5745
 9262TIP3    H227744   3.833   0.837   2.128  0.6302  0.7456  0.9873
 9263TIP3   OH227745   7.112   5.018   3.659 -0.5198  0.0461  0.5770
 9263TIP3    H127746   7.039   4.960   3.681  0.1769 -1.6179 -1.1189
 9263TIP3    H227747   7.091   5.101   3.700 -2.4043 -0.9349  1.7396
 9264TIP3   OH227748   3.206   4.985   5.613 -0.6202  0.0427 -0.9552
 9264TIP3    H127749   3.248   4.914   5.565 -0.7342 -1.9661  1.7059
 9264TIP3    H227750   3.121   4.995   5.570  0.5904  0.8564 -3.3497
 9265TIP3   OH227751   3.778   4.082   5.356  0.1758  0.0442  0.1707
 9265TIP3    H127752   3.722   4.039   5.292 -1.3565 -1.6700  2.4947
 9265TIP3    H227753   3.773   4.027   5.434  1.1030  2.5290  2.1412
 9266TIP3   OH227754   3.095   5.232   4.151  0.0708  0.1637 -0.2082
 9266TIP3    H127755   3.067   5.279   4.230 -2.3251 -1.0317 -0.2492
 9266TIP3    H227756   3.171   5.182   4.179 -1.0942 -0.7207  1.5727
 9267TIP3   OH227757   3.602   0.896   0.950  0.3065  0.5607  0.4171
 9267TIP3    H127758   3.595   0.947   1.030 -1.9749 -0.7069  1.1120
 9267TIP3    H227759   3.627   0.959   0.882 -1.5242  2.4189  1.3975
 9268TIP3   OH227760   0.121   6.585   0.136  0.3658 -0.2999 -0.1973
 9268TIP3    H127761   0.047   6.529   0.157 -1.1626  1.6155 -0.1992
 9268TIP3    H227762   0.144   6.563   0.046  1.4821 -2.6610  0.6053
 9269TIP3   OH227763   2.904   0.814   3.686  0.6933 -0.2599 -0.3845
 9269TIP3    H127764   2.881   0.727   3.720 -0.7251  0.0686 -0.4516
 9269TIP3    H227765   2.998   0.808   3.666  0.4277 -2.0837 -1.2827
 9270TIP3   OH227766   1.703   7.729   6.532 -0.3350 -0.0609 -0.0932
 9270TIP3    H127767   1.638   7.746   6.463 -0.3076 -0.8671 -0.3296
 9270TIP3    H227768   1.781   7.700   6.485 -0.8458 -2.2876  0.3203
 9271TIP3   OH227769   7.617   2.703   0.556 -0.0079  0.3833  0.1756
 9271TIP3    H127770   7.527   2.694   0.525 -0.2663 -3.7128  1.5958
 9271TIP3    H227771   7.611   2.693   0.651  1.9525 -0.4954  0.2452
 9272TIP3   OH227772   3.585   1.607   0.765  0.1817 -0.1957 -0.4864
 9272TIP3    H127773   3.554   1.526   0.725  1.5138 -0.4187 -1.1201
 9272TIP3    H227774   3.647   1.578   0.832  2.7052  0.3033 -2.4777
 9273TIP3   OH227775   5.412   6.078   0.696  0.0446 -0.5065  0.1359
 9273TIP3    H127776   5.410   6.030   0.779  2.1643 -0.0784  0.4984
 9273TIP3    H227777   5.401   6.010   0.629 -0.7229 -0.9838  0.7233
 9274TIP3   OH227778   7.204   5.993   2.310  0.0273 -0.2137  0.3829
 9274TIP3    H127779   7.296   5.975   2.330 -0.0917 -1.4742 -0.1367
 9274TIP3    H227780   7.185   5.940   2.233 -1.1800 -0.0831  0.5688
 9275TIP3   OH227781   1.823   6.524   6.560 -0.2122 -0.2164  0.0535
 9275TIP3    H127782   1.885   6.595   6.541  0.7934 -0.7881  1.1513
 9275TIP3    H227783   1.742   6.552   6.516  0.6660  0.7630 -1.0165
 9276TIP3   OH227784   5.656   5.034   2.920  0.3490  0.0414 -0.0045
 9276TIP3    H127785   5.721   5.013   2.851  1.7263 -0.5557  1.4056
 9276TIP3    H227786   5.645   5.129   2.914  1.4420  0.1721 -0.2167
 9277TIP3   OH227787   7.721   6.107   5.377 -0.3999  0.1299  0.2129
 9277TIP3    H127788   7.732   6.150   5.293  0.9686 -0.2913  0.1496
 9277TIP3    H227789   7.785   6.035   5.376 -0.8237 -0.2921  1.3425
 9278TIP3   OH227790   5.769   1.455   5.655 -0.8037 -0.1589 -0.1150
 9278TIP3    H127791   5.677   1.475   5.671 -0.7333 -1.0812  1.6807
 9278TIP3    H227792   5.816   1.531   5.688 -0.9126  0.2979 -1.0013
 9279TIP3   OH227793   3.760   3.893   3.434  0.1918 -0.3395  0.1523
 9279TIP3    H127794   3.792   3.958   3.497  2.9530  0.3141 -1.7364
 9279TIP3    H227795   3.798   3.810   3.463  0.1357 -0.3350  0.2381
 9280TIP3   OH227796   3.848   4.798   3.586  0.0205 -0.1779  0.1946
 9280TIP3    H127797   3.846   4.758   3.500  0.3865 -0.8081  0.4728
 9280TIP3    H227798   3.925   4.761   3.628  0.3877  0.8347  0.4551
 9281TIP3   OH227799   2.053   0.264   2.953 -0.5504  0.0254  0.4759
 9281TIP3    H127800   1.965   0.237   2.979 -0.4088 -0.2733  0.6370
 9281TIP3    H227801   2.098   0.183   2.930 -0.3451  0.1864  0.2986
 9282TIP3   OH227802   1.565   7.550   3.541 -0.4137  0.3037  0.2508
 9282TIP3    H127803   1.481   7.508   3.519  0.4806 -1.3114 -0.2906
 9282TIP3    H227804   1.545   7.605   3.617 -1.9481 -0.1150  0.1913
 9283TIP3   OH227805   4.162   4.041   5.273  0.1402  0.0690  0.3664
 9283TIP3    H127806   4.253   4.042   5.242  0.9199 -0.2165  2.4751
 9283TIP3    H227807   4.117   3.982   5.212  0.6817  2.2455 -2.3416
 9284TIP3   OH227808   7.694   2.425   0.076  0.1209 -0.2004 -0.2738
 9284TIP3    H127809   7.607   2.415   0.036  0.2127 -2.3554 -0.0620
 9284TIP3    H227810   7.675   2.450   0.167 -0.1507  2.1750 -0.9168
 9285TIP3   OH227811   3.481   0.876   5.065  0.2062 -0.0981  0.5947
 9285TIP3    H127812   3.565   0.916   5.039 -0.2257  0.0015 -0.6880
 9285TIP3    H227813   3.487   0.786   5.035 -0.5441  0.1823 -0.4313
 9286TIP3   OH227814   7.370   2.993   6.780  0.4544  0.7784  0.0886
 9286TIP3    H127815   7.443   2.934   6.796  0.6822  1.0648  0.1159
 9286TIP3    H227816   7.320   2.951   6.710  0.6141  0.5551  0.1081
 9287TIP3   OH227817   1.568   1.025   2.613 -0.0096 -0.2923 -0.1666
 9287TIP3    H127818   1.585   1.055   2.703  0.4485  0.7894 -0.6022
 9287TIP3    H227819   1.632   1.071   2.560 -1.0274 -0.0436 -1.2075
 9288TIP3   OH227820   2.831   2.482   4.623 -0.2484  0.0708  0.4515
 9288TIP3    H127821   2.884   2.443   4.554 -1.4207 -1.3207  0.2812
 9288TIP3    H227822   2.847   2.576   4.616  0.3968 -0.1315 -1.0824
 9289TIP3   OH227823   5.284   5.912   0.020  0.0877 -0.4303 -0.0806
 9289TIP3    H127824   5.251   5.984   0.075  2.1062  0.4665  0.0420
 9289TIP3    H227825   5.208   5.885  -0.031 -0.6606  2.1501 -0.4964
 9290TIP3   OH227826   5.688   3.292   1.400 -0.0828 -0.3999  0.2677
 9290TIP3    H127827   5.758   3.227   1.395  0.3344  0.0978 -0.5274
 9290TIP3    H227828   5.676   3.307   1.494 -0.6943 -2.1478  0.4971
 9291TIP3   OH227829   3.650   1.340   1.141 -0.7783 -1.0423 -0.3112
 9291TIP3    H127830   3.693   1.285   1.075  1.2585 -0.8690  0.7994
 9291TIP3    H227831   3.679   1.429   1.122  0.0682 -1.0237  0.9600
 9292TIP3   OH227832   2.957   2.173   4.866 -0.0397 -0.4379  0.3362
 9292TIP3    H127833   2.962   2.160   4.772 -0.6752 -0.8820  0.3565
 9292TIP3    H227834   2.962   2.084   4.903 -3.0638 -0.6293  0.5527
 9293TIP3   OH227835   6.457   4.467   1.126  0.1220 -0.4097 -0.1215
 9293TIP3    H127836   6.436   4.554   1.091 -1.3023 -1.1119 -1.1338
 9293TIP3    H227837   6.491   4.419   1.051 -1.9620 -1.6146 -0.3930
 9294TIP3   OH227838   0.088   4.690   4.880  0.3776 -0.2101 -0.3249
 9294TIP3    H127839   0.139   4.749   4.935 -1.2626  0.7432  0.2362
 9294TIP3    H227840   0.020   4.655   4.937 -0.9401  0.2512 -1.5534
 9295TIP3   OH227841   5.942   5.149   1.352  0.4786  0.5205  0.1363
 9295TIP3    H127842   5.855   5.147   1.390  0.9211 -0.4031  1.1713
 9295TIP3    H227843   5.993   5.087   1.406  1.6252  0.6423 -0.7687
 9296TIP3   OH227844   2.036   4.894   3.469  0.1808  0.5952 -0.1297
 9296TIP3    H127845   2.011   4.805   3.494  1.5816  0.0218 -0.6537
 9296TIP3    H227846   1.988   4.951   3.529  1.0332 -0.5940  1.7531
 9297TIP3   OH227847   4.277   1.676   4.858  0.0197 -0.3558  0.3586
 9297TIP3    H127848   4.355   1.622   4.874 -1.0588 -1.8180  0.8274
 9297TIP3    H227849   4.291   1.712   4.770  1.6446  0.1883  0.7896
 9298TIP3   OH227850   0.749   1.348   1.624 -0.3055 -0.0159 -0.1238
 9298TIP3    H127851   0.663   1.350   1.665  0.0035 -0.4181  0.5709
 9298TIP3    H227852   0.755   1.260   1.586 -0.3076  0.1074 -0.4141
 9299TIP3   OH227853   0.965   0.030   2.038 -0.0019  0.2296  0.4619
 9299TIP3    H127854   1.050  -0.000   2.005 -0.2167 -1.0396  0.9903
 9299TIP3    H227855   0.958  -0.010   2.125 -0.5236  1.4943  1.0250
 9300TIP3   OH227856   1.267   2.513   0.653  0.1487 -0.4225 -0.4460
 9300TIP3    H127857   1.193   2.547   0.702 -0.6436 -1.4939 -0.8520
 9300TIP3    H227858   1.279   2.574   0.581  0.8710  0.7746  0.6498
 9301TIP3   OH227859   6.628   4.168   3.527  0.6810  0.1250  0.0850
 9301TIP3    H127860   6.630   4.243   3.587  1.2301 -0.8663  1.3508
 9301TIP3    H227861   6.667   4.096   3.577  1.2808 -0.7144 -1.5157
 9302TIP3   OH227862   0.410   4.016   0.698  0.3104 -0.1663  0.3433
 9302TIP3    H127863   0.322   4.009   0.734  0.2128  0.2248  0.1838
 9302TIP3    H227864   0.435   3.927   0.675 -0.6256 -0.0976 -1.0244
 9303TIP3   OH227865   3.742   1.811   6.153 -0.0967  0.5303  0.3108
 9303TIP3    H127866   3.775   1.785   6.067 -0.4676 -1.0399  0.6262
 9303TIP3    H227867   3.655   1.845   6.136  0.6134  2.2258 -0.1773
 9304TIP3   OH227868   2.914   1.213   0.373  0.4704  0.1829 -0.2025
 9304TIP3    H127869   2.922   1.269   0.450 -0.0338 -1.2340  0.9015
 9304TIP3    H227870   2.822   1.224   0.346  0.2449 -0.4705  0.2958
 9305TIP3   OH227871   4.961   5.060   6.170  0.4751  0.9554  0.0774
 9305TIP3    H127872   5.014   5.072   6.248 -1.3145  0.5079  1.4331
 9305TIP3    H227873   4.952   4.965   6.161 -0.0128  1.0217 -0.1809
 9306TIP3   OH227874   0.860   4.034   3.207  0.1000 -0.4929  0.4166
 9306TIP3    H127875   0.912   4.100   3.253 -0.4846 -1.2307  2.2618
 9306TIP3    H227876   0.771   4.069   3.209 -0.1654 -1.1614  1.1622
 9307TIP3   OH227877   2.270   3.752   5.792  0.1158 -0.1258  0.1691
 9307TIP3    H127878   2.239   3.695   5.721 -0.9654  0.1273  0.4285
 9307TIP3    H227879   2.231   3.716   5.871  0.8799 -0.0788  0.5748
 9308TIP3   OH227880   0.497   5.382   0.376  0.0349 -0.2784 -0.4378
 9308TIP3    H127881   0.557   5.456   0.366  2.3639 -1.9671  0.1145
 9308TIP3    H227882   0.538   5.327   0.443 -1.9957 -1.6870 -0.2695
 9309TIP3   OH227883   5.434   6.619   1.512 -0.3109 -0.3495 -0.2056
 9309TIP3    H127884   5.339   6.628   1.526 -0.1353  0.0891  0.7878
 9309TIP3    H227885   5.464   6.567   1.587  0.4493  0.7701  0.2804
 9310TIP3   OH227886   2.956   5.093   2.329  0.6117  0.3570 -0.0439
 9310TIP3    H127887   3.047   5.063   2.333  0.8288  1.0803  0.7327
 9310TIP3    H227888   2.960   5.186   2.349 -0.1178  0.8268 -1.8410
 9311TIP3   OH227889   7.413   3.998   5.904  0.4298 -0.0953 -0.0457
 9311TIP3    H127890   7.463   3.937   5.850  0.8906 -1.3801  1.7561
 9311TIP3    H227891   7.322   3.983   5.879  0.6429 -0.5559 -0.5666
 9312TIP3   OH227892   1.956   2.089   6.609 -0.5142 -0.4272 -0.0452
 9312TIP3    H127893   1.945   2.091   6.514  1.6278  2.0327 -0.3793
 9312TIP3    H227894   1.914   2.169   6.639  0.1023 -0.4310  0.8595
 9313TIP3   OH227895   3.200   7.163   1.288  0.0938 -0.8275 -0.1390
 9313TIP3    H127896   3.136   7.233   1.275 -0.2514 -0.9847  0.6591
 9313TIP3    H227897   3.221   7.133   1.199  0.3764  0.3924 -0.5047
 9314TIP3   OH227898   2.825   7.701   1.788  0.9481  0.0096 -0.0094
 9314TIP3    H127899   2.832   7.765   1.859  0.3864 -3.2510  3.2349
 9314TIP3    H227900   2.731   7.683   1.782  0.8758  0.8152 -2.2883
 9315TIP3   OH227901   6.464   0.672   0.060 -0.8618  0.3064  0.0480
 9315TIP3    H127902   6.371   0.655   0.047 -1.2347  1.1156  1.5055
 9315TIP3    H227903   6.473   0.767   0.048  0.1559  0.0173 -2.0394
 9316TIP3   OH227904   0.181   7.263   5.050 -0.4906  0.6310  0.2577
 9316TIP3    H127905   0.238   7.314   5.108 -1.0299  2.2512 -0.5727
 9316TIP3    H227906   0.241   7.215   4.993  0.0477  1.3972  0.1674
 9317TIP3   OH227907   6.291   0.156   4.322  0.1574 -0.1855 -0.8221
 9317TIP3    H127908   6.351   0.086   4.348  1.5393  0.8983 -0.9634
 9317TIP3    H227909   6.301   0.222   4.390  0.3915  0.7291 -1.7176
 9318TIP3   OH227910   6.912   3.741   2.401 -0.1505 -0.4767  0.5152
 9318TIP3    H127911   6.868   3.794   2.335  0.1072 -1.2141 -0.2534
 9318TIP3    H227912   6.955   3.805   2.458  1.0859  0.1391 -1.0360
 9319TIP3   OH227913   2.051   3.410   4.616  0.4847 -0.4775  0.1728
 9319TIP3    H127914   2.139   3.373   4.624  1.5860  0.9245 -3.5531
 9319TIP3    H227915   2.000   3.341   4.573  0.4906 -0.3074 -0.1032
 9320TIP3   OH227916   6.071   6.594   4.501  0.4322  0.3963 -0.5013
 9320TIP3    H127917   6.028   6.546   4.572 -0.2485  1.5353 -0.1087
 9320TIP3    H227918   5.999   6.632   4.451  0.9380  2.0498 -0.0438
 9321TIP3   OH227919   4.998   1.772   0.254 -0.4135  0.2631  0.1731
 9321TIP3    H127920   5.024   1.723   0.332 -0.9771 -0.2009  0.0756
 9321TIP3    H227921   4.914   1.811   0.278  0.7081  2.4410  0.7954
 9322TIP3   OH227922   3.253   2.500   0.351  0.9330 -0.4653  0.3574
 9322TIP3    H127923   3.215   2.511   0.264  0.4946 -3.3177  0.0772
 9322TIP3    H227924   3.209   2.566   0.405 -0.8802 -0.4922 -0.9821
 9323TIP3   OH227925   8.200   1.685   2.744  0.2402  0.1487  0.4657
 9323TIP3    H127926   8.255   1.607   2.754 -1.2379 -0.8336  1.2602
 9323TIP3    H227927   8.121   1.653   2.701 -0.6418  1.0927  1.3339
 9324TIP3   OH227928   4.802   4.868   3.621 -0.2042  0.0437 -0.0779
 9324TIP3    H127929   4.788   4.785   3.575  0.5012  0.5887 -1.3124
 9324TIP3    H227930   4.890   4.861   3.657  0.2425  0.6341 -1.0313
 9325TIP3   OH227931   0.689   7.426   5.022  0.0546 -0.3384 -0.4952
 9325TIP3    H127932   0.767   7.392   5.066 -0.1275 -0.5595 -0.3455
 9325TIP3    H227933   0.643   7.477   5.089  1.3676  1.9530 -1.2188
 9326TIP3   OH227934   0.469   2.600   5.447  0.5460  0.0464  0.6605
 9326TIP3    H127935   0.517   2.625   5.526  0.8312  0.6414  0.3065
 9326TIP3    H227936   0.481   2.505   5.440  1.1327  0.0966  0.9246
 9327TIP3   OH227937   6.222   3.275   5.278  0.1196  0.0819  0.0693
 9327TIP3    H127938   6.251   3.189   5.247 -0.0433  0.3622 -0.8860
 9327TIP3    H227939   6.154   3.301   5.216 -0.9595  0.2008  1.2762
 9328TIP3   OH227940   1.364   6.319   0.587 -0.1566 -0.1114 -0.4124
 9328TIP3    H127941   1.442   6.278   0.549  0.0482 -0.9275  0.8363
 9328TIP3    H227942   1.311   6.344   0.511  0.8196 -0.5235 -1.2571
 9329TIP3   OH227943   7.428   7.183   1.709  0.2620 -0.5614  0.2446
 9329TIP3    H127944   7.418   7.254   1.772  1.1882  0.4112 -0.6694
 9329TIP3    H227945   7.374   7.209   1.634 -1.0226 -1.8198  0.6880
 9330TIP3   OH227946   3.445   1.568   1.356  0.5866 -0.2601  0.3186
 9330TIP3    H127947   3.538   1.572   1.378  0.5869 -1.1608  0.5210
 9330TIP3    H227948   3.432   1.637   1.291  1.8797 -1.6369 -1.4868
 9331TIP3   OH227949   8.303   7.419   0.772 -0.3322  0.0714 -0.1745
 9331TIP3    H127950   8.278   7.508   0.746 -2.4212 -0.7229 -1.1172
 9331TIP3    H227951   8.253   7.402   0.852 -0.9787 -0.6837 -0.7185
 9332TIP3   OH227952   1.479   4.514   6.516  0.6176 -0.6741  0.3159
 9332TIP3    H127953   1.462   4.512   6.610  1.9075 -0.6327  0.5589
 9332TIP3    H227954   1.545   4.582   6.504  1.1444 -1.3086 -0.5047
 9333TIP3   OH227955   1.919   5.507   6.466  0.0179 -0.1215 -0.0598
 9333TIP3    H127956   1.882   5.515   6.554  2.8366 -1.3649  1.3689
 9333TIP3    H227957   1.941   5.597   6.442 -2.8681  0.5436 -0.6003
 9334TIP3   OH227958   7.314   3.644   6.405  0.6619 -0.5096  0.6333
 9334TIP3    H127959   7.398   3.679   6.434 -0.7407  2.0523  1.9910
 9334TIP3    H227960   7.319   3.645   6.309  2.0488 -0.0829  0.6843
 9335TIP3   OH227961   5.756   3.470   4.067 -0.6463 -0.3032  0.1411
 9335TIP3    H127962   5.707   3.515   4.136 -3.0607 -1.3067 -0.7955
 9335TIP3    H227963   5.776   3.538   4.003  0.0696  0.2946  0.9663
 9336TIP3   OH227964   4.044   2.974   5.275 -0.2178 -0.1284  0.7108
 9336TIP3    H127965   4.031   2.890   5.318  1.4107 -0.5951  0.3490
 9336TIP3    H227966   3.960   2.994   5.235 -0.1599 -2.4657 -0.7296
 9337TIP3   OH227967   7.083   5.726   1.790 -0.3598  0.1693  0.2670
 9337TIP3    H127968   7.123   5.779   1.722  0.9421 -0.7012  0.3216
 9337TIP3    H227969   7.068   5.787   1.862  3.2793  0.1366  1.2404
 9338TIP3   OH227970   4.745   4.864   0.952  0.1174  0.3056  0.3665
 9338TIP3    H127971   4.688   4.837   0.881  1.4696  0.6570 -0.9137
 9338TIP3    H227972   4.828   4.819   0.934  0.5948  0.6882  1.5213
 9339TIP3   OH227973   4.232   4.085   1.639 -0.1038 -0.2470  0.2995
 9339TIP3    H127974   4.151   4.034   1.649 -0.4260  0.5058  2.0259
 9339TIP3    H227975   4.289   4.030   1.586 -1.8683 -0.6381 -1.3178
 9340TIP3   OH227976   0.473   6.446   1.000  0.7164  0.5229 -0.0865
 9340TIP3    H127977   0.473   6.374   0.938 -0.8679 -0.6482  1.1900
 9340TIP3    H227978   0.395   6.497   0.978 -0.9804 -0.9771  2.0067
 9341TIP3   OH227979   5.235   2.998   0.088 -0.0116 -0.3157 -0.0076
 9341TIP3    H127980   5.301   3.026   0.151  0.0934  0.5595 -0.4932
 9341TIP3    H227981   5.152   2.998   0.137  0.2749 -1.0296  0.4937
 9342TIP3   OH227982   0.739   3.005   5.350  0.0022 -0.1417  0.1398
 9342TIP3    H127983   0.707   3.013   5.440 -1.5639  1.7912 -0.5193
 9342TIP3    H227984   0.810   3.069   5.344 -0.6007  0.5019 -0.2665
 9343TIP3   OH227985   1.139   3.489   3.465 -0.2437  0.0210 -0.3473
 9343TIP3    H127986   1.216   3.446   3.426  1.2756  1.2052  1.2441
 9343TIP3    H227987   1.067   3.462   3.408  1.0906 -2.2435 -1.1265
 9344TIP3   OH227988   2.825   4.079   0.053 -0.2582 -0.0444 -0.2533
 9344TIP3    H127989   2.810   4.051  -0.037 -0.5843  0.9033 -0.5054
 9344TIP3    H227990   2.913   4.046   0.074 -0.1722 -0.2537 -0.9144
 9345TIP3   OH227991   6.029   2.541   2.944 -0.0244 -0.7236 -0.1156
 9345TIP3    H127992   5.978   2.609   2.900  0.4792  0.0574  0.4996
 9345TIP3    H227993   6.119   2.557   2.917  0.4156  0.2614  1.7697
 9346TIP3   OH227994   6.992   6.590   5.675 -0.6903 -0.5784  0.3202
 9346TIP3    H127995   7.002   6.657   5.608  3.0617 -2.7045 -1.5733
 9346TIP3    H227996   7.054   6.615   5.744 -0.3686 -1.2913  0.2978
 9347TIP3   OH227997   5.291   7.037   2.576 -0.5416 -0.6006 -0.2014
 9347TIP3    H127998   5.262   6.956   2.534  0.0110  0.6281 -3.1721
 9347TIP3    H227999   5.218   7.098   2.562 -0.7079 -0.3496  1.4962
 9348TIP3   OH228000   0.027   4.662   3.177  0.0964 -0.9161 -0.2698
 9348TIP3    H128001   0.062   4.573   3.170 -1.2621 -1.4543 -0.5077
 9348TIP3    H228002  -0.027   4.660   3.256 -0.2354 -0.4020 -0.4800
 9349TIP3   OH228003   5.338   5.346   3.031  0.0586 -0.4643  0.5435
 9349TIP3    H128004   5.318   5.435   3.059 -1.0314 -0.8321  0.9794
 9349TIP3    H228005   5.324   5.347   2.937  2.1401  0.3530  0.1849
 9350TIP3   OH228006   8.124   3.386   5.716 -0.3484  0.5537  0.1767
 9350TIP3    H128007   8.056   3.324   5.690  0.0675  0.2010 -0.0727
 9350TIP3    H228008   8.108   3.463   5.661 -0.8929  0.6911  0.5200
 9351TIP3   OH228009   1.396   0.038   2.383 -0.3080 -0.0004 -0.8238
 9351TIP3    H128010   1.374   0.007   2.296  0.5995 -2.7916 -0.1463
 9351TIP3    H228011   1.320   0.090   2.410 -0.1438  1.8823 -3.6279
 9352TIP3   OH228012   1.580   6.732   6.148 -0.0121  0.1075 -0.1714
 9352TIP3    H128013   1.590   6.640   6.125  0.2968 -0.2257  1.2287
 9352TIP3    H228014   1.611   6.738   6.238 -0.5842  1.4689 -0.0409
 9353TIP3   OH228015   5.411   7.669   4.672  0.1539 -0.5926  0.0169
 9353TIP3    H128016   5.442   7.655   4.762  0.9101  2.2870  0.3127
 9353TIP3    H228017   5.445   7.755   4.649 -0.9209 -0.8110 -2.6844
 9354TIP3   OH228018   2.109   2.823   2.173 -0.1099 -0.0379  0.2201
 9354TIP3    H128019   2.190   2.865   2.202  0.8951 -1.6136 -0.1545
 9354TIP3    H228020   2.077   2.778   2.252  0.3074 -0.7934 -0.0303
 9355TIP3   OH228021   5.555   1.402   3.154 -0.2945 -0.0942 -0.5600
 9355TIP3    H128022   5.548   1.331   3.091 -0.7113 -1.2145  0.7024
 9355TIP3    H228023   5.493   1.468   3.123  0.2375 -0.1859 -1.8475
 9356TIP3   OH228024   1.946   5.591   1.030 -0.5705 -0.0771  0.0392
 9356TIP3    H128025   1.924   5.501   1.052 -1.2435 -0.4398 -1.9991
 9356TIP3    H228026   2.036   5.586   0.998 -0.3966  0.0959  0.4820
 9357TIP3   OH228027   5.462   4.921  -0.021 -0.0480 -0.4788  0.0055
 9357TIP3    H128028   5.486   4.954   0.065  1.1980  1.8782 -1.1645
 9357TIP3    H228029   5.529   4.856  -0.042  0.9650  0.5438 -0.0490
 9358TIP3   OH228030   3.619   3.539   0.303  0.0289  0.2045  0.3525
 9358TIP3    H128031   3.619   3.558   0.209 -1.3636 -0.7561  0.1260
 9358TIP3    H228032   3.597   3.623   0.344  2.1681  1.0156 -0.0404
 9359TIP3   OH228033   7.764   6.532   2.948 -0.2819 -0.2395 -0.3143
 9359TIP3    H128034   7.691   6.501   3.002  0.3051 -0.0485  0.5995
 9359TIP3    H228035   7.730   6.613   2.907 -0.6322 -0.2306 -0.0156
 9360TIP3   OH228036   5.638   6.711   4.848  0.3708  0.6204 -0.2492
 9360TIP3    H128037   5.582   6.784   4.822  0.6287  0.5421 -1.0262
 9360TIP3    H228038   5.608   6.638   4.795 -0.6183 -0.1498  1.2958
 9361TIP3   OH228039   5.716   3.453   0.991  0.5106  0.2290 -0.0303
 9361TIP3    H128040   5.650   3.403   1.039  0.1091  0.9431  0.1725
 9361TIP3    H228041   5.700   3.544   1.016 -0.7682  0.8495 -2.7254
 9362TIP3   OH228042   7.660   5.100   4.449 -0.2846  0.1834  0.0437
 9362TIP3    H128043   7.689   5.118   4.359 -3.0219 -2.0399 -1.4641
 9362TIP3    H228044   7.584   5.043   4.438  0.4523 -1.8858  3.8509
 9363TIP3   OH228045   2.203   1.657   6.577 -0.0731  0.0506 -0.3092
 9363TIP3    H128046   2.273   1.600   6.609  0.2935  0.3230 -0.6105
 9363TIP3    H228047   2.133   1.597   6.552  0.2578 -0.2613 -0.5045
 9364TIP3   OH228048   5.478   5.914   1.178 -0.4566  0.0228  0.2425
 9364TIP3    H128049   5.450   5.824   1.188  1.1334 -0.5741 -0.3003
 9364TIP3    H228050   5.548   5.925   1.243  1.6651 -0.2142 -1.8655
 9365TIP3   OH228051   1.550   4.102   5.771  1.2531  0.4336 -0.2002
 9365TIP3    H128052   1.559   4.007   5.771  1.7294  0.4246 -2.1101
 9365TIP3    H228053   1.580   4.129   5.858 -1.8812 -1.3302  1.6121
 9366TIP3   OH228054   5.462   3.486   5.724 -0.0723 -0.0434 -0.2105
 9366TIP3    H128055   5.535   3.507   5.782 -0.1023 -0.7607  0.1036
 9366TIP3    H228056   5.499   3.492   5.635  0.0654  0.7121 -0.1012
 9367TIP3   OH228057   7.520   2.245   4.557 -0.0623  0.2796 -0.2945
 9367TIP3    H128058   7.433   2.211   4.533  0.1751  0.8829 -2.1430
 9367TIP3    H228059   7.572   2.166   4.576 -1.2940 -0.0569  2.1352
 9368TIP3   OH228060   7.889   4.833   3.239 -0.1462  0.1551 -0.0500
 9368TIP3    H128061   7.917   4.910   3.189 -0.4298  0.2822 -0.0110
 9368TIP3    H228062   7.810   4.861   3.284  0.7892  0.4572  1.4885
 9369TIP3   OH228063   5.339   6.020   0.404 -0.1178  0.2256  0.0746
 9369TIP3    H128064   5.403   6.049   0.339 -0.4708 -1.6806 -1.2169
 9369TIP3    H228065   5.335   5.925   0.392 -1.6854  0.0640  1.5370
 9370TIP3   OH228066   8.102   2.278   2.692 -0.1031  0.2235  0.0018
 9370TIP3    H128067   8.152   2.245   2.767  0.2599 -2.3506 -1.2856
 9370TIP3    H228068   8.168   2.296   2.625 -0.5955  0.5878 -0.3938
 9371TIP3   OH228069   2.193   1.425   2.193 -0.4702  0.6496  0.4841
 9371TIP3    H128070   2.243   1.361   2.244 -0.8791  0.6668  0.9093
 9371TIP3    H228071   2.104   1.391   2.194 -0.0734 -0.8641 -2.5466
 9372TIP3   OH228072   3.536   2.359   2.267  0.1494 -0.0801  0.3220
 9372TIP3    H128073   3.543   2.416   2.344 -1.6471 -1.3737  1.5197
 9372TIP3    H228074   3.466   2.298   2.289 -1.2154  0.1966 -2.8299
 9373TIP3   OH228075   6.406   2.101   6.474  0.3690  0.2282 -0.3747
 9373TIP3    H128076   6.410   2.017   6.521 -1.7667  0.4822  0.3634
 9373TIP3    H228077   6.325   2.096   6.423 -0.5589  2.3485  0.7841
 9374TIP3   OH228078   0.198   0.482   1.328 -0.5864 -0.1457  0.4892
 9374TIP3    H128079   0.231   0.526   1.406 -3.1812 -2.5729  3.2237
 9374TIP3    H228080   0.212   0.389   1.345 -0.7831 -0.7697 -2.2413
 9375TIP3   OH228081   3.427   3.200   2.887  0.2819 -1.0420 -0.3165
 9375TIP3    H128082   3.436   3.295   2.876 -1.7061 -0.8837 -1.0891
 9375TIP3    H228083   3.397   3.189   2.977  1.7718 -1.0672  0.1944
 9376TIP3   OH228084   2.085   6.420   0.402  0.2934  0.5073 -0.1635
 9376TIP3    H128085   2.143   6.377   0.465  0.1627  2.2946  1.2408
 9376TIP3    H228086   2.141   6.485   0.359 -0.3703  1.4103  0.3297
 9377TIP3   OH228087   0.797   7.301   4.010  0.9303 -0.3178  0.7936
 9377TIP3    H128088   0.721   7.353   4.037  1.2297 -0.2190  1.4720
 9377TIP3    H228089   0.840   7.277   4.092  3.4223  2.2905  0.4176
 9378TIP3   OH228090   1.520   3.297   2.920 -0.1886  0.3794  0.0695
 9378TIP3    H128091   1.550   3.211   2.950 -0.1290 -0.2096 -1.5534
 9378TIP3    H228092   1.599   3.351   2.921 -0.3206  0.5775  1.5571
 9379TIP3   OH228093   4.500   4.501   0.112 -0.0957  0.7504 -0.0493
 9379TIP3    H128094   4.560   4.501   0.187 -0.8618  0.4070  0.5884
 9379TIP3    H228095   4.483   4.408   0.095 -0.0482  0.8329 -0.5441
 9380TIP3   OH228096   2.127   4.975   2.577 -0.0010  0.3992 -0.2791
 9380TIP3    H128097   2.045   4.970   2.527  0.9701 -0.6637 -1.8469
 9380TIP3    H228098   2.191   5.011   2.514  0.7853  1.0616  0.8658
 9381TIP3   OH228099   1.390   2.847   1.327 -0.0836 -0.3686 -0.8676
 9381TIP3    H128100   1.470   2.883   1.289 -0.8453  0.6968 -1.5160
 9381TIP3    H228101   1.412   2.755   1.345  1.9959  0.4213  1.1014
 9382TIP3   OH228102   4.347   3.409   5.440 -0.3394 -0.0112 -0.0286
 9382TIP3    H128103   4.335   3.501   5.465 -1.0843 -0.5887  1.9263
 9382TIP3    H228104   4.413   3.376   5.502 -0.6682 -0.9819 -0.1814
 9383TIP3   OH228105   5.461   1.455   0.135  0.2600 -0.5531  0.0408
 9383TIP3    H128106   5.500   1.428   0.218 -0.5658 -1.3257  0.1899
 9383TIP3    H228107   5.396   1.388   0.116 -0.8148  0.5658 -0.3374
 9384TIP3   OH228108   1.194   5.083   3.028  0.3475 -0.6942 -0.0883
 9384TIP3    H128109   1.277   5.111   3.067  0.2661  1.4585 -1.2938
 9384TIP3    H228110   1.166   5.008   3.081  1.9038 -0.0318  1.7786
 9385TIP3   OH228111   0.317   6.847   2.172 -0.6538 -0.2506 -0.0084
 9385TIP3    H128112   0.299   6.828   2.080 -0.3576 -0.3267 -0.0549
 9385TIP3    H228113   0.413   6.850   2.177 -0.6676  1.7988 -0.1097
 9386TIP3   OH228114   5.168   3.575   5.567 -0.4161 -0.4944 -0.4757
 9386TIP3    H128115   5.147   3.662   5.532  1.3721  0.9543  1.7423
 9386TIP3    H228116   5.214   3.531   5.495  1.6389  1.7240 -0.6535
 9387TIP3   OH228117   5.253   0.974   6.472 -0.4059 -0.5667 -0.5670
 9387TIP3    H128118   5.201   0.904   6.512 -1.4591  0.8168  0.5975
 9387TIP3    H228119   5.192   1.020   6.414  0.0992 -0.2416 -0.8545
 9388TIP3   OH228120   4.675   5.566   1.482  0.4295 -0.2866  0.2225
 9388TIP3    H128121   4.680   5.619   1.562  1.5129 -0.8782  0.5730
 9388TIP3    H228122   4.663   5.477   1.513 -3.0162 -0.1549 -0.4045
 9389TIP3   OH228123   8.057   0.414   2.901 -0.5383  0.3270  0.3163
 9389TIP3    H128124   8.038   0.345   2.965 -0.4568  0.7492  0.7999
 9389TIP3    H228125   8.141   0.450   2.930 -0.4514  0.4493 -0.0923
 9390TIP3   OH228126   6.155   0.512   5.334  0.4450 -0.2729 -1.0086
 9390TIP3    H128127   6.095   0.443   5.308 -0.3514 -0.3565  0.8449
 9390TIP3    H228128   6.184   0.486   5.421  1.1099  1.0914 -0.8011
 9391TIP3   OH228129   5.491   4.366   2.765  0.3540  0.2848  0.6209
 9391TIP3    H128130   5.425   4.372   2.835  1.0481 -0.7710  1.4040
 9391TIP3    H228131   5.454   4.417   2.693 -1.4840 -0.5278  0.9181
 9392TIP3   OH228132   6.775   5.980   2.348  0.7765 -0.1610 -0.2359
 9392TIP3    H128133   6.798   5.897   2.391  1.9175  0.1167 -0.2682
 9392TIP3    H228134   6.690   6.004   2.385  1.9776  0.4006  2.4114
 9393TIP3   OH228135   4.310   7.698   1.383  0.4262 -0.0137  0.5374
 9393TIP3    H128136   4.327   7.732   1.471 -0.2658 -0.1657  0.7335
 9393TIP3    H228137   4.217   7.678   1.383  0.1495  1.1223 -0.6104
 9394TIP3   OH228138   4.793   6.540   5.546 -0.3774 -0.0478  0.4414
 9394TIP3    H128139   4.756   6.628   5.538 -0.5947 -0.3086 -2.4746
 9394TIP3    H228140   4.725   6.482   5.513  0.5187 -1.1090  0.4055
 9395TIP3   OH228141   2.956   2.111   5.290  0.3128  0.5313 -0.4214
 9395TIP3    H128142   3.034   2.099   5.236  0.3151  2.4435 -0.9312
 9395TIP3    H228143   2.964   2.200   5.325 -1.0063  0.3017  0.5659
 9396TIP3   OH228144   3.624   5.604   5.207 -0.1613  0.4878  0.0626
 9396TIP3    H128145   3.579   5.557   5.277 -2.3668  0.9507 -0.9619
 9396TIP3    H228146   3.577   5.687   5.200  1.5668  1.4611 -0.3603
 9397TIP3   OH228147   5.126   0.203   2.912  0.5770 -0.3853 -0.1013
 9397TIP3    H128148   5.173   0.136   2.862  1.1906 -0.1151  0.1125
 9397TIP3    H228149   5.189   0.234   2.976  0.0003 -0.2561  0.4150
 9398TIP3   OH228150   2.762   7.026   5.019  0.5103  0.1532  0.5378
 9398TIP3    H128151   2.720   6.967   5.082 -0.1907  0.2691  0.1816
 9398TIP3    H228152   2.828   6.971   4.975  1.8726  0.3695  2.1967
 9399TIP3   OH228153   3.802   2.556   5.823 -0.1215  0.3652  0.1939
 9399TIP3    H128154   3.713   2.538   5.794  0.2343  1.2730 -1.5575
 9399TIP3    H228155   3.791   2.607   5.903 -1.1437 -0.4884  0.6284
 9400TIP3   OH228156   5.684   6.322   2.523 -0.1260 -0.1484 -0.1880
 9400TIP3    H128157   5.660   6.232   2.502 -0.3229 -0.4767  1.3313
 9400TIP3    H228158   5.657   6.372   2.446 -0.2502 -1.3426 -0.9472
 9401TIP3   OH228159   3.753   7.775   1.566 -0.2352  0.7076 -0.1082
 9401TIP3    H128160   3.803   7.817   1.636  1.2782 -3.3699  1.5261
 9401TIP3    H228161   3.670   7.752   1.606  0.2229 -0.6873  0.0915
 9402TIP3   OH228162   3.738   1.344   1.939  0.1678  0.1430  0.3431
 9402TIP3    H128163   3.712   1.356   1.847 -0.5415 -0.6817  0.4163
 9402TIP3    H228164   3.719   1.428   1.980 -1.1814 -0.0057  0.0925
 9403TIP3   OH228165   1.007   3.090   3.733 -0.1255 -0.2560 -0.3660
 9403TIP3    H128166   0.929   3.077   3.787  0.2974  0.2427  0.3983
 9403TIP3    H228167   1.003   3.182   3.706 -0.0090 -0.3367 -0.6646
 9404TIP3   OH228168   0.917   3.001   6.062  0.7237 -0.3272 -0.2942
 9404TIP3    H128169   0.993   3.011   6.120  0.0477  0.2034  0.5355
 9404TIP3    H228170   0.878   2.918   6.088 -0.6415  0.7537  1.3708
 9405TIP3   OH228171   7.804   4.492   4.057  0.0857 -0.0023 -0.5457
 9405TIP3    H128172   7.808   4.587   4.041  2.3096  0.0642  0.0472
 9405TIP3    H228173   7.849   4.453   3.982 -1.3258 -0.6944 -1.0888
 9406TIP3   OH228174   7.397   5.641   4.606 -0.2289 -0.3301 -0.1337
 9406TIP3    H128175   7.366   5.612   4.691  0.3742 -0.3565  0.0856
 9406TIP3    H228176   7.472   5.585   4.587  0.4889  0.5653 -0.0480
 9407TIP3   OH228177   2.272   2.454   1.319  0.5130  0.1220 -0.3413
 9407TIP3    H128178   2.330   2.456   1.395 -0.5945  0.9076  0.5346
 9407TIP3    H228179   2.252   2.547   1.303  1.2765  0.0145 -2.0417
 9408TIP3   OH228180   2.729   2.188   4.551  0.4469 -0.1213  0.7696
 9408TIP3    H128181   2.822   2.179   4.528  0.2348  2.0464 -1.3556
 9408TIP3    H228182   2.722   2.278   4.583 -0.9290 -0.2900  0.9986
 9409TIP3   OH228183   6.220   3.298   5.895 -0.2083  0.1424  0.2004
 9409TIP3    H128184   6.207   3.371   5.956 -0.2599  0.3691 -0.0798
 9409TIP3    H228185   6.136   3.253   5.894 -0.8009  1.2053 -1.0860
 9410TIP3   OH228186   4.456   4.850   1.120  0.0315  0.1622  0.1094
 9410TIP3    H128187   4.506   4.826   1.198  0.0439  0.3342  0.1558
 9410TIP3    H228188   4.502   4.925   1.084 -0.6235  0.8137  0.5862
 9411TIP3   OH228189   7.192   3.817   0.454 -0.1200  0.0635 -0.1240
 9411TIP3    H128190   7.270   3.869   0.475 -0.5436  1.5136 -1.8763
 9411TIP3    H228191   7.221   3.757   0.385  0.1585 -1.5467  1.3277
 9412TIP3   OH228192   5.282   3.376   1.357 -0.2546  0.2108  0.5069
 9412TIP3    H128193   5.347   3.363   1.287 -0.7069  2.4982 -0.4400
 9412TIP3    H228194   5.247   3.289   1.374  0.4707 -0.5429 -1.5433
 9413TIP3   OH228195   2.368   0.123   5.347 -0.3338  0.1835 -0.3427
 9413TIP3    H128196   2.362   0.096   5.255 -0.9161 -1.3305  0.1032
 9413TIP3    H228197   2.284   0.165   5.365  0.0787  1.1704 -0.7019
 9414TIP3   OH228198   5.143   5.466   2.480 -0.2455  0.7487 -0.4715
 9414TIP3    H128199   5.187   5.451   2.397  0.2674 -1.0447  0.0837
 9414TIP3    H228200   5.199   5.530   2.526  2.1367 -1.7707  0.3941
 9415TIP3   OH228201   7.222   2.725   6.708  0.0518  0.0811  0.3870
 9415TIP3    H128202   7.165   2.656   6.742 -0.1285 -0.2643 -0.5834
 9415TIP3    H228203   7.191   2.740   6.619  0.4340  1.0493  0.4069
 9416TIP3   OH228204   0.544   3.276   3.955 -0.0329  0.5201  0.1286
 9416TIP3    H128205   0.539   3.335   3.880 -2.0217  0.7681  0.3892
 9416TIP3    H228206   0.477   3.309   4.016 -0.9877 -1.7688  0.4221
 9417TIP3   OH228207   1.283   3.967   4.010  0.2479 -0.0653 -0.2878
 9417TIP3    H128208   1.265   3.875   4.032 -0.6026  0.7908  3.1293
 9417TIP3    H228209   1.222   3.986   3.938 -1.4052 -1.5007  0.6521
 9418TIP3   OH228210   0.539   2.933   5.864 -0.1882 -0.0935 -0.2045
 9418TIP3    H128211   0.455   2.892   5.843 -0.6111  0.3398  0.5919
 9418TIP3    H228212   0.556   2.906   5.954  1.3139 -1.4645 -0.8428
 9419TIP3   OH228213   2.926   5.282   1.266 -0.0853 -0.5181  0.1756
 9419TIP3    H128214   2.998   5.219   1.260  0.2294 -0.1204 -0.2927
 9419TIP3    H228215   2.878   5.271   1.183 -1.4047 -1.7660  1.0499
 9420TIP3   OH228216   0.089   5.027   0.112 -0.0309 -0.2983  0.4788
 9420TIP3    H128217   0.164   5.013   0.054 -1.0445 -1.9661 -0.5008
 9420TIP3    H228218   0.051   5.110   0.081 -0.5721 -1.1673 -1.3540
 9421TIP3   OH228219   6.408   0.059   0.287  0.1241 -1.2144 -0.4474
 9421TIP3    H128220   6.478   0.045   0.223  0.8377 -0.4245  0.1462
 9421TIP3    H228221   6.415  -0.015   0.347  1.0141 -0.6795  0.1128
 9422TIP3   OH228222   4.010   1.672   1.004 -0.0423  0.3214  0.2258
 9422TIP3    H128223   4.010   1.766   0.986 -0.0390  0.2033 -0.3944
 9422TIP3    H228224   4.016   1.666   1.100  2.6250  0.9485  0.1849
 9423TIP3   OH228225   2.927   4.257   3.750  0.0173 -0.1813  0.0998
 9423TIP3    H128226   2.837   4.224   3.750  0.3896 -1.2361 -0.1938
 9423TIP3    H228227   2.978   4.186   3.712  1.3180 -0.5324  2.3593
 9424TIP3   OH228228   7.145   6.262   4.219 -0.1938  0.4929 -0.0595
 9424TIP3    H128229   7.233   6.290   4.195  0.0930 -0.4632 -0.1541
 9424TIP3    H228230   7.108   6.337   4.266  0.6208  0.9479 -0.1326
 9425TIP3   OH228231   7.906   7.402   2.378  0.3180 -0.4536 -0.0569
 9425TIP3    H128232   7.839   7.345   2.341  1.1632 -1.2097 -0.4620
 9425TIP3    H228233   7.899   7.389   2.472 -0.0617 -0.5827 -0.1021
 9426TIP3   OH228234   7.437   3.857   1.867 -0.0862  0.3761 -0.6639
 9426TIP3    H128235   7.374   3.927   1.850  0.4134  0.5311 -2.0232
 9426TIP3    H228236   7.384   3.778   1.877 -0.4572  0.2436 -3.2172
 9427TIP3   OH228237   5.827   5.302   4.310  0.5513  0.0996  1.0235
 9427TIP3    H128238   5.743   5.336   4.341 -0.0946 -0.0150 -0.5225
 9427TIP3    H228239   5.881   5.380   4.296 -0.4334  0.4869 -1.0943
 9428TIP3   OH228240   5.031   3.365   6.204  0.1065 -0.7467  0.1322
 9428TIP3    H128241   5.008   3.273   6.193 -0.5827 -0.3740 -1.8527
 9428TIP3    H228242   4.948   3.408   6.226  0.2563 -0.4557  0.1361
 9429TIP3   OH228243   1.486   3.661   5.258  0.0885 -0.1705  0.4100
 9429TIP3    H128244   1.429   3.637   5.330 -1.0309 -1.6262 -0.8867
 9429TIP3    H228245   1.575   3.654   5.294 -0.4795  0.6608  2.0346
 9430TIP3   OH228246   7.194   0.790   0.382  0.0331  0.0019 -0.2460
 9430TIP3    H128247   7.214   0.852   0.311  0.2801  0.0984 -0.0934
 9430TIP3    H228248   7.172   0.845   0.457  2.3453 -0.0194  0.5246
 9431TIP3   OH228249   3.293   7.388   1.078 -0.5071  0.2998  0.4445
 9431TIP3    H128250   3.277   7.449   1.006  0.3340 -0.8161 -0.7161
 9431TIP3    H228251   3.377   7.416   1.114  0.6810 -1.1047 -1.1227
 9432TIP3   OH228252   1.633   3.614   4.616 -0.3267 -0.0829  0.0865
 9432TIP3    H128253   1.601   3.528   4.644  1.5604 -1.3801 -1.4156
 9432TIP3    H228254   1.562   3.651   4.564 -0.7042 -1.3177 -0.3063
 9433TIP3   OH228255   5.420   6.567   2.034  0.4391  0.4210  0.8046
 9433TIP3    H128256   5.404   6.636   1.970  0.7195  0.0216  0.3020
 9433TIP3    H228257   5.515   6.553   2.031  0.5155  0.7255  1.6408
 9434TIP3   OH228258   1.776   1.532   0.806 -0.5512  0.5005 -0.4630
 9434TIP3    H128259   1.791   1.441   0.781  1.8208  0.6997  0.0244
 9434TIP3    H228260   1.690   1.553   0.769  0.4304 -0.7964 -3.8985
 9435TIP3   OH228261   4.692   6.396   2.340 -0.1598  0.5176  0.2105
 9435TIP3    H128262   4.611   6.428   2.379  1.0963  0.9438  2.6302
 9435TIP3    H228263   4.751   6.382   2.414  1.7538 -0.4788 -1.4055
 9436TIP3   OH228264   2.959   5.237   2.594 -0.1634 -0.2455  0.4042
 9436TIP3    H128265   3.040   5.281   2.570  0.3787 -0.8962  0.9950
 9436TIP3    H228266   2.986   5.166   2.652 -1.0088 -1.3588 -0.4963
 9437TIP3   OH228267   6.108   7.157   3.297  0.1218  0.2522 -0.2099
 9437TIP3    H128268   6.129   7.162   3.391  3.2684 -0.2539 -0.7849
 9437TIP3    H228269   6.155   7.080   3.266  0.4231  1.2866 -2.4879
 9438TIP3   OH228270   6.283   7.603   0.288 -0.3950  0.4329  0.0270
 9438TIP3    H128271   6.351   7.538   0.271 -0.9785 -0.3812  0.7156
 9438TIP3    H228272   6.331   7.682   0.314  0.3489  0.5117 -1.5009
 9439TIP3   OH228273   2.403   1.938   5.769  0.1660  0.0009 -0.2117
 9439TIP3    H128274   2.398   1.915   5.861  0.2240  2.5072  0.4752
 9439TIP3    H228275   2.344   2.012   5.759  1.5751  0.9920 -1.7828
 9440TIP3   OH228276   1.538   6.282   2.324  0.3749  0.5256 -0.0266
 9440TIP3    H128277   1.620   6.325   2.299  0.4152  1.2009  1.1857
 9440TIP3    H228278   1.508   6.241   2.244  1.3148  1.2329 -0.7785
 9441TIP3   OH228279   6.255   0.224   4.977 -0.1374 -0.0860 -0.3216
 9441TIP3    H128280   6.292   0.183   5.056  2.4561 -0.4530 -1.6292
 9441TIP3    H228281   6.161   0.228   4.995  0.1976 -1.2865  2.2663
 9442TIP3   OH228282   7.862   3.482   1.426  0.2014 -0.4220 -0.0792
 9442TIP3    H128283   7.912   3.563   1.425  0.1204 -0.3599 -1.3289
 9442TIP3    H228284   7.833   3.472   1.516  0.6229  0.6793  0.1917
 9443TIP3   OH228285   5.997   5.242   6.662 -0.2890  0.2987 -0.9956
 9443TIP3    H128286   5.983   5.157   6.703 -0.9420 -0.0370 -1.8853
 9443TIP3    H228287   5.910   5.271   6.637 -0.0741  1.2466 -0.6807
 9444TIP3   OH228288   2.996   6.976   1.633  0.0883  0.2483 -0.3583
 9444TIP3    H128289   2.946   7.049   1.597 -0.1632  0.4221  0.3128
 9444TIP3    H228290   2.976   6.902   1.576  0.1016  0.6256 -0.8612
 9445TIP3   OH228291   4.079   3.409   5.646  0.3112  0.1886 -0.8685
 9445TIP3    H128292   4.074   3.464   5.568  2.3856  0.4897 -0.8353
 9445TIP3    H228293   4.123   3.463   5.711  0.1782 -0.6755 -0.0377
 9446TIP3   OH228294   7.862   2.469   5.554 -0.4281 -0.4144  0.7671
 9446TIP3    H128295   7.953   2.452   5.579 -0.2251 -0.7866 -0.1994
 9446TIP3    H228296   7.858   2.451   5.460 -0.4921  3.5271 -0.1895
 9447TIP3   OH228297   6.506   2.586   3.270 -0.2344 -0.1617 -0.0806
 9447TIP3    H128298   6.496   2.540   3.187  0.3388 -0.5883  0.0820
 9447TIP3    H228299   6.416   2.603   3.298 -0.4282  0.2608 -0.9284
 9448TIP3   OH228300   5.442   4.171   1.783 -0.0134  0.1051 -0.5998
 9448TIP3    H128301   5.349   4.176   1.763  0.4049  3.2156 -2.5443
 9448TIP3    H228302   5.475   4.101   1.726 -0.8072  0.6723 -1.7931
 9449TIP3   OH228303   5.034   0.590   3.538 -0.4100  0.0307 -0.4916
 9449TIP3    H128304   5.109   0.592   3.597  0.2759 -0.5769 -1.3305
 9449TIP3    H228305   4.991   0.507   3.556 -0.6320  0.1771 -0.3334
 9450TIP3   OH228306   7.929   0.730   4.184 -0.1519  0.1917 -0.2199
 9450TIP3    H128307   7.952   0.803   4.126 -1.4616  0.9936  0.2347
 9450TIP3    H228308   7.895   0.771   4.263  0.8018 -0.9013  0.8187
 9451TIP3   OH228309   4.542  -0.008   2.975  0.5051 -0.1987 -0.0247
 9451TIP3    H128310   4.543  -0.054   3.059  1.8205 -0.6498 -0.2745
 9451TIP3    H228311   4.500   0.076   2.995 -0.1162 -0.6963  0.8587
 9452TIP3   OH228312   6.375   3.056   5.466  0.3329  0.3258 -0.7418
 9452TIP3    H128313   6.431   3.132   5.483 -0.3104  0.4154  1.2129
 9452TIP3    H228314   6.286   3.091   5.469  0.0070 -0.5927  0.8141
 9453TIP3   OH228315   0.644   7.116   0.022  0.7712  0.0362  0.2157
 9453TIP3    H128316   0.629   7.205  -0.011 -0.8975 -0.4678 -0.5192
 9453TIP3    H228317   0.590   7.111   0.101  1.0108 -0.2747  0.3607
 9454TIP3   OH228318   5.016   1.246   5.592 -0.0137 -0.3811  0.1345
 9454TIP3    H128319   4.948   1.258   5.525 -0.4012 -1.6729  0.2831
 9454TIP3    H228320   5.094   1.221   5.542  0.0210 -0.1756  0.0806
 9455TIP3   OH228321   5.955   7.229   4.634  0.5118 -0.3732  0.3347
 9455TIP3    H128322   5.876   7.263   4.591 -0.0338 -0.1420  1.4630
 9455TIP3    H228323   5.932   7.229   4.727  1.3060 -1.7466  0.5478
 9456TIP3   OH228324   3.088   2.059   1.485  0.1781  0.3266 -0.2113
 9456TIP3    H128325   3.065   2.149   1.509 -0.1726 -0.2504  1.8105
 9456TIP3    H228326   3.183   2.055   1.498  0.4707  0.8042 -1.8896
 9457TIP3   OH228327   6.354   3.929   6.382 -0.5530  0.6439 -0.3129
 9457TIP3    H128328   6.368   3.880   6.301 -1.3002 -0.7947  0.4008
 9457TIP3    H228329   6.343   4.020   6.353  2.4640  0.7341 -1.5316
 9458TIP3   OH228330   2.474   2.134   4.459  0.2114  0.4946 -0.0132
 9458TIP3    H128331   2.562   2.149   4.494 -0.1666  1.3426  0.6176
 9458TIP3    H228332   2.470   2.040   4.444  1.2109  0.4391 -0.0040
 9459TIP3   OH228333   0.625   1.666   2.899 -0.0949  0.6155 -0.0616
 9459TIP3    H128334   0.550   1.703   2.851  0.9143  1.3287 -1.1409
 9459TIP3    H228335   0.641   1.729   2.970 -1.4117 -0.2949  1.0983
 9460TIP3   OH228336   5.010   5.393   0.095 -0.2697  0.3498  0.2564
 9460TIP3    H128337   5.059   5.362   0.019  0.0105 -2.9107  1.5805
 9460TIP3    H228338   4.923   5.414   0.062 -0.1739 -1.0459 -0.9639
 9461TIP3   OH228339   5.962   6.474   4.718  0.0881  0.6112  0.9077
 9461TIP3    H128340   5.930   6.384   4.726 -0.9714  0.8159 -0.5492
 9461TIP3    H228341   6.017   6.487   4.795 -0.0485 -1.1518  1.3486
 9462TIP3   OH228342   4.054   3.328   1.701  0.7426 -0.6907 -0.0509
 9462TIP3    H128343   4.076   3.395   1.766 -0.1416 -0.0733 -0.3803
 9462TIP3    H228344   4.135   3.278   1.690  1.3657  0.2154  0.3295
 9463TIP3   OH228345   6.752   0.673   1.706 -0.1712  0.1291 -0.3621
 9463TIP3    H128346   6.671   0.633   1.739  0.5093 -1.5019 -0.6224
 9463TIP3    H228347   6.727   0.764   1.689 -1.4905  0.1296  1.2380
 9464TIP3   OH228348   1.217   2.863   1.048 -0.2979  1.0298 -0.0329
 9464TIP3    H128349   1.195   2.790   1.106  1.0744  0.7706  0.1898
 9464TIP3    H228350   1.153   2.931   1.070 -1.5776 -0.0764 -0.2216
 9465TIP3   OH228351   5.328   6.512   5.730  0.5622  0.0236 -0.8484
 9465TIP3    H128352   5.353   6.499   5.638  2.1064 -0.8537 -0.3350
 9465TIP3    H228353   5.407   6.493   5.780  0.4418  2.7842  0.5856
 9466TIP3   OH228354   5.841   7.695   0.667 -0.1314  0.1356 -0.6398
 9466TIP3    H128355   5.936   7.691   0.670 -0.0950  0.2460 -1.3060
 9466TIP3    H228356   5.822   7.753   0.593 -0.6994  2.3970  1.1883
 9467TIP3   OH228357   5.859   5.624   4.894 -0.0968  0.5202  0.2033
 9467TIP3    H128358   5.940   5.603   4.848  0.8421  1.7323  1.2182
 9467TIP3    H228359   5.862   5.571   4.974  0.5399  1.7639  1.0393
 9468TIP3   OH228360   4.949   7.037   1.315 -0.0725 -0.6332  0.3266
 9468TIP3    H128361   4.907   7.116   1.349 -1.8476 -0.5827 -1.7250
 9468TIP3    H228362   5.007   7.069   1.246 -0.3617 -1.0494 -0.1191
 9469TIP3   OH228363   5.125   5.020   2.127  0.1525  0.0100 -1.0276
 9469TIP3    H128364   5.121   5.015   2.222  1.9630 -1.7163 -0.9682
 9469TIP3    H228365   5.104   5.111   2.107  0.5012  0.6205  1.0859
 9470TIP3   OH228366   8.066   4.792   0.950 -0.1141 -0.0746 -0.3480
 9470TIP3    H128367   8.071   4.709   0.997 -0.4128 -0.4572 -0.9772
 9470TIP3    H228368   8.033   4.854   1.014  0.4241 -0.3682  0.2168
 9471TIP3   OH228369   3.400   5.848   5.202  0.1016  0.2212 -0.3312
 9471TIP3    H128370   3.319   5.860   5.151  0.8277  0.7111 -1.4040
 9471TIP3    H228371   3.370   5.810   5.285 -1.5436  2.8972  0.4227
 9472TIP3   OH228372   2.978   7.254   5.328  0.3669 -0.1532  0.5003
 9472TIP3    H128373   2.935   7.339   5.332 -0.1427 -0.4338  1.4988
 9472TIP3    H228374   3.063   7.268   5.369  0.9721  0.2441 -0.8490
 9473TIP3   OH228375   0.569   0.030   3.818 -0.8271  0.2730 -0.0287
 9473TIP3    H128376   0.607   0.106   3.862 -0.3481  0.8401 -1.3756
 9473TIP3    H228377   0.572  -0.040   3.884  0.9134  0.7808  0.4853
 9474TIP3   OH228378   8.087   1.953   1.368  0.2911  0.8762  0.3522
 9474TIP3    H128379   8.142   1.992   1.300  0.3443 -2.1145 -1.5107
 9474TIP3    H228380   8.134   1.970   1.450  1.4103  2.6200 -0.5928
 9475TIP3   OH228381   3.738   1.774   1.217 -0.3933 -0.0694 -0.1693
 9475TIP3    H128382   3.828   1.761   1.249 -1.4925 -0.0763  3.3408
 9475TIP3    H228383   3.738   1.863   1.181  0.7776  0.3451  0.7980
 9476TIP3   OH228384   1.918   6.521   2.513 -0.1062  0.5886 -0.0185
 9476TIP3    H128385   1.826   6.540   2.531 -0.0996 -0.5344  1.3983
 9476TIP3    H228386   1.942   6.582   2.443 -2.2718  0.0012 -1.3533
 9477TIP3   OH228387   6.255   5.810   1.459 -0.0251 -0.3172 -0.2831
 9477TIP3    H128388   6.189   5.835   1.395  0.6739 -0.2412 -0.9869
 9477TIP3    H228389   6.319   5.759   1.409  1.6637  1.5581 -0.1204
 9478TIP3   OH228390   8.262   0.614   1.260 -0.0560  0.0144 -0.2190
 9478TIP3    H128391   8.212   0.586   1.183 -0.8957  0.7463  0.0407
 9478TIP3    H228392   8.343   0.563   1.256  0.4826  0.9052 -2.2825
 9479TIP3   OH228393   2.496   7.737   4.473  0.1366 -0.1547  1.1776
 9479TIP3    H128394   2.416   7.755   4.425  0.1861 -1.0549  0.7387
 9479TIP3    H228395   2.520   7.821   4.513  0.7215  0.9059 -1.2707
 9480TIP3   OH228396   4.840   5.573   6.255 -0.2020  0.1682  0.0468
 9480TIP3    H128397   4.883   5.488   6.270  0.9027  0.7336  0.2184
 9480TIP3    H228398   4.864   5.626   6.331 -2.4519  0.0755  0.8950
 9481TIP3   OH228399   7.405   4.974   2.827 -0.3864 -0.6816 -0.5274
 9481TIP3    H128400   7.460   5.003   2.900  0.7391  0.0614 -1.6262
 9481TIP3    H228401   7.316   4.976   2.861 -0.1177  1.7775  0.2205
 9482TIP3   OH228402   0.808   6.435   2.056 -0.2962 -0.3929  0.3675
 9482TIP3    H128403   0.903   6.426   2.048 -0.3403 -0.5883  0.0264
 9482TIP3    H228404   0.786   6.508   1.998 -0.3567 -0.3674  0.4230
 9483TIP3   OH228405   1.406   5.027   6.487 -0.0412 -0.1885  0.4686
 9483TIP3    H128406   1.337   5.086   6.456  0.3264  1.2143  2.1850
 9483TIP3    H228407   1.478   5.039   6.425 -0.0573  1.0310  0.6551
 9484TIP3   OH228408   4.824   5.735   0.396 -0.2638 -0.4455 -0.4123
 9484TIP3    H128409   4.771   5.804   0.356  0.2364  0.3923  0.3279
 9484TIP3    H228410   4.797   5.734   0.487  0.8218 -0.1589 -0.0732
 9485TIP3   OH228411   1.995   0.346   1.561  0.1123 -0.3818 -0.1378
 9485TIP3    H128412   2.012   0.258   1.593  2.7046  0.8989  2.4178
 9485TIP3    H228413   1.906   0.366   1.591 -0.0990 -1.7255  0.1845
 9486TIP3   OH228414   3.485   7.238   3.713 -0.3085  0.5331 -0.1257
 9486TIP3    H128415   3.462   7.312   3.658  0.8759  0.8660 -0.2094
 9486TIP3    H228416   3.402   7.209   3.751 -0.8838  1.4419 -0.6544
 9487TIP3   OH228417   6.611   2.220   4.240 -0.3488 -0.3178  0.3660
 9487TIP3    H128418   6.622   2.278   4.315 -0.1567 -1.4284  1.2323
 9487TIP3    H228419   6.698   2.217   4.199 -0.5277  0.5280 -0.0959
 9488TIP3   OH228420   2.888   3.783   4.057  0.3715 -0.2853  0.1331
 9488TIP3    H128421   2.803   3.827   4.050  0.5036  0.0309  0.5227
 9488TIP3    H228422   2.875   3.700   4.010 -0.4929 -0.7387  1.1202
 9489TIP3   OH228423   0.194   5.458   6.641 -0.1790 -0.6046  0.5960
 9489TIP3    H128424   0.231   5.510   6.712 -1.2998 -0.7177  1.2913
 9489TIP3    H228425   0.268   5.439   6.583  0.3011  1.5824  0.4147
 9490TIP3   OH228426   0.903   7.091   0.096  0.3285 -0.3669  0.8890
 9490TIP3    H128427   0.810   7.077   0.079  0.4322 -3.9575  2.2871
 9490TIP3    H228428   0.947   7.054   0.020  0.5714 -1.1349  1.3818
 9491TIP3   OH228429   3.477   3.468   4.561  0.5352 -0.1221  0.3905
 9491TIP3    H128430   3.403   3.515   4.600  0.4034 -0.0845  0.0967
 9491TIP3    H228431   3.441   3.427   4.483  0.7404 -0.4053  0.4441
 9492TIP3   OH228432   7.366   1.135   6.341  0.7972 -0.3677  0.2000
 9492TIP3    H128433   7.294   1.153   6.279 -0.9589 -1.2022  1.8915
 9492TIP3    H228434   7.435   1.099   6.286  0.1186  0.8540 -1.5722
 9493TIP3   OH228435   1.946   2.946   5.359 -0.6321 -0.9127 -0.1697
 9493TIP3    H128436   2.004   2.915   5.428 -0.2152  1.4259  0.6115
 9493TIP3    H228437   1.859   2.948   5.400 -0.4862 -0.1137  0.1185
 9494TIP3   OH228438   2.975   6.922   4.865  0.0693 -0.3653 -0.0732
 9494TIP3    H128439   3.013   6.898   4.781  0.6221 -0.7788  0.2876
 9494TIP3    H228440   3.048   6.921   4.926 -0.2664  0.2679  0.3503
 9495TIP3   OH228441   4.289   5.504   2.675  0.3002 -0.2141  0.2663
 9495TIP3    H128442   4.365   5.467   2.632  0.8669  0.5446  0.5919
 9495TIP3    H228443   4.250   5.562   2.609 -0.8116 -1.6206 -0.3804
 9496TIP3   OH228444   1.142   5.386   2.774 -0.5383  0.4415 -0.0342
 9496TIP3    H128445   1.107   5.426   2.694  0.6565  3.5479  0.8238
 9496TIP3    H228446   1.235   5.374   2.755 -0.3927  0.5067  0.6204
 9497TIP3   OH228447   2.174   3.932   4.726 -0.0617 -0.1894  0.5975
 9497TIP3    H128448   2.195   3.956   4.817 -3.2814 -0.4854  1.5458
 9497TIP3    H228449   2.105   3.992   4.701 -0.6272 -1.4211 -0.9503
 9498TIP3   OH228450   2.456   1.097   6.490 -0.5513 -0.3871  0.5462
 9498TIP3    H128451   2.389   1.084   6.556  1.1487 -1.5897  2.1336
 9498TIP3    H228452   2.484   1.009   6.466  0.6606  0.0735  0.1785
 9499TIP3   OH228453   4.377   6.648   2.720  0.2979  0.1620  0.0267
 9499TIP3    H128454   4.370   6.741   2.700  0.0299  0.2439  0.4918
 9499TIP3    H228455   4.465   6.638   2.755  0.7638  0.0213 -1.1448
 9500TIP3   OH228456   8.279   4.404   0.334  0.2149  0.1833  0.0804
 9500TIP3    H128457   8.226   4.324   0.327 -0.5490  0.7804 -1.4624
 9500TIP3    H228458   8.250   4.445   0.416 -0.5921 -0.2917  0.0442
 9501TIP3   OH228459   5.272   6.113   1.342  0.2498  0.2168 -0.0783
 9501TIP3    H128460   5.200   6.120   1.406  0.3134 -1.0874  0.1563
 9501TIP3    H228461   5.315   6.030   1.363  1.2488  0.5277 -0.8280
 9502TIP3   OH228462   2.040   5.200   2.939  0.5664 -0.2054 -0.3100
 9502TIP3    H128463   2.055   5.142   3.014  1.0531 -0.9806 -0.9923
 9502TIP3    H228464   1.996   5.276   2.977  1.0417 -0.4570  0.8058
 9503TIP3   OH228465   3.214   7.001   5.246 -0.7352  0.1562 -0.5962
 9503TIP3    H128466   3.224   7.070   5.181 -1.2645  0.3758 -0.4446
 9503TIP3    H228467   3.254   7.036   5.326  0.5812 -0.3925 -0.9788
 9504TIP3   OH228468   6.290   7.518   5.312 -0.2950  0.1012 -0.2803
 9504TIP3    H128469   6.299   7.464   5.391 -2.3037 -0.2537 -0.2334
 9504TIP3    H228470   6.301   7.608   5.344  0.6019 -0.1285  0.0879
 9505TIP3   OH228471   2.224   4.123   1.776 -0.1201  0.3009  0.1222
 9505TIP3    H128472   2.134   4.098   1.757 -0.1860  1.5104 -1.3367
 9505TIP3    H228473   2.255   4.165   1.696  1.4398  0.7275  0.9065
 9506TIP3   OH228474   6.763   3.365   4.201  0.0747  0.1705 -0.4154
 9506TIP3    H128475   6.858   3.373   4.191  0.3878 -2.4630 -0.2888
 9506TIP3    H228476   6.727   3.427   4.138  1.8868  0.3924 -1.2926
 9507TIP3   OH228477   5.033   0.464   1.822  0.4594 -0.3156  0.7960
 9507TIP3    H128478   4.942   0.492   1.824  0.8913  1.3211 -0.6249
 9507TIP3    H228479   5.080   0.533   1.869  1.3332  0.6306 -1.3308
 9508TIP3   OH228480   3.879   1.727   2.480 -0.3304  0.3674  0.4004
 9508TIP3    H128481   3.800   1.701   2.526 -0.0901  0.3968  0.8341
 9508TIP3    H228482   3.848   1.769   2.400 -0.7407 -0.8096 -0.0842
 9509TIP3   OH228483   2.918   1.813   3.765  0.1533 -0.7569  0.2077
 9509TIP3    H128484   2.845   1.850   3.815 -0.5089  1.2623 -2.0901
 9509TIP3    H228485   2.904   1.718   3.769 -1.2508 -0.5407  1.7385
 9510TIP3   OH228486   3.601   2.495   4.501 -0.4931  0.0125  0.0543
 9510TIP3    H128487   3.695   2.509   4.488 -0.3089 -0.2364  1.0485
 9510TIP3    H228488   3.563   2.583   4.499 -0.4697  0.0253 -1.8824
 9511TIP3   OH228489   4.744   3.109   6.053 -0.4994 -0.2531  0.8751
 9511TIP3    H128490   4.718   3.086   6.142 -0.8194 -0.2797  0.7729
 9511TIP3    H228491   4.762   3.025   6.010 -5.2582 -0.7676 -0.6665
 9512TIP3   OH228492   1.790   7.201   3.505 -0.2291 -0.4461  0.2966
 9512TIP3    H128493   1.863   7.180   3.563  0.5782  2.5970  0.5533
 9512TIP3    H228494   1.813   7.163   3.421  0.5369 -1.4583  0.9545
 9513TIP3   OH228495   2.742   1.996   0.728  0.0627  0.2033  0.4844
 9513TIP3    H128496   2.693   2.036   0.657  0.6549 -1.4567 -0.9401
 9513TIP3    H228497   2.834   2.008   0.704  0.2598 -1.0736  0.5247
 9514TIP3   OH228498   1.853   7.853   3.988  0.2321 -0.0080 -0.1782
 9514TIP3    H128499   1.907   7.774   3.989 -0.3235 -0.3942 -0.0716
 9514TIP3    H228500   1.766   7.822   3.963  0.3685  0.8144 -1.8243
 9515TIP3   OH228501   5.525   6.336   3.531  0.1430  0.4901  0.4780
 9515TIP3    H128502   5.555   6.264   3.586 -1.2291 -0.1745  0.3811
 9515TIP3    H228503   5.519   6.299   3.444 -2.5876  0.0555  0.7614
 9516TIP3   OH228504   1.998   0.119   1.784 -0.0474 -0.6703  0.2170
 9516TIP3    H128505   1.974   0.028   1.797 -1.7538 -0.2297  0.4556
 9516TIP3    H228506   1.939   0.168   1.842  0.9970  0.5676  0.2737
 9517TIP3   OH228507   2.187   1.125   2.727  0.3981  0.2250 -0.0012
 9517TIP3    H128508   2.165   1.204   2.676  1.1479 -0.8363 -2.0691
 9517TIP3    H228509   2.112   1.067   2.714  0.0316  0.4171  1.1834
 9518TIP3   OH228510   2.682   7.440   0.666 -0.5904 -0.2613 -0.0493
 9518TIP3    H128511   2.632   7.446   0.747  0.0425 -0.4163  0.3579
 9518TIP3    H228512   2.620   7.405   0.602 -0.9270 -0.6963  0.5100
 9519TIP3   OH228513   4.024   5.149   6.578  0.1727 -0.0396  0.3657
 9519TIP3    H128514   4.026   5.230   6.630 -0.0070  0.1662  0.0563
 9519TIP3    H228515   3.951   5.099   6.614 -0.2972  0.3428 -0.0364
 9520TIP3   OH228516   3.059   3.044   3.818  0.4927 -0.2898 -0.8446
 9520TIP3    H128517   2.974   3.013   3.789 -0.4341  1.5353 -0.2228
 9520TIP3    H228518   3.062   3.024   3.911 -0.0032  1.2027 -0.4971
 9521TIP3   OH228519   4.886   6.159   6.515  0.7779  0.0953 -0.4069
 9521TIP3    H128520   4.963   6.174   6.459  1.1989 -0.1068  0.1140
 9521TIP3    H228521   4.867   6.066   6.506  0.8830  0.0500 -0.1660
 9522TIP3   OH228522   4.692   6.319   0.078 -0.3472 -0.4189  0.3001
 9522TIP3    H128523   4.703   6.284   0.166  1.6632 -1.4093 -0.2852
 9522TIP3    H228524   4.680   6.413   0.091 -1.0817 -0.6751  1.6616
 9523TIP3   OH228525   6.222   3.424   2.898 -0.3965  0.3508  0.5230
 9523TIP3    H128526   6.254   3.482   2.829 -1.9871 -0.1111 -0.6554
 9523TIP3    H228527   6.298   3.370   2.920  0.2129  0.6722 -0.7052
 9524TIP3   OH228528   6.047   4.440   1.175 -0.3356 -0.0817 -0.2301
 9524TIP3    H128529   6.129   4.413   1.133  0.2591  1.9083 -0.4510
 9524TIP3    H228530   6.069   4.444   1.268 -0.8772 -1.7944  0.0072
 9525TIP3   OH228531   1.174   1.782   2.994  0.1455 -0.8124 -0.0022
 9525TIP3    H128532   1.200   1.690   2.999 -0.4206 -0.9471  0.5201
 9525TIP3    H228533   1.093   1.787   3.045 -1.6661 -0.6635 -2.6990
 9526TIP3   OH228534   6.432   7.025   5.721 -0.1745 -0.0089 -0.1240
 9526TIP3    H128535   6.522   6.995   5.707 -0.2023 -0.6340  0.9171
 9526TIP3    H228536   6.409   7.070   5.640  0.0596 -2.3623 -1.6029
 9527TIP3   OH228537   3.386   0.676   5.432 -0.0173  0.3176 -0.5744
 9527TIP3    H128538   3.299   0.646   5.457 -0.2845  1.3018 -0.2732
 9527TIP3    H228539   3.439   0.596   5.427 -0.6758 -0.1858  0.2805
 9528TIP3   OH228540   1.603   6.636   6.464 -0.5543 -0.6892 -0.0617
 9528TIP3    H128541   1.512   6.612   6.446 -0.5590 -0.6042 -0.1505
 9528TIP3    H228542   1.598   6.721   6.507 -0.6241 -1.4688  1.5364
 9529TIP3   OH228543   6.250   0.354   1.697  0.1524 -0.4969  0.9527
 9529TIP3    H128544   6.205   0.300   1.633  1.5534 -1.3588  0.6529
 9529TIP3    H228545   6.292   0.291   1.756  0.3129  0.2785  1.6838
 9530TIP3   OH228546   1.083   5.881   0.971 -0.2290  0.4186  0.2510
 9530TIP3    H128547   1.134   5.945   1.019  0.0540  0.3263  0.0737
 9530TIP3    H228548   1.038   5.932   0.903  0.6130  0.3225 -0.3951
 9531TIP3   OH228549   2.416   5.876   0.655  0.5114 -0.4336 -0.3707
 9531TIP3    H128550   2.395   5.842   0.568  0.2588 -1.3268  0.0313
 9531TIP3    H228551   2.487   5.821   0.686 -0.4489 -1.1547  0.6191
 9532TIP3   OH228552   2.975   1.906   4.236 -0.6532 -0.0996  0.2476
 9532TIP3    H128553   3.016   1.855   4.166  0.5875 -0.0443  0.9095
 9532TIP3    H228554   2.886   1.869   4.244 -1.1970  0.5904 -2.0309
 9533TIP3   OH228555   1.282   4.287   2.325 -0.7040  0.3371  0.3852
 9533TIP3    H128556   1.219   4.337   2.273 -1.5662  0.0454  1.1189
 9533TIP3    H228557   1.259   4.306   2.416  0.8856  0.9732  0.6986
 9534TIP3   OH228558   1.952   4.679   2.490  0.0508  0.8144  0.4531
 9534TIP3    H128559   1.911   4.695   2.575 -2.5278  1.2918 -0.7875
 9534TIP3    H228560   1.975   4.586   2.492 -2.4285  0.1420  0.7487
 9535TIP3   OH228561   1.417   7.725   1.226 -0.8615  0.3289 -0.4617
 9535TIP3    H128562   1.348   7.786   1.200  0.6513  2.1512 -0.4224
 9535TIP3    H228563   1.488   7.740   1.162  0.2694  0.0018  0.6693
 9536TIP3   OH228564   7.990   5.322   6.460  0.4941  0.3353  0.2189
 9536TIP3    H128565   8.078   5.359   6.457  0.5380  0.3568  1.3536
 9536TIP3    H228566   7.952   5.357   6.541 -0.7493  0.7506 -0.5236
 9537TIP3   OH228567   0.519   5.369   1.067 -0.1959  0.2575 -0.1790
 9537TIP3    H128568   0.587   5.309   1.037  0.2668 -0.1084  1.5145
 9537TIP3    H228569   0.437   5.324   1.048  0.1492 -1.0988  1.3521
 9538TIP3   OH228570   5.744   2.065   6.712 -0.3824  0.1244 -0.0430
 9538TIP3    H128571   5.658   2.054   6.751 -0.3274  1.3129  0.4648
 9538TIP3    H228572   5.761   2.159   6.718  0.4691  0.0621 -1.1689
 9539TIP3   OH228573   7.071   3.015   5.352 -0.0483 -0.0968  0.0941
 9539TIP3    H128574   7.130   2.987   5.281  0.7146 -0.6357  0.9219
 9539TIP3    H228575   7.005   2.947   5.356  0.7122 -0.8199  0.8189
 9540TIP3   OH228576   3.918   2.336   3.466 -0.6758 -0.0737 -0.2782
 9540TIP3    H128577   3.887   2.276   3.399 -0.0183 -1.0386  0.2517
 9540TIP3    H228578   3.839   2.380   3.498 -1.4280 -1.8524  0.4516
 9541TIP3   OH228579   1.897   5.827   1.175  0.2431 -0.3472 -0.4450
 9541TIP3    H128580   1.908   5.774   1.096  0.9137  0.6174 -1.0209
 9541TIP3    H228581   1.854   5.907   1.145  1.4754  0.5023 -0.0566
 9542TIP3   OH228582   1.017   4.163   2.767  0.1096 -0.2233 -0.1355
 9542TIP3    H128583   0.998   4.222   2.694  1.6992 -0.2023 -0.5618
 9542TIP3    H228584   1.003   4.075   2.731  0.7345 -0.2075 -0.4172
 9543TIP3   OH228585   2.183   4.775   2.017  0.5067 -0.3195 -0.0059
 9543TIP3    H128586   2.106   4.798   2.068  0.9476  1.5141 -0.1189
 9543TIP3    H228587   2.173   4.681   2.000 -1.2826 -0.2835  0.6556
 9544TIP3   OH228588   6.534   0.708   4.141  0.4123 -0.2175 -0.0876
 9544TIP3    H128589   6.493   0.747   4.064  0.4552 -0.8027 -0.4131
 9544TIP3    H228590   6.560   0.620   4.112 -0.2356 -0.7252  0.7995
 9545TIP3   OH228591   7.458   7.546   3.572 -0.3285  0.1044 -0.2794
 9545TIP3    H128592   7.541   7.572   3.533  1.4719 -0.3697  2.8534
 9545TIP3    H228593   7.465   7.451   3.584 -1.2518  0.0806  0.1804
 9546TIP3   OH228594   6.966   3.036   2.552  0.3364  0.1154  0.3027
 9546TIP3    H128595   7.008   2.958   2.517 -1.4485 -0.3497 -0.9510
 9546TIP3    H228596   6.914   3.004   2.626 -2.4271 -0.4697 -1.7324
 9547TIP3   OH228597   2.773   6.425   4.737  0.6261  0.6484  0.0168
 9547TIP3    H128598   2.754   6.339   4.700 -2.9227  0.9005  0.9669
 9547TIP3    H228599   2.837   6.407   4.806  1.1098 -0.9527 -0.7906
 9548TIP3   OH228600   3.055   2.440   3.246  0.4316  0.3880  0.1243
 9548TIP3    H128601   3.066   2.463   3.338  0.1701 -1.3092  0.6203
 9548TIP3    H228602   3.119   2.371   3.231 -1.0972 -1.0121 -0.3001
 9549TIP3   OH228603   6.405   1.230   2.540 -0.4364 -0.7751 -0.0155
 9549TIP3    H128604   6.450   1.305   2.502 -1.5440 -0.9668 -1.8108
 9549TIP3    H228605   6.421   1.158   2.480  0.1262 -1.8725  1.3885
 9550TIP3   OH228606   1.394   0.636   1.741 -0.5148  0.5723  0.4335
 9550TIP3    H128607   1.470   0.671   1.694 -1.0373 -0.8197 -1.5945
 9550TIP3    H228608   1.431   0.579   1.808  0.2655 -0.0200 -0.4716
 9551TIP3   OH228609   7.465   6.274   2.798 -0.3021 -0.0430  0.1099
 9551TIP3    H128610   7.427   6.323   2.725 -1.1976  0.1950  0.7199
 9551TIP3    H228611   7.415   6.192   2.800  0.9651 -0.8793 -0.6966
 9552TIP3   OH228612   7.774   6.793   2.819  0.1082 -0.1658  0.8129
 9552TIP3    H128613   7.682   6.792   2.846  0.0621 -1.0333  0.6495
 9552TIP3    H228614   7.775   6.849   2.741 -0.7160 -1.9172 -0.5526
 9553TIP3   OH228615   2.111   5.955   3.888 -0.2420 -0.1623 -0.6108
 9553TIP3    H128616   2.185   5.902   3.857  0.3993  0.6086 -0.4445
 9553TIP3    H228617   2.070   5.987   3.808 -0.5104 -0.7347 -0.7082
 9554TIP3   OH228618   6.722   4.900   1.784  0.2688 -0.0494  0.0809
 9554TIP3    H128619   6.697   4.820   1.737  2.0953  0.3316 -1.7004
 9554TIP3    H228620   6.657   4.965   1.756 -0.8056 -0.6949  0.9855
 9555TIP3   OH228621   0.527   4.761   1.805 -0.2198  0.0081 -0.1924
 9555TIP3    H128622   0.459   4.821   1.837  1.2642  1.0898  1.1147
 9555TIP3    H228623   0.560   4.718   1.884 -0.7265 -2.0355 -1.0301
 9556TIP3   OH228624   1.484   5.165   3.997 -0.0203 -0.1653  0.2489
 9556TIP3    H128625   1.413   5.206   4.047 -2.0096 -0.0279 -2.5151
 9556TIP3    H228626   1.488   5.075   4.031 -1.7614 -0.2716  0.2598
 9557TIP3   OH228627   3.889   1.672   5.076  0.2470 -0.0948  0.0773
 9557TIP3    H128628   3.936   1.662   4.993  1.4983 -0.6439  0.8161
 9557TIP3    H228629   3.863   1.764   5.078  1.1531  0.1892 -0.4454
 9558TIP3   OH228630   6.107   3.472   0.215 -0.2069  0.2092  0.6703
 9558TIP3    H128631   6.192   3.515   0.222 -0.9704  1.7638  0.8707
 9558TIP3    H228632   6.120   3.386   0.255  1.2927  0.3545  0.5539
 9559TIP3   OH228633   1.480   5.901   5.476  0.0931  0.2599  0.0852
 9559TIP3    H128634   1.573   5.886   5.492  0.0645 -0.2047 -0.1561
 9559TIP3    H228635   1.448   5.941   5.557  0.3718 -0.1672  0.4183
 9560TIP3   OH228636   5.206   7.071   3.745  0.2538 -0.2066  0.2767
 9560TIP3    H128637   5.298   7.062   3.768  0.2383  0.9569  0.8604
 9560TIP3    H228638   5.196   7.018   3.666  1.2327 -0.9891  0.6510
 9561TIP3   OH228639   1.953   2.031   2.175 -0.5471 -0.3100  0.0046
 9561TIP3    H128640   2.009   2.075   2.239 -0.7866 -2.0542  1.4702
 9561TIP3    H228641   2.002   2.036   2.093  2.2305 -2.4664  1.3742
 9562TIP3   OH228642   0.650   1.048   2.448  0.4565 -0.0510  0.3698
 9562TIP3    H128643   0.583   1.011   2.390 -1.9399  2.2574  1.5003
 9562TIP3    H228644   0.641   0.999   2.529 -0.1330  0.5200  0.6493
 9563TIP3   OH228645   3.857   1.549   2.167  0.3475  0.2701 -0.0349
 9563TIP3    H128646   3.797   1.577   2.236  0.4509  2.6905 -0.8339
 9563TIP3    H228647   3.862   1.624   2.108  2.2746 -0.7741 -1.2975
 9564TIP3   OH228648   0.448   6.924   1.308 -0.2038  0.8640 -0.3948
 9564TIP3    H128649   0.432   6.830   1.321  0.9205  0.5418 -1.1571
 9564TIP3    H228650   0.542   6.929   1.290 -0.4856  1.9720 -1.7144
 9565TIP3   OH228651   1.321   3.395   1.743  0.3064  0.1927 -0.2259
 9565TIP3    H128652   1.302   3.488   1.737 -0.1675  0.1384  0.3148
 9565TIP3    H228653   1.238   3.355   1.770  0.9450 -0.1533  1.3704
 9566TIP3   OH228654   3.516   2.307   1.554  0.1084 -0.3196  0.1440
 9566TIP3    H128655   3.522   2.312   1.650  0.4043  1.9543  0.0484
 9566TIP3    H228656   3.432   2.264   1.538 -0.7673  0.8165  1.4395
 9567TIP3   OH228657   7.445   1.149   0.587 -0.4445 -0.6650  0.1035
 9567TIP3    H128658   7.500   1.187   0.656  0.8630 -1.1824 -0.6258
 9567TIP3    H228659   7.416   1.223   0.535  1.8649 -0.5447 -1.1458
 9568TIP3   OH228660   5.857   5.287   3.384 -0.9564  0.5912 -0.0414
 9568TIP3    H128661   5.938   5.237   3.381  0.0669  1.9644  2.0585
 9568TIP3    H228662   5.800   5.245   3.320  1.1581 -0.8373 -1.1014
 9569TIP3   OH228663   0.992   2.163   0.321  0.1735 -0.3459  0.1247
 9569TIP3    H128664   1.026   2.248   0.292 -0.4771  0.1275  0.6974
 9569TIP3    H228665   0.964   2.119   0.241  0.7006 -0.0988 -0.1958
 9570TIP3   OH228666   4.346   0.222   4.585  0.0281  0.0674 -0.3815
 9570TIP3    H128667   4.264   0.193   4.626  1.3391  0.4537  2.7917
 9570TIP3    H228668   4.345   0.317   4.593  0.1499  0.2077 -1.7519
 9571TIP3   OH228669   4.892   3.343   1.296  0.3091  0.2392  0.6427
 9571TIP3    H128670   4.940   3.418   1.262  1.2813 -0.8154 -0.3606
 9571TIP3    H228671   4.876   3.365   1.388 -2.8759  3.4153 -0.4306
 9572TIP3   OH228672   3.835   3.084   4.416 -0.3741 -0.7182 -0.4377
 9572TIP3    H128673   3.790   3.057   4.497 -1.6790  1.6651 -0.2897
 9572TIP3    H228674   3.765   3.093   4.352  0.0700  1.2981 -0.7051
 9573TIP3   OH228675   4.867   7.217   6.277 -0.1049 -0.4479  0.3487
 9573TIP3    H128676   4.781   7.177   6.293 -1.6463  1.4873 -2.1611
 9573TIP3    H228677   4.855   7.265   6.194  3.1991  0.5491  0.3227
 9574TIP3   OH228678   7.000   2.582   1.835 -0.0105 -0.1924  0.4400
 9574TIP3    H128679   6.999   2.502   1.887  2.3763 -0.9439 -0.5200
 9574TIP3    H228680   7.042   2.647   1.891  2.2066 -0.8975 -0.3240
 9575TIP3   OH228681   5.459   3.627   0.404  0.2679  0.1036 -0.0645
 9575TIP3    H128682   5.374   3.606   0.444  1.2466  0.4175  2.3878
 9575TIP3    H228683   5.440   3.638   0.311 -2.0595 -1.5055  0.1419
 9576TIP3   OH228684   0.524   3.995   0.427  0.1330  0.1540 -0.2850
 9576TIP3    H128685   0.523   4.010   0.521  1.8482  1.8969 -0.5021
 9576TIP3    H228686   0.542   3.901   0.418 -0.8959 -0.2044  1.0983
 9577TIP3   OH228687   6.501   6.002   2.244 -0.5638  0.3398  0.0921
 9577TIP3    H128688   6.418   6.032   2.208 -1.2708 -1.0568  0.4536
 9577TIP3    H228689   6.563   6.009   2.171 -1.3691 -0.0176 -0.6525
 9578TIP3   OH228690   3.573   5.036   4.405  0.1071  0.0560 -0.5240
 9578TIP3    H128691   3.541   5.027   4.494 -0.0375  0.2231 -0.5590
 9578TIP3    H228692   3.668   5.032   4.413  0.1437  1.1539 -0.2380
 9579TIP3   OH228693   0.639   5.075   1.516 -0.4900  0.0408  0.1770
 9579TIP3    H128694   0.671   5.105   1.601 -1.0882 -1.3855  0.9485
 9579TIP3    H228695   0.545   5.064   1.529 -0.5082 -0.6945 -0.5137
 9580TIP3   OH228696   6.765   2.405   5.024  0.0765  0.5251  0.2762
 9580TIP3    H128697   6.817   2.476   4.988 -0.6518  0.3812 -1.1067
 9580TIP3    H228698   6.715   2.445   5.095 -1.3117  1.7411 -1.3086
 9581TIP3   OH228699   7.559   2.711   0.040  0.7022 -0.3355 -0.0991
 9581TIP3    H128700   7.536   2.618   0.038 -0.4576 -0.0486 -0.5752
 9581TIP3    H228701   7.521   2.743   0.121  3.7150 -0.8832  1.6799
 9582TIP3   OH228702   2.917   6.988   4.238  0.2055  0.0763 -0.4658
 9582TIP3    H128703   2.844   7.045   4.212  0.7626  0.0850 -2.1237
 9582TIP3    H228704   2.905   6.908   4.186 -0.6077 -1.4334  1.8715
 9583TIP3   OH228705   8.282   7.620   1.861  0.2017  0.2676 -0.2847
 9583TIP3    H128706   8.326   7.659   1.786  0.8498 -0.8520 -0.5026
 9583TIP3    H228707   8.200   7.669   1.869  0.0153  0.2480 -1.8613
 9584TIP3   OH228708   5.570   5.364   1.035 -0.0874  0.0125  0.4266
 9584TIP3    H128709   5.625   5.315   1.095 -2.1451 -2.7554  0.2417
 9584TIP3    H228710   5.549   5.445   1.082  2.7014  0.4147  1.1284
 9585TIP3   OH228711   0.487   1.596   2.020  0.2761 -0.1972  0.3015
 9585TIP3    H128712   0.502   1.516   1.970 -0.2344  0.6851 -1.3031
 9585TIP3    H228713   0.396   1.590   2.049  0.2505 -0.2023  0.2183
 9586TIP3   OH228714   1.783   2.788   1.176  0.0292 -0.3491  0.0417
 9586TIP3    H128715   1.815   2.759   1.261 -0.1483  0.7961  0.5085
 9586TIP3    H228716   1.848   2.756   1.114  0.4661 -0.6930  0.6617
 9587TIP3   OH228717   1.203   0.119   2.171 -0.5873  0.0012  0.2530
 9587TIP3    H128718   1.198   0.028   2.200 -0.3892  0.3929  1.5598
 9587TIP3    H228719   1.112   0.143   2.155 -0.8882  0.2686  2.1861
 9588TIP3   OH228720   0.815   7.806  -0.004  0.3164  0.1353  0.0550
 9588TIP3    H128721   0.770   7.889   0.011 -0.2193 -0.4043  1.7438
 9588TIP3    H228722   0.755   7.740   0.033  0.7872 -0.9943 -1.1238
 9589TIP3   OH228723   6.234   0.422   0.321 -0.2527  0.0522  0.0066
 9589TIP3    H128724   6.296   0.367   0.271 -0.5179  0.9836 -1.4239
 9589TIP3    H228725   6.183   0.360   0.372  1.4469 -0.7962  0.7744
 9590TIP3   OH228726   4.506   4.523   5.325  0.0402 -0.0682 -0.0284
 9590TIP3    H128727   4.515   4.470   5.405  0.5690 -0.2240 -0.1854
 9590TIP3    H228728   4.552   4.604   5.346 -1.2467  0.5663  0.4097
 9591TIP3   OH228729   5.936   5.918   6.260  0.1883  0.2157  0.5397
 9591TIP3    H128730   5.862   5.970   6.291 -0.9642 -1.2208  0.3145
 9591TIP3    H228731   5.905   5.827   6.263  1.1063 -0.2533 -1.8591
 9592TIP3   OH228732   2.200   4.183   5.005 -0.8910 -0.6358 -0.3419
 9592TIP3    H128733   2.176   4.221   5.090 -0.3975 -0.3248 -0.3360
 9592TIP3    H228734   2.165   4.094   5.008 -2.2703 -0.1082 -0.4611
 9593TIP3   OH228735   0.128   4.930   6.095 -0.3954  0.1776 -0.4083
 9593TIP3    H128736   0.136   4.984   6.016 -0.8329 -2.2846 -2.2682
 9593TIP3    H228737   0.056   4.970   6.143 -1.0553  0.9857 -1.9719
 9594TIP3   OH228738   2.373   4.166   1.068 -0.0703  0.3632 -0.7410
 9594TIP3    H128739   2.375   4.181   0.974  1.9500  0.6011 -0.7026
 9594TIP3    H228740   2.439   4.099   1.084  0.3276  1.0221  0.5901
 9595TIP3   OH228741   1.941   2.200   2.424  0.1999 -0.0855 -0.3772
 9595TIP3    H128742   1.949   2.151   2.506  2.3857  0.1788 -0.3611
 9595TIP3    H228743   2.028   2.192   2.383 -0.6781  0.2346 -2.4161
 9596TIP3   OH228744   4.434   0.495   4.639  0.5579 -0.8203  1.0356
 9596TIP3    H128745   4.527   0.508   4.658  0.6996  1.9218 -0.9105
 9596TIP3    H228746   4.390   0.512   4.722  1.6961 -0.0449  1.5111
 9597TIP3   OH228747   1.573   5.348   0.928  0.0194  0.7255 -0.6038
 9597TIP3    H128748   1.646   5.348   0.866  1.9742  1.0627  1.5759
 9597TIP3    H228749   1.503   5.300   0.882  1.4589  0.6655 -2.8943
 9598TIP3   OH228750   0.549   0.704   2.128 -0.0360 -0.1139  0.4350
 9598TIP3    H128751   0.596   0.663   2.055 -1.3115 -0.2056 -0.3665
 9598TIP3    H228752   0.508   0.630   2.174 -0.1460  0.0428  0.5864
 9599TIP3   OH228753   5.774   7.547   4.795  0.4466 -0.1337  0.1555
 9599TIP3    H128754   5.825   7.597   4.859  0.3527  1.1412 -0.7212
 9599TIP3    H228755   5.828   7.548   4.716 -0.2537 -0.0550 -0.3326
 9600TIP3   OH228756   7.431   1.848   5.899 -0.7796 -0.3461 -0.1282
 9600TIP3    H128757   7.367   1.903   5.945 -0.5201 -1.4133  1.5927
 9600TIP3    H228758   7.415   1.865   5.806 -1.6795  1.5078  0.3116
 9601TIP3   OH228759   1.115   2.077   2.386  0.5444 -0.0691 -0.0348
 9601TIP3    H128760   1.076   1.991   2.370  0.6928 -0.2983  0.8276
 9601TIP3    H228761   1.099   2.126   2.305 -1.5776 -0.1247  0.3015
 9602TIP3   OH228762   6.560   3.237   0.769 -0.1061 -0.1875 -0.4727
 9602TIP3    H128763   6.602   3.238   0.855 -2.8417 -1.5708  1.0234
 9602TIP3    H228764   6.603   3.306   0.720  2.4578 -0.2164  1.5401
 9603TIP3   OH228765   2.718   1.883   2.087 -0.0059  0.0031 -0.3409
 9603TIP3    H128766   2.665   1.889   2.167  0.6203 -0.2356  0.0997
 9603TIP3    H228767   2.685   1.804   2.043 -0.2663  0.0610 -0.2515
 9604TIP3   OH228768   0.090   0.101   0.794  0.5853  0.0499  0.2109
 9604TIP3    H128769   0.050   0.015   0.780  0.3077  0.4912 -2.2174
 9604TIP3    H228770   0.049   0.134   0.874 -1.1441 -1.0567 -0.1683
 9605TIP3   OH228771   0.115   0.306   3.216  0.3483 -0.0944  0.2027
 9605TIP3    H128772   0.113   0.239   3.285  1.9479 -0.6483 -0.2200
 9605TIP3    H228773   0.125   0.389   3.263 -0.6952 -0.2319  0.6962
 9606TIP3   OH228774   5.807   5.844   5.285  0.1012 -0.0089 -0.4497
 9606TIP3    H128775   5.721   5.886   5.286  0.6789  1.1948  0.1389
 9606TIP3    H228776   5.846   5.871   5.202  0.7853  1.3090  0.2757
 9607TIP3   OH228777   2.813   4.605   0.815  0.5281  0.1607 -0.5075
 9607TIP3    H128778   2.817   4.514   0.845 -0.2477  0.3156  0.0993
 9607TIP3    H228779   2.768   4.600   0.730  0.5199 -0.0208 -0.4932
 9608TIP3   OH228780   1.000   5.657   1.120 -0.1225  0.1653  0.1732
 9608TIP3    H128781   1.035   5.736   1.079 -1.0845  1.7694  2.2480
 9608TIP3    H228782   0.940   5.689   1.187 -1.8218 -2.3782  0.0178
 9609TIP3   OH228783   1.471   1.655   0.932  0.3693 -0.0145 -0.0456
 9609TIP3    H128784   1.388   1.655   0.884  0.6015 -0.9949 -0.4716
 9609TIP3    H228785   1.461   1.587   0.998  0.8311 -0.1186 -0.0811
 9610TIP3   OH228786   1.139   1.793   6.165  0.0018 -0.0118  0.1496
 9610TIP3    H128787   1.109   1.790   6.256 -0.4224  0.9020  0.0494
 9610TIP3    H228788   1.224   1.750   6.166  0.1855  0.3649  1.0513
 9611TIP3   OH228789   4.734   0.225   0.208 -0.2718  0.0451  0.7814
 9611TIP3    H128790   4.666   0.171   0.248 -0.8631  0.3530  0.2029
 9611TIP3    H228791   4.690   0.306   0.183  0.6789  0.9527  1.9201
 9612TIP3   OH228792   1.480   3.213   1.838  0.0382  0.1654  0.3608
 9612TIP3    H128793   1.425   3.267   1.782  1.8073 -1.8663 -3.7021
 9612TIP3    H228794   1.568   3.249   1.829  0.2542  0.5518  3.0537
 9613TIP3   OH228795   5.658   2.951   4.006  0.2234  0.0417 -0.4000
 9613TIP3    H128796   5.656   3.046   3.992  0.6844  0.1675  0.3352
 9613TIP3    H228797   5.713   2.939   4.084 -0.9293 -0.7160  0.3407
 9614TIP3   OH228798   3.176   1.707   1.793 -0.1259 -0.1255 -0.2976
 9614TIP3    H128799   3.173   1.702   1.697 -0.4098 -0.6111 -0.2693
 9614TIP3    H228800   3.244   1.771   1.812 -0.3253  0.2497 -0.8313
 9615TIP3   OH228801   2.516   0.213   0.644 -0.7086  0.3429  0.2114
 9615TIP3    H128802   2.590   0.271   0.664  2.1380 -1.6683 -3.2504
 9615TIP3    H228803   2.456   0.268   0.593  1.9374  0.5480 -3.0599
 9616TIP3   OH228804   4.436   1.040   5.445  0.6367 -0.2403  0.0706
 9616TIP3    H128805   4.482   1.124   5.446  0.0271  0.2062  3.3745
 9616TIP3    H228806   4.346   1.063   5.422  0.1571  0.3344  2.2541
 9617TIP3   OH228807   1.161   6.425   0.105 -0.0240  0.2625 -0.4416
 9617TIP3    H128808   1.177   6.424   0.011  3.6244  0.9333  0.0371
 9617TIP3    H228809   1.221   6.491   0.139 -1.2639  0.0815  2.3947
 9618TIP3   OH228810   1.713   3.642   2.943 -0.1068 -0.4471  0.3001
 9618TIP3    H128811   1.753   3.728   2.955  0.2576 -0.5205 -0.3520
 9618TIP3    H228812   1.680   3.643   2.853  1.1599 -1.4861 -0.2095
 9619TIP3   OH228813   5.208   7.242   4.009  0.1221  0.3670 -0.4674
 9619TIP3    H128814   5.145   7.216   3.942 -0.3256 -0.5448  0.2794
 9619TIP3    H228815   5.223   7.335   3.993  0.2491  0.1152 -1.9998
 9620TIP3   OH228816   5.720   4.135   6.792 -0.1446  0.3835 -0.2976
 9620TIP3    H128817   5.631   4.128   6.826  0.1138  2.0488  0.8594
 9620TIP3    H228818   5.711   4.182   6.710 -0.5242 -1.5054 -1.3945
 9621TIP3   OH228819   4.688   3.024   1.296  0.3846  0.4157 -0.7494
 9621TIP3    H128820   4.777   3.018   1.330 -0.3000  2.0484  1.5339
 9621TIP3    H228821   4.690   2.973   1.215  2.9254 -1.0346  0.1285
 9622TIP3   OH228822   4.424   1.353   3.656 -0.3539  0.0368  0.1008
 9622TIP3    H128823   4.390   1.336   3.744  0.0644 -2.3390 -0.1403
 9622TIP3    H228824   4.349   1.340   3.598 -0.8083  2.3027  0.1029
 9623TIP3   OH228825   4.807   6.175   3.410 -0.1966 -0.3923 -1.1923
 9623TIP3    H128826   4.862   6.227   3.352 -1.2878  1.0682 -0.9914
 9623TIP3    H228827   4.868   6.125   3.465  0.8559 -1.3637 -3.1644
 9624TIP3   OH228828   3.098   3.689   1.990  0.3434  0.1888  0.0290
 9624TIP3    H128829   3.105   3.750   1.917  0.0457  0.4727  0.2354
 9624TIP3    H228830   3.128   3.739   2.066 -1.2071  0.5266  0.4425
 9625TIP3   OH228831   7.113   7.638   1.941  0.4452  0.3201 -0.2412
 9625TIP3    H128832   7.136   7.550   1.910 -0.4626 -0.1656  0.3853
 9625TIP3    H228833   7.196   7.684   1.949  1.2145 -1.2821  1.7631
 9626TIP3   OH228834   4.239   5.607   0.594  0.0600  0.2327 -0.3125
 9626TIP3    H128835   4.248   5.689   0.642  0.6162 -0.0959  0.1593
 9626TIP3    H228836   4.288   5.621   0.513  1.3406 -0.0890  0.3739
 9627TIP3   OH228837   1.227   2.260   1.543  0.2162 -0.4321 -0.1190
 9627TIP3    H128838   1.315   2.229   1.563  0.0728 -2.0134 -1.6183
 9627TIP3    H228839   1.172   2.182   1.552 -1.0217  0.4893  0.6419
 9628TIP3   OH228840   3.815   2.184   6.187 -0.4803 -0.0682 -0.2220
 9628TIP3    H128841   3.721   2.179   6.202 -0.5472  0.9236 -0.2140
 9628TIP3    H228842   3.824   2.223   6.100 -0.0724 -1.4363 -0.8118
 9629TIP3   OH228843   8.010   6.760   1.668  0.2697  0.2223  0.1485
 9629TIP3    H128844   7.918   6.770   1.643  0.3584  0.7259  0.0204
 9629TIP3    H228845   8.007   6.741   1.761 -0.0584 -1.5839 -0.1961
 9630TIP3   OH228846   6.414   4.692   5.264 -0.1595 -0.9144 -0.0108
 9630TIP3    H128847   6.495   4.649   5.291 -0.0783 -1.1212 -0.5611
 9630TIP3    H228848   6.391   4.650   5.181 -0.2219 -0.0701 -0.4296
 9631TIP3   OH228849   7.266   5.576   1.963 -0.0379 -0.4078  0.3654
 9631TIP3    H128850   7.212   5.612   1.893 -0.7345  1.9053  1.9753
 9631TIP3    H228851   7.301   5.494   1.926  1.3941  1.6688 -3.4882
 9632TIP3   OH228852   5.046   7.163   2.871  0.1175  0.3919 -0.0187
 9632TIP3    H128853   5.022   7.135   2.783  0.9462  2.2444 -0.8928
 9632TIP3    H228854   5.133   7.125   2.886 -0.1147 -0.0985  0.0920
 9633TIP3   OH228855   4.650   1.336   5.970  0.1725 -0.0936 -0.0278
 9633TIP3    H128856   4.631   1.242   5.963  1.5244 -0.4193  0.3139
 9633TIP3    H228857   4.679   1.361   5.883  0.0097 -0.0364 -0.0661
 9634TIP3   OH228858   3.868   4.291   6.787 -0.5951  0.2693  0.1575
 9634TIP3    H128859   3.842   4.251   6.704  2.0487  0.8549 -1.0757
 9634TIP3    H228860   3.921   4.224   6.831 -2.1383 -0.1081  1.5144
 9635TIP3   OH228861   5.330   3.384   5.037 -0.0771  0.1406 -0.4743
 9635TIP3    H128862   5.324   3.480   5.036 -0.6834  0.1033 -1.0614
 9635TIP3    H228863   5.414   3.366   5.078  0.3816  0.9466 -1.0359
 9636TIP3   OH228864   8.170   6.869   4.730  0.9547 -0.2767 -0.2507
 9636TIP3    H128865   8.123   6.952   4.722 -0.8598 -1.3155 -1.0760
 9636TIP3    H228866   8.231   6.868   4.656 -0.9591 -0.8042 -1.9142
 9637TIP3   OH228867   5.570   6.104   4.184  0.0919  0.1380  0.1671
 9637TIP3    H128868   5.510   6.082   4.112 -0.8718 -0.3211  1.0935
 9637TIP3    H228869   5.527   6.072   4.263  0.7653  1.3338  1.0625
 9638TIP3   OH228870   7.710   6.513   4.970 -0.3957 -0.4174 -0.3719
 9638TIP3    H128871   7.630   6.555   4.939  0.3982  0.1698 -1.6944
 9638TIP3    H228872   7.777   6.579   4.959  0.5132 -1.3448 -0.5422
 9639TIP3   OH228873   3.227   0.613   1.223  0.0342 -0.1040 -0.5341
 9639TIP3    H128874   3.207   0.528   1.262 -0.0164  0.6527  1.2247
 9639TIP3    H228875   3.173   0.675   1.273 -0.6019  0.8805 -2.3564
 9640TIP3   OH228876   3.787   4.360   6.478  0.3188 -0.1739  0.4477
 9640TIP3    H128877   3.733   4.404   6.413  1.5316 -0.2830 -0.6662
 9640TIP3    H228878   3.876   4.360   6.441  1.3762  1.1097  2.7479
 9641TIP3   OH228879   2.483   7.557   5.464 -0.0408  0.6701 -0.2529
 9641TIP3    H128880   2.473   7.537   5.557  1.8120  1.5813  0.1968
 9641TIP3    H228881   2.394   7.573   5.432 -1.0035 -2.1665  0.7168
 9642TIP3   OH228882   5.870   7.790   2.402  0.0968 -0.7772 -0.2995
 9642TIP3    H128883   5.854   7.698   2.385  2.5421 -1.2761 -0.3444
 9642TIP3    H228884   5.942   7.813   2.343  0.7735  0.6462  0.9859
 9643TIP3   OH228885   5.851   1.112   1.307 -0.1732 -0.0916 -0.1673
 9643TIP3    H128886   5.808   1.099   1.392  0.8799 -2.8743  0.0595
 9643TIP3    H228887   5.943   1.127   1.328  0.0547 -0.5656 -0.7756
 9644TIP3   OH228888   3.256   5.184   6.456  0.3176  0.0965 -0.1633
 9644TIP3    H128889   3.161   5.172   6.458 -0.0329  1.9218 -2.0657
 9644TIP3    H228890   3.279   5.201   6.548 -1.5338  1.5964  0.1031
 9645TIP3   OH228891   3.997   5.149   2.658  0.1116 -0.3073  0.0816
 9645TIP3    H128892   4.038   5.131   2.573 -1.9663  0.5297 -1.1660
 9645TIP3    H228893   3.903   5.139   2.642 -0.4214  1.2039  1.9389
 9646TIP3   OH228894   1.860   6.964   5.423  0.6339  0.4797 -0.4705
 9646TIP3    H128895   1.949   6.972   5.457  0.7242  1.8052 -0.9648
 9646TIP3    H228896   1.836   7.054   5.398 -1.5527  0.4927  1.4234
 9647TIP3   OH228897   0.703   0.308   3.633 -0.3032  0.4770  0.4771
 9647TIP3    H128898   0.614   0.276   3.645 -0.4351  0.7964  0.3649
 9647TIP3    H228899   0.759   0.237   3.664 -0.3758 -2.0997 -4.4088
 9648TIP3   OH228900   4.330   5.131   6.369 -0.4011 -0.3905  0.1702
 9648TIP3    H128901   4.244   5.166   6.347  0.3672  0.9751 -0.8007
 9648TIP3    H228902   4.312   5.062   6.433 -2.2263 -0.3518 -0.2517
 9649TIP3   OH228903   3.932   6.304   3.701 -0.3020  0.0558 -0.3923
 9649TIP3    H128904   3.856   6.283   3.756 -0.1466  0.4676 -0.0163
 9649TIP3    H228905   3.903   6.283   3.612 -0.7040 -0.2066 -0.2048
 9650TIP3   OH228906   7.528   3.485   1.180 -0.1174  0.2589 -0.4656
 9650TIP3    H128907   7.512   3.514   1.270 -0.8608  0.1595 -0.5528
 9650TIP3    H228908   7.622   3.497   1.166 -0.2093  1.5117 -0.1186
 9651TIP3   OH228909   5.290   2.344   6.390  0.3115  0.3480  0.5308
 9651TIP3    H128910   5.268   2.252   6.376 -1.6391  0.7341  0.7415
 9651TIP3    H228911   5.355   2.343   6.460  0.9166 -0.9028 -0.0269
 9652TIP3   OH228912   0.436   3.829   1.868 -0.0609 -0.1278 -0.1765
 9652TIP3    H128913   0.444   3.761   1.801  0.7702  0.1565 -0.3820
 9652TIP3    H228914   0.494   3.799   1.938 -0.9436 -0.4328  0.4283
 9653TIP3   OH228915   2.362   4.842   5.726  0.2016 -0.5776  0.0583
 9653TIP3    H128916   2.317   4.824   5.809 -0.2495 -1.7180 -0.4224
 9653TIP3    H228917   2.452   4.859   5.751 -0.5785  2.7162  1.1577
 9654TIP3   OH228918   1.077   1.618   2.426 -0.0727 -0.1561 -0.0942
 9654TIP3    H128919   1.030   1.702   2.427  1.6145  0.8542 -1.4115
 9654TIP3    H228920   1.169   1.642   2.439  0.2244 -2.0367  1.8589
 9655TIP3   OH228921   7.657   0.978   0.566  0.0905 -0.2380 -0.6120
 9655TIP3    H128922   7.716   1.050   0.541 -0.0800  0.0103 -0.3149
 9655TIP3    H228923   7.570   1.017   0.561  0.0801  0.0162  0.9753
 9656TIP3   OH228924   3.840   0.443   5.730  0.2963 -0.3885  0.4685
 9656TIP3    H128925   3.843   0.529   5.690 -0.6733 -0.2858  0.5922
 9656TIP3    H228926   3.815   0.384   5.659  1.6398 -0.6952  0.2184
 9657TIP3   OH228927   8.186   7.367   2.574  0.2300  0.3061  0.1290
 9657TIP3    H128928   8.096   7.346   2.549  0.8372 -0.1517 -1.8088
 9657TIP3    H228929   8.237   7.289   2.550  1.2231  0.7388  0.7408
 9658TIP3   OH228930   7.050   0.925   3.324  0.4158 -0.0355  0.1141
 9658TIP3    H128931   7.070   1.007   3.279 -0.2064  0.8724  1.4278
 9658TIP3    H228932   7.128   0.908   3.378  0.6775 -0.5037 -0.3942
 9659TIP3   OH228933   0.790   3.119   3.497 -0.3797  0.1482  0.3960
 9659TIP3    H128934   0.771   3.140   3.589 -4.0395  1.4672 -0.4800
 9659TIP3    H228935   0.745   3.036   3.482 -1.5851  0.9683 -0.6703
 9660TIP3   OH228936   0.128   1.953   4.092 -0.5545  0.0799  0.1900
 9660TIP3    H128937   0.041   1.925   4.121 -0.1621 -0.3986  0.9203
 9660TIP3    H228938   0.152   1.891   4.023  0.3052 -1.4379  1.7869
 9661TIP3   OH228939   3.808   4.151   4.515  0.1914 -0.3461  0.3458
 9661TIP3    H128940   3.739   4.108   4.565  0.6846 -1.3823  0.1558
 9661TIP3    H228941   3.789   4.245   4.523  1.4499 -0.2793  4.2327
 9662TIP3   OH228942   0.795   2.708   1.059  0.4079 -0.1967 -0.3181
 9662TIP3    H128943   0.827   2.797   1.046 -0.4274  0.1985  0.2101
 9662TIP3    H228944   0.748   2.687   0.979  0.3306 -0.0273 -0.3192
 9663TIP3   OH228945   3.883   4.102   2.210  0.5021  0.2587  0.2011
 9663TIP3    H128946   3.932   4.056   2.142  0.8996 -0.3333  0.8748
 9663TIP3    H228947   3.817   4.040   2.240  1.0356  0.1131  1.1109
 9664TIP3   OH228948   5.429   2.096   6.103  0.0093  0.5837 -0.2884
 9664TIP3    H128949   5.483   2.171   6.131 -0.2950 -0.3581  3.2916
 9664TIP3    H228950   5.379   2.129   6.028  0.5514  3.6578  0.5680
 9665TIP3   OH228951   1.656   4.233   3.108 -0.3135 -0.0280  0.6687
 9665TIP3    H128952   1.612   4.160   3.152 -1.8687  2.0084  2.7173
 9665TIP3    H228953   1.728   4.257   3.167  2.2205 -1.7560 -1.4857
 9666TIP3   OH228954   2.992   4.096   0.845  0.1386  0.1949  0.1064
 9666TIP3    H128955   3.072   4.086   0.897 -1.0847 -0.7454  1.9564
 9666TIP3    H228956   2.944   4.015   0.861 -0.8754  0.4355 -1.5428
 9667TIP3   OH228957   3.667   6.627   2.815  0.8262  0.4501 -0.0318
 9667TIP3    H128958   3.703   6.703   2.860  2.0388  0.0094 -0.2170
 9667TIP3    H228959   3.577   6.620   2.847  0.9143  1.5560  0.4870
 9668TIP3   OH228960   2.053   6.070   6.278  0.1143 -0.7895  0.1317
 9668TIP3    H128961   2.084   6.160   6.286 -0.7139 -0.3482 -1.2857
 9668TIP3    H228962   2.021   6.063   6.189 -1.8349 -1.8444  0.8432
 9669TIP3   OH228963   0.212   3.474   1.594 -0.0045 -0.0863 -0.2848
 9669TIP3    H128964   0.307   3.485   1.589 -0.1081  2.2276  1.0499
 9669TIP3    H228965   0.186   3.532   1.666 -2.3633 -1.1692 -0.1998
 9670TIP3   OH228966   4.024   0.092   5.548  0.5668 -0.1857  0.2375
 9670TIP3    H128967   3.996   0.183   5.551  1.3082  0.0499  0.0419
 9670TIP3    H228968   3.942   0.042   5.545  0.1132  0.4177  1.5354
 9671TIP3   OH228969   8.141   7.303   2.220  0.0147  0.1634 -0.4913
 9671TIP3    H128970   8.083   7.363   2.267  2.6155 -0.2707  3.9059
 9671TIP3    H228971   8.105   7.216   2.239  0.7023  0.0182  0.2149
 9672TIP3   OH228972   3.139   6.318   4.106  0.0926 -0.2795 -0.2533
 9672TIP3    H128973   3.100   6.256   4.044 -0.2088 -0.6670  0.3187
 9672TIP3    H228974   3.209   6.360   4.056  0.3944 -1.1781 -0.6065
 9673TIP3   OH228975   7.702   6.869   0.177  0.1137 -0.6104  0.3221
 9673TIP3    H128976   7.771   6.821   0.132 -0.9966 -0.3113 -1.8185
 9673TIP3    H228977   7.748   6.939   0.224  1.3245 -0.8007 -0.5356
 9674TIP3   OH228978   1.700   2.122   5.683  0.3777 -0.3783 -0.3406
 9674TIP3    H128979   1.614   2.101   5.719 -0.0472 -0.7220 -1.5097
 9674TIP3    H228980   1.715   2.056   5.615  0.6518  0.8846 -1.5591
 9675TIP3   OH228981   0.394   0.854   4.677 -0.1626 -0.1522 -0.2195
 9675TIP3    H128982   0.341   0.859   4.598 -1.5618 -0.4422  0.6720
 9675TIP3    H228983   0.449   0.777   4.664 -0.8853 -0.6112 -0.6224
 9676TIP3   OH228984   4.175   5.055   2.834  0.2542 -0.3865  0.0701
 9676TIP3    H128985   4.110   5.103   2.783  1.4156  0.6187 -0.5073
 9676TIP3    H228986   4.132   5.038   2.917 -1.9827 -2.7386 -1.4232
 9677TIP3   OH228987   3.401   6.077   6.492  0.1688  0.4866  0.2820
 9677TIP3    H128988   3.336   6.027   6.541 -1.7862  0.7638 -1.8777
 9677TIP3    H228989   3.357   6.159   6.469  1.1585  0.5938 -1.4372
 9678TIP3   OH228990   2.100   4.997   0.058 -0.1875 -0.1052  0.0592
 9678TIP3    H128991   2.100   4.906   0.086  0.1330 -0.7887 -1.9961
 9678TIP3    H228992   2.009   5.025   0.067  0.2099  0.5091  3.8634
 9679TIP3   OH228993   7.734   0.855   6.073 -0.0105 -0.7984  0.1918
 9679TIP3    H128994   7.766   0.838   5.985 -0.3885  0.3160 -0.1779
 9679TIP3    H228995   7.798   0.917   6.110 -0.6421 -0.1051  0.1529
 9680TIP3   OH228996   2.753   4.844   5.529 -0.0933  0.3929 -0.2079
 9680TIP3    H128997   2.785   4.934   5.539  2.1531 -0.4003  0.2980
 9680TIP3    H228998   2.747   4.831   5.434  0.7568  0.6982 -0.3076
 9681TIP3   OH228999   6.346   4.209   6.319  0.7985 -0.7848  0.2382
 9681TIP3    H129000   6.331   4.276   6.252  0.6713 -2.1144 -1.0881
 9681TIP3    H229001   6.356   4.260   6.400 -4.2610  0.7028  0.2863
 9682TIP3   OH229002   3.343   4.721   1.863  0.2804  0.5676 -0.4796
 9682TIP3    H129003   3.383   4.805   1.840  0.3958  0.5413 -0.3732
 9682TIP3    H229004   3.310   4.735   1.952 -0.1989  0.6821 -0.6723
 9683TIP3   OH229005   5.033   0.194   1.824  0.3918  0.1517 -0.0539
 9683TIP3    H129006   5.044   0.289   1.814 -2.0905  0.4396 -0.6792
 9683TIP3    H229007   4.961   0.185   1.887  2.2017 -1.4163  1.9345
 9684TIP3   OH229008   4.366   6.484   6.630 -0.1728  0.4959 -0.1061
 9684TIP3    H129009   4.329   6.541   6.562 -0.2088  1.3239  0.5957
 9684TIP3    H229010   4.293   6.468   6.690  0.0979  0.5284  0.2333
 9685TIP3   OH229011   2.832   5.344   4.131 -0.5096  0.2799  0.2933
 9685TIP3    H129012   2.772   5.346   4.057  0.0259  1.3062 -0.1167
 9685TIP3    H229013   2.895   5.274   4.109  0.9909  2.0331 -1.3120
 9686TIP3   OH229014   2.166   5.942   5.026  0.7890 -0.0210  0.3388
 9686TIP3    H129015   2.206   5.942   5.113 -0.2361 -0.4453  0.8289
 9686TIP3    H229016   2.214   6.009   4.977 -0.0611  1.8291  1.9317
 9687TIP3   OH229017   7.665   3.001   3.917  0.1890  0.1418 -0.4526
 9687TIP3    H129018   7.696   3.091   3.909 -0.6883  0.4630 -0.3868
 9687TIP3    H229019   7.745   2.948   3.922  0.7704  0.6652 -3.0296
 9688TIP3   OH229020   7.260   1.338   6.208  0.5087  0.1893 -0.0901
 9688TIP3    H129021   7.333   1.380   6.163 -0.1648  1.7636  0.2137
 9688TIP3    H229022   7.199   1.410   6.226 -1.4680 -1.1726 -1.0112
 9689TIP3   OH229023   1.130   6.366   4.216  0.4856 -0.3269 -0.1228
 9689TIP3    H129024   1.119   6.461   4.221  0.6293 -0.2656 -0.8450
 9689TIP3    H229025   1.120   6.336   4.306  3.2676  0.6767  0.6172
 9690TIP3   OH229026   1.378   5.109   2.112  0.3865 -0.4505 -0.6119
 9690TIP3    H129027   1.435   5.033   2.106  0.7769 -0.2549  0.4242
 9690TIP3    H229028   1.428   5.181   2.074  0.5378 -0.4324 -0.3767
 9691TIP3   OH229029   6.098   4.119   6.596  0.1762 -0.6040 -0.0196
 9691TIP3    H129030   6.031   4.060   6.629 -0.9465 -0.3645 -1.7237
 9691TIP3    H229031   6.086   4.118   6.501  0.1233  2.3221 -0.1318
 9692TIP3   OH229032   0.966   4.545   4.719  0.4065 -0.3000 -0.3693
 9692TIP3    H129033   0.950   4.629   4.760  2.7921  0.2817 -0.4785
 9692TIP3    H229034   0.911   4.546   4.640 -1.5145  0.0383  0.9132
 9693TIP3   OH229035   4.833   3.211   3.925  0.4372 -0.2484  1.1632
 9693TIP3    H129036   4.908   3.191   3.869  0.1441  0.7732  0.3712
 9693TIP3    H229037   4.853   3.170   4.008  2.8575  1.6780  1.6490
 9694TIP3   OH229038   2.746   3.500   5.922  0.2984  0.5371  0.0455
 9694TIP3    H129039   2.805   3.517   5.995  0.2878  1.7572 -0.2141
 9694TIP3    H229040   2.793   3.531   5.845 -0.6064  1.3910 -0.1825
 9695TIP3   OH229041   6.433   0.074   2.517 -0.1873  0.5977  0.3420
 9695TIP3    H129042   6.488  -0.002   2.539 -0.6100  0.2271  0.1390
 9695TIP3    H229043   6.492   0.149   2.523  0.3610  0.1977  0.0511
 9696TIP3   OH229044   1.848   5.008   5.516  0.8975 -0.3000 -0.4846
 9696TIP3    H129045   1.910   4.948   5.558  0.9648 -0.3997 -0.7265
 9696TIP3    H229046   1.900   5.055   5.451  0.5963 -0.8148 -1.1162
 9697TIP3   OH229047   6.678   4.805   5.632 -0.0612 -0.0727 -0.6238
 9697TIP3    H129048   6.639   4.857   5.701  0.3177  0.1677 -0.5845
 9697TIP3    H229049   6.745   4.752   5.676 -1.5532 -1.8441 -0.3795
 9698TIP3   OH229050   6.561   7.699   1.605  0.2046  0.2148 -0.0811
 9698TIP3    H129051   6.577   7.793   1.603 -0.0224  0.2624  0.2456
 9698TIP3    H229052   6.466   7.691   1.600  0.2952 -0.0557 -1.7613
 9699TIP3   OH229053   2.017   5.791   4.713 -0.3532 -0.1972 -0.1400
 9699TIP3    H129054   2.003   5.821   4.623 -2.1610  0.3009  0.2620
 9699TIP3    H229055   2.004   5.869   4.767 -0.1480 -0.6634  0.6010
 9700TIP3   OH229056   4.871   6.202   2.147  0.2986  0.3403  0.0058
 9700TIP3    H129057   4.787   6.189   2.190 -0.9115 -0.8682 -2.5154
 9700TIP3    H229058   4.863   6.285   2.101  0.0782 -0.2356 -1.0268
 9701TIP3   OH229059   1.281   4.142   6.707  0.0392 -0.4883  0.5945
 9701TIP3    H129060   1.314   4.058   6.740 -0.1882 -1.8374 -2.3173
 9701TIP3    H229061   1.343   4.166   6.638 -1.5417  0.1418 -0.6757
 9702TIP3   OH229062   5.364   3.778   4.391  0.7803  0.0998 -0.0350
 9702TIP3    H129063   5.352   3.685   4.373  1.2991  0.1133 -0.4717
 9702TIP3    H229064   5.367   3.819   4.305 -0.2999  0.6427  0.1633
 9703TIP3   OH229065   5.748   4.519   0.921 -0.3405  0.1340  0.3137
 9703TIP3    H129066   5.721   4.428   0.919 -3.1422  0.8552  1.0191
 9703TIP3    H229067   5.791   4.534   0.837  0.7329 -1.9467  0.4404
 9704TIP3   OH229068   1.463   0.274   0.257  0.3289 -0.1674  0.3977
 9704TIP3    H129069   1.505   0.285   0.342  0.8394  0.5182  0.0720
 9704TIP3    H229070   1.432   0.361   0.233  0.3937 -0.3027 -0.2173
 9705TIP3   OH229071   0.353   1.968   1.579 -0.6523  0.3728 -0.3036
 9705TIP3    H129072   0.311   1.967   1.665 -0.3073  0.2246 -0.1388
 9705TIP3    H229073   0.321   1.888   1.536 -0.8431  0.4592 -0.3246
 9706TIP3   OH229074   0.079   5.856   1.171  0.7284 -0.1779 -0.0868
 9706TIP3    H129075   0.118   5.940   1.195 -1.0197  0.8881 -0.7704
 9706TIP3    H229076   0.134   5.822   1.101  2.3570 -0.4092  1.2278
 9707TIP3   OH229077   7.618   3.906   1.649 -1.1389 -0.3121 -0.0873
 9707TIP3    H129078   7.644   3.996   1.672 -2.0260  0.1161 -0.7172
 9707TIP3    H229079   7.548   3.885   1.710 -1.2004 -0.4324 -0.2007
 9708TIP3   OH229080   8.306   5.710   2.548  0.0959 -0.1810  0.3716
 9708TIP3    H129081   8.215   5.691   2.571  0.1610  0.8036  1.5594
 9708TIP3    H229082   8.354   5.631   2.573 -0.4011 -0.6572 -0.1435
 9709TIP3   OH229083   5.296   0.647   0.444  0.4609  0.0769  0.3199
 9709TIP3    H129084   5.237   0.702   0.495  1.0896  0.7545  0.3362
 9709TIP3    H229085   5.267   0.558   0.462  0.1599  0.3437  1.2261
 9710TIP3   OH229086   2.140   1.972   1.924  0.5424 -0.3652  0.2297
 9710TIP3    H129087   2.122   1.888   1.966  0.6706 -1.3385 -1.5265
 9710TIP3    H229088   2.107   1.961   1.834  0.5303  1.4811 -0.0412
 9711TIP3   OH229089   4.157   6.706   5.789  0.3057  0.1675 -0.1425
 9711TIP3    H129090   4.065   6.715   5.765 -0.0919  0.3310  1.3244
 9711TIP3    H229091   4.204   6.705   5.706 -0.9721  0.6024 -0.8955
 9712TIP3   OH229092   1.654   3.368   4.322 -0.5414  0.9564  0.4641
 9712TIP3    H129093   1.570   3.346   4.364  0.3091 -0.2487  1.6322
 9712TIP3    H229094   1.662   3.306   4.250 -0.8401  1.3500  0.0893
 9713TIP3   OH229095   0.929   2.638   5.948 -0.1151 -0.1261 -0.1722
 9713TIP3    H129096   0.913   2.710   5.888 -0.9719 -0.4541 -0.3544
 9713TIP3    H229097   0.906   2.673   6.034  0.5753  0.1697 -0.1030
 9714TIP3   OH229098   6.090   3.916   6.375 -0.0982 -0.8696  0.6085
 9714TIP3    H129099   6.177   3.887   6.403  0.3309  0.0198  0.2513
 9714TIP3    H229100   6.108   3.984   6.310 -1.0716 -1.1145  0.0708
 9715TIP3   OH229101   6.897   5.708   1.257  0.0334  0.1718 -0.5115
 9715TIP3    H129102   6.915   5.657   1.336  2.0651 -1.3265 -1.8376
 9715TIP3    H229103   6.810   5.678   1.229 -0.9140  1.0416  1.3120
 9716TIP3   OH229104   1.018   6.977   2.013 -0.3032  0.1863 -0.2991
 9716TIP3    H129105   1.023   6.975   2.109  0.2068  0.6728 -0.3079
 9716TIP3    H229106   0.932   7.016   1.995 -0.7381 -0.6281 -0.0541
 9717TIP3   OH229107   1.518   5.160   0.344 -0.5667 -0.2636  0.1752
 9717TIP3    H129108   1.569   5.079   0.347 -0.1492  0.0057  0.4617
 9717TIP3    H229109   1.435   5.135   0.303  0.0100 -0.5811 -0.8010
 9718TIP3   OH229110   7.168   1.054   1.965 -0.3658 -0.0914 -0.0360
 9718TIP3    H129111   7.149   1.067   2.058  0.7235  0.1522  0.1628
 9718TIP3    H229112   7.242   1.111   1.947 -0.1195 -0.6573 -0.8926
 9719TIP3   OH229113   3.366   3.436   3.539  0.2147 -0.5200 -0.2879
 9719TIP3    H129114   3.338   3.471   3.454  1.0740  0.2189 -0.2757
 9719TIP3    H229115   3.321   3.491   3.604  2.0528  1.0552 -0.2620
 9720TIP3   OH229116   3.426   3.866   1.856  0.3551  0.2958 -0.0839
 9720TIP3    H129117   3.388   3.780   1.839 -0.0283  0.3739  0.3760
 9720TIP3    H229118   3.483   3.882   1.780  1.4030 -0.8977  0.4226
 9721TIP3   OH229119   2.832   5.261   0.070  0.7586 -0.0951 -0.3849
 9721TIP3    H129120   2.916   5.229   0.038  0.4311 -1.5427  0.1570
 9721TIP3    H229121   2.838   5.254   0.165  1.1886  2.8206 -0.0918
 9722TIP3   OH229122   2.055   0.870   5.860  0.1911 -0.2840 -0.0907
 9722TIP3    H129123   2.129   0.926   5.836  0.5934  0.3518  2.3336
 9722TIP3    H229124   1.982   0.931   5.873 -0.5428 -0.8135 -1.5796
 9723TIP3   OH229125   7.613   3.865   0.068  0.0991 -0.4306  0.3625
 9723TIP3    H129126   7.701   3.864   0.030  0.2005 -1.3557  0.5956
 9723TIP3    H229127   7.555   3.855  -0.008  0.3094 -2.5824  0.4051
 9724TIP3   OH229128   7.039   4.538   1.473  0.6769 -0.0427  0.7863
 9724TIP3    H129129   7.021   4.455   1.517  0.0562 -1.2169 -1.5275
 9724TIP3    H229130   6.955   4.584   1.472  0.0734 -1.1092 -1.2505
 9725TIP3   OH229131   6.198   7.365   5.042  0.3800  0.6495  0.5745
 9725TIP3    H129132   6.251   7.371   5.121  0.7956  0.8662  0.2831
 9725TIP3    H229133   6.261   7.344   4.972 -0.1068 -0.4625  0.4448
 9726TIP3   OH229134   3.883   2.646   3.954 -0.6863  0.2545  0.1896
 9726TIP3    H129135   3.796   2.631   3.991 -0.5284  1.6544  1.2521
 9726TIP3    H229136   3.936   2.672   4.030  0.9815 -1.7086 -0.2470
 9727TIP3   OH229137   7.716   3.087   3.660 -0.1916 -0.2967  0.1061
 9727TIP3    H129138   7.790   3.042   3.700  0.4993  0.6749 -0.0424
 9727TIP3    H229139   7.706   3.044   3.575  2.1973  1.4733 -1.2107
 9728TIP3   OH229140   0.344   2.386   1.301 -0.1910 -0.0979 -0.1303
 9728TIP3    H129141   0.427   2.421   1.268  0.3523 -1.3278 -0.1115
 9728TIP3    H229142   0.368   2.330   1.375 -0.7196 -2.6099 -1.7453
 9729TIP3   OH229143   4.128   7.192   2.562 -0.0067 -0.6104  0.0692
 9729TIP3    H129144   4.135   7.101   2.532 -0.5662 -0.4376 -0.6325
 9729TIP3    H229145   4.209   7.233   2.533  0.8969 -1.2162  1.6559
 9730TIP3   OH229146   1.580   7.362   0.279 -0.2042 -0.6596 -0.2361
 9730TIP3    H129147   1.541   7.392   0.361 -0.1069 -1.8405  0.2505
 9730TIP3    H229148   1.511   7.377   0.214  0.6828  3.0516 -0.5866
 9731TIP3   OH229149   5.187   4.826   5.840 -0.7109  0.6726 -0.5354
 9731TIP3    H129150   5.120   4.847   5.774 -1.7842  0.2939  0.4117
 9731TIP3    H229151   5.187   4.901   5.899 -0.6554  0.4323 -0.2330
 9732TIP3   OH229152   2.773   2.835   1.147 -0.3395  0.2297 -0.1084
 9732TIP3    H129153   2.806   2.908   1.094 -0.6173  1.8014  1.7550
 9732TIP3    H229154   2.818   2.845   1.231 -0.7649 -1.4839  0.3559
 9733TIP3   OH229155   7.111   5.918   5.798  0.6174  0.3411  0.0107
 9733TIP3    H129156   7.128   5.962   5.882 -1.3781 -0.5707  0.9540
 9733TIP3    H229157   7.032   5.961   5.765  1.5070  0.8367 -1.5511
 9734TIP3   OH229158   3.528   4.924   1.773  0.2948  0.3257  0.0236
 9734TIP3    H129159   3.511   4.900   1.682  0.1297  0.2833  0.0664
 9734TIP3    H229160   3.544   5.018   1.771  0.1825  0.3430 -0.0338
 9735TIP3   OH229161   0.153   5.169   0.717 -0.4757 -0.3926 -0.1957
 9735TIP3    H129162   0.231   5.113   0.712 -1.0693 -1.1698 -1.0302
 9735TIP3    H229163   0.100   5.127   0.785 -0.8091 -0.7112 -0.6477
 9736TIP3   OH229164   2.582   3.382   1.517 -0.4620 -0.1036 -0.4544
 9736TIP3    H129165   2.602   3.475   1.501 -0.2346  0.4600  2.5164
 9736TIP3    H229166   2.657   3.335   1.481  0.8217  1.1248  0.4792
 9737TIP3   OH229167   4.547   0.270   5.866 -0.1926  0.2732  0.2494
 9737TIP3    H129168   4.594   0.321   5.800 -0.1129 -0.8243 -0.5750
 9737TIP3    H229169   4.510   0.336   5.925  1.7503  1.2005  0.5160
 9738TIP3   OH229170   4.090   5.752   0.194 -0.0038  0.6354  0.2607
 9738TIP3    H129171   4.000   5.726   0.215 -0.2293  1.7439  0.7023
 9738TIP3    H229172   4.099   5.734   0.101 -0.5381  0.1265  0.2981
 9739TIP3   OH229173   6.432   3.197   6.520 -0.0836  0.3905  0.0313
 9739TIP3    H129174   6.340   3.193   6.492 -0.2335  0.7678  0.4570
 9739TIP3    H229175   6.442   3.121   6.577 -0.2642  0.6036  0.3548
 9740TIP3   OH229176   3.513   0.555   4.051 -0.2585 -0.2046  0.2936
 9740TIP3    H129177   3.533   0.524   4.139 -2.1748 -0.8420  0.5433
 9740TIP3    H229178   3.552   0.490   3.992 -2.1225 -1.7980  0.7644
 9741TIP3   OH229179   7.977   5.305   5.519 -0.8244 -0.0503 -0.2919
 9741TIP3    H129180   8.038   5.374   5.492 -0.4256 -0.5637 -0.7064
 9741TIP3    H229181   7.924   5.346   5.588 -0.0533  0.4224  0.0312
 9742TIP3   OH229182   0.106   1.566   0.482 -0.0027  0.6844  0.1609
 9742TIP3    H129183   0.033   1.612   0.524 -1.6221 -1.9203  0.4451
 9742TIP3    H229184   0.184   1.609   0.517 -1.3206  3.6747 -0.2425
 9743TIP3   OH229185   4.266   4.872   5.888  0.3597  0.4583 -0.4491
 9743TIP3    H129186   4.221   4.884   5.971  1.0520 -0.2283  0.0360
 9743TIP3    H229187   4.282   4.778   5.883  2.5830  0.7697 -0.1504
 9744TIP3   OH229188   0.472   2.601   4.172  0.1981  0.0698 -0.1101
 9744TIP3    H129189   0.492   2.644   4.089  0.0764 -1.2692 -0.8664
 9744TIP3    H229190   0.515   2.655   4.238  1.3581  0.4806 -1.1544
 9745TIP3   OH229191   5.470   0.247   5.711  0.4676 -0.1033 -0.1436
 9745TIP3    H129192   5.381   0.279   5.696 -0.0782 -1.3353  0.4030
 9745TIP3    H229193   5.523   0.327   5.711 -0.3428  0.5232 -2.3387
 9746TIP3   OH229194   1.801   5.250   1.957  0.3867  0.3355 -0.3404
 9746TIP3    H129195   1.708   5.267   1.974  0.2836  0.2552 -0.8139
 9746TIP3    H229196   1.830   5.324   1.904  0.8743  0.9184  0.7047
 9747TIP3   OH229197   3.415   3.851   0.504  0.1593  0.1565 -0.4465
 9747TIP3    H129198   3.499   3.836   0.549  0.7990  1.0920 -1.2763
 9747TIP3    H229199   3.349   3.836   0.571  1.1021  2.1637  1.0294
 9748TIP3   OH229200   7.303   0.579   1.779 -0.0662  0.1185 -0.0359
 9748TIP3    H129201   7.268   0.528   1.852  1.3035 -1.3824 -0.3807
 9748TIP3    H229202   7.362   0.642   1.821  1.8258 -1.6672  0.1302
 9749TIP3   OH229203   1.325   2.493   5.276  0.0707  0.2296 -0.0983
 9749TIP3    H129204   1.304   2.575   5.320  0.5286  0.4741 -0.3276
 9749TIP3    H229205   1.347   2.432   5.347 -0.6512  0.1873  0.0945
 9750TIP3   OH229206   3.577   6.601   4.905  0.0796  0.2873  0.5057
 9750TIP3    H129207   3.489   6.614   4.870 -0.1353 -1.2445  0.4312
 9750TIP3    H229208   3.597   6.510   4.887  1.5063  0.4910  0.9491
 9751TIP3   OH229209   2.845   7.052   5.862 -0.2396  0.3797  0.0945
 9751TIP3    H129210   2.871   7.043   5.954  0.4386  0.7849 -0.0590
 9751TIP3    H229211   2.808   6.966   5.840 -1.8110  0.7248  1.1703
 9752TIP3   OH229212   5.589   7.764   1.097  0.4923 -0.5915 -0.0692
 9752TIP3    H129213   5.647   7.718   1.036 -0.2999 -0.3720 -1.0204
 9752TIP3    H229214   5.610   7.727   1.182  1.9006 -0.6441 -0.4055
 9753TIP3   OH229215   1.376   4.373   2.826 -0.1459  0.2215  0.2727
 9753TIP3    H129216   1.367   4.278   2.829 -0.7945  0.2511 -0.6293
 9753TIP3    H229217   1.292   4.406   2.858  0.1420  0.4992  0.7558
 9754TIP3   OH229218   7.330   2.036   2.823  0.1399 -0.1587 -0.1756
 9754TIP3    H129219   7.282   1.960   2.855  1.5400 -0.9332  0.1645
 9754TIP3    H229220   7.392   2.001   2.759 -0.0761  0.8803 -0.9870
 9755TIP3   OH229221   5.716   6.648   1.154  0.6463  0.1244 -0.0294
 9755TIP3    H129222   5.781   6.604   1.099  0.2808  0.2869 -0.5903
 9755TIP3    H229223   5.681   6.718   1.100  0.1070  0.1367  0.3252
 9756TIP3   OH229224   2.581   1.266   5.553 -0.4802 -0.4370 -0.2900
 9756TIP3    H129225   2.654   1.208   5.530 -0.9697 -1.5053  0.7090
 9756TIP3    H229226   2.503   1.212   5.540 -1.1181  0.6985 -1.3618
 9757TIP3   OH229227   5.002   6.066   5.149  0.2081  0.0993 -0.3478
 9757TIP3    H129228   5.081   6.105   5.186  0.2715 -0.3207 -0.0321
 9757TIP3    H229229   4.931   6.094   5.207  0.3146 -0.6002  0.1305
 9758TIP3   OH229230   4.970   4.041   3.195 -0.1177 -0.2834  1.2719
 9758TIP3    H129231   4.935   3.956   3.170 -1.9406  0.7288  0.0973
 9758TIP3    H229232   4.936   4.057   3.283  0.7524 -1.0030  1.7544
 9759TIP3   OH229233   7.294   1.171   0.949 -0.7439  0.2042 -0.0756
 9759TIP3    H129234   7.222   1.159   1.011 -2.3424 -0.4402 -1.9349
 9759TIP3    H229235   7.318   1.082   0.922 -0.0434  0.4623 -0.3241
 9760TIP3   OH229236   1.349   1.126   3.646 -0.1703  0.0566 -0.4761
 9760TIP3    H129237   1.327   1.201   3.592 -0.9636  0.4545  0.3714
 9760TIP3    H229238   1.421   1.156   3.701 -1.4607  0.7288  0.9189
 9761TIP3   OH229239   6.619   6.747   6.565  0.9350  0.6218 -0.0077
 9761TIP3    H129240   6.611   6.696   6.645  0.9829 -0.2020 -0.5144
 9761TIP3    H229241   6.669   6.824   6.590 -1.2185  1.6751  1.3386
 9762TIP3   OH229242   7.153   4.284   6.125  0.2754  0.2292 -0.0154
 9762TIP3    H129243   7.102   4.277   6.206 -0.2107 -1.0177 -0.3945
 9762TIP3    H229244   7.234   4.238   6.144  1.2283  2.0363  0.5180
 9763TIP3   OH229245   2.190   6.374   2.730  0.4804  0.2855  0.3351
 9763TIP3    H129246   2.148   6.315   2.668  1.0749 -1.2368  1.3276
 9763TIP3    H229247   2.277   6.392   2.692 -0.2408  1.7910 -0.7066
 9764TIP3   OH229248   3.566   0.266   3.293  0.0157  0.2483  0.4479
 9764TIP3    H129249   3.645   0.262   3.347  0.0525  0.1302  0.3849
 9764TIP3    H229250   3.530   0.353   3.310  0.2051  0.3348  0.4116
 9765TIP3   OH229251   4.145   2.820   3.736 -0.0419  0.0802 -0.0068
 9765TIP3    H129252   4.209   2.858   3.796  0.9842 -0.8791 -0.4505
 9765TIP3    H229253   4.060   2.852   3.768  0.6984  2.4163 -0.1383
 9766TIP3   OH229254   1.513   7.639   5.325 -0.1804 -0.3992 -0.3941
 9766TIP3    H129255   1.529   7.683   5.242 -1.2277  2.5484  0.8412
 9766TIP3    H229256   1.600   7.610   5.353  0.1896 -1.5230 -2.4694
 9767TIP3   OH229257   6.675   0.326   3.646  0.2206 -0.6330  0.2566
 9767TIP3    H129258   6.693   0.233   3.640 -0.9972 -0.8894  0.3443
 9767TIP3    H229259   6.590   0.337   3.603  0.0910  0.3407  0.7299
 9768TIP3   OH229260   2.687   5.820   4.696 -0.5313 -0.1727  0.2956
 9768TIP3    H129261   2.718   5.901   4.736  0.1353  0.1215 -0.7817
 9768TIP3    H229262   2.674   5.842   4.604 -3.6443 -0.3522  0.5788
 9769TIP3   OH229263   3.501   0.097   4.030 -0.5436 -0.7715 -0.1510
 9769TIP3    H129264   3.565   0.104   4.101 -0.0749  1.2786 -0.7083
 9769TIP3    H229265   3.419   0.127   4.068 -0.8854 -2.0403  0.1669
 9770TIP3   OH229266   6.619   7.384   0.592 -0.1815  0.6044  0.1358
 9770TIP3    H129267   6.526   7.405   0.588  0.0152  1.3557 -0.5432
 9770TIP3    H229268   6.622   7.288   0.584 -0.8414  0.6459 -0.6883
 9771TIP3   OH229269   1.995   5.787   6.377 -0.1156 -0.5200  0.2153
 9771TIP3    H129270   2.080   5.827   6.393  0.1070 -1.1352  0.6205
 9771TIP3    H229271   1.989   5.777   6.282  2.0316 -4.1638  0.2987
 9772TIP3   OH229272   0.942   1.938   6.018 -0.0186  0.0437  0.0774
 9772TIP3    H129273   1.004   1.892   6.074 -0.2412 -0.7522 -0.3146
 9772TIP3    H229274   0.873   1.966   6.078 -0.2889 -0.8615  0.2060
 9773TIP3   OH229275   7.513   4.420   6.289  0.7435  0.4115 -0.0272
 9773TIP3    H129276   7.427   4.440   6.326  0.1856 -0.0317 -1.0464
 9773TIP3    H229277   7.527   4.328   6.309 -0.3767 -0.3504 -2.3828
 9774TIP3   OH229278   1.531   0.892   3.372  0.5130 -0.8835 -0.3589
 9774TIP3    H129279   1.543   0.862   3.282 -2.3860 -1.2880 -0.6997
 9774TIP3    H229280   1.592   0.839   3.423  3.5294  0.5630 -2.1594
 9775TIP3   OH229281   6.708   7.459   6.699 -0.5724  0.5190  0.0503
 9775TIP3    H129282   6.661   7.377   6.709  1.5008 -0.6927  0.3659
 9775TIP3    H229283   6.686   7.509   6.778 -0.8939 -0.2415  0.4501
 9776TIP3   OH229284   4.360   5.231   2.084  0.0273  0.5219  0.9237
 9776TIP3    H129285   4.370   5.138   2.106 -0.2330  0.3158  0.2159
 9776TIP3    H229286   4.446   5.270   2.100  0.4276 -0.0567  0.2557
 9777TIP3   OH229287   2.562   0.945   1.110 -0.3463  0.0111 -0.5593
 9777TIP3    H129288   2.581   1.039   1.098 -0.2000  0.5049  2.6586
 9777TIP3    H229289   2.648   0.904   1.118 -0.4104 -0.4582 -1.9649
 9778TIP3   OH229290   0.397   2.224   1.526 -0.4204 -0.0161  0.4483
 9778TIP3    H129291   0.434   2.253   1.610 -1.4540  0.2687  0.8242
 9778TIP3    H229292   0.359   2.138   1.545 -0.0788 -0.2448  0.1025
 9779TIP3   OH229293   4.527   5.484   3.335 -0.1238 -0.0840  0.7935
 9779TIP3    H129294   4.600   5.452   3.281  0.3990  0.6666  1.0421
 9779TIP3    H229295   4.548   5.454   3.423  0.5827  1.2352  1.1067
 9780TIP3   OH229296   5.811   1.744   2.002  0.2652 -0.2536 -0.4823
 9780TIP3    H129297   5.724   1.785   2.000  0.6416  0.7097  1.3725
 9780TIP3    H229298   5.793   1.652   2.022 -0.3744 -0.2973 -1.1820
 9781TIP3   OH229299   4.171   2.157   3.090  0.3954  0.6454 -0.5068
 9781TIP3    H129300   4.221   2.098   3.033  0.3480  0.6186 -0.5211
 9781TIP3    H229301   4.232   2.181   3.159  0.1081 -0.2648  0.0853
 9782TIP3   OH229302   4.740   0.500   4.328  0.3662 -1.0876  0.4599
 9782TIP3    H129303   4.759   0.517   4.236  2.0571 -1.0371  0.7922
 9782TIP3    H229304   4.670   0.435   4.326 -2.6778  1.8996 -0.8344
 9783TIP3   OH229305   3.344   5.253   1.296  0.1584 -0.3021 -0.1802
 9783TIP3    H129306   3.288   5.260   1.219 -0.4906 -2.9613 -0.0673
 9783TIP3    H229307   3.430   5.227   1.261  0.4581  0.5579 -0.1157
 9784TIP3   OH229308   1.643   5.301   6.590 -0.2773  0.3010 -0.4193
 9784TIP3    H129309   1.565   5.272   6.639  0.0886  0.3247  0.1816
 9784TIP3    H229310   1.630   5.394   6.577  0.5644  0.7331  1.4355
 9785TIP3   OH229311   1.285   0.463   3.851 -0.0712 -0.4992  0.2157
 9785TIP3    H129312   1.367   0.483   3.897 -0.0453  1.3133 -0.5426
 9785TIP3    H229313   1.308   0.391   3.792  1.0586  0.1293 -0.1510
 9786TIP3   OH229314   5.721   2.154   4.352  0.4219  0.1601  0.1913
 9786TIP3    H129315   5.688   2.214   4.419 -0.6102 -1.6877  1.4282
 9786TIP3    H229316   5.805   2.124   4.386 -0.7240 -1.8568  1.4814
 9787TIP3   OH229317   7.215   4.559   6.091  0.0326 -0.1255 -0.1232
 9787TIP3    H129318   7.194   4.478   6.137  0.4765  0.6520  1.5432
 9787TIP3    H229319   7.252   4.616   6.159 -0.7213  1.6505 -1.1323
 9788TIP3   OH229320   4.692   4.777   4.954 -0.1699 -0.2011  0.4047
 9788TIP3    H129321   4.726   4.850   5.007  1.5735 -1.2047  0.7229
 9788TIP3    H229322   4.597   4.791   4.954 -0.1079  0.7107  2.5168
 9789TIP3   OH229323   4.770   2.884   4.605 -0.0698  0.3581 -0.6718
 9789TIP3    H129324   4.804   2.962   4.648  0.4878 -0.7322  1.0001
 9789TIP3    H229325   4.846   2.825   4.598 -0.9580 -0.9853  0.4460
 9790TIP3   OH229326   4.836   1.678   6.524  0.1113 -0.1952 -0.0298
 9790TIP3    H129327   4.832   1.695   6.430  1.0811 -0.5701 -0.1553
 9790TIP3    H229328   4.927   1.652   6.539  0.0520  0.1982  1.0737
 9791TIP3   OH229329   7.592   2.073   5.828  0.6559  0.4399  0.7880
 9791TIP3    H129330   7.612   1.979   5.834  0.9811  0.4029 -0.5580
 9791TIP3    H229331   7.677   2.116   5.830  0.5265  0.6852  1.0561
 9792TIP3   OH229332   3.286   5.507   3.972 -0.1952 -0.1148 -0.2270
 9792TIP3    H129333   3.361   5.565   3.954  0.4051 -0.7212  0.2643
 9792TIP3    H229334   3.210   5.564   3.965  0.3375  0.6036 -0.3605
 9793TIP3   OH229335   1.635   1.435   4.462 -0.5953 -0.3081  0.2515
 9793TIP3    H129336   1.722   1.474   4.471 -0.0674 -1.1228 -1.0682
 9793TIP3    H229337   1.580   1.505   4.426 -0.1913 -0.1582 -0.0668
 9794TIP3   OH229338   3.359   4.500   4.546 -0.5208  0.1226  0.5243
 9794TIP3    H129339   3.416   4.467   4.476 -1.0423  0.7256 -0.1986
 9794TIP3    H229340   3.417   4.515   4.620  0.6137  2.4468 -0.7383
 9795TIP3   OH229341   2.218   5.701   4.864  0.0785 -0.1569 -0.3063
 9795TIP3    H129342   2.232   5.774   4.923  0.8181  1.4622 -2.3537
 9795TIP3    H229343   2.152   5.732   4.802  0.6041 -1.0758 -1.3798
 9796TIP3   OH229344   2.530   2.980   1.498  0.1322  0.2328  0.1764
 9796TIP3    H129345   2.600   2.916   1.500  0.2874  0.4103  0.3420
 9796TIP3    H229346   2.563   3.055   1.547  0.1376  0.6301 -0.4230
 9797TIP3   OH229347   7.520   6.832   3.973 -0.1822  0.5347  0.2559
 9797TIP3    H129348   7.479   6.916   3.992 -1.4853 -0.0922  0.3325
 9797TIP3    H229349   7.574   6.814   4.050 -0.7851  0.7734  0.7448
 9798TIP3   OH229350   1.641   4.411   2.922 -0.5817 -0.5243  0.5400
 9798TIP3    H129351   1.553   4.405   2.886 -0.2372 -0.6037 -0.3137
 9798TIP3    H229352   1.636   4.366   3.006 -1.2915 -0.7657  0.3696
 9799TIP3   OH229353   0.267   6.136   1.738 -0.5867 -0.1414  0.3013
 9799TIP3    H129354   0.335   6.100   1.795  0.0479 -0.4549 -0.6429
 9799TIP3    H229355   0.203   6.173   1.799  0.6140  0.5235  1.2044
 9800TIP3   OH229356   0.315   3.865   2.689 -0.0936  0.2707  0.9874
 9800TIP3    H129357   0.319   3.860   2.594  0.9609  1.6336  0.9360
 9800TIP3    H229358   0.261   3.789   2.715 -3.8855  2.0334 -0.9283
 9801TIP3   OH229359   5.379   0.987   0.933  0.6083 -0.2097 -0.3106
 9801TIP3    H129360   5.327   1.060   0.900  1.2366  1.4885  2.1817
 9801TIP3    H229361   5.425   0.953   0.855  0.0333  1.8171 -1.6006
 9802TIP3   OH229362   5.892   3.472   6.283 -0.5320  0.6621 -0.4462
 9802TIP3    H129363   5.801   3.453   6.261 -0.2554 -1.6564  0.1737
 9802TIP3    H229364   5.896   3.458   6.378  0.3659  1.2128 -0.3985
 9803TIP3   OH229365   5.139   4.544   2.282 -0.3493 -0.6597  0.4614
 9803TIP3    H129366   5.071   4.486   2.316 -0.8255 -0.2929  0.1412
 9803TIP3    H229367   5.092   4.610   2.231  0.2815 -0.6969 -0.1945
 9804TIP3   OH229368   2.176   5.594   0.868  0.3080 -0.5106 -0.0224
 9804TIP3    H129369   2.198   5.685   0.888 -0.4662  0.0079 -1.3715
 9804TIP3    H229370   2.147   5.596   0.777 -1.5696 -1.7823  0.4836
 9805TIP3   OH229371   7.383   1.206   1.949  0.2971 -0.8683  0.0747
 9805TIP3    H129372   7.390   1.287   1.898 -2.5149 -0.5634  0.0129
 9805TIP3    H229373   7.414   1.229   2.036  0.3425  0.0351 -0.1741
 9806TIP3   OH229374   7.596   2.621   2.339 -0.1493 -0.4960  0.4663
 9806TIP3    H129375   7.549   2.589   2.416  0.0517  0.2481  0.9101
 9806TIP3    H229376   7.546   2.589   2.264 -0.2668 -1.3487  0.9042
 9807TIP3   OH229377   6.023   4.231   5.970 -0.0593 -0.3286  0.0409
 9807TIP3    H129378   6.006   4.322   5.948  0.3101 -0.0650  0.8134
 9807TIP3    H229379   5.941   4.186   5.950 -0.2915  0.1974 -0.2055
 9808TIP3   OH229380   3.275   1.329   2.046  0.3154  0.4004  0.2347
 9808TIP3    H129381   3.357   1.360   2.084 -1.4441  0.9221  4.1202
 9808TIP3    H229382   3.207   1.363   2.105 -2.4259 -3.1425 -0.5442
 9809TIP3   OH229383   0.538   3.780   4.142  0.6717  0.5654 -0.2588
 9809TIP3    H129384   0.515   3.737   4.059 -2.1656  1.8604 -0.2515
 9809TIP3    H229385   0.487   3.734   4.208 -0.3530  2.1848  0.1233
 9810TIP3   OH229386   0.809   7.571   1.236 -0.8327 -0.3014 -0.1786
 9810TIP3    H129387   0.783   7.663   1.243  1.3423  0.4570 -1.1702
 9810TIP3    H229388   0.749   7.533   1.172 -0.1947  1.1042 -1.6578
 9811TIP3   OH229389   1.556   5.893   2.364 -0.0238  0.3424  0.3532
 9811TIP3    H129390   1.516   5.968   2.320 -0.2374  0.0687  0.0705
 9811TIP3    H229391   1.481   5.845   2.400  0.1690  0.7229  1.2759
 9812TIP3   OH229392   2.537   2.672   5.970 -0.4409 -0.0286 -0.1977
 9812TIP3    H129393   2.541   2.679   6.066  0.3253 -0.4880 -0.1890
 9812TIP3    H229394   2.449   2.704   5.948 -0.4148  0.6554  0.6039
 9813TIP3   OH229395   1.421   6.256   1.612 -0.0686 -0.6439  0.5194
 9813TIP3    H129396   1.372   6.283   1.535 -0.3932  0.3153  1.0372
 9813TIP3    H229397   1.486   6.325   1.624 -0.3846 -0.4819  1.4162
 9814TIP3   OH229398   1.619   0.728   2.566  0.3234 -0.6400  0.6772
 9814TIP3    H129399   1.551   0.660   2.562  0.6922 -1.0001  0.4508
 9814TIP3    H229400   1.578   0.799   2.616 -0.2369 -0.8327  0.5072
 9815TIP3   OH229401   5.446   6.382   4.289 -0.0180 -0.4853 -0.7736
 9815TIP3    H129402   5.460   6.411   4.199  0.5535 -0.3387 -0.6408
 9815TIP3    H229403   5.399   6.455   4.330  1.3225  0.2340 -0.4689
 9816TIP3   OH229404   6.975   6.718   4.559  0.2481 -0.3776 -0.3169
 9816TIP3    H129405   6.937   6.680   4.639  1.0984  0.2329  0.4032
 9816TIP3    H229406   7.040   6.654   4.530 -2.1574 -2.0954 -2.3453
 9817TIP3   OH229407   3.530   3.601   5.453 -0.5495  0.2497  0.3734
 9817TIP3    H129408   3.513   3.517   5.411  1.1045 -0.1662  0.4791
 9817TIP3    H229409   3.586   3.580   5.528 -0.1444  1.4237  0.4230
 9818TIP3   OH229410   5.058   1.208   6.697 -0.0195  0.0835 -0.2804
 9818TIP3    H129411   5.027   1.126   6.735  3.5953 -0.2730  2.4394
 9818TIP3    H229412   5.059   1.269   6.771  1.8270  1.1332 -1.1110
 9819TIP3   OH229413   2.329   2.335   1.077 -0.3115  0.3077 -0.0860
 9819TIP3    H129414   2.314   2.380   1.160  0.0207  1.7108 -0.7624
 9819TIP3    H229415   2.246   2.342   1.030 -0.4099 -0.2360 -0.0047
 9820TIP3   OH229416   0.118   3.407   0.049  0.3554  0.3562 -0.2187
 9820TIP3    H129417   0.070   3.360  -0.019  0.4992  1.1720 -0.8981
 9820TIP3    H229418   0.208   3.377   0.040 -0.0356 -1.5212  1.3520
 9821TIP3   OH229419   7.379   7.372   4.706  0.8490  0.7051  0.0730
 9821TIP3    H129420   7.299   7.324   4.726  0.5956  0.4901 -1.3265
 9821TIP3    H229421   7.348   7.452   4.663  1.3608  1.0040  0.2563
 9822TIP3   OH229422   6.161   7.294   4.356 -0.4941  0.5218 -0.1109
 9822TIP3    H129423   6.170   7.212   4.309  1.4999 -0.0123  1.1103
 9822TIP3    H229424   6.183   7.273   4.447  2.3899  2.7805 -0.1406
 9823TIP3   OH229425   0.241   7.255   3.727  0.2490  0.0554 -0.1159
 9823TIP3    H129426   0.207   7.165   3.723  1.3971 -0.5301  1.8495
 9823TIP3    H229427   0.208   7.289   3.810  0.4850  1.1722 -0.4709
 9824TIP3   OH229428   2.832   0.375   2.321  0.6912  0.8833  0.5623
 9824TIP3    H129429   2.738   0.391   2.329  0.5053  0.8527 -1.1663
 9824TIP3    H229430   2.863   0.441   2.260  1.9033  1.1596  1.4242
 9825TIP3   OH229431   1.287   3.739   0.288  0.8991  0.0811 -0.2140
 9825TIP3    H129432   1.337   3.821   0.291 -1.3841  1.8800 -3.5789
 9825TIP3    H229433   1.204   3.761   0.330  1.2394 -1.4768  1.3630
 9826TIP3   OH229434   3.849   6.794   6.019  0.0317  0.0259  0.3307
 9826TIP3    H129435   3.851   6.759   5.930 -2.3601  0.2456  0.1167
 9826TIP3    H229436   3.930   6.762   6.059 -0.0785 -2.3256 -1.1039
 9827TIP3   OH229437   5.613   6.389   1.049  1.0566  0.6021  0.0633
 9827TIP3    H129438   5.607   6.475   1.092 -2.7589  0.3955  0.3060
 9827TIP3    H229439   5.585   6.327   1.117  0.6429 -0.4148 -1.0166
 9828TIP3   OH229440   7.100   5.010   2.304  0.1779  0.6299  0.4085
 9828TIP3    H129441   7.137   4.940   2.357 -0.6091  0.1149  0.2921
 9828TIP3    H229442   7.130   4.991   2.215 -2.8690 -1.6515 -0.2885
 9829TIP3   OH229443   6.941   1.107   3.992  0.1493 -0.4240  0.1488
 9829TIP3    H129444   6.942   1.069   4.079 -0.5055  0.5680  0.6095
 9829TIP3    H229445   6.989   1.190   4.001 -1.6113  0.6562  0.0677
 9830TIP3   OH229446   5.706   7.100   1.972  0.0580 -0.0444  0.5751
 9830TIP3    H129447   5.674   7.069   2.057 -2.8897 -0.5501 -0.5859
 9830TIP3    H229448   5.707   7.022   1.917 -2.6316  0.9278 -1.0373
 9831TIP3   OH229449   4.878   1.403   1.138  0.1404 -0.4363 -0.5824
 9831TIP3    H129450   4.941   1.474   1.143 -1.0985  0.5872  2.7563
 9831TIP3    H229451   4.931   1.324   1.133  1.6984  0.4487  1.2011
 9832TIP3   OH229452   1.778   3.463   6.024 -0.2155  0.3537 -0.0981
 9832TIP3    H129453   1.682   3.470   6.019 -0.7285 -1.9428  2.9908
 9832TIP3    H229454   1.796   3.371   6.002  1.1130  0.4120  0.6479
 9833TIP3   OH229455   6.703   3.308   6.630 -0.5165 -0.2301  0.5605
 9833TIP3    H129456   6.619   3.337   6.595 -0.5839  0.1261  1.0071
 9833TIP3    H229457   6.704   3.214   6.614 -0.1098  0.0484 -1.2859
 9834TIP3   OH229458   2.458   7.462   1.272 -0.2182  0.4186 -0.2720
 9834TIP3    H129459   2.411   7.537   1.310 -0.7603  0.4923 -1.0657
 9834TIP3    H229460   2.399   7.388   1.285 -0.4409  0.4597 -1.0298
 9835TIP3   OH229461   4.573   5.448   1.936  0.2869  0.2638 -0.3487
 9835TIP3    H129462   4.627   5.524   1.911  0.1056  0.3497 -0.4831
 9835TIP3    H229463   4.609   5.375   1.886  0.9440  0.0965  0.3443
 9836TIP3   OH229464   0.603   3.386   1.558  0.3836  0.1113  0.3418
 9836TIP3    H129465   0.682   3.377   1.610 -0.0310 -2.4525  0.6369
 9836TIP3    H229466   0.608   3.317   1.492 -0.8881  0.8829 -0.6253
 9837TIP3   OH229467   7.786   1.718   4.875  0.2855  0.0422  0.1008
 9837TIP3    H129468   7.812   1.682   4.790 -0.2326 -2.1847  0.8100
 9837TIP3    H229469   7.860   1.700   4.932  0.9009  2.1132  0.0343
 9838TIP3   OH229470   5.003   0.724   5.808 -0.1995  0.2863  0.2439
 9838TIP3    H129471   5.020   0.728   5.903 -0.1128  0.7408  0.2114
 9838TIP3    H229472   4.908   0.716   5.801 -0.1008 -1.2790  0.4050
 9839TIP3   OH229473   5.851   0.097   4.440  0.2344 -0.1820 -0.0528
 9839TIP3    H129474   5.897   0.164   4.490  2.4603 -0.1964 -1.9356
 9839TIP3    H229475   5.759   0.120   4.449  0.8053  1.9291  1.0005
 9840TIP3   OH229476   4.809   0.211   6.153 -0.6853  0.0299 -0.0998
 9840TIP3    H129477   4.723   0.169   6.162  0.2248 -1.4821  2.7204
 9840TIP3    H229478   4.791   0.304   6.163 -1.9561 -0.2923  0.8744
 9841TIP3   OH229479   5.826   6.006   0.330  0.2040 -0.2606  0.0101
 9841TIP3    H129480   5.854   6.043   0.414  1.0834 -1.2511  0.1726
 9841TIP3    H229481   5.824   5.912   0.345 -3.6302 -0.3221  0.1128
 9842TIP3   OH229482   4.986   3.000   0.225  0.1209  0.1787  0.1134
 9842TIP3    H129483   4.987   2.906   0.208  0.7345  0.3506 -0.8500
 9842TIP3    H229484   4.907   3.032   0.182  0.1588  0.1796  0.0449
 9843TIP3   OH229485   7.750   3.584   2.877 -0.0164 -0.2965 -0.1620
 9843TIP3    H129486   7.781   3.606   2.789 -1.1641  1.1763 -0.2320
 9843TIP3    H229487   7.777   3.493   2.890 -0.4893 -0.7946 -2.3346
 9844TIP3   OH229488   6.543   6.389   3.815 -0.8616 -0.0002 -0.0167
 9844TIP3    H129489   6.603   6.347   3.876 -1.5852  0.7255  1.2211
 9844TIP3    H229490   6.594   6.398   3.734  1.0558  1.4010  1.2494
 9845TIP3   OH229491   2.609   4.160   2.632 -0.2326 -0.3374  0.3707
 9845TIP3    H129492   2.560   4.242   2.632  2.1412  1.2800  2.9830
 9845TIP3    H229493   2.695   4.183   2.599  0.2881 -1.9863  0.4543
 9846TIP3   OH229494   3.802   6.097   1.108  0.6048 -0.1795 -0.0963
 9846TIP3    H129495   3.754   6.016   1.125  1.1459 -1.1086 -2.5761
 9846TIP3    H229496   3.736   6.156   1.072  0.1355  0.6861  2.0233
 9847TIP3   OH229497   7.282   1.235   3.687 -0.2280  0.4676  0.5833
 9847TIP3    H129498   7.354   1.280   3.731  0.8728 -0.1342 -0.5249
 9847TIP3    H229499   7.317   1.148   3.668 -0.8560  0.5124 -0.9109
 9848TIP3   OH229500   3.943   0.088   0.638  0.2148 -0.1497  0.6775
 9848TIP3    H129501   3.927   0.145   0.563 -2.0667 -1.0202  0.4442
 9848TIP3    H229502   3.911   0.139   0.713  1.0318  0.0756  0.8892
 9849TIP3   OH229503   6.297   3.121   0.935 -0.1980  0.6010  0.4714
 9849TIP3    H129504   6.380   3.166   0.953 -0.0887  0.3579  0.5806
 9849TIP3    H229505   6.244   3.137   1.013 -0.6372  1.6089 -0.0075
 9850TIP3   OH229506   3.555   2.579   0.938  0.2311  0.1423 -1.0178
 9850TIP3    H129507   3.553   2.669   0.968  0.4267 -0.5342  1.2134
 9850TIP3    H229508   3.544   2.527   1.018  2.0114 -1.8432 -1.9576
 9851TIP3   OH229509   7.771   5.937   2.907  0.2258  0.1012  0.0680
 9851TIP3    H129510   7.765   5.842   2.915  0.9508 -0.0887 -1.2441
 9851TIP3    H229511   7.861   5.958   2.928  0.7208  0.1796 -1.8809
 9852TIP3   OH229512   5.276   6.953   3.410 -0.0788 -0.9183  0.5808
 9852TIP3    H129513   5.245   6.886   3.470  1.4889 -2.1561  0.0584
 9852TIP3    H229514   5.368   6.966   3.434 -0.0564  0.2286 -0.0716
 9853TIP3   OH229515   8.127   0.568   5.280  0.2059  0.3341  0.0828
 9853TIP3    H129516   8.046   0.620   5.281  0.6401  1.0269  0.0863
 9853TIP3    H229517   8.188   0.620   5.228  0.0876 -1.0627 -1.5465
 9854TIP3   OH229518   0.635   7.599   3.292 -0.0934  0.8337  0.2868
 9854TIP3    H129519   0.722   7.560   3.294 -0.9456 -1.2276  0.3858
 9854TIP3    H229520   0.616   7.620   3.384  0.0094  0.5594  0.3720
 9855TIP3   OH229521   0.203   1.677   4.527  0.5174  0.1750  0.9212
 9855TIP3    H129522   0.268   1.738   4.491  0.9248 -0.2167  0.9905
 9855TIP3    H229523   0.224   1.593   4.486  1.3329 -0.4087  2.4596
 9856TIP3   OH229524   3.660   1.875   4.550 -0.3090  0.1335 -0.6538
 9856TIP3    H129525   3.707   1.795   4.574 -0.3276 -0.0475 -1.2071
 9856TIP3    H229526   3.689   1.940   4.613 -0.0781 -0.2378 -0.3737
 9857TIP3   OH229527   0.159   5.115   4.935 -0.3186  0.2408 -0.1993
 9857TIP3    H129528   0.068   5.091   4.946 -0.1321 -0.7945 -0.8052
 9857TIP3    H229529   0.209   5.041   4.968  0.3028  0.6769 -0.1282
 9858TIP3   OH229530   5.003   5.631   3.601 -0.7098 -0.1715 -0.1269
 9858TIP3    H129531   4.978   5.544   3.634  0.2644 -0.7741 -0.9413
 9858TIP3    H229532   4.929   5.687   3.625 -0.3902 -0.7126  2.4460
 9859TIP3   OH229533   0.144   7.744   3.273 -0.1001  0.1315 -0.0295
 9859TIP3    H129534   0.075   7.718   3.334 -1.9785  2.2683 -1.1192
 9859TIP3    H229535   0.170   7.662   3.230 -1.9049 -0.7593  0.4810
 9860TIP3   OH229536   7.468   2.633   1.432  0.0885 -0.0162  0.1365
 9860TIP3    H129537   7.555   2.658   1.403 -0.1628 -0.5770 -1.2372
 9860TIP3    H229538   7.476   2.540   1.454  0.2802  0.4157  1.9857
 9861TIP3   OH229539   0.224   4.562   0.314  0.0997  0.0658  0.2575
 9861TIP3    H129540   0.208   4.565   0.220 -0.2965 -1.1807  0.2772
 9861TIP3    H229541   0.144   4.525   0.352  1.0564 -1.4594  0.8639
 9862TIP3   OH229542   6.809   4.395   4.453 -0.2760 -0.7027  0.4772
 9862TIP3    H129543   6.901   4.415   4.468 -0.6851  0.6275  1.4733
 9862TIP3    H229544   6.764   4.436   4.527 -1.6165 -1.8322  0.3288
 9863TIP3   OH229545   6.545   5.455   1.731  0.8933 -0.3468 -0.0930
 9863TIP3    H129546   6.543   5.384   1.667  3.8426 -0.4609 -0.1957
 9863TIP3    H229547   6.614   5.431   1.792  1.2252  1.8944  0.5162
 9864TIP3   OH229548   7.763   7.626   0.722  0.2015  0.9352  0.3018
 9864TIP3    H129549   7.800   7.538   0.731 -1.0307  0.3635 -0.0735
 9864TIP3    H229550   7.834   7.678   0.684  0.8747  0.0560  0.3331
 9865TIP3   OH229551   3.104   7.234   5.085  0.2384 -0.5027  0.2807
 9865TIP3    H129552   3.052   7.219   5.164 -0.7900  0.1443 -0.2405
 9865TIP3    H229553   3.072   7.318   5.051 -2.1926 -2.4673 -2.9129
 9866TIP3   OH229554   2.470   0.159   0.342  0.3468  0.1781 -0.3009
 9866TIP3    H129555   2.406   0.118   0.284 -0.1022  0.2536  0.1344
 9866TIP3    H229556   2.418   0.209   0.405  0.8244  0.1555  0.1271
 9867TIP3   OH229557   7.693   0.053   2.842 -0.4196 -0.1588 -0.2561
 9867TIP3    H129558   7.689   0.090   2.754 -3.0042 -1.6695 -0.8966
 9867TIP3    H229559   7.648  -0.031   2.835  0.2794 -0.8495  2.2896
 9868TIP3   OH229560   4.570   1.490   0.036  0.2801 -0.0706 -0.3265
 9868TIP3    H129561   4.645   1.550   0.037 -0.1838  0.5482 -1.2240
 9868TIP3    H229562   4.602   1.412   0.081  0.5405  1.2577  1.9439
 9869TIP3   OH229563   4.931   3.367   5.386 -0.1968 -0.1984 -0.5357
 9869TIP3    H129564   5.024   3.350   5.399  0.6537  3.3725 -1.0778
 9869TIP3    H229565   4.919   3.363   5.292 -0.1853  0.9517 -0.5989
 9870TIP3   OH229566   5.457   0.234   4.888  0.6564  0.2678 -0.3058
 9870TIP3    H129567   5.394   0.221   4.959  3.1331 -0.8057  1.8953
 9870TIP3    H229568   5.435   0.318   4.851 -2.0433 -0.0788  0.3402
 9871TIP3   OH229569   6.456   4.830   6.663  0.3874  0.1092  0.3884
 9871TIP3    H129570   6.445   4.849   6.570 -1.0143 -0.3965  0.4247
 9871TIP3    H229571   6.430   4.911   6.707 -2.3530 -0.7041  0.4260
 9872TIP3   OH229572   1.696   1.959   2.844 -0.2883 -0.2120  0.0360
 9872TIP3    H129573   1.685   1.990   2.934  1.2168 -0.5204  0.3725
 9872TIP3    H229574   1.748   1.878   2.854 -1.8448 -1.3920 -0.9807
 9873TIP3   OH229575   7.081   3.086   6.621 -0.3202  0.5680 -0.1922
 9873TIP3    H129576   7.103   3.129   6.703 -2.4470  0.2323  0.6297
 9873TIP3    H229577   7.155   3.029   6.603 -1.1283 -1.9898  3.3854
 9874TIP3   OH229578   8.026   0.575   1.972 -0.4886 -0.5888 -0.4788
 9874TIP3    H129579   8.015   0.577   1.877 -0.2665  0.9667 -0.4991
 9874TIP3    H229580   7.983   0.655   2.003 -0.1982 -0.8642  0.6859
 9875TIP3   OH229581   1.620   6.063   0.165  0.0847 -0.1825 -0.6216
 9875TIP3    H129582   1.632   6.149   0.127 -2.0943  1.1299  1.3453
 9875TIP3    H229583   1.525   6.056   0.179  0.3238 -2.4150  0.3341
 9876TIP3   OH229584   0.733   7.347   6.664 -0.7750  0.2824  0.8903
 9876TIP3    H129585   0.803   7.372   6.725 -0.3645  0.2980  0.4193
 9876TIP3    H229586   0.685   7.278   6.711  0.0243 -0.2706  0.9187
 9877TIP3   OH229587   7.707   3.199   0.269 -0.5933 -0.0419 -0.4930
 9877TIP3    H129588   7.688   3.248   0.349  0.6907 -1.1191  0.5099
 9877TIP3    H229589   7.649   3.123   0.273  0.9513 -1.2297  0.5550
 9878TIP3   OH229590   5.241   6.906   5.298  0.3415  0.0209  0.2873
 9878TIP3    H129591   5.277   6.827   5.337  0.0610  0.0052  0.5171
 9878TIP3    H229592   5.161   6.924   5.349  0.4035  0.4470  0.2373
 9879TIP3   OH229593   2.731   7.634   6.485 -0.3058  0.1982 -0.2611
 9879TIP3    H129594   2.666   7.675   6.542 -1.5831  0.1190 -1.6200
 9879TIP3    H229595   2.798   7.702   6.473 -0.5976  0.6120  0.4005
 9880TIP3   OH229596   0.514   5.100   4.996  0.0713  0.7706  0.3266
 9880TIP3    H129597   0.498   5.128   4.906  1.0596  0.4337  0.0317
 9880TIP3    H229598   0.607   5.119   5.011  0.1663 -0.1000  0.9213
 9881TIP3   OH229599   7.105   4.574   2.620  0.0114 -0.3722  0.1457
 9881TIP3    H129600   7.100   4.541   2.710  0.2353  0.4078  0.4582
 9881TIP3    H229601   7.113   4.496   2.566 -1.8146 -0.9750  0.6515
 9882TIP3   OH229602   7.960   3.050   2.076 -0.8088 -0.0577 -0.1479
 9882TIP3    H129603   8.039   3.038   2.129 -1.0122 -0.8286 -0.0195
 9882TIP3    H229604   7.973   2.991   2.001 -1.3853 -0.3823  0.0077
 9883TIP3   OH229605   4.949   7.861   4.002  0.5584 -0.0489 -0.0424
 9883TIP3    H129606   4.987   7.787   3.956  1.6410  0.4897 -0.0538
 9883TIP3    H229607   4.875   7.825   4.050 -0.6448 -0.6199 -2.2281
 9884TIP3   OH229608   2.395   2.461   1.655  1.3287  0.3330  0.3520
 9884TIP3    H129609   2.363   2.516   1.727  0.4635  1.0315 -0.5355
 9884TIP3    H229610   2.418   2.522   1.586  2.7012 -0.2990  0.2272
 9885TIP3   OH229611   2.474   4.025   2.236  0.1496 -0.4966 -0.7462
 9885TIP3    H129612   2.391   4.022   2.188 -0.1121 -0.2864 -0.3187
 9885TIP3    H229613   2.539   3.992   2.174 -0.7423 -4.0166 -0.0315
 9886TIP3   OH229614   4.643   0.641   1.547 -0.0125  0.0837  0.0537
 9886TIP3    H129615   4.606   0.671   1.464 -1.9498 -1.1024  0.4220
 9886TIP3    H229616   4.570   0.600   1.593  1.4930 -1.2311  1.4299
 9887TIP3   OH229617   4.429   4.196   4.916  0.4428 -0.4007 -0.4870
 9887TIP3    H129618   4.441   4.200   4.821  2.3690 -0.2140 -0.2738
 9887TIP3    H229619   4.369   4.122   4.930  0.0891 -0.3890 -1.8326
 9888TIP3   OH229620   6.039   6.656   3.265  0.3617 -0.7812  0.0923
 9888TIP3    H129621   5.961   6.661   3.320  0.1765  0.0783 -0.2441
 9888TIP3    H229622   6.006   6.628   3.180  0.2111  0.9274 -0.4394
 9889TIP3   OH229623   0.147   3.871   3.783 -0.2804 -0.3355  0.0450
 9889TIP3    H129624   0.192   3.787   3.792 -0.8681 -0.7458 -0.7607
 9889TIP3    H229625   0.054   3.849   3.776 -0.5455  0.4503  0.8445
 9890TIP3   OH229626   2.050   7.445   2.479 -0.2709  0.4073 -0.3867
 9890TIP3    H129627   2.019   7.355   2.485  1.4333 -0.3081 -1.7507
 9890TIP3    H229628   2.115   7.444   2.409  0.7737  2.4232  0.4795
 9891TIP3   OH229629   2.367   1.502   5.909  0.0560  0.2066  0.4262
 9891TIP3    H129630   2.441   1.558   5.885  0.5375  0.2931  1.9967
 9891TIP3    H229631   2.405   1.435   5.965 -1.1661  0.8142  2.0814
 9892TIP3   OH229632   4.404   4.721   4.770  0.1086 -0.0126  0.8790
 9892TIP3    H129633   4.311   4.713   4.749  0.1976 -0.9964  0.8019
 9892TIP3    H229634   4.427   4.636   4.810  0.8100  0.4692  1.5289
 9893TIP3   OH229635   5.826   1.239   4.049  0.1344 -0.1748 -0.0883
 9893TIP3    H129636   5.887   1.218   3.979  0.4931  0.3510  0.0619
 9893TIP3    H229637   5.865   1.314   4.094 -1.1904  0.9854 -0.7451
 9894TIP3   OH229638   8.294   2.481   2.233  0.1934  0.4072 -0.1158
 9894TIP3    H129639   8.334   2.434   2.160 -1.6141 -3.1363  0.9429
 9894TIP3    H229640   8.221   2.529   2.194  1.2603  1.3379 -1.0435
 9895TIP3   OH229641   3.465   6.455   2.579 -0.2578 -0.0810  0.3977
 9895TIP3    H129642   3.377   6.439   2.547 -0.4884  2.3007 -0.3650
 9895TIP3    H229643   3.504   6.514   2.514  1.6958 -0.6354  1.0002
 9896TIP3   OH229644   0.855   3.584   1.863 -0.1674 -0.0209  0.0139
 9896TIP3    H129645   0.835   3.674   1.837  1.0644 -0.0175 -1.0446
 9896TIP3    H229646   0.813   3.573   1.948  0.4881  1.8841  0.6241
 9897TIP3   OH229647   4.769   5.518   3.796 -0.8138  0.0385 -0.0627
 9897TIP3    H129648   4.822   5.452   3.752 -0.9069  0.6499 -1.1545
 9897TIP3    H229649   4.698   5.536   3.734 -0.5972  1.3924  0.0426
 9898TIP3   OH229650   0.719   2.375   4.993  0.4935 -0.6292  0.5715
 9898TIP3    H129651   0.688   2.461   5.022  0.8508 -0.1837 -0.3227
 9898TIP3    H229652   0.800   2.393   4.946 -1.2441 -0.9550 -2.8679
 9899TIP3   OH229653   3.205   5.838   1.703  0.1301 -0.2734 -0.5938
 9899TIP3    H129654   3.177   5.901   1.768 -0.8111 -0.7162 -0.5439
 9899TIP3    H229655   3.266   5.780   1.749  1.3248  0.8229 -0.7522
 9900TIP3   OH229656   2.500   6.404   2.280 -0.4681  0.3606 -0.2571
 9900TIP3    H129657   2.405   6.417   2.279 -0.3656  2.3259  2.5211
 9900TIP3    H229658   2.519   6.378   2.369  1.6004 -0.3426 -0.8640
 9901TIP3   OH229659   7.640   5.557   6.435 -0.1614  0.1608 -0.2038
 9901TIP3    H129660   7.592   5.498   6.376 -0.2009  0.1973 -0.2081
 9901TIP3    H229661   7.631   5.517   6.521  1.3037 -0.8006 -0.4668
 9902TIP3   OH229662   0.025   2.943   2.527  0.2682  0.5824  0.0795
 9902TIP3    H129663   0.096   2.957   2.464  0.6748 -3.4618 -0.6341
 9902TIP3    H229664  -0.046   2.907   2.475 -0.1095 -0.9691  1.5626
 9903TIP3   OH229665   0.681   0.225   5.646  0.6286  0.4067 -0.4886
 9903TIP3    H129666   0.705   0.304   5.694 -1.1330  0.0061  1.1547
 9903TIP3    H229667   0.614   0.254   5.584 -0.1642  0.1883  0.2540
 9904TIP3   OH229668   7.438   3.441   2.512  0.0661  0.4243 -0.3960
 9904TIP3    H129669   7.471   3.528   2.487 -0.5418  1.2403  1.4434
 9904TIP3    H229670   7.390   3.457   2.593 -0.1812 -1.6334 -0.0996
 9905TIP3   OH229671   7.395   3.307   2.943  0.0321 -0.5269 -0.0484
 9905TIP3    H129672   7.468   3.245   2.947  0.2801 -0.2680 -0.4601
 9905TIP3    H229673   7.350   3.297   3.027  0.8637 -0.2983  0.4354
 9906TIP3   OH229674   0.097   6.293   5.954  0.0491 -0.5603 -0.2462
 9906TIP3    H129675   0.187   6.316   5.976 -0.1020  0.0876 -0.3083
 9906TIP3    H229676   0.105   6.242   5.873  0.4918 -1.8451  0.5679
 9907TIP3   OH229677   2.703   3.479   6.366  0.3320  0.6136  0.5707
 9907TIP3    H129678   2.740   3.511   6.448 -1.9961  0.0090  1.9374
 9907TIP3    H229679   2.619   3.523   6.358  0.6437  0.9252 -1.7200
 9908TIP3   OH229680   5.160   3.089   0.689  0.2254  0.5031  0.4452
 9908TIP3    H129681   5.073   3.063   0.658  0.5816 -0.3764  0.1494
 9908TIP3    H229682   5.217   3.081   0.612  0.8638 -0.4211  0.9970
 9909TIP3   OH229683   1.445   1.707   4.949  0.0145 -0.1262 -0.1686
 9909TIP3    H129684   1.390   1.756   4.889  1.6600  1.8177 -0.1983
 9909TIP3    H229685   1.508   1.771   4.982  2.1301 -2.1631  0.0226
 9910TIP3   OH229686   2.995   0.999   4.797 -0.4219 -0.7017  0.0086
 9910TIP3    H129687   3.066   0.946   4.835  0.5461  0.6507  0.1443
 9910TIP3    H229688   3.031   1.033   4.716 -1.4823 -1.2176 -0.7090
 9911TIP3   OH229689   0.857   3.512   5.979  0.1233  0.1080  0.1017
 9911TIP3    H129690   0.889   3.421   5.982  0.9749  0.3723 -0.5635
 9911TIP3    H229691   0.921   3.558   5.925 -0.3408  1.0989  0.3747
 9912TIP3   OH229692   7.585   2.184   4.199 -0.0489 -0.3831  0.3483
 9912TIP3    H129693   7.500   2.227   4.192 -1.0415 -1.9266  1.8108
 9912TIP3    H229694   7.649   2.255   4.204 -1.3618  0.8338  0.2986
 9913TIP3   OH229695   3.490   6.457   6.698  0.2692 -0.4372 -0.1041
 9913TIP3    H129696   3.418   6.394   6.688 -2.7291  2.3926  1.6513
 9913TIP3    H229697   3.520   6.474   6.609 -2.6948 -0.2747 -1.1836
 9914TIP3   OH229698   5.215   3.984   1.078  0.3260  0.2203 -0.1609
 9914TIP3    H129699   5.147   3.971   1.012 -0.8155  1.2628  0.7531
 9914TIP3    H229700   5.178   4.050   1.137  1.5651 -0.2165  1.1536
 9915TIP3   OH229701   0.035   0.735   5.491  0.0366 -0.1383 -0.0990
 9915TIP3    H129702   0.109   0.786   5.522  2.2150 -2.2570 -1.5233
 9915TIP3    H229703  -0.039   0.796   5.494  2.1969  2.6881 -0.5377
 9916TIP3   OH229704   3.325   6.235   5.630 -0.1901  0.1215  0.2213
 9916TIP3    H129705   3.301   6.321   5.595  0.2461  0.1883  0.0792
 9916TIP3    H229706   3.404   6.251   5.681  0.2888 -0.3113 -0.3678
 9917TIP3   OH229707   6.186   1.911   5.514  0.0333  0.6715  0.4342
 9917TIP3    H129708   6.201   1.890   5.422 -0.8885  2.1097 -0.0858
 9917TIP3    H229709   6.233   1.844   5.563 -1.6582 -1.7334 -1.0571
 9918TIP3   OH229710   7.033   4.706   4.024  0.2919 -0.1075 -0.1789
 9918TIP3    H129711   7.081   4.627   4.050  0.8321 -0.0692 -0.9936
 9918TIP3    H229712   7.074   4.777   4.075  0.0395 -0.2997  0.2950
 9919TIP3   OH229713   2.957   2.135   6.718  0.1361  0.2180 -0.4574
 9919TIP3    H129714   3.007   2.054   6.732 -1.1288 -0.1595  2.8007
 9919TIP3    H229715   2.953   2.175   6.805 -3.6253  1.1622 -0.9321
 9920TIP3   OH229716   0.507   2.707   0.470 -0.2901  0.2812 -0.0368
 9920TIP3    H129717   0.465   2.636   0.421  1.5400 -0.0770 -1.2094
 9920TIP3    H229718   0.591   2.670   0.497 -0.1660  1.3573  1.1532
 9921TIP3   OH229719   8.067   6.661   6.791  0.1251  0.1198  0.3145
 9921TIP3    H129720   8.127   6.668   6.717  1.8362  1.6861  1.7338
 9921TIP3    H229721   8.027   6.748   6.797 -0.8720 -0.3485  0.5244
 9922TIP3   OH229722   0.151   2.991   3.064  0.3049  0.4860  0.2140
 9922TIP3    H129723   0.078   3.024   3.010 -0.3937  1.1077  1.5043
 9922TIP3    H229724   0.116   2.988   3.153  0.4711 -3.3069  0.3083
 9923TIP3   OH229725   7.102   2.728   6.447  0.2981 -0.0561  0.4014
 9923TIP3    H129726   7.152   2.756   6.370 -0.0885 -0.2346  0.0832
 9923TIP3    H229727   7.013   2.715   6.414 -0.3913  1.9278  1.2953
 9924TIP3   OH229728   1.020   2.507   3.757  0.0954 -0.1235  0.0340
 9924TIP3    H129729   1.012   2.571   3.686  1.7947  0.6869  0.5390
 9924TIP3    H229730   1.040   2.424   3.713 -1.1940 -0.1405 -0.5590
 9925TIP3   OH229731   6.151   3.951   3.348  0.5187  0.2033  0.1693
 9925TIP3    H129732   6.066   3.995   3.340  0.4616 -0.2421 -4.0200
 9925TIP3    H229733   6.205   4.011   3.399 -1.4592  1.9051  0.3823
 9926TIP3   OH229734   3.019   5.533   4.271 -0.3313  0.0384  0.3272
 9926TIP3    H129735   2.973   5.555   4.352 -0.2699  0.2485  0.3052
 9926TIP3    H229736   2.960   5.473   4.225 -0.7187  0.5417  0.1602
 9927TIP3   OH229737   8.252   0.104   3.678  0.2257 -0.2663 -0.2730
 9927TIP3    H129738   8.222   0.194   3.689 -0.7757 -0.5424 -0.6328
 9927TIP3    H229739   8.203   0.054   3.744  1.0773 -0.4966  0.2084
 9928TIP3   OH229740   2.406   4.283   3.867 -0.0573  0.3439 -0.0632
 9928TIP3    H129741   2.341   4.250   3.806 -2.1401 -0.0699  2.2138
 9928TIP3    H229742   2.396   4.379   3.863 -0.3046  0.3098 -0.2587
 9929TIP3   OH229743   2.340   1.182   5.081  0.3034 -0.1658  0.1036
 9929TIP3    H129744   2.278   1.247   5.115  0.1469  0.9822 -2.2325
 9929TIP3    H229745   2.286   1.124   5.027  1.1288  0.4511 -1.4181
 9930TIP3   OH229746   0.781   1.082   0.914  0.3327 -0.4247  0.0884
 9930TIP3    H129747   0.860   1.123   0.879 -0.2777  1.3793  0.7154
 9930TIP3    H229748   0.814   1.025   0.984  1.1788 -0.7081 -0.5223
 9931TIP3   OH229749   1.160   4.318   4.248 -0.2820  0.1995 -0.1114
 9931TIP3    H129750   1.066   4.334   4.260 -0.2443  1.0314 -0.8064
 9931TIP3    H229751   1.197   4.321   4.336 -1.1525 -1.9898  0.3996
 9932TIP3   OH229752   6.457   6.500   2.754 -0.0702  0.2035  0.1918
 9932TIP3    H129753   6.538   6.518   2.705  0.5997  0.9204  1.4942
 9932TIP3    H229754   6.468   6.410   2.785 -1.3219 -0.9622 -2.4097
 9933TIP3   OH229755   7.560   2.465   0.349  0.0649 -0.3790 -0.0042
 9933TIP3    H129756   7.577   2.408   0.424 -1.3059 -1.4870 -0.4887
 9933TIP3    H229757   7.570   2.554   0.384 -0.0134 -0.8781  1.3528
 9934TIP3   OH229758   3.361   1.215   5.010 -0.1653  0.3109  0.4415
 9934TIP3    H129759   3.352   1.167   5.092  3.0848 -0.8509  0.2602
 9934TIP3    H229760   3.273   1.216   4.973 -0.9679 -2.8910  1.9068
 9935TIP3   OH229761   1.790   5.341   1.437  0.4099 -0.6648 -0.3801
 9935TIP3    H129762   1.856   5.288   1.482 -0.1958 -0.3253  0.9505
 9935TIP3    H229763   1.707   5.315   1.476  0.1284  1.6135  0.6992
 9936TIP3   OH229764   1.925   5.578   2.846 -0.4347 -0.6810 -0.0296
 9936TIP3    H129765   1.921   5.667   2.810  0.8743 -0.4927  0.2470
 9936TIP3    H229766   1.855   5.531   2.800 -1.1360  0.4729 -0.1941
 9937TIP3   OH229767   4.910   7.624   3.456  0.4264 -0.0632 -0.0429
 9937TIP3    H129768   4.873   7.581   3.379 -0.5354 -0.0120  0.3881
 9937TIP3    H229769   4.941   7.708   3.423  0.0634 -0.0596 -0.3871
 9938TIP3   OH229770   1.451   7.450   4.319  0.7516  0.1925  0.1949
 9938TIP3    H129771   1.376   7.510   4.318 -0.7703 -1.5695  1.4697
 9938TIP3    H229772   1.442   7.398   4.240  0.8475  0.2333  0.1567
 9939TIP3   OH229773   1.507   4.554   1.514  0.0741 -0.6293  0.0838
 9939TIP3    H129774   1.483   4.467   1.483  0.2483 -1.2268  1.5627
 9939TIP3    H229775   1.595   4.544   1.550 -0.0756  0.0663  0.6673
 9940TIP3   OH229776   2.950   0.037   2.436 -0.5601 -0.6040  0.8650
 9940TIP3    H129777   2.968   0.103   2.503  1.9505  2.2745 -2.3005
 9940TIP3    H229778   2.858   0.050   2.415 -1.0834 -0.7568  2.8120
 9941TIP3   OH229779   7.950   3.613   5.311 -0.6015  0.4357 -0.6959
 9941TIP3    H129780   7.914   3.697   5.285 -2.4198 -0.7455 -2.2757
 9941TIP3    H229781   7.909   3.594   5.395  0.0896  1.2383 -0.1579
 9942TIP3   OH229782   3.598   5.287   3.152 -0.3850  0.1003  0.4686
 9942TIP3    H129783   3.670   5.349   3.136  0.3959 -0.8660  0.1413
 9942TIP3    H229784   3.560   5.273   3.065 -0.7173  0.2887  0.5801
 9943TIP3   OH229785   1.348   5.700   0.791 -0.2058 -0.3611  0.3288
 9943TIP3    H129786   1.411   5.637   0.757 -0.2438 -1.3553  2.0023
 9943TIP3    H229787   1.270   5.687   0.737  0.8821  0.7176 -1.6017
 9944TIP3   OH229788   1.238   0.270   2.703 -0.3122  0.2423  0.3836
 9944TIP3    H129789   1.178   0.274   2.777 -0.2683 -2.3203  0.6307
 9944TIP3    H229790   1.325   0.284   2.742 -0.3826 -0.0939  0.6621
 9945TIP3   OH229791   0.393   4.189   3.364  0.4774 -0.0039 -0.2926
 9945TIP3    H129792   0.335   4.145   3.302 -0.6122  1.2192 -0.1729
 9945TIP3    H229793   0.419   4.119   3.425 -0.9452 -0.5787 -0.2913
 9946TIP3   OH229794   4.340   5.717   1.335  0.1581  0.0916  0.1168
 9946TIP3    H129795   4.428   5.693   1.306  0.8650 -0.1607  2.2773
 9946TIP3    H229796   4.285   5.643   1.308  1.3659 -1.6657  2.1198
 9947TIP3   OH229797   5.583   1.865   1.339  0.1030  0.2304 -0.0160
 9947TIP3    H129798   5.612   1.956   1.340  0.0035  0.2787  2.0834
 9947TIP3    H229799   5.489   1.869   1.322 -0.1160  0.6163  1.2283
 9948TIP3   OH229800   8.298   0.661   4.153  0.4027 -0.4917  0.4322
 9948TIP3    H129801   8.315   0.649   4.246 -1.2327 -1.6728  0.6213
 9948TIP3    H229802   8.218   0.611   4.136  0.1655  0.4158 -1.4274
 9949TIP3   OH229803   8.311   4.913   0.350  0.1564  0.0882  0.0420
 9949TIP3    H129804   8.245   4.845   0.334  0.0439  0.1395  0.2802
 9949TIP3    H229805   8.330   4.949   0.264 -1.3839  1.2402  0.1486
 9950TIP3   OH229806   6.727   0.393   6.448  0.0446  0.3649 -0.3587
 9950TIP3    H129807   6.773   0.322   6.404  2.9791  1.2946  0.9800
 9950TIP3    H229808   6.740   0.376   6.541 -1.4961  1.2651  0.0655
 9951TIP3   OH229809   0.090   5.836   4.951 -0.0489 -0.0254 -0.2622
 9951TIP3    H129810   0.015   5.850   5.008  0.3671 -1.0436  0.5777
 9951TIP3    H229811   0.156   5.794   5.007  1.3077  1.1755 -0.8696
 9952TIP3   OH229812   5.278   6.184   6.751 -0.5218 -0.6084  0.1415
 9952TIP3    H129813   5.275   6.236   6.671 -1.4973 -1.8388 -0.6554
 9952TIP3    H229814   5.369   6.155   6.757 -0.0562  0.8428  0.3948
 9953TIP3   OH229815   1.868   3.188   3.450 -0.2170  0.6144 -0.4224
 9953TIP3    H129816   1.804   3.117   3.451 -0.7115  1.0616  0.0300
 9953TIP3    H229817   1.905   3.188   3.538 -0.0644  0.7833 -0.4847
 9954TIP3   OH229818   0.948   3.401   4.668  0.3521  0.0857  0.0103
 9954TIP3    H129819   0.951   3.484   4.620  0.3479  0.2575  0.3028
 9954TIP3    H229820   1.021   3.350   4.632  0.6720  0.4143  0.1809
 9955TIP3   OH229821   4.663   5.141   6.145 -0.1165  0.7013  0.0808
 9955TIP3    H129822   4.684   5.098   6.227  0.8311  1.0244  0.0178
 9955TIP3    H229823   4.735   5.119   6.087 -0.6453  0.6905 -0.5922
 9956TIP3   OH229824   4.379   0.193   2.183 -0.5783 -0.2212  0.2155
 9956TIP3    H129825   4.351   0.176   2.093  2.5558 -1.2130 -0.7115
 9956TIP3    H229826   4.359   0.112   2.230  1.2465 -1.2338 -0.6315
 9957TIP3   OH229827   4.796   5.297   4.730  0.3407 -0.1913 -0.7271
 9957TIP3    H129828   4.783   5.206   4.756 -1.7125  0.6555  1.5096
 9957TIP3    H229829   4.715   5.341   4.755  1.3947  2.3296 -1.4747
 9958TIP3   OH229830   5.983   0.794   2.882  0.0922  0.0975 -0.2801
 9958TIP3    H129831   5.889   0.779   2.884  0.2235 -1.6865 -2.4281
 9958TIP3    H229832   6.012   0.781   2.972 -1.9360  3.0928  0.9438
 9959TIP3   OH229833   0.133   4.133   4.330  0.0446 -0.0920 -0.1172
 9959TIP3    H129834   0.187   4.104   4.256  0.1865  1.0725 -0.4920
 9959TIP3    H229835   0.177   4.097   4.407  2.2316  1.9753 -0.2889
 9960TIP3   OH229836   7.442   7.226   5.838 -0.1447  0.0903  0.1417
 9960TIP3    H129837   7.522   7.178   5.820  1.3571  1.2943  2.9783
 9960TIP3    H229838   7.380   7.160   5.869  0.0990 -0.6830 -0.9599
 9961TIP3   OH229839   5.775   1.893   6.279  0.3458 -0.1857  0.8725
 9961TIP3    H129840   5.753   1.909   6.187  1.2283 -1.7666  0.3534
 9961TIP3    H229841   5.852   1.949   6.294  0.5254 -0.3165  0.4759
 9962TIP3   OH229842   0.444   1.691   2.651 -0.0693  0.3979 -0.5778
 9962TIP3    H129843   0.478   1.722   2.567 -0.4454  0.4076 -0.7294
 9962TIP3    H229844   0.437   1.596   2.641  1.8498  0.1383  0.1660
 9963TIP3   OH229845   0.915   7.652   4.295  0.5470  0.3905  0.3397
 9963TIP3    H129846   0.945   7.603   4.219  0.4433 -0.4538  0.8298
 9963TIP3    H229847   0.921   7.589   4.368 -0.3104  0.8727  0.8384
 9964TIP3   OH229848   7.946   4.359   1.568 -0.0505  0.3852  0.0565
 9964TIP3    H129849   7.869   4.413   1.549 -0.8535 -0.6836  0.1892
 9964TIP3    H229850   7.967   4.316   1.485  0.7289  1.0588 -0.1078
 9965TIP3   OH229851   6.533   3.383   2.031  0.8742 -0.2715  0.0578
 9965TIP3    H129852   6.570   3.395   1.943  3.2028 -1.4495  0.8070
 9965TIP3    H229853   6.520   3.289   2.038 -3.2739  0.0810 -0.4344
 9966TIP3   OH229854   0.529   1.649   1.651 -0.0640  0.2803  0.0490
 9966TIP3    H129855   0.519   1.672   1.743 -0.2998 -0.4548  0.2099
 9966TIP3    H229856   0.602   1.703   1.621  1.1705 -0.7131  1.1135
 9967TIP3   OH229857   4.238   6.421   1.259 -0.2667  0.1456 -0.2159
 9967TIP3    H129858   4.199   6.408   1.345 -0.2385  1.0017 -0.0630
 9967TIP3    H229859   4.249   6.333   1.223 -1.1742 -0.1631  0.2509
 9968TIP3   OH229860   3.919   7.412   0.803  0.5705  0.0175  0.5647
 9968TIP3    H129861   3.853   7.460   0.754 -0.0934  0.1633  1.5718
 9968TIP3    H229862   3.980   7.479   0.835  1.1046 -0.0950 -0.1801
 9969TIP3   OH229863   3.209   3.283   1.188  0.0178  0.0666  0.2782
 9969TIP3    H129864   3.196   3.280   1.283  1.0446  0.8433  0.4561
 9969TIP3    H229865   3.220   3.376   1.169 -1.0319  0.0101 -0.7395
 9970TIP3   OH229866   5.339   6.409   1.720 -0.0618 -0.3204  0.2424
 9970TIP3    H129867   5.288   6.468   1.776 -1.3595  0.8911 -2.0698
 9970TIP3    H229868   5.282   6.333   1.707  0.9822 -1.4733  1.9395
 9971TIP3   OH229869   0.766   1.994   2.844 -0.0542 -0.1488 -1.0545
 9971TIP3    H129870   0.845   1.987   2.789 -0.3456  0.0610 -1.5101
 9971TIP3    H229871   0.694   1.991   2.781 -0.4328 -0.8881 -0.5911
 9972TIP3   OH229872   5.294   5.992   3.089 -0.3297  0.0036 -0.1114
 9972TIP3    H129873   5.269   5.957   3.003  0.6729 -1.4829  0.1690
 9972TIP3    H229874   5.358   6.060   3.069  0.0042 -0.4284 -0.5290
 9973TIP3   OH229875   5.907   1.652   5.753 -0.2242  0.2959  0.0778
 9973TIP3    H129876   5.983   1.605   5.718 -1.3256 -2.4307  1.0525
 9973TIP3    H229877   5.926   1.664   5.846 -0.6507  0.3243  0.1635
 9974TIP3   OH229878   5.169   4.446   0.112  0.1906 -0.3183 -0.2603
 9974TIP3    H129879   5.241   4.504   0.085 -0.3938 -0.3010 -1.8952
 9974TIP3    H229880   5.108   4.504   0.157  0.4084  0.0123 -0.3768
 9975TIP3   OH229881   3.642   1.662   2.313  0.4324  0.2215  0.6672
 9975TIP3    H129882   3.589   1.679   2.391  0.0375  0.9972  0.2448
 9975TIP3    H229883   3.650   1.748   2.271  1.3163 -0.0454  0.2760
 9976TIP3   OH229884   3.085   1.329   3.512 -0.4778  0.4099  0.1612
 9976TIP3    H129885   3.059   1.350   3.422  0.6872 -3.2978 -1.2483
 9976TIP3    H229886   3.006   1.292   3.552 -0.5460  0.4053  0.0214
 9977TIP3   OH229887   0.086   4.341   3.115 -0.2445 -0.0487 -0.1350
 9977TIP3    H129888   0.020   4.340   3.184  1.3579 -2.1969  1.5157
 9977TIP3    H229889   0.169   4.356   3.161  0.7475 -0.2923 -1.7575
 9978TIP3   OH229890   7.132   6.498   2.058  0.1221 -0.1283  0.1021
 9978TIP3    H129891   7.151   6.591   2.042 -0.4266 -0.2285 -1.2189
 9978TIP3    H229892   7.207   6.467   2.108 -0.0141  1.1870  1.1794
 9979TIP3   OH229893   0.128   6.812   4.899 -0.1863 -0.1743 -0.2053
 9979TIP3    H129894   0.041   6.834   4.865  0.4331  2.4453 -0.2956
 9979TIP3    H229895   0.116   6.806   4.994 -0.3680  0.8661 -0.1505
 9980TIP3   OH229896   7.592   0.563   2.980 -0.4648  0.5804 -0.4511
 9980TIP3    H129897   7.653   0.552   2.907 -1.5010  2.3621 -1.6520
 9980TIP3    H229898   7.518   0.611   2.943 -1.9653 -0.2740  1.3061
 9981TIP3   OH229899   0.790   4.723   2.864  0.4102 -0.2298 -0.0879
 9981TIP3    H129900   0.786   4.725   2.959 -0.9801 -1.7251 -0.0597
 9981TIP3    H229901   0.850   4.793   2.840  1.0183 -0.0252  1.8953
 9982TIP3   OH229902   6.531   0.253   1.979  0.4230  0.3054  0.2967
 9982TIP3    H129903   6.547   0.163   1.952 -2.0821 -0.2457  0.4652
 9982TIP3    H229904   6.573   0.306   1.910  2.9752 -0.8828  0.8153
 9983TIP3   OH229905   3.564   3.857   5.239  0.2658  0.2191 -0.2421
 9983TIP3    H129906   3.557   3.839   5.333 -0.8852  1.0450 -0.1564
 9983TIP3    H229907   3.573   3.770   5.199  0.6813 -0.1489  0.6131
 9984TIP3   OH229908   6.297   6.789   3.983  0.1237 -0.2232  1.0861
 9984TIP3    H129909   6.356   6.724   3.945 -0.3857 -0.2341  0.3102
 9984TIP3    H229910   6.230   6.803   3.917  0.3679  1.2979  1.1169
 9985TIP3   OH229911   0.666   1.652   3.269  0.1380 -0.2671  0.3299
 9985TIP3    H129912   0.585   1.608   3.242 -0.7800 -0.5297  3.1438
 9985TIP3    H229913   0.666   1.735   3.221 -1.4149 -0.5722 -0.2534
 9986TIP3   OH229914   1.131   1.426   1.134  0.0002  0.4484 -0.1641
 9986TIP3    H129915   1.114   1.471   1.051 -3.7468  0.8485  0.6240
 9986TIP3    H229916   1.055   1.369   1.145  1.1690 -0.7564  2.2967
 9987TIP3   OH229917   0.327   3.430   0.802 -0.6234 -0.2993  0.3379
 9987TIP3    H129918   0.263   3.361   0.783 -1.6192  0.2840  1.4148
 9987TIP3    H229919   0.273   3.509   0.810  0.4059  0.4594 -0.0821
 9988TIP3   OH229920   1.986   7.421   2.969  0.2405  0.1647 -0.3788
 9988TIP3    H129921   2.047   7.492   2.952  1.3662 -0.4149  1.0189
 9988TIP3    H229922   1.919   7.430   2.902  0.7591  2.0690 -0.6968
 9989TIP3   OH229923   6.191   6.172   4.541 -0.5932  0.0399 -0.2434
 9989TIP3    H129924   6.123   6.207   4.484 -2.0540 -2.7172 -0.3845
 9989TIP3    H229925   6.163   6.082   4.559  2.0744 -0.5997  1.2685
 9990TIP3   OH229926   2.381   5.870   3.396  0.0502  0.7742 -0.0319
 9990TIP3    H129927   2.448   5.803   3.407 -0.3745  0.4663  0.7990
 9990TIP3    H229928   2.426   5.943   3.355  0.9281  0.6290  0.6472
 9991TIP3   OH229929   6.554   4.550   2.057  0.1764  0.2605  0.1394
 9991TIP3    H129930   6.650   4.544   2.058  0.1825  0.1958 -0.7148
 9991TIP3    H229931   6.535   4.632   2.012 -0.2091 -1.4351 -3.0282
 9992TIP3   OH229932   5.994   6.113   2.179  0.4848 -0.2768 -0.4954
 9992TIP3    H129933   5.995   6.166   2.259 -0.4519  1.5462 -1.6385
 9992TIP3    H229934   5.935   6.040   2.199 -0.8522  0.9147  0.0465
 9993TIP3   OH229935   1.715   2.614   5.449 -0.0488 -0.0942 -0.0838
 9993TIP3    H129936   1.699   2.576   5.363  0.2358  0.8176 -0.5460
 9993TIP3    H229937   1.805   2.589   5.471 -0.2202 -0.5772  0.0912
 9994TIP3   OH229938   2.669   1.926   2.664  0.1782  0.3339  0.8962
 9994TIP3    H129939   2.746   1.872   2.648 -0.6604 -0.2154 -1.7383
 9994TIP3    H229940   2.634   1.945   2.577 -1.7601  1.9067  1.9367
 9995TIP3   OH229941   8.066   3.682   1.361  0.4904 -0.1288 -0.3501
 9995TIP3    H129942   8.033   3.685   1.271 -1.3695 -0.4020  0.2824
 9995TIP3    H229943   8.014   3.746   1.408  0.2965 -1.1437  0.8833
 9996TIP3   OH229944   3.381   4.199   2.302 -0.2712  0.2726  0.1804
 9996TIP3    H129945   3.321   4.192   2.228  0.7651 -0.4412 -0.6201
 9996TIP3    H229946   3.468   4.207   2.262  0.1452  1.9378  1.2881
 9997TIP3   OH229947   6.881   2.582   1.030  0.0244  0.1728 -0.1965
 9997TIP3    H129948   6.919   2.497   1.053 -2.2945 -1.2388 -1.2943
 9997TIP3    H229949   6.952   2.628   0.984  1.5554 -0.8084  1.0706
 9998TIP3   OH229950   6.953   0.304   1.367 -0.0559 -0.8233  0.1974
 9998TIP3    H129951   6.891   0.232   1.355  0.5332 -1.0528 -1.8709
 9998TIP3    H229952   7.025   0.283   1.308 -0.7388  2.4462 -2.0034
 9999TIP3   OH229953   8.182   7.550   0.042  0.0318  0.7371  0.4128
 9999TIP3    H129954   8.089   7.566   0.056  0.1576  1.4139  0.4961
 9999TIP3    H229955   8.197   7.463   0.078 -0.5627  0.6316  0.4134
10000TIP3   OH229956   5.846   5.986   5.982 -0.7712 -0.0991 -1.0285
10000TIP3    H129957   5.893   5.919   5.932  0.2892  1.2947 -1.9755
10000TIP3    H229958   5.912   6.022   6.041 -1.5067 -0.3202 -0.0564
10001TIP3   OH229959   3.793   2.188   3.124  0.3671  0.0564  0.8184
10001TIP3    H129960   3.855   2.230   3.065 -0.4538 -0.9624 -0.8641
10001TIP3    H229961   3.819   2.096   3.124 -0.2912 -0.1366  1.2222
10002TIP3   OH229962   5.529   3.691   4.644 -0.1665  0.3568  0.2350
10002TIP3    H129963   5.616   3.729   4.631 -0.8444  1.6181 -0.9608
10002TIP3    H229964   5.521   3.626   4.574 -0.0448 -0.0082  0.5631
10003TIP3   OH229965   4.881   1.608   4.683 -0.5878  0.1946  0.7168
10003TIP3    H129966   4.910   1.679   4.627  0.9251 -0.6766  0.3560
10003TIP3    H229967   4.810   1.567   4.634  0.9694 -0.7991 -0.8022
10004TIP3   OH229968   0.550   6.946   2.575 -0.4266  0.2214  0.0452
10004TIP3    H129969   0.513   7.022   2.529  0.2093 -0.1806 -1.1839
10004TIP3    H229970   0.474   6.899   2.608 -0.8570  1.0323  0.2364
10005TIP3   OH229971   6.457   3.645   5.818  0.0172  0.1180  0.4455
10005TIP3    H129972   6.489   3.735   5.829  0.0896  0.2429 -0.6557
10005TIP3    H229973   6.399   3.649   5.743 -1.4774 -0.4042  1.5342
10006TIP3   OH229974   0.715   0.834   1.454 -0.1975  0.2471  0.4168
10006TIP3    H129975   0.758   0.792   1.529 -0.2306 -1.8979 -0.6748
10006TIP3    H229976   0.701   0.762   1.392 -0.6601  1.8516 -1.4244
10007TIP3   OH229977   0.775   4.232   6.488 -0.5344  0.0688 -0.0649
10007TIP3    H129978   0.721   4.232   6.567 -1.1653  1.4635 -0.4756
10007TIP3    H229979   0.862   4.260   6.519 -0.2868 -1.1593  0.4135
10008TIP3   OH229980   1.918   7.018   4.168  0.4323  0.0238 -0.1568
10008TIP3    H129981   1.950   7.004   4.079  1.5287 -0.3323  0.2711
10008TIP3    H229982   1.859   7.093   4.161 -2.2825 -2.0777 -1.7575
10009TIP3   OH229983   7.107   5.298   1.929 -0.0085 -1.1124  0.7231
10009TIP3    H129984   7.191   5.319   1.969 -0.4946  0.5010  0.9844
10009TIP3    H229985   7.047   5.289   2.003 -0.5647  0.2605  0.4834
10010TIP3   OH229986   7.197   4.940   2.052 -0.2343  0.4891  0.1436
10010TIP3    H129987   7.162   4.984   1.974  1.1465  1.6495  0.1426
10010TIP3    H229988   7.291   4.936   2.037 -0.1292 -0.8449  1.0009
10011TIP3   OH229989   2.005   5.075   6.258 -0.5428  0.0265 -0.0193
10011TIP3    H129990   2.025   5.133   6.331  1.9592  0.8447 -1.2402
10011TIP3    H229991   1.911   5.058   6.265 -0.5673  0.8788  2.7560
10012TIP3   OH229992   4.304   5.374   3.639  0.3671  0.1914  0.0269
10012TIP3    H129993   4.303   5.281   3.659  0.0300  0.2031  0.0618
10012TIP3    H229994   4.228   5.410   3.683  0.0342  0.3408 -0.6499
10013TIP3   OH229995   5.242   4.355   5.791  0.0121 -0.3602 -0.7458
10013TIP3    H129996   5.236   4.318   5.879 -0.3065 -0.6266 -0.8807
10013TIP3    H229997   5.305   4.299   5.746  0.7592  0.2328 -0.4583
10014TIP3   OH229998   3.274   4.751   6.334 -0.1067  0.2886 -0.5591
10014TIP3    H129999   3.255   4.804   6.411  0.7011 -0.2271  0.0162
10014TIP3    H230000   3.343   4.690   6.363  0.8626  0.6799 -1.9342
10015TIP3   OH230001   6.120   0.867   2.068  0.7090 -0.4925  0.0290
10015TIP3    H130002   6.195   0.895   2.120  0.4970  0.8766 -0.3440
10015TIP3    H230003   6.158   0.819   1.994  1.4360  1.7952 -1.1884
10016TIP3   OH230004   7.702   4.225   3.815 -0.5398 -0.8600  0.7031
10016TIP3    H130005   7.642   4.234   3.889 -0.7258  1.0945  0.3711
10016TIP3    H230006   7.644   4.216   3.739 -0.3574 -1.4422  0.6223
10017TIP3   OH230007   2.747   0.565   5.741  0.3923  0.0193 -0.1164
10017TIP3    H130008   2.748   0.497   5.674  0.1883  0.3047 -0.4126
10017TIP3    H230009   2.673   0.542   5.797  0.0984  0.2010 -0.4298
10018TIP3   OH230010   0.240   0.039   2.824 -0.1846 -0.2934  0.3499
10018TIP3    H130011   0.188  -0.002   2.755 -0.2294 -0.0718  0.2520
10018TIP3    H230012   0.177   0.092   2.873  0.2200  1.2626 -0.7418
10019TIP3   OH230013   7.008   7.654   4.181 -0.2481  0.2519 -0.1699
10019TIP3    H130014   6.950   7.637   4.106  1.0373  1.1990 -1.4351
10019TIP3    H230015   7.090   7.682   4.141  0.3810  1.0652  1.6256
10020TIP3   OH230016   5.525   2.939   3.190  0.1137  0.2682 -0.1858
10020TIP3    H130017   5.618   2.950   3.209 -0.1701  1.9454  0.4010
10020TIP3    H230018   5.480   2.965   3.270 -0.8674 -1.0089 -0.2917
10021TIP3   OH230019   0.602   3.765   3.723 -0.5413 -0.1199 -0.0745
10021TIP3    H130020   0.544   3.756   3.647  1.1871 -1.8625 -1.2775
10021TIP3    H230021   0.567   3.703   3.787 -0.6516 -0.3429 -0.3505
10022TIP3   OH230022   5.597   2.185   3.932 -0.8903 -0.1322 -0.1213
10022TIP3    H130023   5.675   2.224   3.893 -0.4816  2.6297  2.9666
10022TIP3    H230024   5.527   2.205   3.869  0.5407 -1.0272 -2.0754
10023TIP3   OH230025   7.241   6.910   5.624  0.2845  0.5312 -0.0276
10023TIP3    H130026   7.257   6.834   5.569 -2.4107  0.5110 -0.9472
10023TIP3    H230027   7.307   6.905   5.693  0.1256 -2.6958  0.0244
10024TIP3   OH230028   2.681   4.843   2.333  0.3536 -0.1776  0.0394
10024TIP3    H130029   2.662   4.766   2.386  0.6516 -0.0422  0.3496
10024TIP3    H230030   2.696   4.809   2.245  1.8754 -0.6422  0.4479
10025TIP3   OH230031   5.329   3.121   3.019 -0.4133  0.5999 -0.0526
10025TIP3    H130032   5.325   3.071   3.100  0.8097 -1.4106 -1.1535
10025TIP3    H230033   5.347   3.211   3.047  2.4948 -0.4508  1.8657
10026TIP3   OH230034   2.943   6.747   3.780  0.0577  0.2062  0.3651
10026TIP3    H130035   2.922   6.694   3.703  0.8535  0.4727 -0.0574
10026TIP3    H230036   2.939   6.837   3.748  2.5910  0.2564  0.0111
10027TIP3   OH230037   1.334   6.078   0.188  0.0163 -0.5577  0.5390
10027TIP3    H130038   1.274   6.068   0.261 -1.0228  1.0725 -0.0402
10027TIP3    H230039   1.279   6.109   0.116  1.3037 -0.4274 -0.4218
10028TIP3   OH230040   7.303   2.644   3.256  0.3813 -0.5814 -0.0082
10028TIP3    H130041   7.232   2.695   3.294  2.3874 -0.2819  3.7297
10028TIP3    H230042   7.307   2.564   3.309  1.7932 -1.3662 -1.2201
10029TIP3   OH230043   3.900   0.496   1.900  0.0221  0.2646  0.5408
10029TIP3    H130044   3.913   0.403   1.917 -0.7228 -0.4831 -2.4391
10029TIP3    H230045   3.817   0.517   1.943  0.1394 -0.4697  1.1353
10030TIP3   OH230046   3.299   7.522   6.445  0.1420  0.1888 -0.1079
10030TIP3    H130047   3.375   7.574   6.469 -0.3424  0.5998  0.5638
10030TIP3    H230048   3.325   7.432   6.461  0.2860  0.3668  0.7024
10031TIP3   OH230049   4.067   4.994   2.150  0.4911  0.0770  0.5137
10031TIP3    H130050   4.095   4.966   2.062 -1.9138  1.6559 -0.8681
10031TIP3    H230051   4.047   4.913   2.196  1.3080 -0.7755 -0.5727
10032TIP3   OH230052   3.202   2.729   3.619 -0.1506 -0.1995 -0.1981
10032TIP3    H130053   3.213   2.791   3.547  3.0055  0.0981  0.4234
10032TIP3    H230054   3.147   2.660   3.582 -1.2160  1.4493 -1.8678
10033TIP3   OH230055   4.967   6.493   0.138  0.4346 -0.0776 -0.4090
10033TIP3    H130056   4.931   6.580   0.122  0.1566 -0.2842 -0.9036
10033TIP3    H230057   4.974   6.487   0.234 -1.0992 -0.1348 -0.2802
10034TIP3   OH230058   5.784   6.782   2.591 -0.4158  0.0781 -0.0098
10034TIP3    H130059   5.727   6.851   2.559 -1.8113 -0.4015  1.3109
10034TIP3    H230060   5.825   6.820   2.669  0.1890  0.0083 -0.2850
10035TIP3   OH230061   5.887   2.438   0.414 -0.7093 -0.5992  1.0714
10035TIP3    H130062   5.903   2.368   0.476  2.2631 -0.4128  0.6675
10035TIP3    H230063   5.970   2.486   0.409 -0.9332 -0.2598 -2.5762
10036TIP3   OH230064   4.451   0.718   6.151 -0.0271 -0.1478  0.1391
10036TIP3    H130065   4.520   0.782   6.135  0.5210 -1.1084 -1.6715
10036TIP3    H230066   4.445   0.711   6.246 -0.6305  3.0761  0.4609
10037TIP3   OH230067   8.172   1.197   4.581  0.4372 -0.4777 -0.5474
10037TIP3    H130068   8.174   1.117   4.634 -0.8419  0.6334  1.2877
10037TIP3    H230069   8.080   1.207   4.556  0.6890  0.0990 -1.2973
10038TIP3   OH230070   1.081   1.535   4.671 -0.0626  0.4838 -0.3067
10038TIP3    H130071   0.992   1.518   4.638 -0.7489  1.5960  0.8564
10038TIP3    H230072   1.125   1.451   4.667 -1.0708 -0.0263 -1.2057
10039TIP3   OH230073   4.163   4.511   0.085  0.0177 -0.2927  0.3896
10039TIP3    H130074   4.185   4.563   0.009  0.2239 -2.0792 -0.8361
10039TIP3    H230075   4.210   4.429   0.073 -1.4865 -1.3832  1.4516
10040TIP3   OH230076   7.196   1.489   3.475 -0.1126 -0.0031  0.2727
10040TIP3    H130077   7.260   1.554   3.504 -1.8921  1.2856  1.5143
10040TIP3    H230078   7.214   1.477   3.382  2.3679 -0.2544  0.7237
10041TIP3   OH230079   6.395   3.185   2.885 -0.0691  0.5605 -0.6561
10041TIP3    H130080   6.409   3.219   2.797  4.0504 -0.5186 -0.6466
10041TIP3    H230081   6.393   3.090   2.873  1.5441  0.3524  0.4010
10042TIP3   OH230082   3.743   0.470   3.454 -0.1984  0.4433  0.3264
10042TIP3    H130083   3.757   0.393   3.509 -2.2468 -0.1237  0.1177
10042TIP3    H230084   3.820   0.525   3.470  0.8095 -1.1614  1.2651
10043TIP3   OH230085   6.929   0.810   4.713  0.0428  0.3615  0.1229
10043TIP3    H130086   6.892   0.724   4.733  1.9499 -0.3401  0.8571
10043TIP3    H230087   6.988   0.829   4.786  1.6039  1.1155 -1.2709
10044TIP3   OH230088   3.919   7.321   1.688 -0.1976  0.0567 -0.1503
10044TIP3    H130089   3.924   7.232   1.723  0.0928 -0.0877 -0.5507
10044TIP3    H230090   3.869   7.312   1.607 -0.4513  0.3138 -0.0256
10045TIP3   OH230091   3.037   3.164   2.658 -0.7786  0.0875 -0.2041
10045TIP3    H130092   2.968   3.196   2.717 -0.5308  0.3539 -0.0531
10045TIP3    H230093   3.027   3.069   2.658 -1.1807  0.1310 -0.2255
10046TIP3   OH230094   0.718   2.525   0.400  0.0879  0.0608 -0.1071
10046TIP3    H130095   0.687   2.443   0.361 -0.9219  0.8376 -0.9817
10046TIP3    H230096   0.717   2.588   0.329  1.4742  0.7061  0.4021
10047TIP3   OH230097   3.362   6.909   4.432 -0.1485 -0.4831  0.1000
10047TIP3    H130098   3.312   6.981   4.393  0.8754  1.1158  1.6201
10047TIP3    H230099   3.427   6.888   4.365 -0.8851 -0.4674 -0.6389
10048TIP3   OH230100   8.067   7.107   2.797 -0.2287 -0.0387 -0.7710
10048TIP3    H130101   8.010   7.111   2.720 -1.3391 -0.5997 -0.0130
10048TIP3    H230102   8.080   7.199   2.822 -0.9689  0.1010 -0.8561
10049TIP3   OH230103   2.478   5.905   2.182  0.3505 -0.2422  0.2014
10049TIP3    H130104   2.558   5.942   2.220 -0.0318  0.9430 -0.1005
10049TIP3    H230105   2.420   5.890   2.256  0.8799 -1.2082  0.4336
10050TIP3   OH230106   2.134   0.179   4.259  0.3339  0.1490  0.0980
10050TIP3    H130107   2.056   0.227   4.287 -0.0201 -0.3631  0.0079
10050TIP3    H230108   2.100   0.112   4.200  0.6722 -0.9941  1.1690
10051TIP3   OH230109   6.897   3.740   3.228 -0.4032  0.1209  0.6501
10051TIP3    H130110   6.875   3.653   3.194 -2.3014  0.5640  0.6740
10051TIP3    H230111   6.926   3.724   3.318 -1.0112 -0.4685  0.7480
10052TIP3   OH230112   6.127   3.640   6.349 -0.2216  0.1866  0.4528
10052TIP3    H130113   6.075   3.720   6.358  0.5905  0.6058  1.6590
10052TIP3    H230114   6.069   3.571   6.382 -0.0936  0.6243  1.6238
10053TIP3   OH230115   2.155   5.023   1.817  0.1247 -0.0537 -0.3761
10053TIP3    H130116   2.146   4.931   1.791 -2.3864  0.4523 -1.5882
10053TIP3    H230117   2.240   5.049   1.781 -0.0851 -1.3322 -1.9272
10054TIP3   OH230118   3.254   4.426   6.721  0.8311 -0.6433  0.2552
10054TIP3    H130119   3.349   4.435   6.713  0.8727 -0.0324  1.2950
10054TIP3    H230120   3.227   4.499   6.776  0.0568 -2.1376  1.9537
10055TIP3   OH230121   0.174   0.209   0.444 -0.7582 -0.0716  0.6762
10055TIP3    H130122   0.087   0.216   0.405  0.1417 -0.6892 -1.6036
10055TIP3    H230123   0.195   0.116   0.438  0.2310  0.1375  0.8194
10056TIP3   OH230124   1.434   0.932   6.213 -0.1901  0.5184 -0.0740
10056TIP3    H130125   1.428   0.969   6.126  0.0787 -1.2392 -0.8898
10056TIP3    H230126   1.344   0.920   6.241 -0.3111  2.7644  0.7067
10057TIP3   OH230127   7.741   0.034   3.369  0.7850  0.5788  0.2577
10057TIP3    H130128   7.813   0.088   3.403 -0.8929  3.7313 -0.7884
10057TIP3    H230129   7.735   0.058   3.276 -0.8320 -0.5537  0.0352
10058TIP3   OH230130   3.197   1.886   2.838 -0.0633  0.3352  0.7163
10058TIP3    H130131   3.206   1.843   2.923  2.7301  0.9079  0.8057
10058TIP3    H230132   3.208   1.979   2.857  3.0917  0.3155 -0.4374
10059TIP3   OH230133   1.965   3.518   2.933 -0.6272  0.1322 -0.6584
10059TIP3    H130134   2.027   3.570   2.985 -0.0874  0.0993 -1.2600
10059TIP3    H230135   1.887   3.573   2.927 -0.1302  0.8025 -1.1324
10060TIP3   OH230136   4.221   1.408   3.133 -0.2859 -0.5258  0.5523
10060TIP3    H130137   4.157   1.449   3.190 -0.5172  0.8503 -0.6388
10060TIP3    H230138   4.283   1.479   3.112 -0.1782 -0.9998 -0.8262
10061TIP3   OH230139   2.987   4.241   4.454  0.0145  0.2275 -0.4792
10061TIP3    H130140   3.062   4.245   4.514  0.0265 -1.1245 -0.3869
10061TIP3    H230141   2.946   4.156   4.471  0.0755 -0.2444 -2.4435
10062TIP3   OH230142   6.047   0.247   2.148  0.5069  0.2131 -0.1427
10062TIP3    H130143   6.030   0.242   2.242 -2.1619 -0.4226 -0.5795
10062TIP3    H230144   6.053   0.155   2.120 -4.1106  0.0072 -1.2919
10063TIP3   OH230145   5.603   3.351   5.137  0.0836  0.5552 -0.3606
10063TIP3    H130146   5.648   3.310   5.064  0.4606  0.1703  0.0853
10063TIP3    H230147   5.629   3.300   5.214 -1.1048  0.3296 -0.0923
10064TIP3   OH230148   4.131   4.883   3.815  0.2452 -0.1174  0.4875
10064TIP3    H130149   4.162   4.891   3.905  2.0372 -1.7784  0.0627
10064TIP3    H230150   4.154   4.794   3.789 -1.5605 -0.1656 -1.1544
10065TIP3   OH230151   5.572   7.456   3.226  0.3234 -0.4496  0.2199
10065TIP3    H130152   5.572   7.468   3.131  1.2074  0.1276  0.2790
10065TIP3    H230153   5.486   7.418   3.245 -0.5001  0.9195 -0.6048
10066TIP3   OH230154   0.295   1.758   0.970 -1.1997 -0.0165 -0.2409
10066TIP3    H130155   0.370   1.699   0.976 -1.1385 -0.1023 -1.4793
10066TIP3    H230156   0.288   1.797   1.056  0.5847  0.3829 -0.2362
10067TIP3   OH230157   4.378   4.055   2.255  0.7500  0.3566 -0.3351
10067TIP3    H130158   4.378   3.978   2.312  0.2754  0.4827 -0.1673
10067TIP3    H230159   4.287   4.084   2.253  0.5439 -0.2704 -1.9888
10068TIP3   OH230160   8.149   5.199   1.939  0.1460  0.4016 -0.5447
10068TIP3    H130161   8.192   5.183   1.855 -0.2959 -0.3633 -0.6416
10068TIP3    H230162   8.180   5.127   1.995 -1.9578 -0.9650 -1.0002
10069TIP3   OH230163   7.378   6.435   2.608 -0.4716 -0.1672 -0.0190
10069TIP3    H130164   7.315   6.421   2.536  0.6026 -0.9280 -0.8552
10069TIP3    H230165   7.457   6.466   2.565 -0.1797  0.5337  0.9920
10070TIP3   OH230166   3.089   5.811   5.809  0.0730  0.1931 -0.6466
10070TIP3    H130167   3.106   5.823   5.903 -4.0865  1.1563  0.2235
10070TIP3    H230168   3.115   5.894   5.770  2.1983 -0.3498 -0.4825
10071TIP3   OH230169   0.239   1.593   2.113 -0.4116  0.5248 -0.2755
10071TIP3    H130170   0.177   1.661   2.139  0.8374  1.5534  0.0911
10071TIP3    H230171   0.278   1.563   2.195  0.4844  0.7908 -0.5940
10072TIP3   OH230172   1.377   3.384   3.296 -0.8355  0.0187  0.0197
10072TIP3    H130173   1.367   3.425   3.210  0.9701  0.5915  0.0418
10072TIP3    H230174   1.340   3.296   3.285 -0.3948 -0.0151 -1.4214
10073TIP3   OH230175   0.156   2.253   2.374  0.1035 -0.2903  0.5438
10073TIP3    H130176   0.195   2.224   2.457 -0.2690 -1.5320  0.3033
10073TIP3    H230177   0.078   2.301   2.400  0.5377  0.2191  0.9393
10074TIP3   OH230178   4.686   4.845   2.390  0.8037  0.0169 -0.4713
10074TIP3    H130179   4.654   4.785   2.457 -0.1877 -0.8930 -1.7291
10074TIP3    H230180   4.766   4.882   2.428  1.4273 -2.0444  0.3702
10075TIP3   OH230181   7.312   1.027   1.554 -0.1865 -0.0665 -0.0225
10075TIP3    H130182   7.319   1.018   1.649  0.7462 -1.8924 -0.2195
10075TIP3    H230183   7.218   1.038   1.538 -0.4996 -1.0062  1.0293
10076TIP3   OH230184   3.951   6.258   5.261 -0.1128  0.1393 -0.7280
10076TIP3    H130185   3.882   6.200   5.228 -0.9241 -0.1957  1.3984
10076TIP3    H230186   3.919   6.347   5.243  0.1150 -0.0176 -2.0115
10077TIP3   OH230187   0.429   2.471   4.464  0.1577 -0.3748 -0.6292
10077TIP3    H130188   0.402   2.391   4.510  0.5362  0.8160  1.8339
10077TIP3    H230189   0.398   2.542   4.520  1.0442  1.1970 -2.0570
10078TIP3   OH230190   5.573   6.546   5.579  0.0654  0.8211  0.1461
10078TIP3    H130191   5.577   6.589   5.664  3.0479  1.9841 -0.4527
10078TIP3    H230192   5.621   6.464   5.591  0.2123  0.8366 -0.2977
10079TIP3   OH230193   1.507   7.145   3.842  0.0738  0.0898 -0.6928
10079TIP3    H130194   1.444   7.151   3.771  0.4471  0.1596 -1.0228
10079TIP3    H230195   1.567   7.075   3.816  1.9346  1.9982 -1.8687
10080TIP3   OH230196   2.882   3.127   5.953  0.2596 -0.2192  0.0608
10080TIP3    H130197   2.879   3.220   5.972  2.8938  0.2472 -1.3281
10080TIP3    H230198   2.858   3.120   5.860 -0.2634 -0.9687  0.2417
10081TIP3   OH230199   3.508   4.017   6.353 -0.2375  0.7346 -0.4744
10081TIP3    H130200   3.591   4.029   6.308 -0.5994  0.5418 -1.1984
10081TIP3    H230201   3.456   3.961   6.295 -0.0401 -1.0743  0.9977
10082TIP3   OH230202   0.737   4.538   2.438 -0.2404 -0.0187  0.4904
10082TIP3    H130203   0.717   4.621   2.394 -1.5869  0.4301  1.8302
10082TIP3    H230204   0.670   4.532   2.507 -0.3750 -2.3840  0.2134
10083TIP3   OH230205   6.479   7.088   0.849  0.0901  0.2411  0.4224
10083TIP3    H130206   6.487   7.174   0.889 -0.9477  0.2773  0.6003
10083TIP3    H230207   6.423   7.102   0.772  1.1395 -0.0248 -0.4228
10084TIP3   OH230208   5.013   6.805   1.832  0.3618  0.1243  0.5044
10084TIP3    H130209   5.019   6.900   1.826  0.1155  0.1820  1.1182
10084TIP3    H230210   4.931   6.783   1.786  0.2273  0.2422  0.6892
10085TIP3   OH230211   2.980   2.677   2.489  0.6313 -0.3798  0.2502
10085TIP3    H130212   2.901   2.727   2.509  1.3350  1.1829 -0.6181
10085TIP3    H230213   2.978   2.602   2.549 -1.0387  0.1077  0.8459
10086TIP3   OH230214   7.646   5.127   6.570 -0.6126  0.3300  0.5234
10086TIP3    H130215   7.645   5.209   6.620 -1.9400  0.2211  0.7156
10086TIP3    H230216   7.731   5.088   6.589  1.1343  2.7929 -1.4681
10087TIP3   OH230217   0.440   1.208   5.026 -0.5738  0.2471 -0.5837
10087TIP3    H130218   0.397   1.281   5.070  0.1427  1.1557 -1.3346
10087TIP3    H230219   0.428   1.226   4.933 -1.6356 -1.3752 -0.7945
10088TIP3   OH230220   5.390   7.557   6.496  0.2214  0.4341  0.1334
10088TIP3    H130221   5.342   7.635   6.524 -0.3074  0.8115 -1.7373
10088TIP3    H230222   5.392   7.502   6.574 -0.9030  1.5660  1.0105
10089TIP3   OH230223   2.660   5.345   0.483  0.0415  0.3511 -0.3655
10089TIP3    H130224   2.696   5.261   0.454 -1.4738 -0.7746  0.8408
10089TIP3    H230225   2.738   5.398   0.503  1.0652  0.0355 -3.1173
10090TIP3   OH230226   2.259   7.238   1.422 -0.4029  0.4056  0.0802
10090TIP3    H130227   2.313   7.212   1.496 -2.2686 -2.4291  0.6007
10090TIP3    H230228   2.199   7.304   1.457 -1.5508 -1.2155  1.3101
10091TIP3   OH230229   3.501   7.716   0.730  0.2600  0.3129  0.0491
10091TIP3    H130230   3.529   7.806   0.716 -0.3542  0.5448  0.2716
10091TIP3    H230231   3.426   7.704   0.673 -1.9447  1.1120  2.5603
10092TIP3   OH230232   7.129   3.907   2.269 -0.5974 -0.1011 -0.3233
10092TIP3    H130233   7.190   3.834   2.283  1.1539  0.5472 -3.5675
10092TIP3    H230234   7.111   3.941   2.357  2.5874 -1.2600  0.9217
10093TIP3   OH230235   2.042   1.271   4.467  0.2629  0.3400  0.4893
10093TIP3    H130236   2.031   1.355   4.511 -0.9945  1.7766 -2.3370
10093TIP3    H230237   2.137   1.263   4.456  0.7723 -0.6469  4.2244
10094TIP3   OH230238   6.290   2.331   4.451  0.5468  0.1016  0.9397
10094TIP3    H130239   6.225   2.320   4.519  2.2735 -0.3981  2.5958
10094TIP3    H230240   6.372   2.347   4.498  2.0608 -1.5783 -0.9513
10095TIP3   OH230241   5.470   0.394   1.125 -0.5398 -0.0325  0.2482
10095TIP3    H130242   5.435   0.477   1.158 -0.1446 -0.3662  1.5556
10095TIP3    H230243   5.412   0.327   1.162 -1.1200 -0.3429 -1.1493
10096TIP3   OH230244   0.731   6.446   1.121 -0.3205 -0.9838  0.1199
10096TIP3    H130245   0.774   6.382   1.064  0.1348 -0.8921  0.3543
10096TIP3    H230246   0.642   6.453   1.087  0.3459  0.1896 -1.5628
10097TIP3   OH230247   0.042   0.728   2.215 -0.1609 -0.3532  0.3407
10097TIP3    H130248   0.120   0.713   2.268  0.2545 -2.5274 -0.7484
10097TIP3    H230249   0.031   0.823   2.213  1.5492 -0.0912  1.7865
10098TIP3   OH230250   2.599   0.638   0.093  0.3422  0.3127 -0.4294
10098TIP3    H130251   2.554   0.562   0.131 -1.1164  0.6452 -1.3972
10098TIP3    H230252   2.625   0.609   0.005  1.1642  0.4520 -0.2410
10099TIP3   OH230253   7.191   2.159   0.743 -0.9057  0.0166 -0.3282
10099TIP3    H130254   7.249   2.225   0.779 -1.4379 -0.2924  1.1691
10099TIP3    H230255   7.145   2.123   0.819  0.2972 -3.0124 -0.8452
10100TIP3   OH230256   8.266   1.820   0.523  0.1523 -0.9894  0.5644
10100TIP3    H130257   8.346   1.822   0.470  0.6442 -1.1683  1.2887
10100TIP3    H230258   8.276   1.893   0.584 -2.0945  1.6623 -1.9485
10101TIP3   OH230259   0.309   3.833   0.029 -0.0175  0.1478  0.0726
10101TIP3    H130260   0.393   3.878   0.018 -0.5631  1.1096 -0.3190
10101TIP3    H230261   0.306   3.771  -0.043  0.2808  0.2451 -0.0278
10102TIP3   OH230262   8.084   0.596   1.476 -0.0225  0.1471 -0.4831
10102TIP3    H130263   8.038   0.675   1.451  1.2982  1.4775  1.0222
10102TIP3    H230264   8.170   0.603   1.434  1.2493  1.1367  2.0348
10103TIP3   OH230265   5.984   3.696   3.184 -0.5986  0.3683 -0.3715
10103TIP3    H130266   5.989   3.783   3.146 -0.7543  0.0605 -1.1174
10103TIP3    H230267   5.986   3.637   3.108 -2.2831 -0.2177 -0.0165
10104TIP3   OH230268   7.558   3.987   4.258 -0.2473  0.4619 -0.7020
10104TIP3    H130269   7.558   3.958   4.167  0.0504 -1.6254 -0.0766
10104TIP3    H230270   7.627   3.937   4.299 -0.6040  1.1269  0.7701
10105TIP3   OH230271   2.074   3.599   5.314 -0.0358 -0.9206  0.0272
10105TIP3    H130272   2.025   3.517   5.314  0.9723 -1.5976 -1.7199
10105TIP3    H230273   2.166   3.572   5.319  0.4123 -0.0661 -2.2293
10106TIP3   OH230274   1.545   6.476   0.727  0.3778 -0.3428 -0.5332
10106TIP3    H130275   1.474   6.432   0.680 -0.9006  0.3213  0.7000
10106TIP3    H230276   1.585   6.534   0.663 -1.0875  0.2663 -0.9276
10107TIP3   OH230277   1.231   4.303   4.541 -0.2575  0.7246 -0.3208
10107TIP3    H130278   1.163   4.294   4.608 -1.4891  1.4096 -1.4401
10107TIP3    H230279   1.253   4.213   4.517 -3.2323  0.3838 -2.3152
10108TIP3   OH230280   3.596   0.171   1.968 -0.5058 -0.3293  0.0974
10108TIP3    H130281   3.615   0.251   2.018 -1.4144  0.3360 -0.5824
10108TIP3    H230282   3.641   0.184   1.885  0.2849 -1.0524  0.3929
10109TIP3   OH230283   7.222   4.410   5.611  0.6714  0.1658 -0.0162
10109TIP3    H130284   7.201   4.473   5.679  2.3181  3.0453 -1.9757
10109TIP3    H230285   7.227   4.461   5.530  0.7264 -2.7279 -2.0254
10110TIP3   OH230286   4.396   3.758   5.405  0.0205 -0.0076 -0.0095
10110TIP3    H130287   4.383   3.842   5.447 -0.9523 -1.9425  4.0647
10110TIP3    H230288   4.309   3.732   5.374 -0.3287 -0.7837  1.5541
10111TIP3   OH230289   7.000   1.979   4.858  0.1371 -0.0629 -0.1073
10111TIP3    H130290   7.023   2.071   4.872 -0.8345  0.1560  0.1500
10111TIP3    H230291   7.070   1.944   4.803 -0.4957  1.3590 -1.9009
10112TIP3   OH230292   0.681   3.187   5.857 -0.1539  0.5140 -0.0935
10112TIP3    H130293   0.611   3.245   5.830 -1.4460 -0.4001  1.1176
10112TIP3    H230294   0.637   3.104   5.878  0.9143  0.5502  2.8165
10113TIP3   OH230295   7.326   6.902   6.449 -0.1640  0.2767  0.7611
10113TIP3    H130296   7.275   6.982   6.461 -0.4537  0.2012  0.0820
10113TIP3    H230297   7.265   6.840   6.409 -0.2618 -0.6527  2.2497
10114TIP3   OH230298   7.526   7.743   4.471 -0.5011 -0.2024 -0.2317
10114TIP3    H130299   7.520   7.828   4.516 -2.6434 -0.6982  0.5679
10114TIP3    H230300   7.617   7.736   4.445  0.2314  1.3678  1.6274
10115TIP3   OH230301   7.763   1.250   0.186 -0.2514 -0.4387 -0.3984
10115TIP3    H130302   7.739   1.337   0.153 -1.3902 -0.9340 -0.9514
10115TIP3    H230303   7.684   1.219   0.232  0.9176 -0.2296  1.9020
10116TIP3   OH230304   0.489   2.260   5.075 -0.3488  0.9915 -0.1323
10116TIP3    H130305   0.574   2.299   5.060  0.2619  0.7402  2.2378
10116TIP3    H230306   0.437   2.329   5.117 -0.4982  0.4545  0.6053
10117TIP3   OH230307   2.693   6.407   6.070 -0.3110  0.0502  0.1291
10117TIP3    H130308   2.661   6.317   6.079  1.2775 -0.4802  0.9423
10117TIP3    H230309   2.736   6.409   5.985 -1.5813  0.4895 -0.5347
10118TIP3   OH230310   0.975   0.700   4.924 -0.0721  0.3196 -0.3021
10118TIP3    H130311   0.958   0.622   4.871 -2.1536 -1.1958  2.3043
10118TIP3    H230312   1.033   0.670   4.994  0.0974  1.4379  0.0644
10119TIP3   OH230313   5.232   1.998   5.200 -0.2464 -0.2329 -0.1022
10119TIP3    H130314   5.298   1.930   5.207  0.0593  0.1938  1.7141
10119TIP3    H230315   5.152   1.952   5.174 -0.7537 -1.8332  3.7431
10120TIP3   OH230316   1.242   5.118   0.297 -0.0080 -0.0479  0.0911
10120TIP3    H130317   1.177   5.173   0.342  0.3415  0.8434 -0.4707
10120TIP3    H230318   1.225   5.030   0.330  0.2275  0.5619  1.9692
10121TIP3   OH230319   0.553   3.304   3.181 -0.1910  0.3082 -0.1604
10121TIP3    H130320   0.487   3.244   3.148  0.2069  0.1912 -0.7521
10121TIP3    H230321   0.630   3.250   3.198  0.1379  0.6237 -0.6038
10122TIP3   OH230322   6.332   3.537   4.500 -0.4482  0.1386  0.2611
10122TIP3    H130323   6.426   3.524   4.514 -0.0716  0.1858 -2.0014
10122TIP3    H230324   6.312   3.618   4.547  0.7017  0.2854  0.5235
10123TIP3   OH230325   3.815   0.505   2.783  0.2953  0.0844  0.4030
10123TIP3    H130326   3.790   0.579   2.728  0.0272  1.2484  2.0056
10123TIP3    H230327   3.807   0.428   2.726  2.3367  1.4040 -1.8688
10124TIP3   OH230328   7.144   0.667   2.696 -0.0324  0.3558  0.7910
10124TIP3    H130329   7.164   0.760   2.707 -0.4800  0.2945  2.3616
10124TIP3    H230330   7.060   0.656   2.739 -0.1400 -0.7347  0.3283
10125TIP3   OH230331   3.418   0.472   5.998 -0.0595  0.0278  0.5575
10125TIP3    H130332   3.432   0.501   5.908  0.1116 -1.3894  0.1021
10125TIP3    H230333   3.328   0.499   6.018 -0.3486 -0.2714 -0.2991
10126TIP3   OH230334   4.069   4.012   0.398 -0.0214  0.5072  0.5269
10126TIP3    H130335   4.156   4.026   0.435 -0.1005 -0.8263  1.2818
10126TIP3    H230336   4.084   3.998   0.305  0.5049  0.9274  0.5461
10127TIP3   OH230337   6.662   3.570   2.563 -0.0919 -0.3147 -0.5513
10127TIP3    H130338   6.570   3.573   2.538  0.0494 -2.4602 -1.6379
10127TIP3    H230339   6.709   3.599   2.484  0.1732  0.6947 -0.0302
10128TIP3   OH230340   1.880   1.719   0.539  0.1876 -0.4584  0.1962
10128TIP3    H130341   1.868   1.756   0.451 -0.6830 -0.1940  0.4113
10128TIP3    H230342   1.925   1.788   0.588 -0.3557 -0.1501  0.2669
10129TIP3   OH230343   2.444   7.454   3.469  0.2448  0.2661  0.1273
10129TIP3    H130344   2.447   7.366   3.508  1.4387  0.1563 -0.1527
10129TIP3    H230345   2.489   7.444   3.385 -0.5455  0.9290 -0.3809
10130TIP3   OH230346   5.093   1.479   4.823 -0.3526 -0.3732  0.6971
10130TIP3    H130347   5.161   1.441   4.767 -0.1344 -0.4193  0.9917
10130TIP3    H230348   5.024   1.506   4.762  1.0791  2.2283  0.0828
10131TIP3   OH230349   5.591   1.135   3.994 -0.1541  0.2676 -0.4189
10131TIP3    H130350   5.558   1.104   4.078 -0.7126  2.4094  0.1997
10131TIP3    H230351   5.686   1.138   4.005 -0.2241  0.4955  0.1287
10132TIP3   OH230352   4.495   0.392   1.401 -0.0850 -0.2185 -0.5363
10132TIP3    H130353   4.559   0.423   1.337  0.1612 -0.0474 -0.2054
10132TIP3    H230354   4.410   0.407   1.358 -0.1317  2.9569  0.4324
10133TIP3   OH230355   2.436   5.097   1.744 -0.1645  0.0799  0.2242
10133TIP3    H130356   2.464   5.007   1.756  1.8293  0.6080 -0.0973
10133TIP3    H230357   2.429   5.107   1.649  0.9295  0.5839  0.1734
10134TIP3   OH230358   1.426   1.734   1.263 -0.0590  0.2498  0.7559
10134TIP3    H130359   1.446   1.791   1.337  0.3663 -0.6728  1.3654
10134TIP3    H230360   1.504   1.681   1.251  0.3563  1.2022 -1.1557
10135TIP3   OH230361   0.382   5.858   4.223  0.4358  0.4036 -0.9590
10135TIP3    H130362   0.453   5.794   4.230 -1.2406 -1.3751  1.5433
10135TIP3    H230363   0.302   5.805   4.230 -1.1111  2.5239 -1.5970
10136TIP3   OH230364   1.052   4.667   0.577  0.5677  0.2263 -0.2186
10136TIP3    H130365   1.071   4.595   0.516 -0.4266  1.0843 -1.5973
10136TIP3    H230366   0.977   4.635   0.628  0.1069  0.2825 -0.8499
10137TIP3   OH230367   6.065   4.749   5.904 -0.1441 -0.5191 -0.0543
10137TIP3    H130368   6.056   4.809   5.979 -0.5399 -1.1047  0.3787
10137TIP3    H230369   6.098   4.804   5.833  0.1073  0.0801  0.5108
10138TIP3   OH230370   5.829   3.205   2.915 -0.4782 -0.3994  0.0414
10138TIP3    H130371   5.760   3.215   2.981  0.0756 -1.3234  0.7820
10138TIP3    H230372   5.896   3.153   2.958 -0.1866 -1.2046 -1.3225
10139TIP3   OH230373   5.784   1.753   4.294 -0.5590  0.8897 -0.5296
10139TIP3    H130374   5.703   1.703   4.302  0.2674 -0.4512 -0.3486
10139TIP3    H230375   5.780   1.817   4.366 -1.4641  0.8777 -0.5593
10140TIP3   OH230376   1.080   4.206   3.956  0.4233  0.0696 -0.1761
10140TIP3    H130377   1.129   4.239   4.032  1.6414  0.0633 -0.9252
10140TIP3    H230378   1.118   4.252   3.881  0.5523 -1.3060 -0.9891
10141TIP3   OH230379   6.052   4.923   1.977  0.3048 -0.2964 -0.4008
10141TIP3    H130380   6.078   4.843   2.022  1.2230 -0.5800 -1.3951
10141TIP3    H230381   6.090   4.994   2.029 -1.3751 -0.4024  1.0681
10142TIP3   OH230382   1.399   6.501   2.601  0.0322  0.1027  0.4180
10142TIP3    H130383   1.410   6.413   2.564 -0.0560  0.1198  0.3517
10142TIP3    H230384   1.487   6.527   2.627 -0.2775 -1.0994  2.9533
10143TIP3   OH230385   1.120   5.872   4.298 -0.4941 -0.4625  0.5801
10143TIP3    H130386   1.040   5.870   4.247 -0.3514 -0.1766  0.3438
10143TIP3    H230387   1.148   5.780   4.304 -0.9454 -0.5861  0.8387
10144TIP3   OH230388   1.673   7.138   2.086  0.7017 -0.0122 -0.5458
10144TIP3    H130389   1.718   7.156   2.003  0.6147  0.0414 -0.5815
10144TIP3    H230390   1.639   7.049   2.076  1.9259 -0.5670 -0.0205
10145TIP3   OH230391   1.727   2.258   6.681 -0.4338  0.2772  0.2384
10145TIP3    H130392   1.737   2.271   6.587  0.9148 -1.5329  0.0982
10145TIP3    H230393   1.776   2.330   6.720 -0.1744  0.4769 -0.4355
10146TIP3   OH230394   7.846   2.859   1.606 -0.1000 -0.6700  0.2209
10146TIP3    H130395   7.886   2.791   1.552  0.8578  0.2292 -0.2338
10146TIP3    H230396   7.770   2.817   1.646 -1.0181 -1.2655 -2.0439
10147TIP3   OH230397   3.892   4.636   4.918  0.6446 -0.0289  0.2019
10147TIP3    H130398   3.893   4.713   4.862 -2.5663 -0.7676 -1.0713
10147TIP3    H230399   3.849   4.665   4.999 -0.0072 -0.3093 -0.0360
10148TIP3   OH230400   7.399   4.891   4.117  0.0740  0.4307 -0.0829
10148TIP3    H130401   7.321   4.850   4.155  0.7826  0.3907  1.4352
10148TIP3    H230402   7.366   4.972   4.077 -0.7493  0.4890  0.6541
10149TIP3   OH230403   2.765   4.398   4.176 -0.5715 -0.0057  0.2135
10149TIP3    H130404   2.747   4.449   4.254  0.3600 -1.4212  1.4099
10149TIP3    H230405   2.830   4.449   4.128  1.2685 -0.5399  1.9933
10150TIP3   OH230406   3.702   4.632   0.398  0.4084 -0.4528  0.3040
10150TIP3    H130407   3.713   4.727   0.397  1.5449 -0.5425  1.7075
10150TIP3    H230408   3.628   4.617   0.339  1.0387  1.1655 -0.9999
10151TIP3   OH230409   8.162   6.443   2.320 -0.5833 -0.6246  0.7249
10151TIP3    H130410   8.195   6.510   2.379 -2.4570  0.7379  0.3266
10151TIP3    H230411   8.240   6.398   2.287  0.5496 -0.9263  3.5938
10152TIP3   OH230412   5.304   7.262   3.038 -0.2601 -0.3829  0.1950
10152TIP3    H130413   5.300   7.353   3.065 -0.4182 -0.4168  0.2868
10152TIP3    H230414   5.252   7.215   3.102 -0.5217 -0.4819 -0.0877
10153TIP3   OH230415   5.953   5.495   2.147 -0.4311 -0.0690  0.1707
10153TIP3    H130416   5.906   5.510   2.065  1.6926 -0.3371 -1.1755
10153TIP3    H230417   6.019   5.429   2.125 -0.2300 -0.6486  2.2789
10154TIP3   OH230418   7.274   4.876   1.504  0.3435  0.2863  0.1364
10154TIP3    H130419   7.248   4.819   1.431 -0.7086 -0.4341  1.0529
10154TIP3    H230420   7.224   4.957   1.489  0.0422  0.0988  0.1063
10155TIP3   OH230421   2.207   5.872   4.254 -0.0315  0.1510  0.2650
10155TIP3    H130422   2.264   5.853   4.328  0.5994 -0.2513 -0.3153
10155TIP3    H230423   2.118   5.868   4.290  0.2896  0.6277  1.1375
10156TIP3   OH230424   5.439   1.722   0.608 -0.3691 -0.2044  0.0495
10156TIP3    H130425   5.528   1.686   0.606 -0.4257 -0.4806  1.2346
10156TIP3    H230426   5.400   1.698   0.524  0.3191 -1.0266 -0.0394
10157TIP3   OH230427   3.182   1.517   2.237 -0.2541 -0.2295 -0.4122
10157TIP3    H130428   3.135   1.581   2.184 -0.0594 -1.5523 -2.2870
10157TIP3    H230429   3.244   1.568   2.289 -1.5468  1.2507 -0.2834
10158TIP3   OH230430   7.535   0.235   3.591  0.6272 -0.0666 -0.4781
10158TIP3    H130431   7.530   0.140   3.586  0.0071 -0.0230 -0.8153
10158TIP3    H230432   7.567   0.253   3.679 -0.5153 -0.5711  0.0645
10159TIP3   OH230433   5.468   1.990   3.062 -0.4430 -0.3589  0.0300
10159TIP3    H130434   5.402   1.994   2.992 -0.5253  0.1327  0.1331
10159TIP3    H230435   5.488   2.082   3.081  1.4413 -0.4696 -1.1033
10160TIP3   OH230436   4.659   1.632   3.806  0.0057  0.2885 -0.2330
10160TIP3    H130437   4.584   1.660   3.859 -0.1167  0.0931 -0.3008
10160TIP3    H230438   4.666   1.538   3.823 -1.4075 -0.2384 -2.2396
10161TIP3   OH230439   1.490   5.854   3.817 -0.3178  0.6273  0.7639
10161TIP3    H130440   1.540   5.883   3.741 -0.4093  1.4609  1.0122
10161TIP3    H230441   1.401   5.885   3.801 -0.6366 -0.3167  0.6140
10162TIP3   OH230442   3.693   4.627   4.526 -0.6190 -0.0448  0.0619
10162TIP3    H130443   3.646   4.666   4.600  0.1868  0.3382  0.3764
10162TIP3    H230444   3.728   4.701   4.478 -0.4900 -0.3250 -0.2782
10163TIP3   OH230445   7.627   6.315   3.660 -0.7042  0.3808  0.2536
10163TIP3    H130446   7.670   6.363   3.590  1.8462 -1.4109  0.4275
10163TIP3    H230447   7.559   6.263   3.616 -0.7116  1.0226 -0.5069
10164TIP3   OH230448   1.966   4.383   2.971  0.4460  0.3172  0.5954
10164TIP3    H130449   1.876   4.406   2.949 -0.6460 -2.3018  1.9013
10164TIP3    H230450   2.019   4.432   2.908 -2.0609 -0.9466 -2.7852
10165TIP3   OH230451   2.500   2.536   0.924  0.7432  0.4048  0.1058
10165TIP3    H130452   2.442   2.492   0.987 -1.3040  1.8666 -0.6490
10165TIP3    H230453   2.444   2.555   0.850  2.4212  1.2665 -0.9941
10166TIP3   OH230454   2.673   6.528   1.112 -0.1523  0.3347 -0.0843
10166TIP3    H130455   2.733   6.598   1.137 -1.3179  2.6556 -3.2053
10166TIP3    H230456   2.700   6.453   1.166  3.7787  1.9691  0.5450
10167TIP3   OH230457   4.192   4.773   1.045  0.6667 -0.2224 -0.1571
10167TIP3    H130458   4.140   4.761   1.124  0.1950 -4.2306 -0.8275
10167TIP3    H230459   4.276   4.806   1.077  0.1954 -0.8492  1.9208
10168TIP3   OH230460   4.364   1.263   2.618  0.0414 -0.4747  0.4152
10168TIP3    H130461   4.402   1.338   2.571  2.1211 -0.7299  1.5744
10168TIP3    H230462   4.346   1.297   2.706 -1.2378 -0.7406  0.2753
10169TIP3   OH230463   2.838   6.738   4.137  0.2120 -0.0825 -0.3780
10169TIP3    H130464   2.867   6.693   4.057 -0.8614  1.0905 -1.4848
10169TIP3    H230465   2.796   6.670   4.189  0.2824 -0.7421 -1.1602
10170TIP3   OH230466   2.709   2.935   4.573  0.3795  0.4176  0.0902
10170TIP3    H130467   2.804   2.944   4.581  0.4061 -0.3609  0.7372
10170TIP3    H230468   2.696   2.870   4.504  0.3490 -0.1790  0.6434
10171TIP3   OH230469   6.255   6.359   3.827  0.4008 -0.0832 -0.3587
10171TIP3    H130470   6.264   6.277   3.876  1.0693  0.6666  0.7913
10171TIP3    H230471   6.341   6.400   3.832  0.5856 -0.1043 -2.4215
10172TIP3   OH230472   3.470   1.264   6.254 -0.0467  0.3952 -0.2815
10172TIP3    H130473   3.438   1.206   6.184  0.9105  0.3863 -0.7334
10172TIP3    H230474   3.530   1.210   6.304 -0.3814  0.5397  0.2790
10173TIP3   OH230475   6.157   0.176   0.449  0.3469 -0.1655  0.0801
10173TIP3    H130476   6.216   0.193   0.523 -0.0625 -0.1277  0.4018
10173TIP3    H230477   6.079   0.139   0.490  0.4450 -0.9419 -0.4155
10174TIP3   OH230478   5.347   4.442   0.996  0.3430 -0.5472 -0.3589
10174TIP3    H130479   5.403   4.464   0.922  0.3758  0.2096 -0.1165
10174TIP3    H230480   5.264   4.416   0.956 -0.2712  1.6740 -0.6391
10175TIP3   OH230481   4.788   0.201   3.838 -0.9656  0.3979 -0.5345
10175TIP3    H130482   4.840   0.139   3.788 -0.1614 -0.6485  1.4856
10175TIP3    H230483   4.724   0.148   3.884  0.7396  0.7266  2.4866
10176TIP3   OH230484   5.601   5.256   1.311  0.9732 -0.1646  0.1553
10176TIP3    H130485   5.611   5.205   1.391 -0.2850 -2.5973 -1.1372
10176TIP3    H230486   5.614   5.193   1.240 -2.0466  0.9268 -1.5503
10177TIP3   OH230487   1.980   4.767   2.961  0.0604  0.1994 -1.0355
10177TIP3    H130488   2.053   4.824   2.987  2.5093 -2.2486 -2.0678
10177TIP3    H230489   1.951   4.727   3.043  1.1721 -0.2056 -0.8249
10178TIP3   OH230490   8.134   7.607   3.314 -0.3919  0.0176 -0.0015
10178TIP3    H130491   8.191   7.613   3.391  1.5646 -0.3262 -1.3303
10178TIP3    H230492   8.173   7.537   3.262 -0.0097  1.9862 -2.5517
10179TIP3   OH230493   7.172   1.722   5.747  0.3526 -0.4900  0.0364
10179TIP3    H130494   7.145   1.813   5.761  0.3092 -0.5064  0.0601
10179TIP3    H230495   7.261   1.728   5.711  0.9910 -0.4779  1.5431
10180TIP3   OH230496   0.604   5.400   4.943  0.2077  0.6420  0.2783
10180TIP3    H130497   0.545   5.434   5.010 -0.5440 -2.3515  1.2518
10180TIP3    H230498   0.546   5.374   4.871  0.7882  1.5073 -0.5350
10181TIP3   OH230499   8.257   3.558   2.982  0.1708 -0.0523  0.1662
10181TIP3    H130500   8.266   3.631   2.921  2.0133  0.1785  0.6479
10181TIP3    H230501   8.209   3.595   3.057 -0.2374  0.2407 -0.2366
10182TIP3   OH230502   8.293   1.722   5.645  0.2734 -0.1833  0.7818
10182TIP3    H130503   8.342   1.762   5.716  1.6445 -1.8755  0.8661
10182TIP3    H230504   8.221   1.675   5.687 -1.0401  1.6785  0.7183
10183TIP3   OH230505   6.342   4.972   0.544 -0.1395  0.2025  0.8063
10183TIP3    H130506   6.350   5.035   0.473 -0.3483 -0.6179  0.0276
10183TIP3    H230507   6.263   4.998   0.592 -1.5079 -0.7109 -0.8350
10184TIP3   OH230508   0.144   1.348   3.232 -0.4037  0.5664 -0.4478
10184TIP3    H130509   0.196   1.274   3.202 -0.6781  0.6834 -1.2472
10184TIP3    H230510   0.142   1.408   3.157 -0.7491  1.0659 -0.0455
10185TIP3   OH230511   1.209   6.940   5.807  0.3319  0.1096 -0.1380
10185TIP3    H130512   1.297   6.915   5.779 -0.4804 -0.8582 -1.9702
10185TIP3    H230513   1.183   6.872   5.869  0.0357 -0.9059 -1.3369
10186TIP3   OH230514   7.287   1.012   0.249  0.0218  0.3354  0.4651
10186TIP3    H130515   7.266   1.081   0.312 -1.4072  1.2554 -0.9273
10186TIP3    H230516   7.285   1.056   0.164  0.0596 -1.2279 -0.3851
10187TIP3   OH230517   8.099   1.861   4.615  0.0550 -0.2802 -0.1107
10187TIP3    H130518   8.075   1.879   4.706  1.1951 -1.6177  0.4940
10187TIP3    H230519   8.191   1.887   4.609  0.5736 -2.0063 -0.2945
10188TIP3   OH230520   0.108   3.207   1.617  0.2633 -0.6440 -0.3935
10188TIP3    H130521   0.107   3.301   1.599 -1.6616 -0.3822  0.7170
10188TIP3    H230522   0.016   3.181   1.612  0.4696 -1.9780  1.6162
10189TIP3   OH230523   7.114   7.067   6.498 -0.2518  0.0389 -0.0982
10189TIP3    H130524   7.085   7.069   6.589  1.4981  1.0663  0.4922
10189TIP3    H230525   7.095   7.154   6.464 -0.5284 -0.2107 -0.6040
10190TIP3   OH230526   2.236   1.635   5.438 -0.7760 -0.2345 -0.1648
10190TIP3    H130527   2.154   1.619   5.484 -0.6757  1.5937  0.7600
10190TIP3    H230528   2.211   1.665   5.351 -1.1251  0.8505  0.2986
10191TIP3   OH230529   2.657   0.164   4.732 -0.0054 -0.5062  0.3151
10191TIP3    H130530   2.746   0.130   4.742 -0.6086 -2.6396 -1.0145
10191TIP3    H230531   2.657   0.204   4.645  0.4342  2.3225  1.4995
10192TIP3   OH230532   3.075   6.355   3.387  0.7999  0.2952  0.1485
10192TIP3    H130533   3.065   6.330   3.295 -0.9119 -0.9714  0.6297
10192TIP3    H230534   3.169   6.373   3.396  0.6640  2.9205 -2.3850
10193TIP3   OH230535   0.530   0.248   5.001  0.3066 -0.2227 -0.0358
10193TIP3    H130536   0.478   0.325   5.024 -1.7660 -1.1124 -1.4297
10193TIP3    H230537   0.549   0.206   5.085 -2.7871 -0.7715  0.5005
10194TIP3   OH230538   2.353   4.136   6.608  0.3903  0.5448  0.3341
10194TIP3    H130539   2.382   4.085   6.532 -0.1878 -0.1117  0.5378
10194TIP3    H230540   2.342   4.225   6.575  1.6525  0.6045  0.0268
10195TIP3   OH230541   4.537   5.252   6.715 -0.1224  0.1739 -1.0046
10195TIP3    H130542   4.502   5.257   6.626 -2.3148  2.2978 -0.1536
10195TIP3    H230543   4.531   5.341   6.748 -1.5638 -0.8862  2.0022
10196TIP3   OH230544   4.408   3.964   0.595 -0.5594 -0.2158 -0.3322
10196TIP3    H130545   4.353   3.909   0.650  0.5440 -1.1903 -0.1702
10196TIP3    H230546   4.372   4.052   0.604 -2.3431 -0.8971 -0.5836
10197TIP3   OH230547   1.610   4.327   6.272  0.0301  1.0636  0.3589
10197TIP3    H130548   1.533   4.273   6.255 -0.6371  1.9322  0.5184
10197TIP3    H230549   1.593   4.410   6.226  0.7358  1.3746  0.6319
10198TIP3   OH230550   5.432   0.273   4.194 -0.0184  0.3263  0.3188
10198TIP3    H130551   5.387   0.306   4.272 -0.5304 -1.3770  0.7836
10198TIP3    H230552   5.521   0.308   4.201 -0.5632  1.7183  0.6708
10199TIP3   OH230553   4.435   7.820   0.831 -0.6609 -0.4850  0.3408
10199TIP3    H130554   4.408   7.732   0.808  0.3032 -1.0567  1.2882
10199TIP3    H230555   4.494   7.847   0.760 -1.6134 -0.2558 -0.3783
10200TIP3   OH230556   4.408   4.919   2.739 -0.3403 -0.5294 -0.3811
10200TIP3    H130557   4.332   4.912   2.681 -1.2512 -0.7441  0.7849
10200TIP3    H230558   4.384   4.987   2.802  0.4337 -0.6023  0.0098
10201TIP3   OH230559   0.098   3.844   2.242  0.0044 -0.0951 -0.2405
10201TIP3    H130560   0.012   3.886   2.246  0.1668  0.1792  0.9743
10201TIP3    H230561   0.146   3.895   2.178 -0.1954  0.8573  0.3431
10202TIP3   OH230562   0.176   5.112   1.949  0.0507 -0.1230  0.4868
10202TIP3    H130563   0.170   5.065   2.032  3.0783 -2.5841 -0.4758
10202TIP3    H230564   0.116   5.065   1.891  1.4013 -1.5442  0.1448
10203TIP3   OH230565   0.962   6.610   4.584  0.4725 -0.4332  0.4316
10203TIP3    H130566   1.046   6.595   4.629  0.6094  1.2700  0.8121
10203TIP3    H230567   0.982   6.675   4.517 -0.4630 -0.3644  0.2096
10204TIP3   OH230568   2.157   2.224   3.530  0.4972 -0.0454 -0.4480
10204TIP3    H130569   2.169   2.136   3.495  0.2279 -0.1674 -0.2355
10204TIP3    H230570   2.093   2.214   3.601  0.9629  0.2064  0.0233
10205TIP3   OH230571   1.356   6.203   2.530  0.3408 -0.3192  0.7461
10205TIP3    H130572   1.292   6.271   2.512  0.0179 -0.8789 -0.2771
10205TIP3    H230573   1.430   6.223   2.472 -0.2541 -1.5074 -0.4690
10206TIP3   OH230574   3.531   4.490   4.772  0.4687  0.3017 -0.1012
10206TIP3    H130575   3.505   4.416   4.827  0.3908  1.4230  1.4615
10206TIP3    H230576   3.622   4.472   4.749  0.0739 -0.8712 -0.7958
10207TIP3   OH230577   7.247   1.610   6.002 -0.5705  0.3048 -0.1130
10207TIP3    H130578   7.290   1.676   6.057 -1.2077 -0.5562  1.4974
10207TIP3    H230579   7.201   1.660   5.935 -1.8896  1.6245  1.6645
10208TIP3   OH230580   0.124   2.265   3.889  0.3125  0.0878 -0.2282
10208TIP3    H130581   0.182   2.226   3.954  0.8490  1.1363 -0.0677
10208TIP3    H230582   0.062   2.195   3.868 -0.5621  0.0514  2.2083
10209TIP3   OH230583   6.519   7.757   2.551 -0.7734  0.2010 -0.1733
10209TIP3    H130584   6.562   7.711   2.623 -1.0354  2.2181  1.3343
10209TIP3    H230585   6.428   7.727   2.554 -1.2987  1.7905  1.7423
10210TIP3   OH230586   6.859   6.751   3.953  0.4008  0.3003 -0.4832
10210TIP3    H130587   6.905   6.671   3.981 -1.1236 -0.5831 -0.3586
10210TIP3    H230588   6.893   6.820   4.010  0.2808 -0.6764  0.8232
10211TIP3   OH230589   5.116   1.458   5.726 -0.0405 -0.3545  0.8494
10211TIP3    H130590   5.063   1.391   5.683  0.2744  0.1790 -0.3874
10211TIP3    H230591   5.120   1.530   5.663  0.7590  0.2858  1.6154
10212TIP3   OH230592   3.472   6.779   0.644  0.1142  0.3264  0.4571
10212TIP3    H130593   3.450   6.686   0.651 -1.6786  0.7628  1.1538
10212TIP3    H230594   3.441   6.804   0.557  0.1825  0.3706  0.4460
10213TIP3   OH230595   4.572   1.263   1.547  0.0829 -0.0546 -0.0660
10213TIP3    H130596   4.663   1.278   1.573  0.6689 -0.4030 -1.7850
10213TIP3    H230597   4.564   1.306   1.462 -1.7817  1.1628  0.6585
10214TIP3   OH230598   2.395   4.098   0.139 -0.3191  0.1899  0.2792
10214TIP3    H130599   2.342   4.174   0.118 -0.5570  0.4890  1.8928
10214TIP3    H230600   2.336   4.023   0.129 -0.7011  0.4153  0.8221
10215TIP3   OH230601   3.098   6.605   4.642 -0.1786  0.3869 -0.4851
10215TIP3    H130602   3.138   6.611   4.555  0.6945  0.1488 -0.1001
10215TIP3    H230603   3.101   6.695   4.676  1.1283  0.1706  0.0224
10216TIP3   OH230604   0.268   5.363   2.035  0.7291 -0.4745  0.4331
10216TIP3    H130605   0.188   5.385   2.084 -0.0006  0.3390 -1.0450
10216TIP3    H230606   0.256   5.272   2.009 -0.9290  0.2941 -1.8344
10217TIP3   OH230607   2.799   6.992   6.755  0.5447  0.2234  0.6433
10217TIP3    H130608   2.876   7.047   6.771 -0.7648  2.2061  0.5412
10217TIP3    H230609   2.782   7.001   6.662 -1.5412  2.3601  1.1383
10218TIP3   OH230610   6.612   2.074   5.831 -0.7409 -0.4090  0.8202
10218TIP3    H130611   6.627   2.168   5.830 -2.2381 -0.0334  3.2345
10218TIP3    H230612   6.696   2.037   5.855 -0.2708  0.3657  0.3993
10219TIP3   OH230613   8.139   6.538   3.908  0.4119 -0.5619 -0.1820
10219TIP3    H130614   8.153   6.577   3.994  1.6406 -0.2397 -0.5049
10219TIP3    H230615   8.219   6.559   3.859 -0.3449 -0.5690 -1.4640
10220TIP3   OH230616   4.726   6.554   5.124  0.1126  0.3728  0.1133
10220TIP3    H130617   4.634   6.529   5.123  0.0137  0.6796 -1.2947
10220TIP3    H230618   4.728   6.636   5.173 -0.1507 -0.2975  1.2811
10221TIP3   OH230619   8.255   3.937   3.253  0.2208 -0.0609 -0.0321
10221TIP3    H130620   8.345   3.954   3.228  0.6213  0.4337  1.6516
10221TIP3    H230621   8.240   3.992   3.329 -1.8211  0.5944 -0.8324
10222TIP3   OH230622   5.439   4.462   6.642 -0.0195  0.3771 -0.2080
10222TIP3    H130623   5.415   4.387   6.587  1.1677 -0.1917  0.0244
10222TIP3    H230624   5.468   4.528   6.579 -0.5043  0.4350 -0.3765
10223TIP3   OH230625   7.555   6.997   3.065 -0.5038  0.2377  0.0809
10223TIP3    H130626   7.547   6.902   3.077  0.3014  0.1432 -0.0946
10223TIP3    H230627   7.472   7.032   3.099 -0.9306 -0.5464 -0.1280
10224TIP3   OH230628   1.260   3.298   3.661 -0.3911  0.2212 -0.5896
10224TIP3    H130629   1.255   3.394   3.667  0.1698  0.1815  1.7871
10224TIP3    H230630   1.271   3.270   3.752  0.8939 -2.0189 -1.3592
10225TIP3   OH230631   4.504   6.920   3.923 -0.2115 -0.2045 -0.1354
10225TIP3    H130632   4.469   6.992   3.871  0.9271 -0.1438 -0.8615
10225TIP3    H230633   4.599   6.931   3.917 -0.0412 -1.2237  0.5144
10226TIP3   OH230634   3.104   3.649   5.731 -0.1164  0.5077 -0.4288
10226TIP3    H130635   3.104   3.693   5.645  2.0703  2.7688  0.5908
10226TIP3    H230636   3.069   3.715   5.791 -1.6531 -1.0576  0.4532
10227TIP3   OH230637   7.436   4.799   1.725  0.5799  0.2607  0.0174
10227TIP3    H130638   7.464   4.887   1.751 -0.9150  0.7514  0.0973
10227TIP3    H230639   7.353   4.814   1.679 -0.3065 -1.1979  1.0607
10228TIP3   OH230640   8.310   7.600   2.515 -0.8085  0.0895 -0.0553
10228TIP3    H130641   8.285   7.516   2.554 -0.5656  0.0170 -0.0527
10228TIP3    H230642   8.308   7.662   2.588  0.9631 -0.3083  0.3750
10229TIP3   OH230643   0.907   6.272   6.533  0.0932  0.1945 -0.0126
10229TIP3    H130644   0.933   6.303   6.620  0.1688  0.3087 -0.0747
10229TIP3    H230645   0.986   6.279   6.481 -0.2601  1.3594 -0.4254
10230TIP3   OH230646   6.960   7.092   0.788 -0.2090 -0.2639  0.3034
10230TIP3    H130647   6.901   7.027   0.827 -2.7722  1.5924 -0.1966
10230TIP3    H230648   7.019   7.116   0.859 -1.3059 -0.8350  1.4583
10231TIP3   OH230649   3.492   0.547   1.656  0.3562 -0.0524 -0.4709
10231TIP3    H130650   3.487   0.462   1.700  0.4392  0.0689 -0.2231
10231TIP3    H230651   3.410   0.591   1.679  0.7568  0.3352  0.2452
10232TIP3   OH230652   3.647   1.741   3.048 -0.1115  0.2080 -0.0247
10232TIP3    H130653   3.719   1.800   3.025 -0.3577  0.9685  1.0684
10232TIP3    H230654   3.602   1.785   3.120 -1.9023 -0.0506 -0.8970
10233TIP3   OH230655   4.849   1.020   5.041  0.2694 -0.4334  0.1175
10233TIP3    H130656   4.842   0.984   4.953  0.9067  2.2795 -1.1443
10233TIP3    H230657   4.769   1.071   5.053  0.9726  0.6443  0.3838
10234TIP3   OH230658   0.062   7.136   5.825 -0.9148 -0.0157 -0.1539
10234TIP3    H130659   0.128   7.192   5.866 -0.5052 -0.7258  0.1829
10234TIP3    H230660   0.029   7.082   5.897  1.7939 -3.2675 -1.0670
10235TIP3   OH230661   8.149   0.491   1.035  0.5394  0.2010  0.4550
10235TIP3    H130662   8.122   0.405   1.002  0.8842 -0.2753  1.3665
10235TIP3    H230663   8.116   0.553   0.971 -1.4582 -0.4632  0.7799
10236TIP3   OH230664   3.520   7.787   2.774 -0.3211  0.2482 -0.5625
10236TIP3    H130665   3.445   7.796   2.834 -0.6477  0.5644 -1.0039
10236TIP3    H230666   3.481   7.758   2.692  0.0388  0.4510 -0.8068
10237TIP3   OH230667   6.778   5.974   1.206  0.5276 -0.1953  0.8139
10237TIP3    H130668   6.786   5.949   1.114 -0.6117  0.5704  0.4898
10237TIP3    H230669   6.832   5.910   1.253  2.2718  0.2230 -0.4942
10238TIP3   OH230670   0.881   6.163   0.307 -0.1151  0.1357  0.3614
10238TIP3    H130671   0.961   6.165   0.359  0.5649  0.6162 -0.6596
10238TIP3    H230672   0.902   6.106   0.233  0.0965  2.0463 -1.1221
10239TIP3   OH230673   6.721   6.316   2.254 -0.1008 -0.2548  0.7218
10239TIP3    H130674   6.723   6.395   2.309 -0.1835 -0.8578  1.6177
10239TIP3    H230675   6.806   6.274   2.269 -0.1157 -0.4189  0.3668
10240TIP3   OH230676   7.365   3.984   1.503  0.0320 -0.1086  0.6346
10240TIP3    H130677   7.457   3.991   1.527 -0.5939 -1.3603  3.9082
10240TIP3    H230678   7.364   3.998   1.408  3.4081  1.0599  0.6221
10241TIP3   OH230679   2.523   4.929   4.378 -0.0336 -0.6489  0.1161
10241TIP3    H130680   2.517   5.008   4.325  1.6336 -0.9796 -0.6370
10241TIP3    H230681   2.535   4.962   4.468 -0.2516 -0.0578 -0.0645
10242TIP3   OH230682   0.102   3.577   2.436  0.3978  0.2857  0.1121
10242TIP3    H130683   0.195   3.572   2.415  0.4816  0.2140  0.4837
10242TIP3    H230684   0.067   3.643   2.378 -0.1319 -2.4175 -2.9283
10243TIP3   OH230685   6.467   6.557   3.062 -0.2958  0.3683  0.0147
10243TIP3    H130686   6.395   6.495   3.067  2.7966 -3.6953 -0.5649
10243TIP3    H230687   6.499   6.549   2.972  1.5465  1.1561  0.5553
10244TIP3   OH230688   1.174   0.577   2.512  0.3137  0.2677  0.0759
10244TIP3    H130689   1.130   0.502   2.472 -0.7211  0.7804  0.2390
10244TIP3    H230690   1.181   0.641   2.441 -1.6168  1.2192  0.6856
10245TIP3   OH230691   5.045   0.838   4.190  0.1779 -0.0440  0.0249
10245TIP3    H130692   5.125   0.841   4.137 -1.0310  0.6214 -1.8662
10245TIP3    H230693   4.987   0.780   4.141 -0.0047 -1.8029  2.1890
10246TIP3   OH230694   0.495   5.589   4.209  0.1560 -0.4396 -0.2303
10246TIP3    H130695   0.586   5.607   4.234 -0.2519 -0.5514  1.5214
10246TIP3    H230696   0.486   5.494   4.220 -0.3596 -0.3301  0.3970
10247TIP3   OH230697   3.124   0.993   4.077  0.6326 -0.5770 -0.9064
10247TIP3    H130698   3.195   0.996   4.013  2.0154 -0.7311  0.5554
10247TIP3    H230699   3.157   0.937   4.147  0.4233  1.8684  1.3262
10248TIP3   OH230700   4.521   7.385   2.594  0.0102 -0.0154 -0.3969
10248TIP3    H130701   4.495   7.310   2.540  0.3241 -1.3697  1.2196
10248TIP3    H230702   4.458   7.384   2.666  0.3126  1.0038 -0.1113
10249TIP3   OH230703   4.938   0.422   2.225  0.4070  0.3981  0.4341
10249TIP3    H130704   4.908   0.434   2.315 -0.0730  1.1800  0.1735
10249TIP3    H230705   4.934   0.509   2.186  2.8573  0.5284  0.3081
10250TIP3   OH230706   0.650   5.895   0.724  0.8717 -0.5292 -0.5823
10250TIP3    H130707   0.605   5.853   0.650 -0.8186  0.9339 -0.4548
10250TIP3    H230708   0.717   5.832   0.750 -1.0022 -2.8125 -0.8915
10251TIP3   OH230709   0.877   2.945   0.958 -0.7685 -0.2083  0.0548
10251TIP3    H130710   0.803   3.003   0.972  0.0389  0.8408  0.0491
10251TIP3    H230711   0.943   2.973   1.022 -0.0435 -0.5457 -0.5242
10252TIP3   OH230712   1.975   2.359   4.810  0.7791 -0.5169  0.0949
10252TIP3    H130713   1.986   2.454   4.818 -0.7532 -0.1848 -1.3346
10252TIP3    H230714   1.945   2.345   4.720 -1.5016 -2.0665  0.9856
10253TIP3   OH230715   6.495   2.840   4.265  0.2830  0.0267 -0.3728
10253TIP3    H130716   6.574   2.836   4.211 -0.2606 -0.7292 -1.1503
10253TIP3    H230717   6.527   2.850   4.354  1.1821  2.2042 -0.8923
10254TIP3   OH230718   6.918   3.765   1.692 -0.0158 -0.0731 -0.2415
10254TIP3    H130719   6.861   3.731   1.623  0.3342 -1.1973  0.0003
10254TIP3    H230720   6.989   3.701   1.699  0.6220  0.6585  0.3155
10255TIP3   OH230721   0.906   5.957   2.285 -0.2925 -0.1280 -0.5621
10255TIP3    H130722   0.945   5.935   2.369 -1.1416  1.0702  0.1707
10255TIP3    H230723   0.981   5.977   2.229  0.2295  2.1322  0.8172
10256TIP3   OH230724   2.774   2.225   5.867 -0.2302  0.3664  0.0207
10256TIP3    H130725   2.774   2.291   5.936 -0.2390  0.3578  0.0291
10256TIP3    H230726   2.861   2.230   5.828  0.2399 -0.5243  0.8890
10257TIP3   OH230727   8.128   3.408   5.294 -0.5380 -0.0497  0.1956
10257TIP3    H130728   8.103   3.341   5.357 -2.2800 -0.6016 -1.0123
10257TIP3    H230729   8.055   3.470   5.294  0.3116  0.9771  0.0994
10258TIP3   OH230730   2.722   2.199   2.738 -0.0386  0.4793 -0.5117
10258TIP3    H130731   2.630   2.171   2.738 -0.6350  2.2956  0.2549
10258TIP3    H230732   2.767   2.135   2.793 -0.8892 -0.2785 -0.6707
10259TIP3   OH230733   7.951   1.956   2.177  0.2668 -0.2315  0.0705
10259TIP3    H130734   7.938   2.051   2.181 -1.0994 -0.3996  0.1142
10259TIP3    H230735   7.974   1.931   2.267  4.3131  0.4770 -0.5948
10260TIP3   OH230736   4.689   5.377   0.382 -0.0720  1.1450  0.6327
10260TIP3    H130737   4.780   5.405   0.387  0.6948 -1.0044 -0.0252
10260TIP3    H230738   4.666   5.353   0.471  1.4005 -2.1006  0.2711
10261TIP3   OH230739   6.365   1.646   0.928  0.6011  0.1275  0.0389
10261TIP3    H130740   6.275   1.678   0.927  0.5700  0.0444 -0.7125
10261TIP3    H230741   6.367   1.582   1.000 -0.1978 -0.5638 -0.5300
10262TIP3   OH230742   3.421   2.676   4.234  0.2065  0.3536  0.6412
10262TIP3    H130743   3.354   2.635   4.178 -0.9924  0.2438  2.1109
10262TIP3    H230744   3.385   2.673   4.322  0.2954  4.0480  0.9685
10263TIP3   OH230745   5.824   1.846   3.307 -0.3544  0.2118 -0.0482
10263TIP3    H130746   5.827   1.778   3.239  0.3994 -0.1447  0.3335
10263TIP3    H230747   5.808   1.927   3.259 -0.0823 -0.0689 -0.6259
10264TIP3   OH230748   3.961   0.853   5.438  0.3741 -0.2780  0.3616
10264TIP3    H130749   3.906   0.900   5.376  0.9142  1.1437  0.9113
10264TIP3    H230750   3.998   0.922   5.494  1.4661 -1.3320  0.9840
10265TIP3   OH230751   4.258   0.749   3.441  0.0688 -0.3008  0.3003
10265TIP3    H130752   4.242   0.664   3.480 -2.0038 -0.3680 -0.5388
10265TIP3    H230753   4.253   0.733   3.346 -0.5682  0.7674  0.1370
10266TIP3   OH230754   1.947   1.537   2.078 -0.2555  0.0601  0.0840
10266TIP3    H130755   1.855   1.552   2.100  0.2899  0.5849  2.3005
10266TIP3    H230756   1.956   1.442   2.072 -0.9498  0.0120 -0.1822
10267TIP3   OH230757   0.354   5.470   6.257 -0.2143  0.1756 -0.2125
10267TIP3    H130758   0.345   5.380   6.227 -0.2894 -0.0320  0.4321
10267TIP3    H230759   0.415   5.465   6.330 -2.3174  0.2390  1.6418
10268TIP3   OH230760   5.058   1.439   0.796 -0.4295 -0.4476 -0.6787
10268TIP3    H130761   5.121   1.433   0.868  1.2645  0.4496 -2.0028
10268TIP3    H230762   5.110   1.420   0.717 -1.8149  0.3597 -1.8307
10269TIP3   OH230763   3.533   4.018   0.947  0.3424  0.1277  0.2328
10269TIP3    H130764   3.510   4.094   0.894 -0.6805 -0.9332 -0.9147
10269TIP3    H230765   3.595   3.969   0.893  1.0774  0.1972  1.0053
10270TIP3   OH230766   0.757   3.102   6.526  0.6616  0.3478 -0.5870
10270TIP3    H130767   0.722   3.191   6.517  1.7423  1.0439  1.5224
10270TIP3    H230768   0.851   3.114   6.539  1.2477 -1.2927 -2.7245
10271TIP3   OH230769   0.170   0.202   1.094 -0.0810  0.3523 -0.0321
10271TIP3    H130770   0.151   0.193   1.187  0.6353 -0.0608  0.0742
10271TIP3    H230771   0.109   0.142   1.051  1.2182 -1.2987  0.3404
10272TIP3   OH230772   5.728   7.201   1.635 -0.1851  0.4956 -0.0499
10272TIP3    H130773   5.681   7.255   1.699 -0.5789 -1.2820  1.2538
10272TIP3    H230774   5.715   7.111   1.666  1.6942 -0.2625 -1.2829
10273TIP3   OH230775   5.482   1.879   3.944 -0.3540  0.4929  0.3047
10273TIP3    H130776   5.512   1.945   3.881  1.8551 -0.1596  0.5756
10273TIP3    H230777   5.504   1.916   4.029 -2.1255  0.7991  0.6600
10274TIP3   OH230778   0.893   5.447   5.750 -0.2466  0.3407  0.9957
10274TIP3    H130779   0.805   5.448   5.788 -0.6550  1.0620  0.0674
10274TIP3    H230780   0.951   5.438   5.826 -1.1013  0.0652  1.6394
10275TIP3   OH230781   8.001   5.241   4.652  0.2199  0.1743 -0.1048
10275TIP3    H130782   7.908   5.217   4.647  0.0669 -0.2861  3.0447
10275TIP3    H230783   8.047   5.165   4.617 -0.5482 -0.7026  0.7195
10276TIP3   OH230784   5.478   6.745   0.315  0.2986  0.8037  0.4435
10276TIP3    H130785   5.499   6.804   0.387  0.1155  0.8849  0.4316
10276TIP3    H230786   5.421   6.798   0.258 -0.3038  0.4447  0.6997
10277TIP3   OH230787   5.679   2.016   5.316  0.5391 -0.1527  0.0191
10277TIP3    H130788   5.592   2.023   5.354 -0.2559 -0.1446 -1.7127
10277TIP3    H230789   5.707   1.926   5.335  0.3149 -0.0423  0.8887
10278TIP3   OH230790   2.925   5.758   6.640 -0.4922  0.1402  0.2136
10278TIP3    H130791   2.928   5.713   6.725 -1.4894 -1.0867 -0.3577
10278TIP3    H230792   2.950   5.691   6.577 -1.5241  0.5107 -0.6219
10279TIP3   OH230793   4.335   0.780   2.866 -0.1612 -0.5104  0.3414
10279TIP3    H130794   4.250   0.769   2.823 -1.4867  0.6773  2.4441
10279TIP3    H230795   4.377   0.852   2.819  0.4047 -2.0876 -1.6772
10280TIP3   OH230796   3.388   4.754   2.548 -0.6229  0.4419 -0.3941
10280TIP3    H130797   3.333   4.696   2.495  1.4101  1.0580 -3.4317
10280TIP3    H230798   3.328   4.823   2.577 -2.4983 -1.6084  1.0215
10281TIP3   OH230799   2.608   0.562   6.064 -0.2011  0.2413 -0.2305
10281TIP3    H130800   2.535   0.516   6.023 -0.9995  0.9210  0.3876
10281TIP3    H230801   2.591   0.655   6.048 -1.3409  0.6786  2.7554
10282TIP3   OH230802   1.061   2.082   2.964 -0.1565  0.1144 -0.4443
10282TIP3    H130803   1.059   2.000   3.014 -2.2704  0.5356  0.2659
10282TIP3    H230804   1.022   2.147   3.023 -0.5659  1.1485 -1.8121
10283TIP3   OH230805   1.153   4.559   3.653 -0.1748 -0.2328 -0.3070
10283TIP3    H130806   1.078   4.510   3.686  0.3143 -0.5796  0.3164
10283TIP3    H230807   1.120   4.648   3.643 -0.7203 -0.4190 -0.2279
10284TIP3   OH230808   6.631   6.454   5.487 -0.6718  0.3322 -0.3511
10284TIP3    H130809   6.682   6.533   5.471  0.5954 -0.2547  0.6047
10284TIP3    H230810   6.572   6.476   5.559 -2.3185  1.2203 -1.8983
10285TIP3   OH230811   1.508   3.412   5.980 -0.2969 -0.1719 -0.0800
10285TIP3    H130812   1.444   3.374   6.041  0.9158 -1.0733  0.6732
10285TIP3    H230813   1.523   3.344   5.915 -0.7675  0.3840 -0.7880
10286TIP3   OH230814   5.149   2.891   0.444 -0.4255 -0.5965 -0.1733
10286TIP3    H130815   5.197   2.820   0.401  0.7452  0.4905 -0.7317
10286TIP3    H230816   5.128   2.952   0.374  0.0291  0.3852  0.5138
10287TIP3   OH230817   6.528   3.897   5.833  0.6613 -0.3043 -0.5354
10287TIP3    H130818   6.614   3.918   5.797  0.1816 -0.8248 -2.1084
10287TIP3    H230819   6.478   3.979   5.822  0.9977  0.0512  0.5423
10288TIP3   OH230820   1.563   2.048   4.991 -0.4154  0.3993  0.3772
10288TIP3    H130821   1.649   2.084   4.969  0.3186 -1.7951 -0.6715
10288TIP3    H230822   1.508   2.070   4.916  0.6340 -2.4038 -1.3618
10289TIP3   OH230823   6.233   3.066   4.031  0.1473  0.2051 -0.0309
10289TIP3    H130824   6.257   3.125   4.102  0.6115 -1.1511  0.9792
10289TIP3    H230825   6.139   3.053   4.041  0.3306 -0.5418  0.7891
10290TIP3   OH230826   5.166   6.786   2.485 -0.1906  0.4721  0.1519
10290TIP3    H130827   5.232   6.734   2.530 -0.4904  2.6474  3.4618
10290TIP3    H230828   5.200   6.797   2.397  2.5471 -0.6624  0.9631
10291TIP3   OH230829   7.559   4.667   2.026 -0.2802  0.0007 -0.0718
10291TIP3    H130830   7.536   4.701   2.112  1.2425  1.5234 -0.2029
10291TIP3    H230831   7.530   4.736   1.965 -1.5736 -1.1634 -0.8364
10292TIP3   OH230832   2.466   1.789   4.267 -0.0502 -1.1279 -0.0650
10292TIP3    H130833   2.489   1.819   4.355 -0.0276 -0.5703 -0.2585
10292TIP3    H230834   2.371   1.790   4.265 -0.1247  2.5107 -1.2350
10293TIP3   OH230835   7.880   4.784   1.743  0.1894 -0.5902 -0.2246
10293TIP3    H130836   7.853   4.716   1.806  1.5295 -1.3773 -0.4502
10293TIP3    H230837   7.842   4.865   1.776 -0.3493 -1.2443  0.7896
10294TIP3   OH230838   6.136   5.573   4.107 -0.1436 -0.6329  0.1515
10294TIP3    H130839   6.231   5.586   4.101  0.0698 -1.4048  1.4259
10294TIP3    H230840   6.098   5.650   4.065  1.0495  0.3805  0.8765
10295TIP3   OH230841   1.173   2.251   6.226  0.8717 -0.5422 -0.1948
10295TIP3    H130842   1.129   2.175   6.264 -0.6967  0.5273  0.2167
10295TIP3    H230843   1.146   2.251   6.134 -0.0292  0.1035  0.0537
10296TIP3   OH230844   7.398   0.666   0.737  0.5171  0.2517  0.0590
10296TIP3    H130845   7.450   0.669   0.657  0.7869 -0.7155  0.1883
10296TIP3    H230846   7.463   0.669   0.808  0.5565 -2.4726  0.2265
10297TIP3   OH230847   2.927   0.833   2.437  0.3407  0.5065  0.4868
10297TIP3    H130848   2.927   0.928   2.442 -0.9237  0.5516 -0.1021
10297TIP3    H230849   2.981   0.813   2.361  1.1939  0.7052  1.0225
10298TIP3   OH230850   6.843   7.088   2.002  0.2136 -0.1663 -0.1017
10298TIP3    H130851   6.807   7.135   2.077  0.1844 -0.6968  0.2191
10298TIP3    H230852   6.829   6.995   2.022  1.2912 -0.3644 -0.2031
10299TIP3   OH230853   4.740   2.878   4.326 -0.0120  0.1536  0.0275
10299TIP3    H130854   4.755   2.883   4.421  2.9280 -2.6610 -0.1048
10299TIP3    H230855   4.648   2.854   4.318 -0.2630  0.1910  2.1860
10300TIP3   OH230856   7.397   5.685   0.445  0.0028  0.1725  0.1853
10300TIP3    H130857   7.487   5.664   0.422  0.1408 -0.7395  1.4605
10300TIP3    H230858   7.365   5.737   0.372  1.5935  0.6033 -0.2392
10301TIP3   OH230859   5.976   2.230   0.556  0.0396 -0.3037  0.5050
10301TIP3    H130860   5.908   2.224   0.623 -1.6825 -1.3196 -1.2476
10301TIP3    H230861   6.053   2.191   0.597 -0.3866  0.7900  2.5061
10302TIP3   OH230862   6.915   3.453   6.576  0.3488 -0.3544  0.1261
10302TIP3    H130863   6.990   3.398   6.599  0.6493 -0.3847 -0.8830
10302TIP3    H230864   6.839   3.406   6.612  0.6533 -1.1663 -0.2534
10303TIP3   OH230865   7.400   6.083   0.051  0.1388  0.5556 -0.0239
10303TIP3    H130866   7.338   6.021   0.013 -0.1416  0.5262  0.4727
10303TIP3    H230867   7.481   6.069   0.002 -0.2072  0.5116 -0.5966
10304TIP3   OH230868   4.111   7.533   6.757  0.0752 -0.5660  0.2094
10304TIP3    H130869   4.071   7.453   6.790  0.5303 -1.2436 -0.8335
10304TIP3    H230870   4.148   7.508   6.672  2.1906  0.1698  0.8686
10305TIP3   OH230871   6.068   4.676   5.035  0.2518 -0.0275 -0.1388
10305TIP3    H130872   6.102   4.589   5.059 -0.0105 -0.4305 -1.1569
10305TIP3    H230873   6.112   4.696   4.952 -1.2129 -0.0984 -0.9592
10306TIP3   OH230874   6.930   3.369   0.023  0.2978 -0.3315  0.1625
10306TIP3    H130875   7.019   3.335   0.011  0.7811  0.0507  2.2976
10306TIP3    H230876   6.887   3.304   0.078 -0.3313  0.1211  0.2100
10307TIP3   OH230877   0.203   1.296   1.413 -0.2339 -0.1266 -0.3133
10307TIP3    H130878   0.147   1.264   1.484  0.7499 -3.2410 -0.7764
10307TIP3    H230879   0.267   1.353   1.456 -1.9021  1.0997  0.6549
10308TIP3   OH230880   3.527   6.994   1.391  0.3628 -0.6975 -0.4138
10308TIP3    H130881   3.436   6.972   1.410 -1.0930  2.7894 -2.4404
10308TIP3    H230882   3.569   6.998   1.477 -1.9146 -0.4151  0.7587
10309TIP3   OH230883   4.087   5.542   1.311 -0.1392  0.0885 -0.0341
10309TIP3    H130884   4.015   5.604   1.325 -1.5196 -1.5836  0.5695
10309TIP3    H230885   4.096   5.496   1.394 -0.3800 -1.7313 -0.9630
10310TIP3   OH230886   3.457   2.449   2.758 -0.0933 -0.3454 -0.0042
10310TIP3    H130887   3.489   2.402   2.835  1.8429  1.7811  0.5926
10310TIP3    H230888   3.484   2.396   2.684 -0.4368 -1.5558  0.7166
10311TIP3   OH230889   0.617   3.283   2.409 -0.4822 -0.4213 -0.3055
10311TIP3    H130890   0.573   3.368   2.412  0.4258  0.0490  0.4248
10311TIP3    H230891   0.710   3.304   2.419 -0.2423 -1.5098 -0.0840
10312TIP3   OH230892   7.029   2.385   4.187  0.0380  0.1159  0.2455
10312TIP3    H130893   7.123   2.393   4.175  0.0824  2.3315  1.5008
10312TIP3    H230894   7.019   2.351   4.276 -0.3618 -0.3605  0.0241
10313TIP3   OH230895   5.702   4.218   0.922  0.3123 -0.0723 -0.0476
10313TIP3    H130896   5.618   4.170   0.926  0.6431 -0.6781 -0.1657
10313TIP3    H230897   5.739   4.207   1.010  1.1281 -1.4182 -0.5357
10314TIP3   OH230898   6.375   6.096   3.592  0.3304 -0.8799  0.1529
10314TIP3    H130899   6.447   6.151   3.560 -0.3484 -0.4593 -0.6725
10314TIP3    H230900   6.303   6.113   3.532 -1.1162  0.2114  2.0995
10315TIP3   OH230901   3.852   6.615   0.437 -0.1519 -0.0991  0.1116
10315TIP3    H130902   3.785   6.602   0.504  1.2746 -0.6695  1.4989
10315TIP3    H230903   3.899   6.531   0.433  0.0117  0.0312 -1.3852
10316TIP3   OH230904   3.523   1.044   5.619 -0.1292  0.0147  0.1054
10316TIP3    H130905   3.435   1.061   5.652 -0.0832  0.3941  0.0372
10316TIP3    H230906   3.581   1.090   5.680  0.0428 -0.4780  0.3199
10317TIP3   OH230907   6.350   6.159   4.776 -0.2660 -0.1396  0.3969
10317TIP3    H130908   6.310   6.170   4.690 -0.8367  2.3458  0.8971
10317TIP3    H230909   6.276   6.159   4.837  0.2558  1.5115  1.1028
10318TIP3   OH230910   2.252   1.967   3.510 -0.3695 -0.0661 -0.4798
10318TIP3    H130911   2.256   1.979   3.605 -1.1151  0.5958 -0.5238
10318TIP3    H230912   2.270   1.874   3.497  2.2018  0.2656  0.1266
10319TIP3   OH230913   4.316   2.355   2.219  0.6650 -0.2019 -0.5507
10319TIP3    H130914   4.344   2.264   2.213  1.0438 -0.0558 -1.0000
10319TIP3    H230915   4.277   2.362   2.307 -3.9802 -2.0949 -2.1462
10320TIP3   OH230916   4.378   6.808   5.941  0.4077  0.3593  0.2942
10320TIP3    H130917   4.347   6.782   5.855 -0.9744 -1.6886  1.3377
10320TIP3    H230918   4.426   6.890   5.926 -1.6070  1.2038 -2.0747
10321TIP3   OH230919   2.100   0.501   0.089 -0.3373 -0.1222  0.1409
10321TIP3    H130920   2.178   0.557   0.087  0.4275 -1.1555 -0.0436
10321TIP3    H230921   2.036   0.549   0.141 -0.0490  1.3428 -0.8018
10322TIP3   OH230922   0.758   6.943   2.739 -0.4115 -0.0977  0.2881
10322TIP3    H130923   0.820   7.007   2.705 -1.4495  0.8722  0.2087
10322TIP3    H230924   0.677   6.958   2.691 -1.1623 -0.3444  1.4261
10323TIP3   OH230925   8.050   2.079   0.552 -0.0666  0.2247 -0.1285
10323TIP3    H130926   8.143   2.064   0.567 -0.3539 -0.3721  1.2845
10323TIP3    H230927   8.032   2.162   0.597  0.3578  2.0762 -3.0729
10324TIP3   OH230928   7.684   5.969   2.372  0.5484 -0.6063  0.3521
10324TIP3    H130929   7.760   5.995   2.320  1.8716 -1.6408  1.6871
10324TIP3    H230930   7.693   6.018   2.454  0.2742 -1.3972  0.8689
10325TIP3   OH230931   5.213   3.555   2.330  0.4549 -0.3723 -0.2058
10325TIP3    H130932   5.137   3.551   2.272 -0.3028 -1.4352  0.8030
10325TIP3    H230933   5.235   3.648   2.334  0.1499 -0.2164 -1.6856
10326TIP3   OH230934   6.111   1.569   3.805  0.1087 -0.3980 -0.2080
10326TIP3    H130935   6.034   1.622   3.785 -1.5439 -2.1313  1.1607
10326TIP3    H230936   6.136   1.596   3.893 -1.8329 -2.8824  1.2634
10327TIP3   OH230937   0.618   4.365   0.557 -0.3331  0.4987 -0.2987
10327TIP3    H130938   0.630   4.317   0.638  0.2630 -0.4512 -0.9272
10327TIP3    H230939   0.533   4.409   0.567 -1.3101 -1.3465  0.0020
10328TIP3   OH230940   7.000   4.234   1.006 -0.1717  0.1157 -1.2907
10328TIP3    H130941   6.981   4.162   1.065  1.2413  0.7206 -0.0336
10328TIP3    H230942   7.034   4.304   1.062 -0.5500  1.4052 -2.5893
10329TIP3   OH230943   3.049   2.980   1.612  0.1821  0.0975 -0.2262
10329TIP3    H130944   3.120   3.034   1.648 -0.0268 -1.2172  2.3781
10329TIP3    H230945   3.019   2.927   1.686 -1.3341 -1.7594 -2.0538
10330TIP3   OH230946   4.095   0.025   0.255  0.1656  0.3191  0.0378
10330TIP3    H130947   4.008   0.030   0.293 -0.4129 -0.4449 -1.1262
10330TIP3    H230948   4.112   0.113   0.221  0.3211  0.7626  1.2053
10331TIP3   OH230949   1.205   1.866   1.340 -0.2925 -0.2150  0.5117
10331TIP3    H130950   1.215   1.772   1.353 -0.3129 -0.6441 -2.0641
10331TIP3    H230951   1.260   1.886   1.265 -3.4009  1.0177 -1.6399
10332TIP3   OH230952   5.872   2.371   1.698  0.0234 -0.6918  0.2155
10332TIP3    H130953   5.901   2.326   1.777  0.1845 -1.0178 -0.0261
10332TIP3    H230954   5.845   2.458   1.728  0.7936 -0.5545  0.5114
10333TIP3   OH230955   2.698   4.209   1.271 -0.2245  0.2879 -0.2132
10333TIP3    H130956   2.623   4.169   1.228  0.2541 -1.6185  0.6152
10333TIP3    H230957   2.735   4.139   1.325  1.1130  1.6664  0.7543
10334TIP3   OH230958   1.097   3.643   5.900  0.0374  0.1557 -0.1883
10334TIP3    H130959   1.073   3.685   5.983  1.6014  2.1959 -0.6821
10334TIP3    H230960   1.187   3.673   5.883  0.7164 -2.2623 -1.3829
10335TIP3   OH230961   3.262   7.067   0.773 -0.1495  0.0320 -0.0727
10335TIP3    H130962   3.328   7.084   0.706  1.3606 -2.6590  0.5662
10335TIP3    H230963   3.199   7.010   0.731  0.6393 -1.4172  0.6363
10336TIP3   OH230964   2.693   1.768   0.201 -0.4911 -0.0502  0.3604
10336TIP3    H130965   2.608   1.791   0.237 -0.3290 -2.5843  2.7348
10336TIP3    H230966   2.753   1.834   0.235 -1.2261  0.8708 -0.0812
10337TIP3   OH230967   7.621   4.328   4.925 -0.4159 -0.5854 -0.0666
10337TIP3    H130968   7.665   4.252   4.963 -1.2229 -0.6894  0.6658
10337TIP3    H230969   7.537   4.332   4.969 -1.2173 -0.4640 -1.5436
10338TIP3   OH230970   6.921   3.979   6.599  0.0291 -0.0303 -0.5485
10338TIP3    H130971   6.904   4.023   6.682 -0.9768 -0.7527 -0.3590
10338TIP3    H230972   6.862   4.021   6.537  0.0408 -0.1875 -0.6686
10339TIP3   OH230973   8.148   4.779   1.923  0.2353 -0.3640  0.1496
10339TIP3    H130974   8.219   4.717   1.939  1.2546  0.2362 -1.7069
10339TIP3    H230975   8.102   4.744   1.847  0.1606  0.5795 -0.2580
10340TIP3   OH230976   1.902   0.546   2.820  0.0074  0.2869 -0.4113
10340TIP3    H130977   1.823   0.552   2.766  1.4058 -1.1780 -2.8434
10340TIP3    H230978   1.934   0.457   2.805  1.6543  0.5473  1.2177
10341TIP3   OH230979   7.751   0.088   5.392 -0.3657  0.2604 -0.6219
10341TIP3    H130980   7.665   0.130   5.389 -0.3395  0.3278 -0.3951
10341TIP3    H230981   7.806   0.144   5.338 -0.3242  0.5328 -0.2946
10342TIP3   OH230982   6.899   1.204   0.835  0.0941 -0.5992 -0.3030
10342TIP3    H130983   6.943   1.166   0.911  0.7816  1.8398  0.6360
10342TIP3    H230984   6.967   1.210   0.768  0.4846  0.5348  0.1665
10343TIP3   OH230985   1.055   1.553   0.894 -0.2292 -0.7279 -0.0031
10343TIP3    H130986   1.067   1.645   0.916 -2.6321 -0.5108  0.7525
10343TIP3    H230987   0.979   1.552   0.835 -2.2900 -2.3801  2.4715
10344TIP3   OH230988   8.212   2.492   0.484  0.0695 -0.5821 -0.4472
10344TIP3    H130989   8.292   2.446   0.459 -1.2128 -1.8745 -2.4060
10344TIP3    H230990   8.214   2.573   0.434 -0.7947 -1.5630 -2.1393
10345TIP3   OH230991   5.555   5.841   2.604 -0.3402  0.6134 -0.1636
10345TIP3    H130992   5.650   5.835   2.599  0.2155  4.9335  1.0618
10345TIP3    H230993   5.524   5.752   2.588  3.8451 -0.9553 -0.7086
10346TIP3   OH230994   6.312   1.608   4.674 -0.0143 -0.0414  0.2608
10346TIP3    H130995   6.282   1.648   4.755 -0.0317 -0.9650  0.7168
10346TIP3    H230996   6.275   1.520   4.674  2.0034 -0.9574  0.4855
10347TIP3   OH230997   6.813   4.189   6.446  0.4499  0.6205  0.3018
10347TIP3    H130998   6.735   4.155   6.401  0.3351  1.1384  0.1090
10347TIP3    H230999   6.779   4.252   6.509  0.8638  2.8831 -1.6149
10348TIP3   OH231000   0.402   1.222   4.484 -0.1340  0.4132 -0.4396
10348TIP3    H131001   0.497   1.233   4.480 -0.1485  0.4742 -0.5917
10348TIP3    H231002   0.384   1.211   4.578  0.2389 -1.4765 -0.5401
10349TIP3   OH231003   3.587   6.841   0.272 -0.2263  0.3440  0.1926
10349TIP3    H131004   3.518   6.907   0.284  0.0835  0.7332 -0.1258
10349TIP3    H231005   3.588   6.824   0.178  0.0898  0.3239  0.1986
10350TIP3   OH231006   3.797   5.187   0.969 -0.5709 -0.7044 -0.4618
10350TIP3    H131007   3.817   5.280   0.954 -0.0028 -0.8710 -0.7562
10350TIP3    H231008   3.848   5.164   1.046 -1.1428 -0.6360 -0.0523
10351TIP3   OH231009   6.409   3.793   0.529  0.7306 -0.1219 -0.2489
10351TIP3    H131010   6.331   3.838   0.495 -0.5470 -2.4624 -0.6731
10351TIP3    H231011   6.455   3.762   0.451  2.6226  1.9245 -0.0381
10352TIP3   OH231012   4.025   6.868   2.583 -0.0527  0.3172 -0.2584
10352TIP3    H131013   3.979   6.792   2.619 -0.3799 -0.1122 -1.5152
10352TIP3    H231014   3.962   6.909   2.524 -0.0621  1.8951  0.7835
10353TIP3   OH231015   8.192   0.464   3.144 -0.4627  0.3107  0.1195
10353TIP3    H131016   8.119   0.525   3.143 -1.1233 -0.4606  0.5688
10353TIP3    H231017   8.270   0.519   3.135 -0.9822  1.3201  1.4550
10354TIP3   OH231018   2.057   7.043   2.827 -0.4052 -0.5217 -0.3710
10354TIP3    H131019   2.099   7.098   2.760  0.4386  0.7671  1.1426
10354TIP3    H231020   1.966   7.069   2.826 -0.4910 -0.8023 -1.2621
10355TIP3   OH231021   1.299   1.347   3.369 -0.5732 -0.5110  0.1844
10355TIP3    H131022   1.346   1.265   3.355  0.2355  0.3524 -2.7063
10355TIP3    H231023   1.211   1.319   3.395 -0.3933 -2.3084 -0.9808
10356TIP3   OH231024   4.447   4.622   3.234  0.0900 -0.2272 -0.2814
10356TIP3    H131025   4.452   4.715   3.256  1.3755 -0.3138 -0.1471
10356TIP3    H231026   4.451   4.620   3.138 -1.6340 -0.0701 -0.3854
10357TIP3   OH231027   1.211   6.640   1.334  0.1227 -0.2720  0.3951
10357TIP3    H131028   1.238   6.620   1.245  1.6388  1.5074  0.3964
10357TIP3    H231029   1.136   6.699   1.324  1.0755  0.9447  0.2411
10358TIP3   OH231030   2.171   5.264   2.049  0.0746  0.0964 -0.4507
10358TIP3    H131031   2.228   5.278   2.124 -0.8239 -0.6794  0.4113
10358TIP3    H231032   2.120   5.186   2.072 -1.0767  0.5560 -1.3273
10359TIP3   OH231033   5.174   3.870   2.219 -0.0814  0.3197 -0.2233
10359TIP3    H131034   5.084   3.860   2.248  0.5204  0.2928  1.7721
10359TIP3    H231035   5.204   3.951   2.260  1.5978 -1.0520  1.4134
10360TIP3   OH231036   3.942   0.583   0.819  0.5920 -0.5022 -0.7212
10360TIP3    H131037   3.889   0.662   0.823  2.7801  1.0311  0.3393
10360TIP3    H231038   3.958   0.568   0.726 -1.6562 -1.0451 -1.0636
10361TIP3   OH231039   4.715   2.363   6.016  0.3511  0.4303 -0.1239
10361TIP3    H131040   4.626   2.397   6.026  0.2088 -0.5359  2.6377
10361TIP3    H231041   4.707   2.293   5.952 -0.5492  1.3634 -1.0678
10362TIP3   OH231042   5.119   1.952   2.887 -0.0520  0.3477 -0.3209
10362TIP3    H131043   5.205   1.974   2.851  0.2431  0.4482  0.4279
10362TIP3    H231044   5.103   2.019   2.954  0.6394 -1.3654  1.6828
10363TIP3   OH231045   7.865   0.950   2.404  0.2772  0.2199  0.4593
10363TIP3    H131046   7.811   0.926   2.478 -0.7250 -0.7299 -0.5405
10363TIP3    H231047   7.955   0.943   2.436  0.0038 -2.8492  0.8936
10364TIP3   OH231048   0.464   4.397   5.915 -0.2608  0.4074  0.4376
10364TIP3    H131049   0.464   4.436   5.828  1.1587 -1.1869 -0.3135
10364TIP3    H231050   0.386   4.341   5.916 -0.7615  1.0818  0.5417
10365TIP3   OH231051   7.602   6.755   3.731 -0.0679 -0.4883  0.3663
10365TIP3    H131052   7.566   6.755   3.820 -0.8129 -1.4052  0.0858
10365TIP3    H231053   7.693   6.782   3.741 -0.6643  1.3972  1.1673
10366TIP3   OH231054   0.314   2.531   1.854 -0.4704 -0.1330 -0.0679
10366TIP3    H131055   0.276   2.617   1.838  0.9066  0.4732 -0.3078
10366TIP3    H231056   0.250   2.485   1.907 -2.9634 -0.3284 -2.9623
10367TIP3   OH231057   1.958   6.092   2.753 -0.1432  0.4486  0.4260
10367TIP3    H131058   1.994   6.093   2.842  1.5178 -0.5711 -0.1917
10367TIP3    H231059   2.014   6.153   2.704  0.6026 -0.9291 -0.4895
10368TIP3   OH231060   4.061   2.321   4.694 -0.6970  0.0399 -0.4646
10368TIP3    H131061   3.976   2.291   4.727 -0.0261 -1.0614  0.3293
10368TIP3    H231062   4.125   2.279   4.751  0.3629  1.7745 -0.3032
10369TIP3   OH231063   6.993   6.348   4.806 -0.0246 -0.1023  0.2131
10369TIP3    H131064   6.968   6.261   4.776  2.5034 -1.2154  1.0870
10369TIP3    H231065   6.986   6.344   4.901 -1.8291  1.3665  0.2019
10370TIP3   OH231066   5.326   2.960   5.506 -0.4373 -0.2641  0.0147
10370TIP3    H131067   5.290   3.044   5.532  1.5852  0.5693  0.2946
10370TIP3    H231068   5.279   2.896   5.560 -1.2306  0.7724  0.5890
10371TIP3   OH231069   6.789   0.922   3.349  0.3881 -0.1404 -0.0084
10371TIP3    H131070   6.881   0.936   3.372  0.5617  2.0241 -1.7291
10371TIP3    H231071   6.741   0.935   3.431  1.5347 -0.3996  0.7227
10372TIP3   OH231072   2.138   5.917   5.659 -0.9504 -0.3380 -0.3671
10372TIP3    H131073   2.218   5.888   5.616 -0.5114  0.6257 -0.2177
10372TIP3    H231074   2.077   5.844   5.647  0.1659 -1.4016  0.1365
10373TIP3   OH231075   7.874   1.411   5.583 -0.2287  0.3637 -0.3659
10373TIP3    H131076   7.836   1.414   5.671 -1.1821 -1.8896 -0.6250
10373TIP3    H231077   7.800   1.419   5.524  0.0089 -1.0935 -0.9094
10374TIP3   OH231078   6.449   7.593   1.886 -0.2570  0.7370  0.1251
10374TIP3    H131079   6.397   7.657   1.837 -0.3937 -0.8341 -1.9087
10374TIP3    H231080   6.527   7.642   1.913 -0.9706  2.1042 -0.1798
10375TIP3   OH231081   8.075   7.227   4.982  0.1813  0.1279  0.0851
10375TIP3    H131082   8.009   7.221   5.051  1.0932 -2.0302  0.8852
10375TIP3    H231083   8.034   7.184   4.907  0.7139 -1.4957  0.6760
10376TIP3   OH231084   2.264   0.719   2.208  0.1975  0.1435 -0.2454
10376TIP3    H131085   2.275   0.629   2.177 -0.1235  0.3137 -0.8815
10376TIP3    H231086   2.179   0.718   2.253  0.5474 -0.0452  0.4204
10377TIP3   OH231087   0.936   1.300   6.067  0.0445 -0.1608  0.2508
10377TIP3    H131088   0.942   1.375   6.126  0.6492  0.4963 -0.6223
10377TIP3    H231089   0.892   1.334   5.989  0.0194 -0.8052 -0.0275
10378TIP3   OH231090   5.136   0.411   1.265 -0.2453  0.1662  0.1220
10378TIP3    H131091   5.196   0.344   1.232 -0.5795  0.9573 -2.2977
10378TIP3    H231092   5.128   0.392   1.358  2.2303 -1.1466  0.1681
10379TIP3   OH231093   8.145   0.006   2.275 -0.0946 -0.3917 -0.1549
10379TIP3    H131094   8.055   0.039   2.268 -0.1765 -0.4564  0.5945
10379TIP3    H231095   8.199   0.084   2.281 -0.2404 -0.3645  1.0308
10380TIP3   OH231096   2.691   5.004   1.151 -0.0883  0.1755  0.3350
10380TIP3    H131097   2.618   5.040   1.202 -0.1335 -1.7233  1.7510
10380TIP3    H231098   2.690   5.054   1.069 -3.2000  0.0566  0.1514
10381TIP3   OH231099   5.873   6.693   3.648 -0.1398 -0.3235  0.1098
10381TIP3    H131100   5.824   6.620   3.612  2.6337 -1.7567 -1.1325
10381TIP3    H231101   5.858   6.765   3.588 -0.5905 -0.7784 -0.3222
10382TIP3   OH231102   7.756   4.398   5.193  0.7046 -0.6200  0.1440
10382TIP3    H131103   7.710   4.337   5.136 -0.3900 -0.2231  0.5716
10382TIP3    H231104   7.718   4.383   5.280  1.7295 -0.6122  0.6129
10383TIP3   OH231105   0.769   5.503   3.830 -0.7484 -0.0099 -0.2015
10383TIP3    H131106   0.736   5.443   3.897  0.5754 -1.4693 -0.7913
10383TIP3    H231107   0.855   5.531   3.862 -0.7207  0.4141 -0.6240
10384TIP3   OH231108   0.733   0.335   5.309  0.8861 -0.5827  0.1587
10384TIP3    H131109   0.680   0.344   5.388  0.3930  1.3091 -0.3340
10384TIP3    H231110   0.813   0.385   5.328  0.8349 -0.2544 -0.4728
10385TIP3   OH231111   3.413   5.009   6.330 -0.5020  0.1456 -0.7597
10385TIP3    H131112   3.392   5.017   6.236 -2.9082  0.6275 -0.2546
10385TIP3    H231113   3.373   5.087   6.369 -1.0056 -0.8898  0.8650
10386TIP3   OH231114   1.493   5.491   1.539 -0.0814 -0.3357 -0.1317
10386TIP3    H131115   1.413   5.497   1.487  0.1686 -1.8075 -0.7506
10386TIP3    H231116   1.492   5.401   1.573  1.5439 -0.5491 -0.5640
10387TIP3   OH231117   7.713   4.080   0.512 -0.2633  0.1405 -0.4733
10387TIP3    H131118   7.787   4.122   0.469  0.5372 -0.6412  0.0960
10387TIP3    H231119   7.654   4.056   0.440 -1.0848  2.7434 -0.7827
10388TIP3   OH231120   2.498   4.433   5.195 -0.1350  0.2962 -0.1480
10388TIP3    H131121   2.574   4.377   5.210 -0.3018  0.0062 -0.3822
10388TIP3    H231122   2.427   4.390   5.242 -0.0241  0.8901  0.5832
10389TIP3   OH231123   2.918   5.221   3.094  0.1084  0.0902 -0.0158
10389TIP3    H131124   2.849   5.212   3.028  1.0414 -1.6103 -0.8130
10389TIP3    H231125   2.946   5.131   3.112  1.0642  0.6478  1.4309
10390TIP3   OH231126   1.856   7.158   6.358  0.3344 -0.3362 -0.1435
10390TIP3    H131127   1.769   7.122   6.374  0.5696 -1.4306 -1.2401
10390TIP3    H231128   1.888   7.112   6.281  1.8204  0.1785  0.1310
10391TIP3   OH231129   5.259   6.900   5.683 -0.2767 -0.0900  0.2808
10391TIP3    H131130   5.327   6.934   5.625 -1.3001  0.9615 -0.3486
10391TIP3    H231131   5.229   6.977   5.733  0.3074 -0.8936  1.9487
10392TIP3   OH231132   0.360   5.023   3.133  0.3956 -0.0840  0.7930
10392TIP3    H131133   0.278   4.982   3.161  1.0148 -0.8512  1.5580
10392TIP3    H231134   0.390   4.968   3.060  0.8295 -0.5367  1.3050
10393TIP3   OH231135   6.409   5.392   2.948  0.3602  0.1044  0.1258
10393TIP3    H131136   6.455   5.368   2.867  0.1685  1.0156 -0.2554
10393TIP3    H231137   6.389   5.485   2.938  1.0420  0.4305  1.5605
10394TIP3   OH231138   1.658   7.105   0.094  0.8218  0.4375  0.0893
10394TIP3    H131139   1.685   7.194   0.076  2.0915  0.1152  0.3446
10394TIP3    H231140   1.739   7.054   0.096  0.1309 -0.7263 -0.0493
10395TIP3   OH231141   1.095   6.329   4.487  0.4859  0.1841  0.7517
10395TIP3    H131142   1.028   6.365   4.545  0.1336  0.8928 -0.0616
10395TIP3    H231143   1.095   6.235   4.506 -0.4722  0.2259  1.0441
10396TIP3   OH231144   1.656   7.322   0.652  0.5810  0.1141  0.0646
10396TIP3    H131145   1.564   7.347   0.651  0.6987  0.5898  0.6629
10396TIP3    H231146   1.665   7.264   0.727  0.6578 -0.4087 -0.3356
10397TIP3   OH231147   7.215   7.184   1.000 -0.3521 -0.1518  0.1055
10397TIP3    H131148   7.178   7.240   0.932  0.4833 -1.1285 -1.1821
10397TIP3    H231149   7.307   7.173   0.975 -0.2996 -1.4397  0.7711
10398TIP3   OH231150   7.837   4.657   2.999  0.2759  0.1041 -0.6051
10398TIP3    H131151   7.758   4.605   3.010  0.0826 -0.1166 -2.6919
10398TIP3    H231152   7.833   4.722   3.068 -1.4289 -0.2760 -0.3127
10399TIP3   OH231153   4.241   6.784   1.990  0.0159  0.5549  0.1511
10399TIP3    H131154   4.314   6.776   1.929  0.4780 -3.3429  0.9270
10399TIP3    H231155   4.281   6.804   2.075  0.1220 -0.6328  0.3936
10400TIP3   OH231156   7.678   2.291   1.798  0.0871  0.4407  0.4536
10400TIP3    H131157   7.763   2.252   1.780  0.6746  2.2700 -1.0863
10400TIP3    H231158   7.681   2.377   1.756 -3.5753 -0.5389 -2.3749
10401TIP3   OH231159   5.742   7.176   5.499 -0.2744 -0.0507 -0.1134
10401TIP3    H131160   5.749   7.262   5.457 -0.3021  0.3372  0.6585
10401TIP3    H231161   5.714   7.195   5.589  0.2529 -0.8348  0.2296
10402TIP3   OH231162   4.861   0.562   0.910 -0.6250  0.5082  0.0030
10402TIP3    H131163   4.842   0.590   0.999 -1.4067  0.3509 -0.1098
10402TIP3    H231164   4.946   0.519   0.916 -1.9653 -2.1890  1.2617
10403TIP3   OH231165   6.043   5.024   3.556  0.3782 -0.3120  0.0103
10403TIP3    H131166   6.079   5.092   3.499  0.7778  0.7180  1.4395
10403TIP3    H231167   6.110   5.010   3.623 -1.0879  0.3617  1.7046
10404TIP3   OH231168   2.349   5.621   2.301  0.2103 -0.0260  0.3725
10404TIP3    H131169   2.290   5.659   2.236 -0.5033 -0.1457  0.9432
10404TIP3    H231170   2.434   5.621   2.258 -0.2214  0.0390 -0.5067
10405TIP3   OH231171   8.210   5.577   3.965  0.2875  0.9982 -0.7179
10405TIP3    H131172   8.234   5.487   3.942  1.9869  1.1280  0.3741
10405TIP3    H231173   8.170   5.612   3.885 -0.2224 -0.6513 -1.2279
10406TIP3   OH231174   1.763   3.094   4.857  0.1145 -0.2969  0.0995
10406TIP3    H131175   1.761   3.060   4.946 -1.5934 -1.7656 -0.4500
10406TIP3    H231176   1.814   3.175   4.863 -1.3896  0.5553  2.7243
10407TIP3   OH231177   4.788   4.063   6.703  0.2812 -0.0829 -0.0976
10407TIP3    H131178   4.822   4.111   6.627  0.2488  0.8188  0.4475
10407TIP3    H231179   4.723   4.003   6.666 -0.3180  0.9188 -0.6886
10408TIP3   OH231180   6.242   2.191   4.770 -0.6710  0.2722 -0.0331
10408TIP3    H131181   6.184   2.156   4.838 -0.0052 -0.2462  0.2803
10408TIP3    H231182   6.257   2.116   4.712 -1.3448  0.7469 -0.8357
10409TIP3   OH231183   0.890   3.545   6.682  0.1885 -0.0140  0.1160
10409TIP3    H131184   0.835   3.485   6.631  1.4188 -1.2215  0.1488
10409TIP3    H231185   0.887   3.510   6.771 -0.5681  1.0843  0.5358
10410TIP3   OH231186   8.090   4.081   6.600  0.3865 -0.1754  0.5747
10410TIP3    H131187   8.066   4.118   6.515 -1.2069 -0.4953  0.8476
10410TIP3    H231188   8.016   4.024   6.623  2.4901 -3.1906  0.3919
10411TIP3   OH231189   5.105   3.414   4.858  0.6106  0.1583 -0.5794
10411TIP3    H131190   5.156   3.463   4.794 -0.1432 -1.0938 -2.2114
10411TIP3    H231191   5.170   3.368   4.911  1.3426  2.7074  0.9599
10412TIP3   OH231192   0.136   7.157   3.221 -0.1958  0.0224  0.0198
10412TIP3    H131193   0.137   7.244   3.263 -0.4160 -0.2260  0.5407
10412TIP3    H231194   0.060   7.113   3.259 -1.3570  0.3604 -1.8177
10413TIP3   OH231195   4.560   6.662   3.265 -0.4803 -0.0486  1.0758
10413TIP3    H131196   4.627   6.610   3.311  1.3636 -0.9976 -2.2986
10413TIP3    H231197   4.536   6.608   3.190  0.6248  3.3277 -1.9911
10414TIP3   OH231198   6.643   3.322   3.074 -0.0350  0.3041  0.3144
10414TIP3    H131199   6.575   3.382   3.040  0.1918  1.2722  1.5016
10414TIP3    H231200   6.599   3.271   3.141  0.4871  1.2850  1.4484
10415TIP3   OH231201   3.777   4.393   1.749  0.0985  0.1185  0.0095
10415TIP3    H131202   3.708   4.458   1.763 -1.7923 -1.7718 -0.0833
10415TIP3    H231203   3.802   4.405   1.658 -0.8913  0.1338 -0.2765
10416TIP3   OH231204   3.948   7.705   6.104 -0.7112  0.3042  0.2107
10416TIP3    H131205   3.900   7.623   6.107  1.6652 -1.1446  1.7318
10416TIP3    H231206   3.932   7.746   6.189 -3.6803  2.6639 -1.2977
10417TIP3   OH231207   1.610   0.017   0.502 -0.1801  0.0365  0.3152
10417TIP3    H131208   1.663   0.068   0.441  1.3963 -1.1677  0.5933
10417TIP3    H231209   1.524   0.013   0.462  0.1956  1.1883 -0.6849
10418TIP3   OH231210   7.278   1.969   6.097 -0.1479 -0.3847  0.3341
10418TIP3    H131211   7.192   2.001   6.073  0.4402 -0.2800 -1.8606
10418TIP3    H231212   7.262   1.905   6.166 -2.1088 -1.2109 -0.8217
10419TIP3   OH231213   6.524   7.435   6.010 -0.6318  0.0401  0.0551
10419TIP3    H131214   6.599   7.420   5.952  0.2589  1.0723  0.8988
10419TIP3    H231215   6.526   7.529   6.028 -0.7083 -0.2878  1.9761
10420TIP3   OH231216   3.188   7.307   4.142 -0.6628  0.7069 -0.1854
10420TIP3    H131217   3.223   7.273   4.224 -0.0288 -1.3631 -1.2317
10420TIP3    H231218   3.093   7.297   4.150 -0.6661  1.3123  0.5982
10421TIP3   OH231219   6.329   3.006   0.118  0.0981  0.4959 -0.5372
10421TIP3    H131220   6.409   3.026   0.071  0.2821 -0.4858 -0.6784
10421TIP3    H231221   6.355   2.940   0.182 -0.5215  0.4241 -0.3518
10422TIP3   OH231222   2.338   5.462   3.665  0.8906 -0.4604 -0.0705
10422TIP3    H131223   2.332   5.546   3.712 -0.1486  0.0926 -1.1402
10422TIP3    H231224   2.416   5.420   3.702  1.0370  0.6679  0.9806
10423TIP3   OH231225   5.222   5.668   2.974  0.1460 -0.0655 -0.4116
10423TIP3    H131226   5.268   5.734   2.922 -1.7777 -0.0024 -2.1429
10423TIP3    H231227   5.192   5.716   3.052 -3.1006  1.8754 -2.6080
10424TIP3   OH231228   3.970   6.913   2.058 -0.1246  0.0782  0.1893
10424TIP3    H131229   3.963   6.827   2.099 -0.8784 -2.1025 -3.9505
10424TIP3    H231230   4.062   6.919   2.032 -0.4576 -0.3804 -1.1532
10425TIP3   OH231231   6.354   3.886   4.470 -0.1840  0.0062 -0.1826
10425TIP3    H131232   6.416   3.955   4.447  0.0308 -0.2719 -0.4360
10425TIP3    H231233   6.391   3.845   4.547  0.0982 -0.3539 -0.5091
10426TIP3   OH231234   7.739   1.269   6.317 -0.1961 -0.4873 -0.2189
10426TIP3    H131235   7.688   1.211   6.261 -0.3754 -0.3568 -0.1891
10426TIP3    H231236   7.779   1.211   6.382  0.4072 -0.7055 -0.7721
10427TIP3   OH231237   5.452   7.653   2.498  0.0113  0.3892 -0.1820
10427TIP3    H131238   5.461   7.732   2.551  1.4219  1.0743 -1.3632
10427TIP3    H231239   5.374   7.667   2.446 -0.2080  0.6314  0.2076
10428TIP3   OH231240   5.164   2.271   3.316 -0.1416 -0.0029  0.0544
10428TIP3    H131241   5.068   2.271   3.312 -0.1337  0.4915 -0.2213
10428TIP3    H231242   5.188   2.179   3.311 -0.6509 -0.2535  1.5892
10429TIP3   OH231243   2.831   0.214   4.037 -0.0826 -0.6256  0.2425
10429TIP3    H131244   2.788   0.190   3.955  0.1138  1.6131 -0.5835
10429TIP3    H231245   2.778   0.286   4.072  0.2627 -1.0496  1.7122
10430TIP3   OH231246   5.983   1.735   6.022  0.1096  0.1350  0.5931
10430TIP3    H131247   6.075   1.763   6.024 -0.2301  1.3499  0.3131
10430TIP3    H231248   5.953   1.743   6.113  0.2344 -0.1069  0.6560
10431TIP3   OH231249   0.698   4.224   6.145 -0.3449 -0.1315  0.4422
10431TIP3    H131250   0.763   4.289   6.171 -1.1031  0.1213  1.8066
10431TIP3    H231251   0.729   4.142   6.183 -0.7314 -0.0384  0.9725
10432TIP3   OH231252   1.463   6.091   4.221 -0.2716 -0.0112 -0.0917
10432TIP3    H131253   1.472   5.998   4.242 -1.1003 -0.5847 -2.0773
10432TIP3    H231254   1.383   6.097   4.169 -0.7579  1.9780  0.7658
10433TIP3   OH231255   2.026   2.673   2.400 -0.3709 -0.2566 -0.0306
10433TIP3    H131256   1.955   2.730   2.429 -1.2643 -0.9967 -0.7104
10433TIP3    H231257   2.014   2.592   2.450  0.3830 -0.1676  0.3121
10434TIP3   OH231258   6.180   4.640   6.517  0.2629 -0.3374 -0.6398
10434TIP3    H131259   6.126   4.624   6.439 -0.1898  0.9859 -0.6155
10434TIP3    H231260   6.265   4.667   6.483  0.1777 -0.1181 -0.6804
10435TIP3   OH231261   1.735   0.305   3.139 -0.0052  0.0565  0.2311
10435TIP3    H131262   1.763   0.216   3.119 -0.0613  0.4065 -1.6118
10435TIP3    H231263   1.673   0.296   3.211  0.2186 -1.3517  0.2683
10436TIP3   OH231264   2.365   7.069   0.135 -0.0390  0.0019 -0.1526
10436TIP3    H131265   2.325   6.984   0.117  1.2055 -0.5219 -0.5687
10436TIP3    H231266   2.340   7.089   0.225 -1.7400  0.0155 -0.5806
10437TIP3   OH231267   5.343   0.620   1.922  0.3524 -0.9399  0.2725
10437TIP3    H131268   5.312   0.616   1.832 -0.2154 -0.8705  0.4657
10437TIP3    H231269   5.421   0.676   1.918 -0.0713 -0.3729 -0.0556
10438TIP3   OH231270   5.129   0.348   5.472  0.4558 -0.1300  0.0759
10438TIP3    H131271   5.117   0.441   5.451  1.7298  0.0532  0.0458
10438TIP3    H231272   5.183   0.348   5.551 -1.7987 -0.8576  1.7263
10439TIP3   OH231273   4.220   0.851   4.358  0.2358 -0.0675  0.0355
10439TIP3    H131274   4.222   0.768   4.407  1.0504  0.0646  0.2374
10439TIP3    H231275   4.139   0.846   4.307 -0.1164 -0.6522  0.6301
10440TIP3   OH231276   5.546   5.873   3.160  0.3956 -0.2014 -0.0186
10440TIP3    H131277   5.493   5.803   3.198  0.2543  0.4293  0.9978
10440TIP3    H231278   5.515   5.880   3.069 -0.5222 -0.5545  0.2527
10441TIP3   OH231279   3.185   5.215   5.225  0.4250 -0.2431 -0.8186
10441TIP3    H131280   3.266   5.177   5.259  1.0819 -0.0025 -2.0466
10441TIP3    H231281   3.214   5.287   5.169 -0.6702  0.2354 -0.8040
10442TIP3   OH231282   4.657   0.496   2.388  0.2900  0.3865 -0.2206
10442TIP3    H131283   4.646   0.570   2.329  0.0427  0.7720  0.3018
10442TIP3    H231284   4.573   0.488   2.434  0.6196  0.3755  0.4009
10443TIP3   OH231285   5.197   6.338   0.047 -0.6397 -0.6567 -0.7224
10443TIP3    H131286   5.128   6.397   0.077  0.7283  1.2169 -1.1143
10443TIP3    H231287   5.263   6.340   0.117 -0.0822 -0.8588 -1.2360
10444TIP3   OH231288   4.852   4.861   2.867 -0.5634  0.2174 -0.1729
10444TIP3    H131289   4.935   4.857   2.820  0.1602  1.5485  0.9115
10444TIP3    H231290   4.788   4.885   2.801 -0.8322 -3.9753 -1.7842
10445TIP3   OH231291   6.439   3.535   4.118 -0.2865  0.0806 -0.5790
10445TIP3    H131292   6.527   3.517   4.084 -0.1314 -1.1706  0.4371
10445TIP3    H231293   6.447   3.620   4.162  0.7084 -0.5413  0.4819
10446TIP3   OH231294   3.823   5.353   1.707 -0.2886  0.4832  0.4200
10446TIP3    H131295   3.742   5.402   1.718  0.1475  1.0897  1.0291
10446TIP3    H231296   3.882   5.388   1.774  0.0896 -0.7880  0.7937
10447TIP3   OH231297   3.805   5.862   2.645 -0.4571  0.7533 -0.0193
10447TIP3    H131298   3.760   5.808   2.710  0.6936 -1.4037 -0.9011
10447TIP3    H231299   3.882   5.895   2.691  0.7006 -1.2873 -0.3489
10448TIP3   OH231300   5.869   0.320   4.987  0.6355  0.4578 -0.3095
10448TIP3    H131301   5.778   0.351   4.982 -0.3644 -2.1368  0.0834
10448TIP3    H231302   5.879   0.291   5.078  1.5288 -0.1525 -0.5864
10449TIP3   OH231303   1.674   4.908   3.803 -0.5775  0.1015 -0.0701
10449TIP3    H131304   1.735   4.969   3.843 -0.0890 -0.5690  0.2169
10449TIP3    H231305   1.708   4.821   3.824 -0.5783 -0.2769 -1.5297
10450TIP3   OH231306   7.842   0.717   2.262  1.0510 -0.2188 -0.9248
10450TIP3    H131307   7.913   0.691   2.321  0.7446  0.5745 -0.1805
10450TIP3    H231308   7.810   0.800   2.298  0.0471 -0.3329 -1.5148
10451TIP3   OH231309   7.020   0.241   2.192  0.2931  0.4795 -0.4038
10451TIP3    H131310   7.004   0.192   2.273 -0.3252  1.2219 -0.0662
10451TIP3    H231311   7.093   0.194   2.151  0.5002 -0.0217  0.4873
10452TIP3   OH231312   7.537   5.272   4.982  0.6459 -0.1398  0.3635
10452TIP3    H131313   7.570   5.185   5.003 -0.5110 -1.2072 -1.9209
10452TIP3    H231314   7.444   5.269   5.006 -0.0532 -0.5104 -2.1424
10453TIP3   OH231315   6.406   1.015   1.370  0.1183  0.3959  0.4019
10453TIP3    H131316   6.490   0.998   1.414 -0.6151 -0.4454  1.5206
10453TIP3    H231317   6.373   0.928   1.348  0.0394  0.7658 -1.0611
10454TIP3   OH231318   5.490   6.292   1.284  0.4873 -0.2169 -0.0158
10454TIP3    H131319   5.419   6.227   1.290 -0.4147  0.6531 -0.8630
10454TIP3    H231320   5.445   6.376   1.275  1.6402  0.4769  0.4520
10455TIP3   OH231321   5.374   7.616   2.792 -0.4584 -0.3162 -0.1462
10455TIP3    H131322   5.408   7.689   2.740  0.3034 -1.1932 -0.8996
10455TIP3    H231323   5.320   7.659   2.859 -3.0135  0.7848 -2.7208
10456TIP3   OH231324   3.533   1.892   5.059 -0.2870 -0.1678 -0.2172
10456TIP3    H131325   3.599   1.959   5.039  0.8340 -1.1384  0.1013
10456TIP3    H231326   3.468   1.938   5.113 -0.1489  0.9398 -0.9522
10457TIP3   OH231327   5.066   4.316   5.576  0.5577 -0.6749  0.3430
10457TIP3    H131328   5.141   4.318   5.636 -0.6378 -0.8067  1.9026
10457TIP3    H231329   5.105   4.299   5.490  2.6444  2.3403  0.5172
10458TIP3   OH231330   6.216   6.133   1.441 -0.0871 -0.3034 -0.1366
10458TIP3    H131331   6.231   6.039   1.454  0.9539 -0.3533 -1.4664
10458TIP3    H231332   6.293   6.162   1.392 -1.0323  0.9800 -0.9009
10459TIP3   OH231333   1.331   0.348   5.526  0.6904 -0.6336 -0.8446
10459TIP3    H131334   1.355   0.341   5.434  1.7113  0.5700 -0.7128
10459TIP3    H231335   1.415   0.357   5.572  0.1859 -0.9055  0.1664
10460TIP3   OH231336   5.022   3.537   5.834 -0.1527  0.0834 -0.1301
10460TIP3    H131337   5.082   3.598   5.790 -1.7731  2.2873  0.5343
10460TIP3    H231338   5.065   3.518   5.918  1.1076 -1.0005 -0.9942
10461TIP3   OH231339   5.151   2.055   1.743  0.1791 -0.0460 -0.5602
10461TIP3    H131340   5.105   2.055   1.827  0.7218 -1.9211 -0.2162
10461TIP3    H231341   5.084   2.026   1.680 -0.2729  1.5200 -0.8348
10462TIP3   OH231342   4.654   1.714   5.464  0.0459  0.1163  0.4449
10462TIP3    H131343   4.705   1.666   5.530 -1.6237 -1.0223  0.9695
10462TIP3    H231344   4.659   1.659   5.386  0.0860  0.2926  0.3232
10463TIP3   OH231345   1.711   5.595   0.724 -0.1049  0.3536  0.5628
10463TIP3    H131346   1.784   5.593   0.661 -0.9620  0.2113 -0.4652
10463TIP3    H231347   1.633   5.592   0.669 -1.0367  4.2782  1.3603
10464TIP3   OH231348   0.815   2.128   6.189 -0.2473  0.1187 -0.6247
10464TIP3    H131349   0.895   2.099   6.233 -0.2260  0.5646 -0.3545
10464TIP3    H231350   0.838   2.214   6.153 -0.2451 -0.2824 -1.5825
10465TIP3   OH231351   1.662   0.585   5.836  0.4012  0.5639  0.0473
10465TIP3    H131352   1.614   0.533   5.901 -0.9280 -0.5800 -1.7519
10465TIP3    H231353   1.749   0.598   5.876  0.3647 -1.9299  1.1695
10466TIP3   OH231354   4.341   0.539   4.878  0.1216 -0.0934 -0.3781
10466TIP3    H131355   4.254   0.555   4.915 -0.2743 -1.2621 -0.7471
10466TIP3    H231356   4.400   0.545   4.953 -0.0831  1.9934 -0.3376
10467TIP3   OH231357   2.080   0.981   5.249  0.1781 -0.1153 -0.1951
10467TIP3    H131358   2.149   0.915   5.249  0.7371  0.4553 -0.7686
10467TIP3    H231359   2.018   0.952   5.183  0.4942 -0.0068 -0.5446
10468TIP3   OH231360   7.447   4.573   0.692 -0.6962 -0.0564  0.3910
10468TIP3    H131361   7.517   4.558   0.756 -1.3113  0.0101  1.0849
10468TIP3    H231362   7.446   4.493   0.639 -1.2703 -0.8192  1.5129
10469TIP3   OH231363   2.869   0.522   1.220 -0.0751  0.0013 -0.1533
10469TIP3    H131364   2.881   0.573   1.300 -1.6377  1.1581 -0.6063
10469TIP3    H231365   2.956   0.518   1.180  0.5081  0.3504  1.0378
10470TIP3   OH231366   1.693   5.427   6.283 -0.0549  0.1435  0.0839
10470TIP3    H131367   1.633   5.462   6.349 -0.1121  0.1721  0.0163
10470TIP3    H231368   1.779   5.432   6.324 -0.3878 -2.5691  1.3495
10471TIP3   OH231369   5.161   3.615   3.281  0.3243 -0.0672 -0.1694
10471TIP3    H131370   5.237   3.641   3.229 -0.9988 -0.0420 -2.2026
10471TIP3    H231371   5.165   3.519   3.283  1.2918 -0.0403  1.2235
10472TIP3   OH231372   2.452   5.920   5.783 -0.6170 -0.3127 -0.1840
10472TIP3    H131373   2.535   5.879   5.809  0.2588 -0.1249 -2.4440
10472TIP3    H231374   2.439   5.892   5.692 -1.6123  1.8519 -0.7707
10473TIP3   OH231375   5.799   4.071   2.320  0.0265 -0.5218  0.0938
10473TIP3    H131376   5.779   4.004   2.255 -2.6132 -1.5423  1.7592
10473TIP3    H231377   5.814   4.151   2.269 -0.3160 -1.6154 -1.8000
10474TIP3   OH231378   4.594   2.566   3.068  0.1148  0.5453 -0.4165
10474TIP3    H131379   4.620   2.527   3.152 -0.3008  0.7570 -0.1827
10474TIP3    H231380   4.498   2.570   3.072  0.1060  0.7855 -0.7983
10475TIP3   OH231381   0.624   1.804   6.028  0.0262 -0.0225 -0.0068
10475TIP3    H131382   0.590   1.891   6.009 -1.8538 -1.0075 -1.4824
10475TIP3    H231383   0.606   1.791   6.121 -0.8867  0.6633 -0.0787
10476TIP3   OH231384   5.762   6.806   2.011 -0.1428 -0.2823  0.4143
10476TIP3    H131385   5.851   6.816   1.977  0.3939  0.7203  2.0105
10476TIP3    H231386   5.767   6.735   2.074 -0.3234  0.1828  0.9641
10477TIP3   OH231387   2.190   5.022   3.283 -0.4837  0.0490  0.1289
10477TIP3    H131388   2.167   5.114   3.295  2.8703  1.0098  0.4532
10477TIP3    H231389   2.131   4.974   3.341 -3.1006  1.7994 -0.9127
10478TIP3   OH231390   7.598   3.603   0.144  0.0290  0.9292 -0.4432
10478TIP3    H131391   7.640   3.530   0.098 -0.8167 -1.3689  2.1480
10478TIP3    H231392   7.654   3.679   0.124  1.3333 -0.4934 -2.7273
10479TIP3   OH231393   5.728   5.890   1.297 -0.5850  0.2962  0.1171
10479TIP3    H131394   5.766   5.977   1.308 -0.0815  0.0459  0.4141
10479TIP3    H231395   5.753   5.864   1.208  1.0581 -0.3747  0.7255
10480TIP3   OH231396   5.602   5.042   1.150  0.3621 -0.3102  0.4307
10480TIP3    H131397   5.623   5.025   1.058  0.9245 -1.1747  0.6994
10480TIP3    H231398   5.658   4.981   1.199 -1.0681 -1.0169  1.2870
10481TIP3   OH231399   4.513   0.220   3.320 -0.8639 -0.1706 -0.2030
10481TIP3    H131400   4.490   0.141   3.368 -0.8449  0.4937  0.9382
10481TIP3    H231401   4.529   0.286   3.388 -0.1886  0.6274 -1.1028
10482TIP3   OH231402   4.869   6.151   6.146  0.8626  0.7913 -0.6726
10482TIP3    H131403   4.878   6.218   6.079 -0.6428  0.5944 -1.1088
10482TIP3    H231404   4.815   6.191   6.214  1.6107  0.6743  0.0137
10483TIP3   OH231405   6.865   1.152   2.394 -0.4228  0.5709  0.4804
10483TIP3    H131406   6.785   1.184   2.353  0.5206 -0.0862 -2.0899
10483TIP3    H231407   6.851   1.057   2.403 -0.1187  0.5176  0.4178
10484TIP3   OH231408   3.142   7.641   1.354 -0.0312  0.0339  0.5368
10484TIP3    H131409   3.153   7.606   1.266  0.1756 -0.6699  0.8390
10484TIP3    H231410   3.107   7.568   1.405  0.0634  0.3703  1.0944
10485TIP3   OH231411   5.703   5.790   4.750  0.2136 -0.1601 -0.9283
10485TIP3    H131412   5.744   5.798   4.663 -0.0615 -1.1930 -1.1649
10485TIP3    H231413   5.753   5.721   4.793 -1.2418 -1.4330 -1.2207
10486TIP3   OH231414   2.652   0.183   0.050  0.1904 -0.4474  0.3839
10486TIP3    H131415   2.640   0.113  -0.015  0.9443  0.3923 -0.6995
10486TIP3    H231416   2.587   0.249   0.026 -0.1487 -0.5191  1.0724
10487TIP3   OH231417   0.694   2.003   6.429  0.5791 -0.1800 -0.1486
10487TIP3    H131418   0.671   2.071   6.493  0.1819 -0.6135  0.1870
10487TIP3    H231419   0.691   2.047   6.344 -1.1720 -0.1007 -0.0942
10488TIP3   OH231420   2.346   5.312   5.130 -0.4890  0.3074  0.1102
10488TIP3    H131421   2.435   5.293   5.159  0.0706  0.9175 -1.1193
10488TIP3    H231422   2.301   5.228   5.131  0.2739 -0.1074  0.1789
10489TIP3   OH231423   4.207   0.082   0.629 -0.2883 -0.2017 -0.0261
10489TIP3    H131424   4.113   0.070   0.643 -0.2957 -3.4587 -1.9434
10489TIP3    H231425   4.213   0.134   0.549 -0.4047  0.7924  0.5939
10490TIP3   OH231426   4.287   3.856   3.939  0.1384 -0.1318 -0.0486
10490TIP3    H131427   4.320   3.945   3.955 -0.1710  0.4184 -2.1926
10490TIP3    H231428   4.358   3.812   3.893  0.0475 -0.8016  0.4414
10491TIP3   OH231429   6.348   2.980   5.736 -0.0692  0.2056  0.3485
10491TIP3    H131430   6.254   2.999   5.738 -0.5171 -1.3260 -2.0585
10491TIP3    H231431   6.377   3.011   5.649  0.9595 -2.0919 -0.1957
10492TIP3   OH231432   4.696   4.130   4.982  0.1021 -0.4425 -0.2854
10492TIP3    H131433   4.738   4.169   4.906 -1.6729  2.8124  0.2398
10492TIP3    H231434   4.603   4.151   4.972 -0.3616 -1.0547  2.1370
10493TIP3   OH231435   4.720   3.350   6.242  0.3811 -0.0211 -0.3088
10493TIP3    H131436   4.742   3.316   6.155 -0.7918  1.2990 -1.1700
10493TIP3    H231437   4.634   3.313   6.262 -0.6631  1.8670 -1.0187
10494TIP3   OH231438   1.796   1.420   2.628  0.1361  0.2409  0.0784
10494TIP3    H131439   1.890   1.403   2.639 -0.4121 -1.9223  2.5141
10494TIP3    H231440   1.768   1.354   2.565  0.1403  0.5879 -0.2936
10495TIP3   OH231441   4.405   0.207   3.072 -0.0606 -0.0146 -0.4203
10495TIP3    H131442   4.458   0.225   3.149 -0.7237  1.6095 -0.3153
10495TIP3    H231443   4.372   0.292   3.045 -2.0988 -0.8966 -0.8715
10496TIP3   OH231444   3.286   4.949   4.851  0.3115  0.3331 -0.5060
10496TIP3    H131445   3.347   4.922   4.919  0.0957  0.0262 -0.4314
10496TIP3    H231446   3.264   5.039   4.872 -0.3187  0.0108  0.2576
10497TIP3   OH231447   1.266   5.411   2.308  0.1757 -0.5995  0.3969
10497TIP3    H131448   1.189   5.378   2.262  0.7938 -0.1666 -1.0100
10497TIP3    H231449   1.338   5.353   2.280  0.9225  0.8027 -0.7105
10498TIP3   OH231450   6.926   6.763   5.446  0.5684 -0.4945  0.0029
10498TIP3    H131451   6.940   6.687   5.389  0.6564 -0.3106 -0.2238
10498TIP3    H231452   6.961   6.837   5.396  1.3280 -0.4354  0.6081
10499TIP3   OH231453   3.410   2.813   6.224 -0.1933 -0.3201 -0.2618
10499TIP3    H131454   3.339   2.819   6.160 -0.7877 -0.6876  0.3550
10499TIP3    H231455   3.415   2.721   6.247  1.2160 -0.4841 -1.0881
10500TIP3   OH231456   2.790   0.955   3.495  0.2779  0.3980  0.2189
10500TIP3    H131457   2.860   0.951   3.430  0.2435 -0.3677  0.2260
10500TIP3    H231458   2.818   0.894   3.564  0.1281  0.9068  0.7364
10501TIP3   OH231459   5.516   6.826   1.352  0.0639  0.0719 -0.4042
10501TIP3    H131460   5.516   6.762   1.423  0.2181 -0.9536 -1.3072
10501TIP3    H231461   5.424   6.842   1.335  0.0248  0.5003  0.1732
10502TIP3   OH231462   0.254   1.911   1.201 -0.1523 -0.0739 -0.0095
10502TIP3    H131463   0.174   1.858   1.203 -0.5824  0.5845  0.9570
10502TIP3    H231464   0.294   1.898   1.287 -1.3543  2.7486  1.0985
10503TIP3   OH231465   0.752   5.628   4.282  0.0072  0.7585  0.5327
10503TIP3    H131466   0.796   5.544   4.271 -1.1744  0.2570 -0.8337
10503TIP3    H231467   0.815   5.692   4.251 -0.6210 -0.0676 -2.8674
10504TIP3   OH231468   0.660   0.238   2.342  0.2473 -0.2185 -1.3029
10504TIP3    H131469   0.617   0.157   2.317 -2.2205  0.7624 -0.5469
10504TIP3    H231470   0.695   0.222   2.429 -2.7399  0.2531  0.1204
10505TIP3   OH231471   2.959   3.274   5.091 -0.1391 -0.0659 -0.8879
10505TIP3    H131472   3.032   3.232   5.046  0.3732  2.4144 -2.5579
10505TIP3    H231473   2.883   3.223   5.066  0.7449 -1.5439 -0.6847
10506TIP3   OH231474   1.111   3.810   1.375  0.3386  0.2506  0.0095
10506TIP3    H131475   1.173   3.846   1.438 -0.8190  0.8433  0.8437
10506TIP3    H231476   1.080   3.729   1.415  2.0591 -1.1526 -1.3374
10507TIP3   OH231477   3.250   0.184   2.121  0.0538 -0.2815 -0.0910
10507TIP3    H131478   3.301   0.159   2.198 -0.4754 -1.9772 -0.2488
10507TIP3    H231479   3.247   0.104   2.068 -1.0018  0.3895 -1.0715
10508TIP3   OH231480   7.287   5.241   4.792 -0.0393  0.0701  0.0014
10508TIP3    H131481   7.345   5.184   4.741 -0.7402 -0.3115 -0.3788
10508TIP3    H231482   7.266   5.190   4.870  1.1345  0.7023  0.7669
10509TIP3   OH231483   0.168   2.403   4.798 -0.0525 -0.2958  0.2092
10509TIP3    H131484   0.166   2.325   4.853  1.2588  0.1522  0.9216
10509TIP3    H231485   0.258   2.436   4.805 -0.1498  0.3932 -1.3336
10510TIP3   OH231486   2.022   2.330   1.311  0.3821 -0.0370 -0.2397
10510TIP3    H131487   2.112   2.359   1.322  0.7070 -1.0992 -0.0215
10510TIP3    H231488   1.980   2.348   1.395  0.1994  1.0714 -0.5524
10511TIP3   OH231489   3.235   5.057   0.920 -0.2624 -1.1562  0.4210
10511TIP3    H131490   3.303   5.061   0.853  0.2257  2.5464  0.9424
10511TIP3    H231491   3.154   5.041   0.871  0.2659  0.1184 -0.9332
10512TIP3   OH231492   3.023   5.944   0.596 -0.2263 -0.6674  0.3733
10512TIP3    H131493   2.976   5.910   0.520  0.9044 -0.5234 -0.4288
10512TIP3    H231494   2.987   5.896   0.670 -0.4949 -1.7227 -0.4103
10513TIP3   OH231495   6.070   0.048   5.341  0.1253  0.0335 -0.2725
10513TIP3    H131496   6.007   0.068   5.272  0.0130  1.1797  0.1337
10513TIP3    H231497   6.016   0.022   5.416  0.1849 -0.0045 -0.2425
10514TIP3   OH231498   3.409   1.203   0.267  0.5486  1.0649 -0.3009
10514TIP3    H131499   3.391   1.144   0.339  3.5415  0.1919 -0.1088
10514TIP3    H231500   3.323   1.234   0.238 -0.8592 -0.2145  2.2030
10515TIP3   OH231501   4.124   4.327   1.261  0.0690 -0.5785  0.0209
10515TIP3    H131502   4.123   4.232   1.270 -1.7126 -0.5805  0.1413
10515TIP3    H231503   4.064   4.345   1.188 -0.9021  0.5165  1.0278
10516TIP3   OH231504   1.752   7.246   2.335  0.4677 -0.1165 -0.2309
10516TIP3    H131505   1.781   7.166   2.379  0.5323  0.1349  0.1843
10516TIP3    H231506   1.713   7.215   2.253 -0.4035 -0.6519  0.3731
10517TIP3   OH231507   5.154   0.911   3.654  0.1406 -0.0252  1.2599
10517TIP3    H131508   5.226   0.972   3.636 -0.4845  0.6958  1.1835
10517TIP3    H231509   5.190   0.825   3.632  0.0728  0.5762 -1.5873
10518TIP3   OH231510   6.688   4.392   2.577 -0.3698 -0.1081  0.4791
10518TIP3    H131511   6.715   4.458   2.642 -3.4315  1.4340  0.4133
10518TIP3    H231512   6.737   4.415   2.498  2.7850 -1.4899  1.8777
10519TIP3   OH231513   1.700   3.487   0.838 -0.0599  0.3101 -0.0312
10519TIP3    H131514   1.697   3.391   0.831  0.3663 -0.0586  3.3039
10519TIP3    H231515   1.614   3.511   0.873 -0.2352  1.2325 -1.0260
10520TIP3   OH231516   2.737   5.313   5.851 -0.2930  0.1280  0.0902
10520TIP3    H131517   2.677   5.317   5.925  0.7623  0.3633  0.9646
10520TIP3    H231518   2.771   5.403   5.844 -0.3843  0.1054 -0.6811
10521TIP3   OH231519   1.856   5.604   1.377 -0.5355  0.2007 -0.6128
10521TIP3    H131520   1.767   5.627   1.406 -0.4311  0.9397 -0.8488
10521TIP3    H231521   1.876   5.523   1.423 -1.7512 -0.5639 -1.3749
10522TIP3   OH231522   6.506   3.849   4.716  0.3213  0.6381  0.0343
10522TIP3    H131523   6.531   3.939   4.738  2.5682 -0.1579  1.0263
10522TIP3    H231524   6.582   3.797   4.740 -1.4660 -1.7340  0.8783
10523TIP3   OH231525   2.286   7.469   4.379 -0.3569 -0.4598 -0.2447
10523TIP3    H131526   2.360   7.461   4.320 -0.4604 -1.4179 -0.2521
10523TIP3    H231527   2.322   7.447   4.465 -0.3170  0.4674 -0.0054
10524TIP3   OH231528   6.184   5.122   2.101  0.0857 -0.5245  0.1525
10524TIP3    H131529   6.149   5.208   2.077  1.2386  0.1930  0.8831
10524TIP3    H231530   6.229   5.138   2.184 -0.7694 -2.1329  0.9667
10525TIP3   OH231531   5.266   4.564   2.588 -0.4321 -0.0939 -0.3751
10525TIP3    H131532   5.260   4.588   2.495  0.2414  1.1296 -0.1270
10525TIP3    H231533   5.247   4.645   2.635 -1.7570 -0.9316  0.5929
10526TIP3   OH231534   5.193   6.400   5.147 -0.9198 -0.4934  0.0129
10526TIP3    H131535   5.222   6.335   5.211 -1.3895  1.6163  2.5740
10526TIP3    H231536   5.115   6.439   5.187 -0.9307  1.3179 -1.6331
10527TIP3   OH231537   1.196   7.515   6.773 -0.2240  0.5693  0.4855
10527TIP3    H131538   1.275   7.492   6.821 -0.1608 -2.2593 -0.7975
10527TIP3    H231539   1.227   7.541   6.686 -0.5735  2.0953  0.7846
10528TIP3   OH231540   7.771   6.085   1.115  0.3907  0.5200  0.5025
10528TIP3    H131541   7.843   6.070   1.054  0.1002  0.6783  0.1131
10528TIP3    H231542   7.808   6.069   1.201  0.8819  0.5681  0.3023
10529TIP3   OH231543   6.306   6.782   5.735  0.4405  0.3794 -0.1411
10529TIP3    H131544   6.365   6.845   5.778 -1.3161  2.5478 -0.6710
10529TIP3    H231545   6.314   6.702   5.787  0.1420  2.1561  2.8860
10530TIP3   OH231546   1.305   5.615   5.568 -0.2704 -0.0632 -0.7014
10530TIP3    H131547   1.266   5.592   5.653  1.4086 -0.1534  0.0897
10530TIP3    H231548   1.267   5.700   5.547  0.8495  1.0084  1.2457
10531TIP3   OH231549   8.189   7.124   6.668  1.1806  0.3484 -0.4817
10531TIP3    H131550   8.128   7.050   6.661  2.2761 -0.7461  1.0817
10531TIP3    H231551   8.149   7.183   6.732  1.8153 -0.4814  0.7195
10532TIP3   OH231552   7.589   4.324   0.206  0.2940 -0.3116  0.8635
10532TIP3    H131553   7.641   4.301   0.129 -0.9328  0.7040 -0.3057
10532TIP3    H231554   7.593   4.245   0.261  2.0057 -0.7090  0.2574
10533TIP3   OH231555   4.615   7.115   4.138  0.4813 -0.0471  0.4165
10533TIP3    H131556   4.588   7.050   4.072  0.5575 -1.9593  2.1763
10533TIP3    H231557   4.683   7.071   4.188  1.5686  1.9666  0.8090
10534TIP3   OH231558   6.160   4.564   0.093 -0.0204 -0.0505 -0.1688
10534TIP3    H131559   6.110   4.638   0.126 -0.9648 -0.7897  0.1111
10534TIP3    H231560   6.143   4.493   0.155  0.5794 -0.6105 -0.6210
10535TIP3   OH231561   1.918   6.938   4.422  0.1953 -0.6109  0.0283
10535TIP3    H131562   1.918   6.965   4.331  3.4893 -3.2567 -0.9696
10535TIP3    H231563   1.990   6.988   4.461 -1.2179  0.5467  1.2954
10536TIP3   OH231564   1.027   6.430   6.747 -0.5095  0.6438  0.0246
10536TIP3    H131565   1.123   6.426   6.749 -0.4788  1.6780  1.1542
10536TIP3    H231566   1.007   6.522   6.734 -1.3547  0.6457  1.2008
10537TIP3   OH231567   3.437   5.615   4.918 -0.4612 -0.9557 -0.6364
10537TIP3    H131568   3.480   5.618   5.004 -0.2018  0.9270 -0.7756
10537TIP3    H231569   3.495   5.561   4.864  0.5510 -0.3501 -0.1955
10538TIP3   OH231570   3.275   5.988   6.253  0.8662  0.1031  0.3258
10538TIP3    H131571   3.196   6.037   6.276  1.0911  0.5402  0.1837
10538TIP3    H231572   3.326   5.986   6.335 -0.3019 -2.1943  1.0996
10539TIP3   OH231573   3.163   7.387   0.623 -0.2959  0.3978 -0.5311
10539TIP3    H131574   3.206   7.316   0.576  0.9488  1.0709 -0.4652
10539TIP3    H231575   3.071   7.363   0.624  0.1733 -1.5391  0.0613
10540TIP3   OH231576   0.697   5.062   5.231 -0.2385 -0.1740 -0.6302
10540TIP3    H131577   0.710   5.083   5.324  4.5425 -1.4169 -0.7828
10540TIP3    H231578   0.652   4.977   5.232  0.5939 -0.6374  0.6455
10541TIP3   OH231579   3.381   1.483   5.489 -0.0572  0.3594  0.0836
10541TIP3    H131580   3.383   1.560   5.545  0.1554  0.1062  0.4319
10541TIP3    H231581   3.294   1.485   5.448 -0.4103  0.2745  0.8101
10542TIP3   OH231582   2.301   0.877   6.624  0.5957  0.4467  0.0642
10542TIP3    H131583   2.352   0.905   6.700  0.3131 -0.5727  0.6502
10542TIP3    H231584   2.226   0.936   6.622  0.9695  0.9367  0.1435
10543TIP3   OH231585   3.119   0.120   1.191  0.2166  0.1463  0.1765
10543TIP3    H131586   3.168   0.137   1.111 -0.9820  1.0714 -0.3801
10543TIP3    H231587   3.114   0.024   1.196 -1.2529  0.0648 -1.8629
10544TIP3   OH231588   3.827   1.022   3.740 -0.5036 -0.2811  0.1971
10544TIP3    H131589   3.829   0.930   3.766 -0.1221  0.2409  2.1710
10544TIP3    H231590   3.734   1.040   3.725 -0.5769 -0.9812 -0.2359
10545TIP3   OH231591   1.565   0.876   6.583  0.9175  0.1580 -0.3188
10545TIP3    H131592   1.564   0.923   6.500 -1.2428 -0.3789 -0.6434
10545TIP3    H231593   1.480   0.894   6.623  1.7516  0.0604  1.6047
10546TIP3   OH231594   2.884   4.903   6.576 -0.7937 -0.6183  0.2150
10546TIP3    H131595   2.919   4.879   6.490 -0.4150  0.0606  0.1781
10546TIP3    H231596   2.960   4.899   6.635 -0.7614  0.2809  0.2476
10547TIP3   OH231597   0.605   2.236   1.707 -0.7802 -0.0244  0.4557
10547TIP3    H131598   0.625   2.317   1.661 -2.7661  0.6852  0.7406
10547TIP3    H231599   0.646   2.167   1.654 -0.3763  1.0347 -0.6467
10548TIP3   OH231600   2.679   6.557   1.428 -0.4524 -0.6172 -0.0063
10548TIP3    H131601   2.616   6.616   1.470 -0.3011 -0.1997 -0.3560
10548TIP3    H231602   2.658   6.471   1.464 -0.2708 -0.2617  0.9889
10549TIP3   OH231603   0.136   0.224   6.072  0.3435  0.1864 -0.2079
10549TIP3    H131604   0.190   0.150   6.043  1.1768  0.9232 -0.6061
10549TIP3    H231605   0.186   0.301   6.044  0.9104  0.9672  2.6918
10550TIP3   OH231606   7.866   1.755   1.469  0.3149 -0.6517 -0.5331
10550TIP3    H131607   7.780   1.777   1.505  0.8184  0.0535  0.2640
10550TIP3    H231608   7.873   1.808   1.390 -0.2382 -1.2006 -0.9675
10551TIP3   OH231609   7.800   6.811   6.397 -0.5180  0.0491  0.0805
10551TIP3    H131610   7.788   6.716   6.397 -0.6976  0.0722 -0.0073
10551TIP3    H231611   7.786   6.837   6.306  0.9783 -0.0270 -0.2006
10552TIP3   OH231612   6.722   2.205   1.313  0.2632  0.2977  0.2272
10552TIP3    H131613   6.727   2.195   1.218 -0.7179  1.1159  0.0678
10552TIP3    H231614   6.677   2.126   1.342 -0.9362  0.7977 -0.1977
10553TIP3   OH231615   4.339   2.765   3.116  0.2405 -0.1332  0.3273
10553TIP3    H131616   4.303   2.834   3.061  2.2604 -0.0196 -0.9541
10553TIP3    H231617   4.307   2.684   3.077 -2.4924 -0.0469  2.0873
10554TIP3   OH231618   5.872   3.075   1.295 -0.6311  0.0906  0.1597
10554TIP3    H131619   5.873   3.093   1.201  1.6563 -0.1432  0.0847
10554TIP3    H231620   5.840   2.986   1.302  2.5393 -1.2537 -0.7825
10555TIP3   OH231621   3.047   3.239   1.823  0.3159 -0.5398 -0.0200
10555TIP3    H131622   3.070   3.270   1.910  1.8098  0.0854 -0.6017
10555TIP3    H231623   3.126   3.196   1.791 -0.0093 -0.2367 -1.2999
10556TIP3   OH231624   5.513   0.478   5.950  0.0520 -0.4915  0.1603
10556TIP3    H131625   5.457   0.452   6.023 -0.2568  1.4567  0.6709
10556TIP3    H231626   5.453   0.494   5.877 -0.0976  1.2940  0.6196
10557TIP3   OH231627   2.075   6.490   4.049 -0.1435 -0.8874 -0.2368
10557TIP3    H131628   2.102   6.425   4.114  0.4768  0.2886  0.7031
10557TIP3    H231629   2.054   6.568   4.099  3.9224  1.3131 -1.5623
10558TIP3   OH231630   5.889   2.584   2.355 -0.1746  0.2445 -0.2840
10558TIP3    H131631   5.818   2.543   2.404 -0.9026  2.6218  0.8278
10558TIP3    H231632   5.851   2.605   2.270  0.5928 -2.3948 -1.3635
10559TIP3   OH231633   2.571   4.182   4.597  0.0674  0.5468 -0.1350
10559TIP3    H131634   2.519   4.112   4.637  1.1542  0.3609  1.0062
10559TIP3    H231635   2.658   4.145   4.584  0.1514  1.1038 -1.2916
10560TIP3   OH231636   4.535   3.881   3.778  0.2299  0.6430  0.6439
10560TIP3    H131637   4.509   3.963   3.820  1.4146  1.5662 -0.3101
10560TIP3    H231638   4.567   3.908   3.691 -0.4044 -0.9668 -0.1300
10561TIP3   OH231639   1.716   5.202   5.284 -0.0757  0.3654 -0.3219
10561TIP3    H131640   1.719   5.118   5.331 -1.4915  1.0061  0.9841
10561TIP3    H231641   1.624   5.228   5.288  0.2184  1.6471 -1.3598
10562TIP3   OH231642   3.881   3.632   5.353 -0.0540 -0.6353 -0.4165
10562TIP3    H131643   3.909   3.658   5.440 -1.2604 -2.3257  0.5355
10562TIP3    H231644   3.824   3.703   5.324 -1.4082 -1.0485  1.1195
10563TIP3   OH231645   3.735   0.243   2.913  0.0297 -0.0783 -0.1370
10563TIP3    H131646   3.773   0.219   2.829 -1.9589 -1.6259 -0.6721
10563TIP3    H231647   3.691   0.326   2.897 -0.2962 -0.3428 -0.6121
10564TIP3   OH231648   1.512   2.360   3.151 -0.0993  0.3271  0.1010
10564TIP3    H131649   1.511   2.410   3.233  0.5662 -0.0171  0.3212
10564TIP3    H231650   1.419   2.343   3.133 -0.2076 -0.4615  1.3097
10565TIP3   OH231651   7.142   4.567   5.825 -0.6672  0.0968  0.3074
10565TIP3    H131652   7.136   4.662   5.810 -1.6362  0.2207  1.3641
10565TIP3    H231653   7.173   4.559   5.915 -0.1156 -0.6008  0.0612
10566TIP3   OH231654   6.181   0.778   1.770  0.1262  0.0944 -0.3044
10566TIP3    H131655   6.140   0.758   1.686  0.2188 -0.6357 -0.1844
10566TIP3    H231656   6.181   0.874   1.775 -1.6453  0.1209 -0.2621
10567TIP3   OH231657   4.766   1.891   2.714 -0.4133  0.4059 -0.0570
10567TIP3    H131658   4.687   1.895   2.660 -1.7649  0.7659  1.8687
10567TIP3    H231659   4.765   1.973   2.763 -0.0752 -0.5664  1.6291
10568TIP3   OH231660   1.642   0.699   2.289 -0.0431  0.2498  0.1705
10568TIP3    H131661   1.651   0.703   2.384  0.1889  1.7802  0.1094
10568TIP3    H231662   1.731   0.702   2.256 -0.1653  0.9121 -0.1147
10569TIP3   OH231663   6.621   1.909   5.177 -0.2590  0.3985  0.0495
10569TIP3    H131664   6.641   1.847   5.107  0.0400 -0.3671  0.7967
10569TIP3    H231665   6.580   1.856   5.245 -0.7081  1.1630  0.3833
10570TIP3   OH231666   8.013   4.932   4.770  0.2119 -0.1190 -0.0447
10570TIP3    H131667   7.934   4.985   4.779 -0.2183 -0.6860 -0.4289
10570TIP3    H231668   8.071   4.963   4.841 -0.5666 -0.0876  0.5889
10571TIP3   OH231669   0.544   5.629   0.921 -0.0718 -0.0693  0.5583
10571TIP3    H131670   0.548   5.552   0.978  0.1841 -0.4676  0.0151
10571TIP3    H231671   0.628   5.674   0.936  0.2571 -0.5009  0.0568
10572TIP3   OH231672   7.915   2.568   4.101  0.0996 -0.2041  0.4034
10572TIP3    H131673   7.993   2.581   4.155 -0.4013  0.5126  0.9722
10572TIP3    H231674   7.938   2.496   4.043  0.8202 -0.6805  1.2555
10573TIP3   OH231675   2.618   1.234   1.462 -0.4314 -0.0888 -0.0153
10573TIP3    H131676   2.617   1.205   1.371  0.2644 -1.5948  0.4208
10573TIP3    H231677   2.550   1.301   1.467 -1.4288 -0.9563 -1.3215
10574TIP3   OH231678   5.696   0.324   1.379 -0.1948  0.5243 -0.5567
10574TIP3    H131679   5.773   0.371   1.346 -0.1062  0.8697  0.1258
10574TIP3    H231680   5.732   0.242   1.415  0.0511  1.2599  0.9654
10575TIP3   OH231681   1.047   7.046   4.102 -0.3881 -0.5063  0.4119
10575TIP3    H131682   1.070   6.954   4.093  0.3469 -0.1653 -1.6826
10575TIP3    H231683   0.957   7.052   4.071 -1.2818 -0.8268  2.7224
10576TIP3   OH231684   2.380   1.610   2.132 -0.0655 -0.2097  0.4581
10576TIP3    H131685   2.393   1.627   2.225 -0.0211  2.3694  0.0396
10576TIP3    H231686   2.307   1.548   2.129 -0.0850 -0.3249  2.1960
10577TIP3   OH231687   1.396   4.672   1.117 -0.3598  0.1326  0.6654
10577TIP3    H131688   1.302   4.669   1.134 -0.7429  0.8179 -1.1329
10577TIP3    H231689   1.432   4.724   1.190 -1.3143 -0.3957  1.5317
10578TIP3   OH231690   0.151   2.681   5.851 -0.4871 -0.5371  0.0498
10578TIP3    H131691   0.197   2.598   5.841 -0.5545 -0.5011 -0.6803
10578TIP3    H231692   0.058   2.657   5.855 -0.6398 -0.4258 -1.8012
10579TIP3   OH231693   2.135   1.960   6.065 -0.5698 -0.1561  0.0029
10579TIP3    H131694   2.115   1.889   6.126  1.1956 -0.5792  0.1462
10579TIP3    H231695   2.229   1.953   6.051 -0.8607  0.0726 -2.5960
10580TIP3   OH231696   3.384   0.727   3.166  0.3131 -0.7396 -0.2695
10580TIP3    H131697   3.291   0.752   3.167  0.1042 -1.5068 -0.4271
10580TIP3    H231698   3.409   0.733   3.074  1.0183  1.5712 -0.0150
10581TIP3   OH231699   0.339   1.519   1.202  0.1043  0.1856  0.0305
10581TIP3    H131700   0.245   1.538   1.200 -0.0129 -0.3717  0.1773
10581TIP3    H231701   0.351   1.451   1.136  0.9507  2.5388 -2.4305
10582TIP3   OH231702   7.069   2.240   2.959 -0.1471  0.0594  0.5432
10582TIP3    H131703   7.078   2.176   3.029 -1.1745 -0.9531 -0.2157
10582TIP3    H231704   7.042   2.189   2.882 -0.7128  1.3508 -0.1533
10583TIP3   OH231705   6.641   4.757   6.214  0.2119  0.0164  0.2353
10583TIP3    H131706   6.701   4.788   6.146  0.8896  0.7408  1.1466
10583TIP3    H231707   6.688   4.772   6.296 -1.4485  1.2037  1.0248
10584TIP3   OH231708   1.566   1.637   4.052  0.2526 -0.2373  0.1028
10584TIP3    H131709   1.509   1.566   4.082 -0.1360 -0.9164 -2.0843
10584TIP3    H231710   1.506   1.704   4.018  0.6927  0.1984  0.1700
10585TIP3   OH231711   8.102   1.306   4.986  0.1265  0.3010  0.3578
10585TIP3    H131712   8.035   1.268   5.043 -0.4362  0.1102 -0.4057
10585TIP3    H231713   8.181   1.310   5.040  0.0683 -1.4715  0.6446
10586TIP3   OH231714   4.207   1.113   3.704  0.5174  0.1136 -0.2308
10586TIP3    H131715   4.265   1.178   3.743 -0.2735  0.7776 -0.1153
10586TIP3    H231716   4.186   1.052   3.775  0.0179  0.6434  0.0877
10587TIP3   OH231717   5.810   3.713   3.393 -0.1109  0.1157  0.0217
10587TIP3    H131718   5.746   3.782   3.377 -1.1974 -0.9200 -0.2271
10587TIP3    H231719   5.874   3.724   3.323  0.2772  1.4552  0.5437
10588TIP3   OH231720   0.468   0.263   0.230 -0.1059  0.2270  0.3607
10588TIP3    H131721   0.444   0.295   0.143 -3.2987 -0.5365  0.8333
10588TIP3    H231722   0.492   0.171   0.215 -2.0368 -0.3278  0.3746
10589TIP3   OH231723   4.178   7.109   1.574 -0.2166  0.2904  0.0753
10589TIP3    H131724   4.137   7.039   1.523  0.6445 -0.2014  0.0341
10589TIP3    H231725   4.265   7.074   1.596 -0.4222  0.6584  1.5417
10590TIP3   OH231726   7.871   0.798   2.014  0.2506 -0.0324  0.2683
10590TIP3    H131727   7.798   0.859   2.003  1.5850  1.5950  0.0309
10590TIP3    H231728   7.861   0.766   2.104  0.1696  1.4959  0.8503
10591TIP3   OH231729   4.163   0.627   1.837  0.1025 -0.1076  0.8202
10591TIP3    H131730   4.156   0.591   1.749  2.6839  0.6206  0.2103
10591TIP3    H231731   4.102   0.576   1.890 -1.2693 -0.7757 -1.3154
10592TIP3   OH231732   0.966   5.032   0.621  0.0157  0.3728  0.2105
10592TIP3    H131733   1.035   5.006   0.681 -0.4141 -1.1607  0.0724
10592TIP3    H231734   0.911   4.954   0.612 -0.7448  1.0229 -1.0315
10593TIP3   OH231735   1.343   1.724   5.287  0.2853 -0.7084  0.4580
10593TIP3    H131736   1.364   1.804   5.333  1.7771  0.0454 -1.3888
10593TIP3    H231737   1.260   1.694   5.325 -0.6202  2.0176  0.7925
10594TIP3   OH231738   7.908   7.569   4.963 -0.1292  0.4432 -0.5398
10594TIP3    H131739   7.921   7.582   4.869  2.1550 -0.7379 -0.4473
10594TIP3    H231740   7.853   7.491   4.969  2.4150 -1.5223 -0.9751
10595TIP3   OH231741   6.872   7.074   0.385  0.3205  0.2186 -0.3576
10595TIP3    H131742   6.880   6.986   0.422 -0.3084 -0.5634 -1.9770
10595TIP3    H231743   6.820   7.062   0.306  1.1701  1.8778 -1.2251
10596TIP3   OH231744   6.511   7.351   3.759 -0.3771  0.0347  0.6666
10596TIP3    H131745   6.566   7.301   3.699 -0.3762 -0.5202  1.1239
10596TIP3    H231746   6.446   7.289   3.790 -0.4687  0.3551  1.1306
10597TIP3   OH231747   3.166   4.913   3.662  0.1771  0.2729 -0.0083
10597TIP3    H131748   3.084   4.932   3.707 -0.0327  0.6126 -0.5264
10597TIP3    H231749   3.145   4.840   3.605  0.5260 -0.3694  0.6693
10598TIP3   OH231750   7.522   1.903   4.181 -0.3257  0.4698  0.1562
10598TIP3    H131751   7.580   1.865   4.247 -3.6574 -1.3267  2.3021
10598TIP3    H231752   7.546   1.996   4.179  2.0119 -0.0196  1.4540
10599TIP3   OH231753   1.976   6.785   2.727 -0.0172  0.4907 -0.0652
10599TIP3    H131754   2.064   6.793   2.692  0.2128  1.3340  0.6754
10599TIP3    H231755   1.964   6.863   2.782 -0.7987 -0.1812  0.7581
10600TIP3   OH231756   0.605   0.117   5.220 -0.1025  0.7305  0.3855
10600TIP3    H131757   0.657   0.049   5.263 -0.2125 -0.0933 -0.7312
10600TIP3    H231758   0.645   0.199   5.249  0.0180  0.2073  1.7808
10601TIP3   OH231759   0.444   0.696   3.283  0.1037  0.8268 -0.2818
10601TIP3    H131760   0.477   0.685   3.372  1.7211  0.3112 -0.8889
10601TIP3    H231761   0.432   0.607   3.251 -0.5856  1.0108 -0.5417
10602TIP3   OH231762   4.040   0.169   2.943 -0.2884  0.2171  0.4783
10602TIP3    H131763   4.062   0.208   2.858  0.5801  1.1085  1.0864
10602TIP3    H231764   4.026   0.244   3.000  1.9123 -0.3076  1.8110
10603TIP3   OH231765   2.387   7.564   3.064 -0.3952 -0.0247  0.5633
10603TIP3    H131766   2.421   7.478   3.043  1.0366  0.7707 -0.5708
10603TIP3    H231767   2.413   7.579   3.155 -0.6304 -0.7619  0.7535
10604TIP3   OH231768   0.755   2.592   1.792 -0.6405 -0.0188  0.0507
10604TIP3    H131769   0.815   2.520   1.811 -0.2759  0.2616 -0.0094
10604TIP3    H231770   0.689   2.588   1.861  0.8241  1.1635  1.6237
10605TIP3   OH231771   2.437   5.242   1.994 -0.0080  0.3629  0.2780
10605TIP3    H131772   2.464   5.229   1.903  1.0081 -1.4889  0.7835
10605TIP3    H231773   2.348   5.207   1.998  0.9719 -2.3904  0.5377
10606TIP3   OH231774   1.259   2.412   1.302 -0.4702  0.7159  0.3314
10606TIP3    H131775   1.221   2.352   1.367 -1.0865  0.7161 -0.0218
10606TIP3    H231776   1.308   2.355   1.243  0.4525  0.7604  1.0343
10607TIP3   OH231777   1.075   5.377   3.727 -0.0383  0.5724 -0.2517
10607TIP3    H131778   1.117   5.342   3.648 -0.7039 -2.4499  0.6031
10607TIP3    H231779   1.144   5.376   3.793 -0.5294 -1.1984  0.2893
10608TIP3   OH231780   5.818   4.218   3.685 -0.7566 -0.3853  0.0355
10608TIP3    H131781   5.866   4.268   3.750 -2.0746 -1.4943  1.9561
10608TIP3    H231782   5.746   4.274   3.659 -1.6705 -0.8627  1.4531
10609TIP3   OH231783   2.495   0.356   4.413 -0.3858 -0.0442 -0.5855
10609TIP3    H131784   2.417   0.380   4.363 -0.0773 -1.2719 -1.7225
10609TIP3    H231785   2.513   0.266   4.387  1.1800  0.0843 -0.0412
10610TIP3   OH231786   1.817   5.479   3.235 -0.2490  0.2396 -0.0818
10610TIP3    H131787   1.776   5.559   3.202 -0.4552  0.8978  1.6664
10610TIP3    H231788   1.767   5.408   3.194 -1.6640  1.0182  0.2273
10611TIP3   OH231789   4.609   3.626   2.157 -0.2208  0.7254  0.0510
10611TIP3    H131790   4.645   3.714   2.168 -0.5266  0.7289  1.0913
10611TIP3    H231791   4.549   3.634   2.083  1.2113  0.9206 -1.1529
10612TIP3   OH231792   0.400   0.072   6.322 -0.1407  0.6585  0.3204
10612TIP3    H131793   0.443   0.133   6.381  1.3905 -0.1219  0.0626
10612TIP3    H231794   0.326   0.038   6.373  0.3997  0.9481  1.3286
10613TIP3   OH231795   6.549   1.780   0.777 -0.5719  0.2274  0.7137
10613TIP3    H131796   6.480   1.734   0.825  1.1276 -1.0270  2.0477
10613TIP3    H231797   6.598   1.828   0.843 -0.3631  1.4204 -0.2630
10614TIP3   OH231798   7.387   7.246   2.562 -0.2032  0.5838  0.1508
10614TIP3    H131799   7.398   7.338   2.584  0.6560  0.9589 -1.6745
10614TIP3    H231800   7.449   7.231   2.490 -0.3393 -1.4109  0.4007
10615TIP3   OH231801   1.426   2.828   5.601  0.5500  0.2050 -0.4205
10615TIP3    H131802   1.364   2.771   5.646 -0.1869  0.9124 -0.5253
10615TIP3    H231803   1.397   2.916   5.622  1.1124  0.5433 -1.0431
10616TIP3   OH231804   3.583   1.103   0.060  0.4624  0.0112  0.6021
10616TIP3    H131805   3.630   1.186   0.070  0.3905  0.0043  0.9816
10616TIP3    H231806   3.535   1.113  -0.023  1.2461 -0.0420  0.1326
10617TIP3   OH231807   5.888   4.146   1.558 -0.1450  0.0465  0.5587
10617TIP3    H131808   5.865   4.234   1.526  1.6433  0.5497  0.5558
10617TIP3    H231809   5.811   4.118   1.608 -0.8177  1.5483  0.4206
10618TIP3   OH231810   8.318   0.358   1.565 -0.3402 -0.4562  0.3443
10618TIP3    H131811   8.233   0.389   1.533 -1.5050 -1.2649  2.4878
10618TIP3    H231812   8.330   0.403   1.648  2.7812  1.8813 -1.1525
10619TIP3   OH231813   3.613   3.669   3.632  0.0789 -0.5282  0.4119
10619TIP3    H131814   3.650   3.723   3.702  2.8389 -0.4192 -0.9956
10619TIP3    H231815   3.556   3.728   3.583  0.9607  0.3997  0.4740
10620TIP3   OH231816   0.407   7.540   1.454 -0.1695 -0.3866  0.0697
10620TIP3    H131817   0.478   7.601   1.437 -1.2805  0.5359 -1.5290
10620TIP3    H231818   0.421   7.468   1.392  0.5530 -1.3027  1.2424
10621TIP3   OH231819   6.224   0.566   4.421  0.2081  0.4837  0.0062
10621TIP3    H131820   6.299   0.622   4.399  0.1175  1.1183  1.2559
10621TIP3    H231821   6.148   0.621   4.406  0.0821  0.4521  0.5167
10622TIP3   OH231822   2.379   1.818   5.174  0.1363  0.5167  0.0987
10622TIP3    H131823   2.399   1.868   5.095  0.6766 -2.6002 -1.9394
10622TIP3    H231824   2.458   1.767   5.191 -0.7286 -0.4882  1.3618
10623TIP3   OH231825   1.910   3.647   4.584 -0.1639 -0.2925  0.3326
10623TIP3    H131826   1.936   3.555   4.593 -2.0540 -0.7963  1.1281
10623TIP3    H231827   1.815   3.644   4.577 -0.5223  1.7139  2.8598
10624TIP3   OH231828   0.406   4.895   5.459 -0.0020  0.3392 -0.9476
10624TIP3    H131829   0.336   4.867   5.519  0.9149  0.2398  0.1012
10624TIP3    H231830   0.383   4.986   5.437 -0.5960  0.2267 -0.8185
10625TIP3   OH231831   1.927   1.066   2.576  0.3915 -0.1291  0.1108
10625TIP3    H131832   1.940   0.992   2.517  0.1666  0.5137 -0.7763
10625TIP3    H231833   1.884   1.133   2.522  2.0006  1.2410  0.4243
10626TIP3   OH231834   3.825   2.726   0.601  0.4435 -0.6949  0.0304
10626TIP3    H131835   3.825   2.775   0.519 -0.1068 -0.0759  0.3871
10626TIP3    H231836   3.779   2.645   0.581 -0.4717 -0.1645 -0.0648
10627TIP3   OH231837   2.517   6.307   5.281 -0.4306 -0.0584  0.2169
10627TIP3    H131838   2.603   6.271   5.304 -0.8734  0.0487  2.2189
10627TIP3    H231839   2.461   6.230   5.269 -0.2249 -0.1151 -0.3824
10628TIP3   OH231840   5.037   0.082   4.710  0.0899  0.1103 -0.1025
10628TIP3    H131841   5.000   0.144   4.773  0.4358  1.0253 -0.7682
10628TIP3    H231842   5.002  -0.003   4.736 -0.8787  0.6653  0.4808
10629TIP3   OH231843   7.957   0.342   2.290 -0.8174  0.1567 -0.3333
10629TIP3    H131844   7.992   0.430   2.277  1.8215 -0.6866  0.3710
10629TIP3    H231845   7.903   0.348   2.369 -1.4207  1.2888 -0.8138
10630TIP3   OH231846   7.144   5.948   6.486 -0.4694  0.1198  0.1572
10630TIP3    H131847   7.219   5.928   6.429 -1.2487 -0.6825 -0.6059
10630TIP3    H231848   7.077   5.885   6.461 -0.4678 -1.0376  2.7775
10631TIP3   OH231849   1.142   4.074   5.803 -0.4853 -0.4102 -0.0662
10631TIP3    H131850   1.158   4.022   5.724  0.7336 -0.2519  0.0479
10631TIP3    H231851   1.188   4.157   5.786  0.2923 -0.6047  1.0466
10632TIP3   OH231852   7.671   3.692   4.557 -0.4480  0.1937  0.0607
10632TIP3    H131853   7.625   3.648   4.485  1.5379 -1.4639 -0.2894
10632TIP3    H231854   7.731   3.752   4.514  0.1494 -0.1873  0.3581
10633TIP3   OH231855   4.564   3.772   2.821  0.4450  0.0445  0.0288
10633TIP3    H131856   4.575   3.687   2.864 -0.4188 -0.3501 -0.5117
10633TIP3    H231857   4.492   3.814   2.868 -0.6128 -0.4543 -1.0815
10634TIP3   OH231858   7.475   3.568   2.864 -0.3214 -0.2341  0.0806
10634TIP3    H131859   7.445   3.482   2.894 -2.0292  0.1908 -0.2789
10634TIP3    H231860   7.570   3.565   2.875 -0.5161 -1.4234  1.9867
10635TIP3   OH231861   6.556   6.176   5.453  0.2295  0.1366  0.0427
10635TIP3    H131862   6.574   6.269   5.464  2.4166 -0.3576  1.2958
10635TIP3    H231863   6.605   6.151   5.374  1.6996 -0.3526  1.0420
10636TIP3   OH231864   7.670   7.028   5.745  0.2011 -0.3436 -0.5443
10636TIP3    H131865   7.735   7.081   5.791 -0.8513  1.7517 -1.3516
10636TIP3    H231866   7.697   7.033   5.653 -0.4626 -0.3813 -0.7426
10637TIP3   OH231867   4.945   5.902   6.269  0.4336  0.3378 -0.6235
10637TIP3    H131868   4.909   5.987   6.242  0.3434  0.4033 -0.3020
10637TIP3    H231869   5.003   5.877   6.197 -0.5268  0.0551 -1.3209
10638TIP3   OH231870   2.553   0.410   2.706 -0.7182 -0.0740  0.1768
10638TIP3    H131871   2.542   0.316   2.714  1.6684 -0.4956 -0.4994
10638TIP3    H231872   2.600   0.436   2.785  1.1091  0.0027 -0.8719
10639TIP3   OH231873   3.122   4.718   1.703 -0.3330 -0.4383 -0.3378
10639TIP3    H131874   3.193   4.714   1.767 -1.4206  1.8585  1.1572
10639TIP3    H231875   3.053   4.663   1.739  0.4592 -2.4446 -1.6562
10640TIP3   OH231876   0.932   3.856   0.285 -0.7350 -0.1498 -0.3862
10640TIP3    H131877   0.864   3.806   0.240 -0.4414 -0.9192  0.0079
10640TIP3    H231878   0.983   3.791   0.332  0.1126  0.4448 -0.4458
10641TIP3   OH231879   2.074   5.449   5.320 -0.2462  0.7037 -0.1230
10641TIP3    H131880   2.058   5.468   5.228  0.0052 -0.8323 -0.5186
10641TIP3    H231881   2.169   5.443   5.328 -0.3104 -0.8635 -0.1748
10642TIP3   OH231882   4.331   4.130   2.731  0.1261  0.1986  0.0488
10642TIP3    H131883   4.406   4.189   2.723  0.1901  0.0852 -0.1828
10642TIP3    H231884   4.255   4.189   2.735  0.0922  0.2782 -1.2908
10643TIP3   OH231885   5.145   1.388   1.598 -0.4574  0.1273 -0.4456
10643TIP3    H131886   5.116   1.466   1.552  0.0926  1.9763  2.1401
10643TIP3    H231887   5.235   1.374   1.566 -0.6993  0.2692 -1.2230
10644TIP3   OH231888   7.565   2.733   0.818 -0.4618  0.1962  0.4381
10644TIP3    H131889   7.557   2.825   0.794  0.3304 -0.0298 -0.7914
10644TIP3    H231890   7.519   2.725   0.902 -0.2867  1.7572  0.7028
10645TIP3   OH231891   5.716   5.549   3.990 -0.3712 -1.1881 -0.2736
10645TIP3    H131892   5.645   5.604   4.023 -0.4716 -1.1867 -0.4893
10645TIP3    H231893   5.791   5.608   3.985 -0.4712 -1.0770 -0.4781
10646TIP3   OH231894   4.005   4.512   5.203  0.1907  0.1632 -0.0871
10646TIP3    H131895   3.996   4.416   5.201 -0.5827  0.2348 -0.7714
10646TIP3    H231896   4.098   4.527   5.221  0.3547 -0.7161 -0.1454
10647TIP3   OH231897   1.078   0.962   4.220  0.4433  0.0090  0.3953
10647TIP3    H131898   1.099   0.912   4.141  0.7861 -1.5682  1.4309
10647TIP3    H231899   1.115   1.049   4.204  0.3613 -0.2211 -1.2322
10648TIP3   OH231900   6.285   5.056   3.689 -0.6251  0.1564  0.2521
10648TIP3    H131901   6.293   5.151   3.683 -1.6657  0.2399  0.0511
10648TIP3    H231902   6.373   5.023   3.671 -0.0274  1.1144  1.2704
10649TIP3   OH231903   0.577   4.159   0.199 -0.1238  0.3211  0.7682
10649TIP3    H131904   0.550   4.105   0.274 -0.7084 -1.2560 -0.4986
10649TIP3    H231905   0.658   4.118   0.168  0.1675  1.0204  0.6009
10650TIP3   OH231906   1.315   7.623   0.780  0.1440  0.0450 -0.0018
10650TIP3    H131907   1.253   7.615   0.707  0.0455 -1.3341  0.2028
10650TIP3    H231908   1.325   7.533   0.812  1.6602  0.3665  0.4661
10651TIP3   OH231909   1.744   4.433   1.611  0.3404 -0.1589 -0.1097
10651TIP3    H131910   1.813   4.367   1.620 -1.6071 -2.2611  0.4288
10651TIP3    H231911   1.729   4.464   1.701  0.6203  0.3325 -0.2318
10652TIP3   OH231912   0.199   1.238   6.278  0.1191  0.5906  0.3218
10652TIP3    H131913   0.148   1.294   6.219  1.9750 -1.2077 -3.3076
10652TIP3    H231914   0.290   1.266   6.264  0.7079 -0.4559  1.8112
10653TIP3   OH231915   8.064   0.364   4.757  0.2060 -0.4842 -0.0117
10653TIP3    H131916   8.104   0.314   4.686 -2.4795 -2.3799 -0.3411
10653TIP3    H231917   8.045   0.298   4.824 -0.9149  0.5889  0.7609
10654TIP3   OH231918   7.974   0.676   3.132 -0.0085  0.3144 -0.0775
10654TIP3    H131919   7.988   0.666   3.038 -2.1252  0.5336 -0.4546
10654TIP3    H231920   7.960   0.769   3.145  0.3742  0.2999  0.4940
10655TIP3   OH231921   1.975   2.451   2.553  0.4452 -0.6013 -0.0091
10655TIP3    H131922   1.965   2.366   2.509  0.0486 -0.6694  0.2052
10655TIP3    H231923   1.895   2.461   2.604  0.5778 -0.1856  0.1228
10656TIP3   OH231924   6.257   4.895   5.742 -0.6770  0.4559  0.2871
10656TIP3    H131925   6.333   4.887   5.685 -1.0188  0.4054 -0.1767
10656TIP3    H231926   6.211   4.973   5.709 -1.3005 -0.0327 -0.0273
10657TIP3   OH231927   1.293   0.046   3.283  0.2707  0.6257 -0.1210
10657TIP3    H131928   1.234   0.006   3.219  1.6693 -1.0414 -0.4485
10657TIP3    H231929   1.338   0.115   3.234  1.4644 -0.7530 -1.0667
10658TIP3   OH231930   2.810   0.027   0.919 -0.0564 -0.0986  0.5766
10658TIP3    H131931   2.795   0.099   0.980 -2.4553 -1.2914  1.5280
10658TIP3    H231932   2.832   0.069   0.836 -0.2439  1.6802  1.3916
10659TIP3   OH231933   3.984   1.676   6.807  0.8182 -0.5897 -0.2352
10659TIP3    H131934   3.921   1.623   6.757 -0.6098  1.1925 -0.4115
10659TIP3    H231935   4.064   1.674   6.753  0.6649 -2.1363 -0.4619
10660TIP3   OH231936   1.338   0.070   3.999 -0.6475  0.1775 -0.4119
10660TIP3    H131937   1.316   0.114   4.081 -0.5924  2.0688 -1.3652
10660TIP3    H231938   1.336  -0.024   4.021 -0.7820  0.6219  1.6901
10661TIP3   OH231939   7.760   4.409   4.553 -0.5831 -0.6601  0.0935
10661TIP3    H131940   7.764   4.466   4.476  1.9045 -1.2727 -0.3174
10661TIP3    H231941   7.716   4.461   4.620 -0.9045  0.6611 -1.0968
10662TIP3   OH231942   2.040   3.376   6.728  0.0466  0.4431  0.1846
10662TIP3    H131943   2.089   3.452   6.760  0.2474  0.4207 -0.0644
10662TIP3    H231944   2.005   3.336   6.807 -0.0934  0.8154  0.3162
10663TIP3   OH231945   7.067   0.425   0.119 -0.1651 -0.0471  0.5914
10663TIP3    H131946   6.981   0.398   0.088  0.4774 -0.4407 -0.9197
10663TIP3    H231947   7.071   0.519   0.100 -0.3517  0.0231  0.8952
10664TIP3   OH231948   0.929   4.110   6.776 -0.3232 -0.9276 -0.1852
10664TIP3    H131949   1.016   4.081   6.804 -0.1844 -0.2227  0.1129
10664TIP3    H231950   0.915   4.065   6.692 -0.0531 -1.7458  0.1979
10665TIP3   OH231951   2.575   3.361   2.351 -0.0178 -0.0676 -0.1062
10665TIP3    H131952   2.554   3.436   2.407 -0.6837  1.7062 -2.5351
10665TIP3    H231953   2.544   3.387   2.264  0.9336 -2.6580 -1.3247
10666TIP3   OH231954   4.004   2.700   3.090 -0.1566 -0.0749 -0.6430
10666TIP3    H131955   4.061   2.689   3.014 -0.5988 -1.1910 -0.8336
10666TIP3    H231956   3.932   2.638   3.075  0.0215 -0.7144  0.9303
10667TIP3   OH231957   2.638   1.281   2.313  0.5788 -0.2413 -0.3909
10667TIP3    H131958   2.717   1.243   2.275  1.7649  0.8733  0.8399
10667TIP3    H231959   2.670   1.339   2.382 -1.3682 -0.5169  0.8351
10668TIP3   OH231960   1.610   2.610   4.720 -0.0251 -0.3759 -0.1492
10668TIP3    H131961   1.686   2.608   4.779 -0.8981  0.7355  1.0516
10668TIP3    H231962   1.606   2.521   4.684  0.8863 -0.9159  1.0023
10669TIP3   OH231963   8.242   2.674   6.195 -0.4098 -0.2102  0.0672
10669TIP3    H131964   8.230   2.725   6.275  1.5853  1.5059 -0.6384
10669TIP3    H231965   8.191   2.721   6.129 -0.7235 -0.6844 -0.0327
10670TIP3   OH231966   8.052   3.272   6.687  0.6668  0.0927 -0.1972
10670TIP3    H131967   7.998   3.278   6.609  1.0839  2.1053 -0.3780
10670TIP3    H231968   7.998   3.224   6.750  0.5449 -2.0677 -1.8337
10671TIP3   OH231969   6.515   7.303   1.008 -0.6483  0.5850  0.0007
10671TIP3    H131970   6.541   7.360   1.080  0.5126  0.2087 -0.0982
10671TIP3    H231971   6.479   7.361   0.942 -1.4196  0.9696  0.7359
10672TIP3   OH231972   1.837   7.573   1.498 -0.1075  0.4306 -0.3930
10672TIP3    H131973   1.844   7.593   1.591  2.2068  0.7848 -0.5745
10672TIP3    H231974   1.755   7.615   1.470 -1.0775 -0.0874  1.5385
10673TIP3   OH231975   4.631   2.538   4.922 -0.1238  0.0866 -0.6267
10673TIP3    H131976   4.722   2.552   4.947 -0.4233  0.3239  0.3769
10673TIP3    H231977   4.598   2.625   4.901 -0.1787  0.0250 -0.8024
10674TIP3   OH231978   5.310   1.389   4.670  0.2881  0.2040  0.5658
10674TIP3    H131979   5.338   1.323   4.607  0.5496  2.1767 -1.5217
10674TIP3    H231980   5.364   1.373   4.748  2.1425 -0.4938 -0.7971
10675TIP3   OH231981   7.912   2.929   3.752 -0.0499 -0.2733  0.3660
10675TIP3    H131982   8.002   2.955   3.768  0.4460 -2.2630  1.0331
10675TIP3    H231983   7.917   2.866   3.680 -1.2431  1.5229 -1.3985
10676TIP3   OH231984   4.215   7.451   6.519  0.3524 -0.4526 -0.1013
10676TIP3    H131985   4.200   7.360   6.545  0.0440 -0.6694 -1.0100
10676TIP3    H231986   4.209   7.450   6.423  1.5427  0.3023 -0.2014
10677TIP3   OH231987   4.368   5.658   3.177 -0.2073  0.3355 -0.1435
10677TIP3    H131988   4.386   5.751   3.166  0.2646  0.0841 -1.8061
10677TIP3    H231989   4.361   5.625   3.087  1.1611 -1.5236  0.3781
10678TIP3   OH231990   4.805   3.637   0.560 -0.4369 -0.5094 -0.2344
10678TIP3    H131991   4.792   3.725   0.595  0.9618 -0.1544 -0.5691
10678TIP3    H231992   4.719   3.611   0.528 -1.7562 -0.7098  3.0787
10679TIP3   OH231993   2.322   6.571   0.309  0.1528 -0.5218 -0.0934
10679TIP3    H131994   2.335   6.644   0.370 -0.2545 -0.7702  0.2950
10679TIP3    H231995   2.383   6.589   0.237  1.6892 -0.9579  1.0378
10680TIP3   OH231996   4.090   5.383   0.980 -0.2025  0.1613  0.4908
10680TIP3    H131997   4.027   5.448   1.010  0.4110  1.5855 -1.1242
10680TIP3    H231998   4.166   5.394   1.038  0.3186  1.7003 -0.4274
10681TIP3   OH231999   3.592   2.047   0.893  0.4993  0.7880  0.6369
10681TIP3    H132000   3.671   2.023   0.941  0.7142 -2.1487 -0.9410
10681TIP3    H232001   3.622   2.065   0.804 -0.5083  0.4682  0.2211
10682TIP3   OH232002   2.690   7.001   2.261  0.1095  0.4030  0.0918
10682TIP3    H132003   2.784   7.011   2.245  0.0609  0.1836 -0.3449
10682TIP3    H232004   2.649   7.039   2.183 -0.1439 -0.4012 -0.1770
10683TIP3   OH232005   7.640   6.207   3.228 -0.1163 -0.3801 -0.6197
10683TIP3    H132006   7.587   6.164   3.161 -1.0773  1.0570 -0.8306
10683TIP3    H232007   7.717   6.240   3.181  0.0925 -0.9030 -0.6558
10684TIP3   OH232008   0.838   6.701   1.143 -0.1683  0.4225 -0.2857
10684TIP3    H132009   0.830   6.733   1.053 -0.9507  0.4289 -0.2164
10684TIP3    H232010   0.798   6.614   1.142 -1.9762  1.2026  0.4741
10685TIP3   OH232011   5.492   3.078   0.536 -0.1980  0.1827 -0.7562
10685TIP3    H132012   5.569   3.134   0.551  1.2588 -2.0019  0.3344
10685TIP3    H232013   5.463   3.101   0.448  1.7327  1.0362 -1.2171
10686TIP3   OH232014   2.289   6.641   6.737 -0.3536 -0.0674  0.0837
10686TIP3    H132015   2.345   6.630   6.814  1.2027  0.0809 -0.9909
10686TIP3    H232016   2.201   6.652   6.773  0.6827  3.3138  2.0645
10687TIP3   OH232017   7.717   7.578   5.977  0.3080  0.1138  0.1611
10687TIP3    H132018   7.799   7.541   6.011 -0.1814 -0.8488  0.3332
10687TIP3    H232019   7.738   7.607   5.889  1.1570  1.0471  0.6560
10688TIP3   OH232020   6.455   7.102   5.440  0.1031 -0.1220  0.0657
10688TIP3    H132021   6.434   7.128   5.350 -1.6149 -0.2498  0.4053
10688TIP3    H232022   6.499   7.018   5.431 -0.0515 -0.1322 -0.6660
10689TIP3   OH232023   3.888   1.335   5.780  0.0411  0.1124  0.8127
10689TIP3    H132024   3.966   1.389   5.786 -0.0642  0.6793 -1.7694
10689TIP3    H232025   3.833   1.380   5.715 -0.5437 -2.4680 -0.5945
10690TIP3   OH232026   4.770   6.606   4.583 -0.6300  0.5532 -0.9280
10690TIP3    H132027   4.817   6.627   4.503 -1.3414  0.3842 -1.4075
10690TIP3    H232028   4.686   6.569   4.553 -0.8261  0.2923 -0.1108
10691TIP3   OH232029   7.891   3.182   4.224  0.3167 -0.0230  0.1891
10691TIP3    H132030   7.845   3.107   4.185  1.9898 -0.4574 -1.0523
10691TIP3    H232031   7.898   3.160   4.317 -0.3934 -0.7723  0.0793
10692TIP3   OH232032   1.616   5.862   4.550 -0.2810  0.0252 -0.0806
10692TIP3    H132033   1.602   5.877   4.644 -0.7912  1.4407 -0.3681
10692TIP3    H232034   1.646   5.946   4.516 -1.7397  0.0174 -1.4955
10693TIP3   OH232035   7.968   5.657   1.181  0.7874  0.1695 -0.2316
10693TIP3    H132036   8.054   5.631   1.213  0.8537  0.3614 -0.2513
10693TIP3    H232037   7.966   5.625   1.091  0.9795  0.4771 -0.3480
10694TIP3   OH232038   6.084   3.307   3.552 -0.1198 -0.1791 -0.3987
10694TIP3    H132039   6.100   3.381   3.492  1.3648  0.0827  0.2702
10694TIP3    H232040   6.079   3.231   3.495 -0.1435  0.2496 -0.9798
10695TIP3   OH232041   7.040   2.468   0.416  0.0876 -0.8021 -0.4123
10695TIP3    H132042   7.078   2.488   0.502  1.3268  0.4269 -1.2007
10695TIP3    H232043   7.014   2.554   0.381 -0.2744 -1.2706 -1.3355
10696TIP3   OH232044   5.120   6.193   2.033  0.5271 -0.1454 -0.3586
10696TIP3    H132045   5.152   6.270   2.080  1.3422 -0.3465 -0.5529
10696TIP3    H232046   5.029   6.183   2.062  0.4969  0.7165 -0.1174
10697TIP3   OH232047   3.501   2.303   5.212  0.0522  0.2147 -0.5633
10697TIP3    H132048   3.504   2.385   5.262 -0.8128 -1.4878  2.5224
10697TIP3    H232049   3.414   2.302   5.172 -0.0462  0.6716 -0.3632
10698TIP3   OH232050   4.910   3.209   2.776 -0.5986 -0.8322 -0.1460
10698TIP3    H132051   4.998   3.190   2.807  0.6641  0.9935 -2.3502
10698TIP3    H232052   4.901   3.157   2.696 -1.0095 -0.0235 -0.6407
10699TIP3   OH232053   8.255   2.050   3.785  0.0807  0.4466 -0.0190
10699TIP3    H132054   8.204   2.027   3.862  0.1067  1.4418  0.3048
10699TIP3    H232055   8.190   2.062   3.716 -0.0979  1.3381  0.2993
10700TIP3   OH232056   4.602   7.508   5.410 -0.2365 -0.5273 -0.6848
10700TIP3    H132057   4.620   7.563   5.334  0.1672  0.9759  0.4628
10700TIP3    H232058   4.517   7.469   5.390 -1.3636  1.8109 -0.8666
10701TIP3   OH232059   5.467   6.927   4.830  0.4266  0.5724 -0.6402
10701TIP3    H132060   5.387   6.936   4.778  0.0229 -1.5493 -0.4478
10701TIP3    H232061   5.517   7.006   4.809 -1.5907  1.8810 -0.9160
10702TIP3   OH232062   7.348   7.270   5.472  0.0579  0.3046 -0.3287
10702TIP3    H132063   7.353   7.183   5.432  0.2500  0.8667 -1.5880
10702TIP3    H232064   7.278   7.263   5.537  0.5759 -0.9866  0.1335
10703TIP3   OH232065   5.757   1.745   1.048 -0.3744 -0.1169  0.3096
10703TIP3    H132066   5.739   1.744   1.142  0.4060 -0.9043  0.4639
10703TIP3    H232067   5.717   1.664   1.016 -0.1649 -0.1229  0.0619
10704TIP3   OH232068   6.697   5.956   4.054 -0.2247 -0.1038  0.1183
10704TIP3    H132069   6.688   5.865   4.082 -0.9023 -0.4491 -1.1569
10704TIP3    H232070   6.767   5.991   4.108  0.0457 -1.3876  0.6246
10705TIP3   OH232071   1.878   2.605   3.347  0.2212  0.8379 -0.0949
10705TIP3    H132072   1.877   2.652   3.431 -1.2228  1.4048 -0.4047
10705TIP3    H232073   1.826   2.659   3.288  1.0625  0.3586 -1.3326
10706TIP3   OH232074   4.578   0.154   2.628  0.2297 -0.2417 -0.1843
10706TIP3    H132075   4.590   0.216   2.700  0.0684 -0.4650  0.0345
10706TIP3    H232076   4.491   0.173   2.594  0.2870 -0.1684 -0.2961
10707TIP3   OH232077   1.617   1.647   5.162 -0.5887  0.1185 -0.4843
10707TIP3    H132078   1.538   1.700   5.175 -0.5769 -0.0129  0.1733
10707TIP3    H232079   1.596   1.564   5.205 -0.2411 -0.0610 -0.6615
10708TIP3   OH232080   3.979   1.843   4.461  0.0521  0.0354 -0.2380
10708TIP3    H132081   3.883   1.853   4.460  0.2046  2.0493 -0.3552
10708TIP3    H232082   4.007   1.869   4.373  0.8205  1.5594  0.4152
10709TIP3   OH232083   0.457   0.151   6.050 -0.4276 -0.1062 -0.3050
10709TIP3    H132084   0.441   0.101   6.130 -0.9892  1.5345  0.6602
10709TIP3    H232085   0.548   0.181   6.059 -0.1943 -0.6640 -0.7338
10710TIP3   OH232086   3.447   3.633   6.332  0.0675 -0.2456  0.3686
10710TIP3    H132087   3.353   3.615   6.341 -0.1531  0.4252 -0.5134
10710TIP3    H232088   3.451   3.720   6.293  1.0472 -0.6101 -0.3764
10711TIP3   OH232089   8.053   2.026   3.989  0.0435 -0.5450  0.3865
10711TIP3    H132090   7.983   2.058   4.045  1.7021 -0.1611  2.3453
10711TIP3    H232091   8.089   1.949   4.035  2.0591  0.3368  0.4068
10712TIP3   OH232092   7.344   4.158   4.216 -0.6184 -0.2715 -0.1611
10712TIP3    H132093   7.428   4.117   4.236  0.0847  0.1270 -2.0903
10712TIP3    H232094   7.334   4.226   4.282  1.1721  0.4777 -0.6077
10713TIP3   OH232095   3.079   5.625   5.308  0.4823  0.2290  0.2850
10713TIP3    H132096   3.039   5.652   5.391  0.9770  3.2323 -0.3391
10713TIP3    H232097   3.012   5.642   5.242  1.1472  0.8497 -0.2453
10714TIP3   OH232098   3.128   4.332   2.572  0.2583 -0.1784 -0.3897
10714TIP3    H132099   3.156   4.400   2.633  0.4125 -0.7343  0.1637
10714TIP3    H232100   3.206   4.313   2.520 -0.1026  0.9218 -1.3775
10715TIP3   OH232101   5.366   4.904   3.572 -0.2748  0.1146 -0.5455
10715TIP3    H132102   5.398   4.885   3.483  0.6696  0.0292 -0.1976
10715TIP3    H232103   5.362   4.999   3.577  1.0628  0.1686 -0.2150
10716TIP3   OH232104   2.300   7.595   3.661  0.4571  0.1415  0.5567
10716TIP3    H132105   2.212   7.577   3.628  0.6143 -1.6361  0.9957
10716TIP3    H232106   2.357   7.537   3.611  1.4850  1.6515 -0.0993
10717TIP3   OH232107   6.113   2.732   4.974  0.0833 -0.1463 -0.1679
10717TIP3    H132108   6.182   2.665   4.970  0.5458  0.3453 -0.6415
10717TIP3    H232109   6.052   2.707   4.905 -1.5213 -1.9492  1.7753
10718TIP3   OH232110   7.566   2.759   6.512  0.6045  0.5692  0.9622
10718TIP3    H132111   7.503   2.686   6.517 -1.1123  1.8994 -0.1563
10718TIP3    H232112   7.593   2.773   6.603 -0.3415 -0.3631  1.4171
10719TIP3   OH232113   5.014   3.560   2.148  0.4776  0.1248  0.0042
10719TIP3    H132114   5.032   3.615   2.072  2.1031 -0.2071  0.1067
10719TIP3    H232115   4.971   3.482   2.111 -1.4944  1.2350 -0.1781
10720TIP3   OH232116   7.027   4.682   3.498 -0.4587 -0.5568 -0.2082
10720TIP3    H132117   7.070   4.654   3.578  0.4691  0.0168 -0.4928
10720TIP3    H232118   6.934   4.687   3.521 -0.3955 -1.8248  0.4049
10721TIP3   OH232119   8.078   4.563   5.660  0.2146 -0.3080 -0.1029
10721TIP3    H132120   8.018   4.626   5.701  1.3419 -0.0916  1.2940
10721TIP3    H232121   8.158   4.569   5.712  0.5145 -2.5742 -0.2131
10722TIP3   OH232122   4.864   5.390   2.509 -0.1697  0.4593 -0.6506
10722TIP3    H132123   4.858   5.479   2.475  0.0081  0.2441 -1.2413
10722TIP3    H232124   4.954   5.381   2.540 -0.0375  0.3184 -1.0647
10723TIP3   OH232125   7.926   7.393   3.917  0.2740  0.0497  0.5633
10723TIP3    H132126   7.981   7.469   3.896 -2.3194  1.6695 -0.8520
10723TIP3    H232127   7.987   7.319   3.915  2.4759  1.7544 -0.5085
10724TIP3   OH232128   7.590   1.152   1.717  0.0609 -0.5886 -0.2731
10724TIP3    H132129   7.647   1.228   1.707 -1.0005  0.1532 -0.7431
10724TIP3    H232130   7.511   1.186   1.759 -0.2018 -1.5316  0.0149
10725TIP3   OH232131   2.454   2.808   1.151 -0.0701 -0.7411 -0.0365
10725TIP3    H132132   2.547   2.788   1.165  0.4428  1.8035  0.7316
10725TIP3    H232133   2.452   2.846   1.063  0.0682  1.2864  0.7813
10726TIP3   OH232134   6.449   4.281   2.506 -0.6208 -0.5378 -0.1594
10726TIP3    H132135   6.390   4.222   2.553 -0.0608 -0.3550  0.8007
10726TIP3    H232136   6.531   4.278   2.556 -0.1832  0.0942 -0.8167
10727TIP3   OH232137   5.738   6.255   4.345  0.2682 -0.1084 -0.0317
10727TIP3    H132138   5.693   6.238   4.427  0.1480  1.5106  0.2552
10727TIP3    H232139   5.685   6.210   4.279 -0.5713  0.0077  0.5577
10728TIP3   OH232140   7.446   1.536   3.706 -0.6931 -0.1508 -0.1406
10728TIP3    H132141   7.508   1.562   3.775  0.1482 -3.0077  0.3100
10728TIP3    H232142   7.421   1.619   3.665  2.3276  1.3023  0.5960
10729TIP3   OH232143   2.672   6.802   5.895 -0.2583 -0.3609 -0.2952
10729TIP3    H132144   2.607   6.861   5.932 -0.0458 -0.2228 -0.1388
10729TIP3    H232145   2.708   6.756   5.971  1.5865  1.3186 -0.0544
10730TIP3   OH232146   7.589   0.698   5.733 -0.3810 -0.5483  0.0149
10730TIP3    H132147   7.614   0.720   5.643 -1.0154  1.4404  0.2697
10730TIP3    H232148   7.495   0.716   5.736 -0.2926 -0.2345  1.1608
10731TIP3   OH232149   3.452   0.390   5.345  0.0908  0.1776 -0.4727
10731TIP3    H132150   3.460   0.334   5.422  0.9090  0.5725 -0.2616
10731TIP3    H232151   3.369   0.364   5.304 -1.0772  0.9215  1.3108
10732TIP3   OH232152   1.936   1.835   3.908 -0.2835  0.0474  0.0099
10732TIP3    H132153   1.886   1.757   3.884 -0.2669  0.0413 -0.0046
10732TIP3    H232154   2.022   1.822   3.868 -0.4682  0.3497 -0.4927
10733TIP3   OH232155   6.489   7.661   6.560 -0.1183  0.4686  0.4341
10733TIP3    H132156   6.440   7.740   6.583 -2.5414 -1.0882  0.9988
10733TIP3    H232157   6.529   7.633   6.643  0.9313  1.1972  0.1856
10734TIP3   OH232158   1.513   0.712   0.599  0.0113 -0.1046 -0.5331
10734TIP3    H132159   1.522   0.683   0.690  0.5335  0.9199 -0.2438
10734TIP3    H232160   1.419   0.718   0.584 -0.1429 -2.2618 -0.7252
10735TIP3   OH232161   5.945   3.066   0.073 -0.2996  0.3958 -0.3347
10735TIP3    H132162   5.993   2.995   0.030 -0.8951 -0.1323 -0.1380
10735TIP3    H232163   5.982   3.146   0.036 -0.4698 -0.0351 -1.4705
10736TIP3   OH232164   0.590   4.667   4.188 -0.0419  0.3533 -0.2209
10736TIP3    H132165   0.671   4.648   4.140  0.5879  0.4266  0.7906
10736TIP3    H232166   0.569   4.585   4.232  0.7043  0.9409  1.2777
10737TIP3   OH232167   5.555   5.548   5.733 -0.3830 -0.2327 -0.0823
10737TIP3    H132168   5.537   5.637   5.701 -1.4185  0.0139  1.1028
10737TIP3    H232169   5.602   5.562   5.816 -0.4494 -0.7907  0.0541
10738TIP3   OH232170   4.293   3.703   0.073  0.2917  0.1630 -0.2371
10738TIP3    H132171   4.381   3.680   0.101  0.2411  0.5924  0.2871
10738TIP3    H232172   4.302   3.722  -0.021  1.2185  2.4268  0.2576
10739TIP3   OH232173   5.572   2.648   6.365  0.0478 -0.4456  0.1028
10739TIP3    H132174   5.608   2.562   6.388  1.7218 -0.1159 -1.1205
10739TIP3    H232175   5.647   2.698   6.335 -0.6209  2.0223  2.2491
10740TIP3   OH232176   2.185   6.565   5.159 -0.2812 -0.0476 -0.1545
10740TIP3    H132177   2.238   6.495   5.122 -1.2369 -1.0914  0.3839
10740TIP3    H232178   2.095   6.532   5.154 -1.0635  2.1402 -2.0869
10741TIP3   OH232179   4.949   2.128   6.428 -0.3856 -0.0804  0.6450
10741TIP3    H132180   4.883   2.064   6.454  0.1788 -0.5133  1.0283
10741TIP3    H232181   4.947   2.194   6.497 -1.7094  0.8993 -0.2766
10742TIP3   OH232182   6.307   2.326   6.658  0.7378  0.3263  0.7604
10742TIP3    H132183   6.291   2.410   6.614 -1.1598 -0.4345 -0.0988
10742TIP3    H232184   6.353   2.273   6.593 -1.2022 -0.4593 -0.0613
10743TIP3   OH232185   5.293   0.068   2.682  0.2627 -0.2723 -0.8281
10743TIP3    H132186   5.255  -0.006   2.730 -0.3064  0.6573  0.1808
10743TIP3    H232187   5.282   0.044   2.590 -0.2145 -1.2975 -0.5190
10744TIP3   OH232188   8.124   6.062   3.800 -0.3650  0.4150  0.5499
10744TIP3    H132189   8.184   6.115   3.853 -1.2015  0.4057  1.5391
10744TIP3    H232190   8.043   6.112   3.800 -0.6923 -0.1108  0.1526
10745TIP3   OH232191   2.127   0.310   5.496  0.3888  0.4521  0.2046
10745TIP3    H132192   2.211   0.313   5.541 -0.0685  0.3197  1.0958
10745TIP3    H232193   2.063   0.338   5.562 -0.0925  2.1328 -0.9015
10746TIP3   OH232194   3.449   7.793   4.136  0.4730  0.4978 -0.2651
10746TIP3    H132195   3.434   7.877   4.180  1.9351  0.2016  0.8798
10746TIP3    H232196   3.418   7.807   4.046  0.6525  2.2508 -0.0880
10747TIP3   OH232197   2.169   2.473   2.156  0.0280  0.4060 -0.8473
10747TIP3    H132198   2.157   2.395   2.102  0.3271  1.0943 -1.9313
10747TIP3    H232199   2.202   2.440   2.240 -1.3030 -0.7582 -0.7465
10748TIP3   OH232200   5.689   2.973   6.659  0.1241 -0.0774  0.1979
10748TIP3    H132201   5.774   3.003   6.690  0.0199 -0.7249  1.1423
10748TIP3    H232202   5.630   2.990   6.733 -0.2122 -1.2518  0.2124
10749TIP3   OH232203   5.633   4.650   0.665 -0.3571 -0.0992 -0.0632
10749TIP3    H132204   5.683   4.728   0.640 -0.5084 -0.0043 -0.0723
10749TIP3    H232205   5.648   4.588   0.594  0.0484 -0.2096  0.1127
10750TIP3   OH232206   3.368   7.551   2.926  0.2357  0.3296  0.1640
10750TIP3    H132207   3.439   7.501   2.887  0.3295  0.6990 -0.1521
10750TIP3    H232208   3.320   7.586   2.851 -0.4532 -0.1517  0.3699
10751TIP3   OH232209   1.958   5.888   4.390 -0.1639 -0.0916 -0.2029
10751TIP3    H132210   1.893   5.824   4.359 -0.2215 -0.5618  0.8647
10751TIP3    H232211   1.906   5.960   4.426 -0.0867 -0.0653 -0.1444
10752TIP3   OH232212   1.273   4.645   0.345  0.0117 -0.1127  0.6145
10752TIP3    H132213   1.223   4.718   0.382 -1.1483  0.9048 -2.6120
10752TIP3    H232214   1.207   4.577   0.331  0.5354 -0.6811  0.8605
10753TIP3   OH232215   8.332   4.948   1.780 -0.0870  0.4109 -0.1146
10753TIP3    H132216   8.307   4.959   1.689 -0.8293 -0.6646 -0.0476
10753TIP3    H232217   8.271   4.883   1.815  1.5481 -0.8110  0.5777
10754TIP3   OH232218   2.958   5.284   3.369  0.2566 -0.2457  0.1936
10754TIP3    H132219   3.029   5.222   3.389 -0.0123 -0.9502 -0.8882
10754TIP3    H232220   2.953   5.284   3.273 -1.3670 -0.4101  0.2444
10755TIP3   OH232221   2.183   3.478   2.440 -0.0275  0.2532  0.3296
10755TIP3    H132222   2.267   3.438   2.462  0.6602  1.4407 -0.0332
10755TIP3    H232223   2.159   3.529   2.517 -0.1265  0.3829  0.2135
10756TIP3   OH232224   6.811   7.203   5.510 -0.1730  0.0723 -0.0851
10756TIP3    H132225   6.720   7.205   5.479  0.1369 -0.5341 -1.0771
10756TIP3    H232226   6.862   7.234   5.435  0.5875 -1.2643 -0.1400
10757TIP3   OH232227   4.671   5.930   0.281 -0.3203  0.1865 -0.4706
10757TIP3    H132228   4.683   6.014   0.325  1.1207 -0.4565  0.4512
10757TIP3    H232229   4.593   5.942   0.228  0.2547  2.3400 -0.9335
10758TIP3   OH232230   4.979   6.457   6.378 -0.2061 -0.2272  0.1629
10758TIP3    H132231   4.891   6.488   6.355  0.5642  0.4610 -2.0996
10758TIP3    H232232   5.033   6.536   6.380  0.8358 -0.8693 -0.9816
10759TIP3   OH232233   1.570   3.806   4.273 -0.5331  0.3472  0.9145
10759TIP3    H132234   1.494   3.756   4.306  1.2246 -2.1782  1.4292
10759TIP3    H232235   1.642   3.743   4.274  1.4750  2.4916 -0.1173
10760TIP3   OH232236   0.743   0.871   2.965  0.4900 -0.0451 -0.0876
10760TIP3    H132237   0.783   0.784   2.963  1.3903  0.3242  1.1667
10760TIP3    H232238   0.791   0.919   3.031  0.9621  1.9050 -1.7386
10761TIP3   OH232239   7.459   4.005   2.795  0.2936  0.4572  0.4019
10761TIP3    H132240   7.404   3.937   2.834  2.2417 -0.3860  1.8052
10761TIP3    H232241   7.479   3.972   2.707  1.0644 -0.7389  1.0018
10762TIP3   OH232242   3.199   2.246   5.503  0.1935 -0.0654 -0.1094
10762TIP3    H132243   3.233   2.158   5.486  1.2644  0.5354 -1.2462
10762TIP3    H232244   3.174   2.244   5.596  0.1644 -1.5643 -0.1247
10763TIP3   OH232245   7.756   3.212   5.910 -0.5392 -0.3559 -0.1056
10763TIP3    H132246   7.681   3.172   5.868 -1.1499  0.1771  0.4400
10763TIP3    H232247   7.758   3.173   5.998  1.0027 -1.8117 -0.7455
10764TIP3   OH232248   6.437   6.224   6.005 -0.0935  0.1279 -0.5102
10764TIP3    H132249   6.465   6.267   5.925  0.4977  0.8721  0.0741
10764TIP3    H232250   6.501   6.252   6.071 -1.4666  0.8161  0.5792
10765TIP3   OH232251   2.896   4.904   0.426 -0.2798 -0.5592 -0.0387
10765TIP3    H132252   2.936   4.852   0.495  0.5593  0.5018  0.3039
10765TIP3    H232253   2.919   4.859   0.345  0.7541 -0.5316  0.2265
10766TIP3   OH232254   3.015   4.252   0.189  0.4874 -0.0325  0.6138
10766TIP3    H132255   3.004   4.232   0.282  0.3788 -0.7124  0.4610
10766TIP3    H232256   3.091   4.199   0.162  0.7824  0.4852  0.4110
10767TIP3   OH232257   4.459   6.157   5.014  0.2323  0.0896 -0.1573
10767TIP3    H132258   4.470   6.068   5.047  2.0383  0.7178  1.1316
10767TIP3    H232259   4.384   6.152   4.954 -1.4135 -1.7184  1.9047
10768TIP3   OH232260   3.393   2.696   2.538  0.7321 -0.3271 -0.3451
10768TIP3    H132261   3.361   2.786   2.537 -0.0792 -0.6065 -0.9711
10768TIP3    H232262   3.315   2.643   2.555  1.0900 -0.9427 -0.5952
10769TIP3   OH232263   6.648   7.766   5.973  0.2612 -0.8393 -0.6483
10769TIP3    H132264   6.626   7.819   5.897  1.9634 -2.0809 -2.0868
10769TIP3    H232265   6.580   7.787   6.038 -1.6949 -0.2938 -2.7556
10770TIP3   OH232266   3.088   6.336   1.630  0.0700  0.1460  0.1060
10770TIP3    H132267   3.167   6.387   1.649  0.9279 -0.2299 -2.1267
10770TIP3    H232268   3.119   6.247   1.617 -1.0007 -0.3761  0.9306
10771TIP3   OH232269   5.096   3.975   0.785 -0.0612 -0.3215 -0.3361
10771TIP3    H132270   5.139   3.890   0.771  0.8862  0.1836 -0.6212
10771TIP3    H232271   5.023   3.976   0.724 -1.5204 -1.8574  1.2481
10772TIP3   OH232272   5.993   0.517   6.456 -0.5159  0.2531  0.2122
10772TIP3    H132273   5.920   0.470   6.417 -0.3240  0.6546 -0.6497
10772TIP3    H232274   6.069   0.462   6.439 -0.4157  0.4811 -0.0849
10773TIP3   OH232275   4.894   6.020   5.600  0.1221  0.7974 -0.3704
10773TIP3    H132276   4.910   6.053   5.511 -0.2217 -0.2622 -0.8414
10773TIP3    H232277   4.980   5.998   5.633  0.1545  0.1459 -0.8713
10774TIP3   OH232278   1.718   6.098   1.857 -0.1338  0.5033  0.1742
10774TIP3    H132279   1.655   6.069   1.791 -1.2271 -1.0549  1.8128
10774TIP3    H232280   1.715   6.194   1.854 -2.0599  0.4518 -0.2810
10775TIP3   OH232281   3.016   5.171   4.408 -0.0956  0.4110 -0.1429
10775TIP3    H132282   2.968   5.090   4.389  0.6565 -0.7367  2.3057
10775TIP3    H232283   2.956   5.222   4.462  0.5535 -0.0029  1.0095
10776TIP3   OH232284   5.303   0.590   1.662 -0.1035  0.1949  0.3467
10776TIP3    H132285   5.393   0.592   1.630 -0.2249  1.2774  0.0418
10776TIP3    H232286   5.253   0.547   1.592 -0.0164  0.6317  0.0167
10777TIP3   OH232287   5.447   7.088   4.039 -0.0045 -0.2080  0.4287
10777TIP3    H132288   5.426   6.998   4.013  0.4201  0.4674 -2.6102
10777TIP3    H232289   5.364   7.135   4.030  0.3530  0.2294 -0.7577
10778TIP3   OH232290   1.643   0.790   4.409 -0.1518  0.6014  0.9257
10778TIP3    H132291   1.723   0.842   4.416  0.0356  0.4082  0.3285
10778TIP3    H232292   1.579   0.850   4.370  0.2596  0.1981 -0.4057
10779TIP3   OH232293   7.713   0.679   3.515 -0.4514  0.1306 -0.1547
10779TIP3    H132294   7.732   0.710   3.427 -1.3014  0.1375 -0.3441
10779TIP3    H232295   7.695   0.585   3.503  1.2603 -0.2961  0.2896
10780TIP3   OH232296   0.977   4.864   2.736 -0.1817 -0.1388  0.0270
10780TIP3    H132297   0.988   4.959   2.736 -0.6184 -0.0447 -1.7658
10780TIP3    H232298   1.066   4.829   2.749 -0.0635  0.4882  0.9971
10781TIP3   OH232299   0.372   7.008   0.464  0.3305 -0.3278  0.1829
10781TIP3    H132300   0.296   6.956   0.489  0.9449 -1.6336 -0.5191
10781TIP3    H232301   0.422   7.018   0.545 -0.2436 -0.0406  0.5071
10782TIP3   OH232302   6.026   5.996   3.658  0.6202  0.0132  0.2298
10782TIP3    H132303   6.029   6.036   3.571  1.2604  0.7672  0.5833
10782TIP3    H232304   6.082   5.919   3.651  0.6750  0.0746 -0.0165
10783TIP3   OH232305   5.884   3.094   6.015  0.1340  0.0337  0.3716
10783TIP3    H132306   5.893   3.152   5.939 -1.5636 -0.5685 -0.3444
10783TIP3    H232307   5.840   3.147   6.081 -1.0457 -0.2595 -0.1400
10784TIP3   OH232308   3.768   2.561   1.973 -0.2421 -0.1478 -0.8422
10784TIP3    H132309   3.681   2.591   2.001  0.2260 -0.2095  0.7648
10784TIP3    H232310   3.807   2.638   1.931 -0.6576  0.2118 -0.5789
10785TIP3   OH232311   7.803   5.052   2.717  0.8068 -0.2096  0.0523
10785TIP3    H132312   7.763   5.086   2.797  1.1664  0.4637 -0.0406
10785TIP3    H232313   7.737   4.996   2.678  0.4147 -0.0845  0.5296
10786TIP3   OH232314   1.440   2.987   0.556 -0.0023 -0.2781  0.3019
10786TIP3    H132315   1.428   3.082   0.565 -0.4413 -0.3010 -0.0308
10786TIP3    H232316   1.463   2.958   0.645  1.4522  0.3198  0.1523
10787TIP3   OH232317   1.468   1.992   6.316 -0.8775 -0.6283  0.2327
10787TIP3    H132318   1.397   1.985   6.379  0.7259 -1.5303  2.0712
10787TIP3    H232319   1.486   2.086   6.309 -2.1357 -0.4027 -0.1821
10788TIP3   OH232320   4.514   1.280   1.817 -0.8488 -0.3899 -0.3654
10788TIP3    H132321   4.516   1.184   1.825  1.7256 -0.3458  0.4806
10788TIP3    H232322   4.521   1.297   1.724 -1.3229 -1.0030 -0.5222
10789TIP3   OH232323   7.591   3.451   2.144 -0.1181 -0.0672  0.3695
10789TIP3    H132324   7.669   3.403   2.169 -0.1295 -0.8200 -0.9125
10789TIP3    H232325   7.589   3.445   2.048 -2.1266 -0.7281  0.3935
10790TIP3   OH232326   6.960   4.995   5.628 -0.4401 -0.0120 -0.7832
10790TIP3    H132327   6.975   5.088   5.614  0.0510  0.0882  0.2560
10790TIP3    H232328   6.876   4.977   5.586 -0.6381  0.9459 -0.8182
10791TIP3   OH232329   6.967   7.762   2.134  0.2010  0.3888  0.2922
10791TIP3    H132330   6.982   7.851   2.105 -0.2699  0.0217 -1.1911
10791TIP3    H232331   7.005   7.707   2.065  0.6667 -0.5700  1.2723
10792TIP3   OH232332   3.158   5.553   4.875  0.0390  0.1305 -0.5364
10792TIP3    H132333   3.247   5.588   4.883 -0.7644  2.4434 -0.9049
10792TIP3    H232334   3.148   5.537   4.781 -0.0876  0.3043 -0.5523
10793TIP3   OH232335   4.423   3.363   5.705 -0.0786  0.3308  0.0228
10793TIP3    H132336   4.372   3.400   5.777  0.4660  1.8176 -0.3227
10793TIP3    H232337   4.512   3.354   5.740 -0.6111 -2.9290  0.8602
10794TIP3   OH232338   5.889   5.884   5.022 -0.1381 -0.6892 -0.0035
10794TIP3    H132339   5.822   5.942   4.987  0.9443  0.6577  0.0792
10794TIP3    H232340   5.903   5.818   4.954  0.8427  0.9859 -1.4992
10795TIP3   OH232341   7.359   2.908   5.732 -0.2345  0.0574  0.0387
10795TIP3    H132342   7.421   2.874   5.797  0.5854 -1.4719 -1.4666
10795TIP3    H232343   7.273   2.881   5.765  0.2735 -2.1453 -0.2430
10796TIP3   OH232344   6.959   2.266   6.413  0.3531  0.0858 -0.3253
10796TIP3    H132345   6.936   2.186   6.365 -2.2442 -0.5289  1.7386
10796TIP3    H232346   6.876   2.310   6.428  1.5263  2.2516  0.2716
10797TIP3   OH232347   0.461   5.686   5.753  0.3825  1.0664 -0.1273
10797TIP3    H132348   0.495   5.642   5.675  0.1327  2.2012 -0.8979
10797TIP3    H232349   0.367   5.663   5.753  0.0402  2.3323 -1.0824
10798TIP3   OH232350   2.359   5.849   1.132  0.3330  0.1458  0.2354
10798TIP3    H132351   2.300   5.864   1.058  0.0552 -0.2392  0.3735
10798TIP3    H232352   2.438   5.898   1.110 -0.3639  1.4145  0.4544
10799TIP3   OH232353   2.740   3.961   5.070  0.1590 -0.0939  0.0191
10799TIP3    H132354   2.657   3.934   5.029  0.6031 -3.1252  0.8993
10799TIP3    H232355   2.718   3.973   5.162  0.9263 -2.3261  0.5274
10800TIP3   OH232356   3.199   5.693   1.212 -0.1142  0.4469 -0.4724
10800TIP3    H132357   3.289   5.688   1.179  0.8635  2.1884  1.6754
10800TIP3    H232358   3.151   5.740   1.144  0.2490 -1.5413 -2.1933
10801TIP3   OH232359   0.117   3.283   1.022 -0.0401  0.1882 -0.2560
10801TIP3    H132360   0.128   3.276   0.927  0.0024  0.5912 -0.2809
10801TIP3    H232361   0.197   3.325   1.052  1.7371 -3.3578  0.4324
10802TIP3   OH232362   0.477   2.237   4.290  0.5470 -0.5658  0.6566
10802TIP3    H132363   0.455   2.330   4.292  0.3136 -0.5868 -0.2970
10802TIP3    H232364   0.467   2.207   4.380 -0.9911 -0.0312  0.6891
10803TIP3   OH232365   6.013   0.031   2.876 -0.3927 -0.4361  0.0735
10803TIP3    H132366   5.940  -0.026   2.850 -1.3085  0.3809  0.7601
10803TIP3    H232367   5.983   0.072   2.957  0.7055  0.1823  0.1820
10804TIP3   OH232368   5.695   1.337   1.245  0.3187  0.1142  0.1853
10804TIP3    H132369   5.771   1.282   1.231 -0.1897 -0.8984  1.2336
10804TIP3    H232370   5.694   1.354   1.339 -0.4374  0.5728  0.1082
10805TIP3   OH232371   1.780   4.321   3.703 -0.3371  0.2009 -0.7604
10805TIP3    H132372   1.746   4.241   3.743  1.8864 -0.7619 -0.6485
10805TIP3    H232373   1.710   4.348   3.642 -1.3339 -1.5780 -0.4938
10806TIP3   OH232374   5.398   0.911   3.467  0.4618  0.9113 -0.0310
10806TIP3    H132375   5.471   0.971   3.455  1.2258 -0.2216 -1.2911
10806TIP3    H232376   5.426   0.852   3.537  0.4392  0.9339 -0.0027
10807TIP3   OH232377   0.989   0.390   2.397 -0.1205 -0.2792  0.1611
10807TIP3    H132378   0.952   0.311   2.435  1.1637 -0.6783  0.6552
10807TIP3    H232379   0.916   0.433   2.352 -1.2793 -0.7154  1.5618
10808TIP3   OH232380   6.368   1.745   5.662 -0.2406 -0.4586  0.6147
10808TIP3    H132381   6.449   1.793   5.672  0.7410 -1.7063 -0.8273
10808TIP3    H232382   6.357   1.698   5.745  0.9185 -0.8406  0.5663
10809TIP3   OH232383   7.017   4.766   3.237 -0.1628  0.0133  0.1566
10809TIP3    H132384   6.993   4.696   3.176 -1.5777 -0.1273  0.8335
10809TIP3    H232385   7.005   4.728   3.324 -1.3497  1.1918  0.5429
10810TIP3   OH232386   5.795   3.384   6.714  0.3532  0.2396 -0.6761
10810TIP3    H132387   5.775   3.469   6.754 -2.6350  0.3944 -2.2312
10810TIP3    H232388   5.783   3.321   6.785 -3.7789  0.6164 -0.8171
10811TIP3   OH232389   1.797   4.166   2.342 -0.4912 -0.2509  1.0309
10811TIP3    H132390   1.749   4.248   2.329  1.9652  1.6575  3.0043
10811TIP3    H232391   1.765   4.133   2.426 -1.5315 -1.4120  0.2025
10812TIP3   OH232392   7.574   4.602   1.026  0.2477  0.0212 -0.1979
10812TIP3    H132393   7.642   4.653   1.071  0.5431 -1.1038  0.6592
10812TIP3    H232394   7.569   4.520   1.075  0.1542 -1.0097 -1.8600
10813TIP3   OH232395   3.733   3.795   0.401 -0.3596  0.0244 -0.3339
10813TIP3    H132396   3.820   3.758   0.392  0.9936  3.0446 -0.9723
10813TIP3    H232397   3.728   3.824   0.492 -1.0585 -0.8467 -0.0752
10814TIP3   OH232398   1.239   3.364   0.643  0.4434 -0.3375 -0.0846
10814TIP3    H132399   1.157   3.359   0.595  0.4974  0.2276 -0.2431
10814TIP3    H232400   1.214   3.349   0.734  0.1268  0.0852 -0.0997
10815TIP3   OH232401   5.025   7.438   3.846  0.1037 -0.0420 -0.6943
10815TIP3    H132402   5.060   7.498   3.911  0.5216 -0.2497 -0.7189
10815TIP3    H232403   4.930   7.451   3.848  0.2716  1.8177 -1.8634
10816TIP3   OH232404   4.303   4.086   4.098 -0.1383 -0.2176 -0.3853
10816TIP3    H132405   4.209   4.098   4.092 -0.2601 -0.4982  0.7337
10816TIP3    H232406   4.323   4.098   4.191  0.9804  0.1793 -0.6568
10817TIP3   OH232407   1.574   1.896   2.578  0.4154  0.0264  0.4711
10817TIP3    H132408   1.591   1.975   2.525 -0.2547  0.6517  1.1771
10817TIP3    H232409   1.606   1.919   2.665 -1.7759  0.3625  1.2485
10818TIP3   OH232410   4.161   4.517   1.478  0.1778 -0.1038 -0.8280
10818TIP3    H132411   4.179   4.464   1.401  3.8476 -0.6090  0.2113
10818TIP3    H232412   4.170   4.457   1.552  0.4574  1.1360  0.1939
10819TIP3   OH232413   3.933   4.165   0.173  0.3682  0.2733 -0.8182
10819TIP3    H132414   3.857   4.108   0.186  1.0326 -0.3474  0.5200
10819TIP3    H232415   3.989   4.117   0.111  0.8545 -0.4804  0.1852
10820TIP3   OH232416   7.923   5.299   3.313  0.0503  0.6948  0.5682
10820TIP3    H132417   7.970   5.269   3.391 -1.6478 -0.7667  1.1218
10820TIP3    H232418   7.833   5.312   3.344 -1.4351 -2.8640 -1.6586
10821TIP3   OH232419   6.496   0.859   5.035  0.1795 -0.3662  0.1547
10821TIP3    H132420   6.499   0.922   4.963  0.9525  1.1584  1.4556
10821TIP3    H232421   6.584   0.861   5.072 -0.5093 -0.2775  1.8428
10822TIP3   OH232422   5.858   2.269   6.145 -0.3311 -0.2465  0.0671
10822TIP3    H132423   5.890   2.335   6.207 -0.7055 -0.5678  0.6126
10822TIP3    H232424   5.764   2.263   6.162 -0.7147  0.7009 -1.5389
10823TIP3   OH232425   4.104   5.470   0.088  0.2687  0.5915  0.0018
10823TIP3    H132426   4.175   5.463   0.152 -0.0713 -2.0190  0.2189
10823TIP3    H232427   4.040   5.405   0.117 -0.6261  0.4531 -2.1117
10824TIP3   OH232428   2.605   1.172   4.347 -0.4051  0.3030 -0.7233
10824TIP3    H132429   2.575   1.094   4.301  0.6823 -0.9138  0.5418
10824TIP3    H232430   2.690   1.148   4.383 -0.1762  1.9780 -0.0263
10825TIP3   OH232431   4.372   0.134   0.826 -0.7680  0.5471  0.3919
10825TIP3    H132432   4.307   0.120   0.757  1.8086  0.3307 -2.1674
10825TIP3    H232433   4.446   0.175   0.781  1.1961  0.0906  2.9850
10826TIP3   OH232434   1.402   0.342   2.898  0.2048 -0.0054 -0.8780
10826TIP3    H132435   1.372   0.427   2.928  0.5391 -0.2114  0.0823
10826TIP3    H232436   1.407   0.289   2.977  0.9827 -0.6161 -1.3173
10827TIP3   OH232437   4.861   5.786   3.228 -0.3162  0.2493 -0.1042
10827TIP3    H132438   4.831   5.697   3.208 -0.5768  0.5167 -0.9305
10827TIP3    H232439   4.800   5.817   3.295 -1.0651  0.2972 -0.7999
10828TIP3   OH232440   5.984   3.310   4.595  0.7389 -0.0710 -0.2053
10828TIP3    H132441   5.935   3.323   4.515 -0.0509 -0.6272  0.1763
10828TIP3    H232442   6.030   3.227   4.583 -1.9075 -1.8679  1.1068
10829TIP3   OH232443   5.200   6.764   3.591  0.0203  0.0225 -0.0218
10829TIP3    H132444   5.268   6.724   3.644  1.0979  1.3653 -0.3471
10829TIP3    H232445   5.181   6.699   3.524  0.5965 -0.5808  0.3866
10830TIP3   OH232446   5.215   5.438   6.301 -0.1879 -0.1573  0.2238
10830TIP3    H132447   5.135   5.387   6.312 -0.6931  0.9062  1.9252
10830TIP3    H232448   5.286   5.379   6.326 -0.6170 -0.5387  0.5441
10831TIP3   OH232449   3.026   4.746   0.880 -0.5598  0.5598 -0.3331
10831TIP3    H132450   2.960   4.676   0.875 -0.0695 -0.1838  2.1120
10831TIP3    H232451   3.061   4.739   0.968  1.7844  1.8836 -1.0679
10832TIP3   OH232452   6.319   1.180   0.230 -0.2154 -0.1687 -0.2589
10832TIP3    H132453   6.315   1.219   0.142  2.5393 -0.1533 -0.4459
10832TIP3    H232454   6.331   1.255   0.288 -1.4496 -0.2397  0.1301
10833TIP3   OH232455   1.372   6.462   4.101  0.5757  0.0866  0.0187
10833TIP3    H132456   1.284   6.426   4.108  0.3055  0.6868 -0.1629
10833TIP3    H232457   1.396   6.484   4.191 -0.0874  1.3409 -0.0911
10834TIP3   OH232458   5.367   3.200   4.570 -0.0752  0.5465 -0.0659
10834TIP3    H132459   5.316   3.120   4.581  0.4030  0.2467 -0.0232
10834TIP3    H232460   5.444   3.174   4.520  0.0188  1.0033 -0.1657
10835TIP3   OH232461   0.037   2.244   3.120  0.6248 -0.0522 -0.4516
10835TIP3    H132462  -0.006   2.291   3.191  0.4920 -0.4436 -0.2739
10835TIP3    H232463   0.130   2.257   3.136  0.6040  1.6739 -1.4093
10836TIP3   OH232464   7.033   5.757   5.579 -0.1934  0.2114 -0.1823
10836TIP3    H132465   7.048   5.818   5.651  1.5380 -0.7342  0.3191
10836TIP3    H232466   7.077   5.798   5.504 -0.1605  0.1888 -0.1750
10837TIP3   OH232467   1.510   0.665   0.874 -0.3058 -0.3732  0.2537
10837TIP3    H132468   1.540   0.722   0.944  2.1568  0.2557 -1.1660
10837TIP3    H232469   1.422   0.696   0.852  1.2652  3.7230 -1.1298
10838TIP3   OH232470   7.339   1.213   3.387  0.3864 -0.0742  0.0995
10838TIP3    H132471   7.377   1.143   3.441 -1.9925 -0.8798  0.8320
10838TIP3    H232472   7.304   1.276   3.450 -0.1213  0.2916 -0.5446
10839TIP3   OH232473   3.381   5.080   4.201  0.3177 -0.0203  0.8864
10839TIP3    H132474   3.462   5.094   4.250 -0.2276  0.0602  1.7901
10839TIP3    H232475   3.377   4.985   4.187  0.1574 -0.1203  1.5778
10840TIP3   OH232476   7.626   7.777   5.163  0.3997 -0.4002 -0.0307
10840TIP3    H132477   7.564   7.845   5.187 -0.4663 -0.6901 -1.3089
10840TIP3    H232478   7.703   7.825   5.133  0.1066  0.0081 -0.1473
10841TIP3   OH232479   3.240   1.668   1.524  0.0206 -0.1227 -0.2714
10841TIP3    H132480   3.304   1.666   1.453 -0.6227 -0.1980 -0.8654
10841TIP3    H232481   3.164   1.622   1.488 -1.1098  1.7039 -0.3105
10842TIP3   OH232482   5.740   0.172   3.391  0.1931  0.1701  0.0565
10842TIP3    H132483   5.686   0.238   3.436  0.6199  0.4697  0.1422
10842TIP3    H232484   5.682   0.134   3.326 -0.1630  0.3932  0.2381
10843TIP3   OH232485   2.777   0.781   5.576 -0.1278  0.6849  0.9860
10843TIP3    H132486   2.791   0.700   5.625  0.7460  0.1951 -0.0388
10843TIP3    H232487   2.711   0.757   5.511 -0.5296  1.0582  1.2490
10844TIP3   OH232488   4.901   1.260   0.136 -0.4548 -0.1866  0.6692
10844TIP3    H132489   4.810   1.260   0.106  0.2725  0.2846 -1.6633
10844TIP3    H232490   4.920   1.168   0.156 -0.5153 -0.8523 -1.9787
10845TIP3   OH232491   6.588   6.632   0.955  0.7947 -0.2448 -0.6502
10845TIP3    H132492   6.656   6.614   1.020  0.4297 -1.0486 -0.4768
10845TIP3    H232493   6.524   6.562   0.967 -0.5475  1.0333 -0.1791
10846TIP3   OH232494   2.855   3.516   5.450 -0.6844 -0.4743  0.0244
10846TIP3    H132495   2.854   3.572   5.372  0.6623 -2.1568 -1.2886
10846TIP3    H232496   2.945   3.484   5.455 -0.7518 -0.4747  2.2754
10847TIP3   OH232497   2.217   3.220   4.939 -0.7137  0.0705 -0.0934
10847TIP3    H132498   2.203   3.169   5.019  1.0412 -0.4228 -0.0639
10847TIP3    H232499   2.207   3.156   4.868  0.5675 -0.1436 -0.1024
10848TIP3   OH232500   7.880   6.264   3.146 -0.2250  0.5884 -0.1027
10848TIP3    H132501   7.960   6.286   3.194 -0.1818  1.4986 -0.5685
10848TIP3    H232502   7.911   6.235   3.060 -0.4237  1.8593 -0.6169
10849TIP3   OH232503   2.089   3.837   2.159 -0.1919 -0.6030  0.0708
10849TIP3    H132504   2.173   3.850   2.203  0.7581 -0.7743 -1.6167
10849TIP3    H232505   2.089   3.745   2.132 -0.9747 -0.6365  0.1417
10850TIP3   OH232506   7.369   3.575   1.939  0.6279 -0.0388  0.2148
10850TIP3    H132507   7.390   3.535   2.024 -0.0949 -0.2804  0.2830
10850TIP3    H232508   7.283   3.540   1.917 -0.4612  2.1462  0.6866
10851TIP3   OH232509   2.186   0.078   2.808  0.7786 -0.2903  0.1847
10851TIP3    H132510   2.183   0.080   2.713 -0.2535  1.5111  0.2111
10851TIP3    H232511   2.278   0.089   2.830  0.7820  1.6340 -0.6332
10852TIP3   OH232512   0.056   2.458   1.374 -0.4800 -0.1734  0.3052
10852TIP3    H132513   0.036   2.551   1.369 -1.3136 -0.3259  0.7333
10852TIP3    H232514   0.152   2.454   1.366 -0.5875  0.5255 -2.3953
10853TIP3   OH232515   7.125   5.839   5.323  0.2343  0.7325  0.2601
10853TIP3    H132516   7.081   5.843   5.238  0.6556  3.9422  0.0594
10853TIP3    H232517   7.215   5.815   5.302 -0.0658 -0.2671  0.0505
10854TIP3   OH232518   6.273   5.128   4.993 -0.0885 -0.9450  0.1224
10854TIP3    H132519   6.223   5.077   4.930 -0.0186  0.0346 -0.7493
10854TIP3    H232520   6.211   5.151   5.061 -0.4515 -1.0432 -0.1744
10855TIP3   OH232521   7.300   3.508   4.873  0.5648  0.1359 -0.1124
10855TIP3    H132522   7.340   3.471   4.794  0.7193 -1.3928  0.6487
10855TIP3    H232523   7.368   3.502   4.940 -0.0212  0.1151  0.4888
10856TIP3   OH232524   1.414   7.240   3.568 -0.7587 -0.7264  0.4191
10856TIP3    H132525   1.509   7.235   3.569 -0.7730 -0.9952  0.4419
10856TIP3    H232526   1.386   7.169   3.510 -0.8168  1.3873 -2.3822
10857TIP3   OH232527   5.029   0.419   3.844 -0.4048  0.1510  0.2116
10857TIP3    H132528   5.067   0.455   3.924 -1.0004  1.0887  0.0892
10857TIP3    H232529   4.955   0.366   3.875  0.0068 -0.3487  0.3456
10858TIP3   OH232530   6.655   6.111   2.048  0.2351  0.0580  0.2593
10858TIP3    H132531   6.724   6.045   2.035  0.4139  0.3862 -0.5255
10858TIP3    H232532   6.696   6.178   2.103  0.2366 -0.2155  0.5884
10859TIP3   OH232533   2.125   0.144   6.030 -0.0476  0.1602 -0.4900
10859TIP3    H132534   2.075   0.084   5.974 -1.4775 -0.1653  1.0858
10859TIP3    H232535   2.066   0.218   6.045  1.5467  1.8864 -2.0809
10860TIP3   OH232536   3.382   7.778   6.756 -0.0855  0.2296  0.3522
10860TIP3    H132537   3.419   7.742   6.676  1.1666 -1.4828  1.6068
10860TIP3    H232538   3.428   7.861   6.769 -1.0297  1.0373 -1.1695
10861TIP3   OH232539   5.410   2.185   1.194  0.1818  1.1723  0.0624
10861TIP3    H132540   5.447   2.164   1.109  0.4124  1.1943  0.1568
10861TIP3    H232541   5.320   2.152   1.190  0.6145 -0.0686  0.2995
10862TIP3   OH232542   1.954   7.315   6.549  0.3259 -0.0760 -0.2169
10862TIP3    H132543   1.919   7.307   6.637  1.4326 -0.2051  0.2234
10862TIP3    H232544   1.900   7.256   6.496 -0.1561 -0.2146  0.4211
10863TIP3   OH232545   6.207   4.747   4.092 -0.2045 -0.6284 -0.7231
10863TIP3    H132546   6.119   4.753   4.129 -0.7990  0.8389 -2.2218
10863TIP3    H232547   6.210   4.817   4.026  1.8953 -1.0096 -1.1121
10864TIP3   OH232548   4.706   2.046   4.932  0.3269 -0.4995 -0.0153
10864TIP3    H132549   4.734   2.039   4.841  1.3123 -2.0283  0.3760
10864TIP3    H232550   4.611   2.056   4.927  0.5357  1.4571 -1.2494
10865TIP3   OH232551   6.057   2.727   2.528 -0.1508  0.6082  0.0689
10865TIP3    H132552   5.991   2.685   2.473 -0.4497 -0.2350  1.0529
10865TIP3    H232553   6.126   2.662   2.537 -1.3942 -0.4962  3.0480
10866TIP3   OH232554   7.904   7.402   2.662 -0.4872  0.1813 -0.3673
10866TIP3    H132555   7.819   7.403   2.705 -0.3308 -2.4059  0.1968
10866TIP3    H232556   7.951   7.477   2.699 -2.1853  1.1502 -0.0665
10867TIP3   OH232557   7.150   0.912   2.429  0.0581  0.1329 -0.0054
10867TIP3    H132558   7.173   0.940   2.518 -0.3439  0.2458  0.0641
10867TIP3    H232559   7.200   0.831   2.417  0.4807  0.3656  0.1454
10868TIP3   OH232560   1.183   0.222   5.122 -0.0260  0.9272  0.0424
10868TIP3    H132561   1.108   0.242   5.179 -0.5344 -0.2422 -0.1934
10868TIP3    H232562   1.251   0.284   5.150  0.2777 -0.5724  2.9833
10869TIP3   OH232563   7.754   1.892   2.444  0.2647 -0.1067  0.1092
10869TIP3    H132564   7.841   1.851   2.442  0.7262  0.8713 -0.8799
10869TIP3    H232565   7.772   1.984   2.463 -0.5583  0.1049 -0.1160
10870TIP3   OH232566   4.405   0.446   0.368 -0.5737  0.1606  0.0724
10870TIP3    H132567   4.433   0.493   0.447 -1.1851  1.2637 -0.3376
10870TIP3    H232568   4.480   0.453   0.308  0.6961 -2.4347  1.2248
10871TIP3   OH232569   3.440   0.869   6.673 -0.1859 -0.0731 -0.0696
10871TIP3    H132570   3.439   0.822   6.589 -1.3225  0.7556 -0.5482
10871TIP3    H232571   3.437   0.800   6.739 -0.6126 -0.7117 -0.7336
10872TIP3   OH232572   2.349   7.531   0.186  0.3025  0.5260  0.4989
10872TIP3    H132573   2.360   7.626   0.191  0.8773  0.4684  0.3715
10872TIP3    H232574   2.380   7.507   0.099 -1.4713  0.4282 -0.1467
10873TIP3   OH232575   6.923   5.317   2.143  0.2417  0.0943 -0.3373
10873TIP3    H132576   6.917   5.328   2.238  1.0659 -1.6107 -0.0500
10873TIP3    H232577   6.880   5.233   2.126  0.6729  0.0668 -1.3767
10874TIP3   OH232578   3.645   6.693   1.298 -0.0356 -0.0430  0.4463
10874TIP3    H132579   3.619   6.601   1.291  0.6393 -0.3714  1.9355
10874TIP3    H232580   3.724   6.700   1.245  0.2253 -0.4524  0.7809
10875TIP3   OH232581   0.368   1.822   4.322  0.1059 -0.0203  0.1501
10875TIP3    H132582   0.405   1.738   4.296  1.2401 -0.0285  1.6229
10875TIP3    H232583   0.406   1.885   4.262  1.3179 -0.2498  0.6435
10876TIP3   OH232584   7.917   5.011   5.206 -0.0534 -0.2807 -0.5428
10876TIP3    H132585   7.989   5.007   5.142 -0.4486  1.9654 -1.1790
10876TIP3    H232586   7.942   4.946   5.273  1.9842 -0.3789 -1.3244
10877TIP3   OH232587   2.022   6.168   5.696 -0.3004  0.9528  0.4626
10877TIP3    H132588   2.088   6.099   5.693 -0.2252  1.0510 -0.5918
10877TIP3    H232589   1.941   6.125   5.668 -0.0981  1.4313 -0.9580
10878TIP3   OH232590   1.949   6.453   5.084 -0.0203  0.4297  0.0470
10878TIP3    H132591   1.954   6.462   4.988 -0.7228 -0.1023 -0.0443
10878TIP3    H232592   1.889   6.380   5.098 -0.7095  1.1455  0.9113
10879TIP3   OH232593   4.197   3.811   4.728  0.2946  0.0650 -0.2657
10879TIP3    H132594   4.265   3.849   4.673 -0.5919  0.5591 -1.0421
10879TIP3    H232595   4.192   3.869   4.805  1.2841 -0.4259  0.1896
10880TIP3   OH232596   1.845   0.208   2.280 -0.4700  0.1068 -0.1051
10880TIP3    H132597   1.813   0.235   2.194 -1.1400 -0.8913 -0.1915
10880TIP3    H232598   1.765   0.194   2.332 -0.2020 -1.6523 -0.0802
10881TIP3   OH232599   6.056   5.686   6.008 -0.6962 -0.5456 -0.3397
10881TIP3    H132600   6.143   5.673   6.046 -0.6412 -1.8813 -0.8578
10881TIP3    H232601   6.074   5.721   5.921 -0.7473  0.5458  0.0739
10882TIP3   OH232602   1.032   4.083   5.420 -0.1438  0.2163 -0.1176
10882TIP3    H132603   0.942   4.069   5.389 -0.1556  0.1513 -0.0527
10882TIP3    H232604   1.035   4.040   5.505 -0.3870  1.1945  0.4089
10883TIP3   OH232605   0.730   1.597   5.717 -0.4303 -0.1205  0.1926
10883TIP3    H132606   0.788   1.522   5.732 -0.7047 -0.1642  1.0410
10883TIP3    H232607   0.643   1.567   5.743 -0.9972 -0.2738 -1.7134
10884TIP3   OH232608   0.113   0.075   2.516 -0.9879 -0.5605  0.4402
10884TIP3    H132609   0.195   0.031   2.494 -1.2292 -0.7316 -0.1493
10884TIP3    H232610   0.070   0.089   2.431 -1.2829  0.0836  0.6947
10885TIP3   OH232611   5.413   4.699   4.274 -0.1664  0.0531 -0.1580
10885TIP3    H132612   5.415   4.795   4.266  1.9069  0.0636 -0.0639
10885TIP3    H232613   5.419   4.668   4.184 -1.8869 -0.0331 -0.2737
10886TIP3   OH232614   4.200   1.658   5.704  0.2351 -0.4544  0.1744
10886TIP3    H132615   4.135   1.619   5.762  0.1039 -1.0025 -0.3291
10886TIP3    H232616   4.252   1.715   5.761 -0.3271 -0.4444  0.6868
10887TIP3   OH232617   7.882   5.179   5.887  0.3506  0.6298 -0.1928
10887TIP3    H132618   7.864   5.174   5.980 -0.9081 -0.1149 -0.4457
10887TIP3    H232619   7.917   5.267   5.874 -1.6777  1.6266  0.6517
10888TIP3   OH232620   3.794   5.117   5.354 -0.3314 -0.1409  0.6438
10888TIP3    H132621   3.786   5.058   5.279 -0.3019 -0.3216  0.7832
10888TIP3    H232622   3.887   5.139   5.357 -0.5294  0.8903 -0.1551
10889TIP3   OH232623   3.748   3.898   6.640  0.0511  0.0570 -0.2083
10889TIP3    H132624   3.773   3.884   6.731  1.1833  0.1960 -0.4794
10889TIP3    H232625   3.794   3.978   6.615 -0.0269 -0.1350 -0.9907
10890TIP3   OH232626   0.503   5.973   0.932  0.1235  0.1243  0.3113
10890TIP3    H132627   0.555   5.948   0.855  0.0478  0.0793  0.2740
10890TIP3    H232628   0.567   5.981   1.003  0.2609  0.6462  0.1348
10891TIP3   OH232629   4.616   1.516   1.949 -0.2148 -0.2243 -0.6572
10891TIP3    H132630   4.639   1.527   2.042  1.8184 -0.4255 -1.1073
10891TIP3    H232631   4.577   1.429   1.946 -0.7025 -0.0467  0.0748
10892TIP3   OH232632   1.300   7.273   1.205  0.3285 -0.1759 -0.1832
10892TIP3    H132633   1.357   7.238   1.136  0.1454 -1.1226  0.1299
10892TIP3    H232634   1.336   7.360   1.224  0.5318 -0.0103 -1.2828
10893TIP3   OH232635   5.142   3.907   0.390  0.6067 -0.5005  0.0688
10893TIP3    H132636   5.131   3.832   0.332  1.5562 -0.2629 -0.4397
10893TIP3    H232637   5.195   3.969   0.340 -1.8117  1.4101 -0.3266
10894TIP3   OH232638   5.935   3.650   2.513  0.2764 -0.1637  0.3810
10894TIP3    H132639   5.876   3.721   2.490  1.4751  0.1384 -2.1845
10894TIP3    H232640   5.888   3.600   2.579 -1.6343  1.6010  0.4729
10895TIP3   OH232641   4.797   5.515   3.217  0.4358 -0.4185 -0.2247
10895TIP3    H132642   4.774   5.449   3.152  2.0104 -2.5473  1.2700
10895TIP3    H232643   4.887   5.495   3.241  0.5042  1.4525  1.3121
10896TIP3   OH232644   7.129   1.680   4.698 -0.1409 -0.4883 -1.0386
10896TIP3    H132645   7.037   1.683   4.672 -0.4772 -2.1830 -0.2257
10896TIP3    H232646   7.170   1.620   4.635  0.7642  1.3291 -2.2631
10897TIP3   OH232647   2.708   5.079   2.515  0.0223 -0.0321  0.0915
10897TIP3    H132648   2.712   5.006   2.453 -0.2014 -1.0626  1.2453
10897TIP3    H232649   2.797   5.114   2.517  0.0191  0.0713 -0.8455
10898TIP3   OH232650   4.995   1.512   2.270 -0.4836 -0.1540 -0.6135
10898TIP3    H132651   5.020   1.598   2.304  2.3352 -1.5258  1.2310
10898TIP3    H232652   5.053   1.498   2.196  2.6567 -2.1937  1.9412
10899TIP3   OH232653   4.070   2.691   3.409  0.1863  0.4475  0.0453
10899TIP3    H132654   4.165   2.703   3.411 -0.1192  3.8953 -0.5722
10899TIP3    H232655   4.052   2.652   3.324  1.0170 -0.3130  0.1988
10900TIP3   OH232656   2.681   4.995   0.591 -0.0188 -0.6262 -0.3307
10900TIP3    H132657   2.746   4.992   0.521  0.8351  1.7227  0.2594
10900TIP3    H232658   2.602   4.956   0.554  1.7937 -4.1437 -0.8997
10901TIP3   OH232659   4.555   3.177   5.314 -0.3453 -0.0440  0.4044
10901TIP3    H132660   4.493   3.131   5.370 -0.8773 -0.2666 -0.3535
10901TIP3    H232661   4.593   3.244   5.371 -0.9760 -0.1734  0.9931
10902TIP3   OH232662   3.877   4.476   3.482  0.3768  0.0245 -0.2303
10902TIP3    H132663   3.914   4.548   3.431  1.0092  0.9162  1.3949
10902TIP3    H232664   3.783   4.479   3.465  0.3954  1.2740 -0.1421
10903TIP3   OH232665   0.145   5.668   0.331 -0.2717 -0.4899 -0.4087
10903TIP3    H132666   0.176   5.593   0.381  0.9680 -0.4334 -1.0445
10903TIP3    H232667   0.203   5.740   0.358 -0.2336 -0.2217 -1.1855
10904TIP3   OH232668   5.664   1.440   3.936 -0.5165  0.5433  0.1681
10904TIP3    H132669   5.691   1.445   3.845  1.3615  1.4700  0.7162
10904TIP3    H232670   5.695   1.354   3.965 -0.7671  0.4062  0.0275
10905TIP3   OH232671  -0.008   7.128   2.515  0.1245 -0.5058 -0.4946
10905TIP3    H132672   0.017   7.073   2.441  0.7664  1.8316 -2.1177
10905TIP3    H232673   0.046   7.097   2.588 -0.4181 -2.7558 -0.9851
10906TIP3   OH232674   4.962   3.342   5.087 -0.1366 -0.4851 -0.0718
10906TIP3    H132675   4.889   3.304   5.038 -1.6873  2.4628 -0.2878
10906TIP3    H232676   5.008   3.397   5.023  1.2503 -0.9412  0.4855
10907TIP3   OH232677   0.902   0.829   1.957  0.0780  0.6185 -0.5477
10907TIP3    H132678   0.940   0.845   2.044 -0.6519  0.2766 -0.1582
10907TIP3    H232679   0.978   0.812   1.901  0.4714 -1.3550  0.4887
10908TIP3   OH232680   0.445   0.064   5.699  0.4676  0.0950  0.4882
10908TIP3    H132681   0.530   0.075   5.655  0.8216 -1.3462  0.7525
10908TIP3    H232682   0.467   0.022   5.782 -0.5433 -0.6442  0.3976
10909TIP3   OH232683   0.288   7.412   2.406  0.2988 -0.4946  0.7188
10909TIP3    H132684   0.213   7.371   2.362 -0.1826 -0.8411  1.8389
10909TIP3    H232685   0.308   7.489   2.352  1.6319 -2.4424 -1.8241
10910TIP3   OH232686   2.425   6.208   0.433 -0.5098 -0.0698  0.0113
10910TIP3    H132687   2.430   6.139   0.367 -1.5847  0.1403 -0.3088
10910TIP3    H232688   2.515   6.219   0.463 -0.2562 -1.3515 -0.1939
10911TIP3   OH232689   6.003   3.932   3.909  0.3793 -0.5719 -0.2809
10911TIP3    H132690   6.041   3.895   3.990 -0.4456  0.3441  0.5519
10911TIP3    H232691   5.909   3.922   3.920 -0.2134  4.2739  1.4037
10912TIP3   OH232692   7.801   7.415   3.585  0.3554  0.0960 -0.0401
10912TIP3    H132693   7.713   7.396   3.554  1.7571 -2.9088 -2.8103
10912TIP3    H232694   7.829   7.491   3.533 -0.1779  0.3348  0.0161
10913TIP3   OH232695   1.656   5.500   4.759 -0.2507 -0.4114 -0.3916
10913TIP3    H132696   1.641   5.457   4.843  0.9501 -0.5793 -0.2503
10913TIP3    H232697   1.751   5.506   4.751 -0.3005 -1.1818 -2.1418
10914TIP3   OH232698   7.753   2.174   3.793 -0.0298  0.3893 -0.0179
10914TIP3    H132699   7.770   2.109   3.861  1.1606 -0.0248 -0.6878
10914TIP3    H232700   7.718   2.249   3.840 -0.5817 -0.3990  0.8806
10915TIP3   OH232701   3.183   0.393   3.372  0.4551  0.0382  0.4954
10915TIP3    H132702   3.173   0.319   3.313 -0.3261  1.1462 -0.8349
10915TIP3    H232703   3.138   0.367   3.452  1.2539 -1.3765  0.5017
10916TIP3   OH232704   0.510   0.647   6.165 -0.1028  0.1031 -0.0472
10916TIP3    H132705   0.486   0.675   6.077 -0.8786  0.1770  0.1759
10916TIP3    H232706   0.590   0.696   6.186 -0.2201  0.4926 -0.5031
10917TIP3   OH232707   7.401   6.834   4.448  0.2199  0.7171 -0.2612
10917TIP3    H132708   7.404   6.786   4.365 -1.2930 -0.1543  0.1426
10917TIP3    H232709   7.351   6.913   4.428  0.9743  1.1496 -0.4643
10918TIP3   OH232710   2.721   4.290   5.256  0.1175  0.5465  0.1240
10918TIP3    H132711   2.749   4.231   5.326 -0.5810  0.3776  0.2661
10918TIP3    H232712   2.767   4.258   5.178 -0.8815 -0.7059  0.0249
10919TIP3   OH232713   7.628   1.764   6.540 -0.1585 -0.0381  0.7162
10919TIP3    H132714   7.533   1.767   6.539 -0.1505  0.2130  0.5129
10919TIP3    H232715   7.650   1.675   6.512 -0.2830  0.9198 -2.8678
10920TIP3   OH232716   1.758   1.160   4.619  0.0565 -0.5251  0.1493
10920TIP3    H132717   1.805   1.214   4.682  1.4963 -0.0736 -1.2544
10920TIP3    H232718   1.667   1.190   4.625  0.4492  0.5947  0.8819
10921TIP3   OH232719   0.519   5.331   2.170 -0.3843  0.4292 -0.4666
10921TIP3    H132720   0.586   5.341   2.102  0.7396  0.2362  0.5769
10921TIP3    H232721   0.436   5.340   2.123  0.3136  4.0067 -1.3214
10922TIP3   OH232722   3.761   2.539   3.249 -0.3391  0.3973 -0.1079
10922TIP3    H132723   3.772   2.576   3.336 -0.5345  1.3694 -0.4808
10922TIP3    H232724   3.833   2.576   3.197 -0.6912  0.4719 -0.5550
10923TIP3   OH232725   4.627   4.679   0.741  0.3169  0.2186  0.9669
10923TIP3    H132726   4.617   4.744   0.671  0.8321 -0.1294  0.5596
10923TIP3    H232727   4.539   4.666   0.774 -0.1025 -0.3430 -0.3027
10924TIP3   OH232728   0.762   6.462   4.702  0.4241  0.0718  0.5019
10924TIP3    H132729   0.810   6.381   4.719  0.6229  0.1716  0.4132
10924TIP3    H232730   0.828   6.525   4.674  0.0752 -0.2104 -1.0941
10925TIP3   OH232731   5.888   0.096   0.492 -0.1789  1.0843 -0.6215
10925TIP3    H132732   5.885   0.071   0.584  2.4732  1.5614 -0.3343
10925TIP3    H232733   5.912   0.015   0.446  0.9419  1.3779 -0.5763
10926TIP3   OH232734   4.065   7.361   3.411  0.0301  0.2616  0.4231
10926TIP3    H132735   4.154   7.379   3.441  0.7820 -1.8372 -0.2993
10926TIP3    H232736   4.016   7.440   3.430  2.3468  1.9957 -0.3373
10927TIP3   OH232737   7.185   5.657   5.061  0.0193  0.2167  0.1420
10927TIP3    H132738   7.249   5.715   5.019 -0.6472 -0.3670 -1.7988
10927TIP3    H232739   7.237   5.601   5.118  0.6839  2.6414  2.0781
10928TIP3   OH232740   6.085   1.507   2.281  0.1623 -0.0940  0.1556
10928TIP3    H132741   6.097   1.468   2.367 -0.4332  1.0741  0.7881
10928TIP3    H232742   6.056   1.434   2.226  0.1652 -0.7741  1.0334
10929TIP3   OH232743   0.466   2.643   0.962 -0.7904 -0.0249  0.2978
10929TIP3    H132744   0.479   2.722   0.908  2.9788 -1.2275 -0.8787
10929TIP3    H232745   0.430   2.578   0.901  2.4193 -1.0492 -0.7017
10930TIP3   OH232746   5.157   4.012   4.227  0.1252  0.4173 -0.6447
10930TIP3    H132747   5.236   4.058   4.255  0.0243 -0.4651  1.2521
10930TIP3    H232748   5.100   4.081   4.192  1.1277  1.2835 -0.6142
10931TIP3   OH232749   3.798   2.492   6.111 -0.2973  0.5114 -0.0546
10931TIP3    H132750   3.804   2.584   6.133  1.6451  0.3641  0.1788
10931TIP3    H232751   3.820   2.446   6.192 -0.0407 -0.1367 -0.4796
10932TIP3   OH232752   0.576   7.790   1.529 -0.2971 -0.2035 -0.2428
10932TIP3    H132753   0.605   7.800   1.439 -2.3474  0.0109 -0.9303
10932TIP3    H232754   0.521   7.867   1.545  1.1621  0.5267  1.6966
10933TIP3   OH232755   6.981   2.300   1.894 -0.1981  0.5395 -0.8004
10933TIP3    H132756   6.926   2.274   1.820 -0.5741 -1.5827  0.1442
10933TIP3    H232757   6.935   2.267   1.970  1.4055  0.4892  0.1877
10934TIP3   OH232758   5.440   6.938   1.622 -0.4278 -0.2638 -0.2922
10934TIP3    H132759   5.420   6.908   1.533  1.3111  0.7346 -1.0844
10934TIP3    H232760   5.394   7.022   1.630 -0.5541 -0.3357 -0.2566
10935TIP3   OH232761   2.861   5.262   0.978 -0.0966  0.6492  0.5518
10935TIP3    H132762   2.913   5.333   0.942  2.1788 -0.8397  0.6827
10935TIP3    H232763   2.844   5.204   0.904 -1.2615  0.8941  0.6007
10936TIP3   OH232764   1.751   5.068   2.253  0.3066 -0.8274  0.7561
10936TIP3    H132765   1.745   5.045   2.346 -1.4840 -0.5807  0.7189
10936TIP3    H232766   1.736   5.162   2.250 -0.0471 -0.8973  0.1782
10937TIP3   OH232767   4.376   2.621   5.235 -0.4385  0.8204  0.0361
10937TIP3    H132768   4.456   2.613   5.287 -0.9062 -0.1249  0.6435
10937TIP3    H232769   4.309   2.648   5.299 -0.8597  0.3947 -0.2198
10938TIP3   OH232770   3.894   1.156   3.078 -0.0536  0.0258 -0.1350
10938TIP3    H132771   3.914   1.250   3.076 -3.2220  0.7983 -0.5020
10938TIP3    H232772   3.947   1.119   3.007 -0.1412  1.8698 -1.2184
10939TIP3   OH232773   1.491   1.832   2.080  0.3858  0.0900  0.0020
10939TIP3    H132774   1.405   1.789   2.085  0.2443  0.4855  1.3034
10939TIP3    H232775   1.472   1.918   2.043  0.3390 -0.0852 -0.3945
10940TIP3   OH232776   2.075   3.466   3.906 -0.3170  0.6502  0.0870
10940TIP3    H132777   2.102   3.508   3.825  2.9171  1.4788  1.4066
10940TIP3    H232778   1.982   3.487   3.915 -0.5741  1.2267 -2.9242
10941TIP3   OH232779   8.249   5.114   1.545 -0.0620 -0.1616  0.1299
10941TIP3    H132780   8.252   5.190   1.604 -0.5376  1.4658 -1.8032
10941TIP3    H232781   8.157   5.090   1.542 -0.1034  0.0285 -0.2306
10942TIP3   OH232782   3.880   7.049   3.796 -0.0305  0.5028 -0.0628
10942TIP3    H132783   3.822   7.108   3.749  1.5365  2.1117 -0.0548
10942TIP3    H232784   3.868   7.073   3.888  0.0890  0.3031  0.0051
10943TIP3   OH232785   2.874   5.205   0.665 -0.1491 -0.3543 -0.2657
10943TIP3    H132786   2.797   5.148   0.672  0.6424 -1.2730  1.9404
10943TIP3    H232787   2.843   5.281   0.616 -2.1670 -1.1509 -0.3372
10944TIP3   OH232788   0.464   3.071   1.062  0.0748  0.0129  0.5891
10944TIP3    H132789   0.509   3.155   1.049  1.0445 -0.4731  0.6902
10944TIP3    H232790   0.443   3.069   1.155  0.8058 -0.2051  0.7584
10945TIP3   OH232791   7.926   1.177   1.621  0.3828  0.1694  0.0126
10945TIP3    H132792   7.848   1.226   1.596  0.6965  0.3254 -0.6898
10945TIP3    H232793   7.914   1.158   1.714 -0.1385  0.8420  0.0865
10946TIP3   OH232794   3.069   3.382   3.319 -0.6973 -0.2873  0.4332
10946TIP3    H132795   3.148   3.419   3.279 -0.1387 -1.1458  0.7169
10946TIP3    H232796   3.017   3.458   3.345 -0.1022  0.2852 -0.0251
10947TIP3   OH232797   0.442   1.993   6.284  0.1296 -0.2596  0.2168
10947TIP3    H132798   0.356   1.958   6.263  0.2890  0.5116 -1.9022
10947TIP3    H232799   0.425   2.083   6.311  0.3644  0.3553 -1.5998
10948TIP3   OH232800   1.874   7.027   1.091  0.9488 -0.0237 -0.3952
10948TIP3    H132801   1.968   7.046   1.091  0.8566  0.4809  0.4657
10948TIP3    H232802   1.863   6.958   1.157  0.8211 -0.6734 -1.0858
10949TIP3   OH232803   0.543   5.986   0.405 -0.5711  0.2612 -0.2905
10949TIP3    H132804   0.612   5.951   0.349 -0.7027 -1.4964  0.5768
10949TIP3    H232805   0.473   5.920   0.400 -1.4589  1.1332  0.2575
10950TIP3   OH232806   4.663   5.997   1.170  0.3145 -0.3259  0.1699
10950TIP3    H132807   4.661   6.028   1.079 -0.5730  0.9117  0.5724
10950TIP3    H232808   4.596   6.050   1.214  0.4313 -1.2056  1.4563
10951TIP3   OH232809   0.322   5.452   1.766  0.1843 -0.2629 -0.0338
10951TIP3    H132810   0.264   5.527   1.756  1.9377  1.0570 -1.0778
10951TIP3    H232811   0.319   5.430   1.859 -0.3154  1.1750  0.3113
10952TIP3   OH232812   3.036   6.850   1.914 -0.9278 -0.9109 -0.0116
10952TIP3    H132813   3.108   6.877   1.971 -2.3978  0.1530  1.4489
10952TIP3    H232814   3.057   6.889   1.829 -0.1813  0.0569  0.5915
10953TIP3   OH232815   4.908   2.999   4.121 -0.7580 -0.3513 -0.0730
10953TIP3    H132816   4.951   2.933   4.067  2.2361  0.2345  1.3963
10953TIP3    H232817   4.873   2.951   4.195 -1.5129 -0.6632 -0.6190
10954TIP3   OH232818   2.873   0.663   0.827  0.2758  0.2281 -0.6583
10954TIP3    H132819   2.879   0.568   0.834  1.5335  0.3437  0.2354
10954TIP3    H232820   2.858   0.693   0.917 -1.7833  0.8094 -1.1419
10955TIP3   OH232821   5.892   0.397   5.278  0.6051  0.5009  0.1954
10955TIP3    H132822   5.822   0.365   5.335 -0.1053 -0.1328 -0.9809
10955TIP3    H232823   5.852   0.467   5.227 -0.0467 -1.5685 -2.3480
10956TIP3   OH232824   2.135   1.226   5.833 -0.2216 -0.6934 -0.4684
10956TIP3    H132825   2.132   1.303   5.775 -0.2512 -0.7173 -0.4986
10956TIP3    H232826   2.158   1.154   5.774 -0.0219 -0.6782 -0.4097
10957TIP3   OH232827   1.385   7.221   4.076  0.2176  0.7168 -0.4241
10957TIP3    H132828   1.426   7.205   3.992 -0.9423  1.4884 -1.1622
10957TIP3    H232829   1.440   7.173   4.139  0.0850 -1.3467 -1.7980
10958TIP3   OH232830   6.718   4.101   5.034  0.2507  0.0483  0.7365
10958TIP3    H132831   6.681   4.020   5.070  0.4317 -0.2790  0.1930
10958TIP3    H232832   6.786   4.072   4.973 -1.4206  0.4740 -1.4787
10959TIP3   OH232833   3.532   2.694   2.007 -0.0572  0.7762  0.2565
10959TIP3    H132834   3.465   2.628   1.994  1.3391 -0.6149 -0.2341
10959TIP3    H232835   3.510   2.735   2.090 -1.5438  0.4172  0.0576
10960TIP3   OH232836   7.173   4.358   5.152  0.4785  0.1047  0.4738
10960TIP3    H132837   7.097   4.334   5.205 -0.0733  0.4359 -0.1476
10960TIP3    H232838   7.208   4.436   5.195 -0.0872  0.4902  0.2489
10961TIP3   OH232839   6.582   5.685   6.545 -0.2064  0.3654  0.0574
10961TIP3    H132840   6.650   5.744   6.577  0.1934 -1.0819  2.1388
10961TIP3    H232841   6.522   5.741   6.496  1.3374  2.0533 -0.0126
10962TIP3   OH232842   4.103   7.082   3.431  0.3543  0.0625 -0.0051
10962TIP3    H132843   4.132   7.173   3.439  3.3223 -0.6523 -1.3419
10962TIP3    H232844   4.148   7.049   3.353  1.5810 -3.2936  1.8832
10963TIP3   OH232845   4.831   4.129   3.554  0.3649  0.6578  0.3442
10963TIP3    H132846   4.770   4.126   3.627  0.7473  2.4989  0.7803
10963TIP3    H232847   4.857   4.038   3.541  0.0501  0.2444  2.3039
10964TIP3   OH232848   6.853   1.370   1.136 -0.3359 -0.4077 -0.8418
10964TIP3    H132849   6.827   1.417   1.057 -1.3030 -0.8568 -0.8033
10964TIP3    H232850   6.877   1.283   1.106  1.5857  0.0948 -0.9303
10965TIP3   OH232851   2.258   3.568   0.877 -0.8881  0.6130  0.0507
10965TIP3    H132852   2.338   3.542   0.923 -1.4494 -1.0340  0.1607
10965TIP3    H232853   2.188   3.522   0.923 -1.6074 -0.1039 -1.6867
10966TIP3   OH232854   4.721   0.964   0.331  0.0731 -0.2552 -0.3887
10966TIP3    H132855   4.745   0.992   0.419 -0.3044  1.4600 -0.7921
10966TIP3    H232856   4.787   1.004   0.274 -1.2823  1.0968 -1.1124
10967TIP3   OH232857   5.021   4.726   1.161 -0.2325 -0.4817  0.1741
10967TIP3    H132858   5.020   4.759   1.071  1.0102 -0.0711  0.2979
10967TIP3    H232859   5.112   4.697   1.175  0.1302  1.3414  1.9708
10968TIP3   OH232860   3.279   6.504   1.305 -0.3543  0.1903 -0.0706
10968TIP3    H132861   3.298   6.529   1.396 -1.4236 -1.1269  0.5489
10968TIP3    H232862   3.255   6.587   1.262 -1.6315  0.5900  1.3338
10969TIP3   OH232863   8.269   0.460   1.816 -0.4696 -1.3538 -0.2073
10969TIP3    H132864   8.215   0.521   1.867 -0.8173 -1.9134  0.1032
10969TIP3    H232865   8.295   0.393   1.879  0.3335 -1.2616 -0.4294
10970TIP3   OH232866   0.363   3.759   1.091 -0.4192 -0.8080 -0.0041
10970TIP3    H132867   0.444   3.728   1.051  1.5890  1.5650  1.8511
10970TIP3    H232868   0.316   3.804   1.021  1.0078 -0.2743 -0.6469
10971TIP3   OH232869   0.869   5.230   2.493 -0.0214 -0.0176 -0.5166
10971TIP3    H132870   0.881   5.137   2.510  1.0147  0.1822 -0.0989
10971TIP3    H232871   0.774   5.242   2.491 -0.1632 -1.1603 -1.0591
10972TIP3   OH232872   5.294   0.644   6.324  0.1666 -0.1948 -0.2281
10972TIP3    H132873   5.329   0.654   6.413  1.5600  0.1644 -0.7878
10972TIP3    H232874   5.297   0.732   6.287  1.2525 -0.6080 -1.1965
10973TIP3   OH232875   6.363   0.726   5.450  0.5513 -0.1390 -0.1737
10973TIP3    H132876   6.354   0.649   5.507 -1.3719  0.3190  0.2171
10973TIP3    H232877   6.293   0.717   5.386 -0.1359  1.5859  0.2676
10974TIP3   OH232878   5.492   1.263   5.513 -0.0207 -0.8773 -0.1989
10974TIP3    H132879   5.505   1.346   5.559  0.5176 -2.1292  2.0720
10974TIP3    H232880   5.545   1.271   5.434  1.4249  0.3215  0.8321
10975TIP3   OH232881   4.044   6.243   5.697  0.1197  0.0676 -0.0387
10975TIP3    H132882   4.078   6.173   5.753  1.1543 -1.5793 -2.5476
10975TIP3    H232883   3.950   6.226   5.691  0.0766 -0.0151  0.7914
10976TIP3   OH232884   2.234   7.163   6.577 -0.4203 -0.1440 -0.3164
10976TIP3    H132885   2.140   7.176   6.567 -0.0315  1.7328 -2.1977
10976TIP3    H232886   2.245   7.068   6.569 -2.4091 -0.8952  3.4829
10977TIP3   OH232887   2.541   3.717   6.498 -0.0809  0.3507  0.2206
10977TIP3    H132888   2.487   3.671   6.562  0.2026 -2.0337 -1.1406
10977TIP3    H232889   2.485   3.728   6.421  0.6007  0.1027 -0.3254
10978TIP3   OH232890   6.144   5.894   1.237  0.4877 -0.4157 -0.3768
10978TIP3    H132891   6.079   5.964   1.240  0.2266 -0.6538  2.0727
10978TIP3    H232892   6.223   5.936   1.203  0.2277  0.9962  0.6769
10979TIP3   OH232893   8.071   3.089   6.244 -0.0745  0.0292  0.5532
10979TIP3    H132894   8.158   3.050   6.235  0.8243  1.9460  0.4138
10979TIP3    H232895   8.029   3.038   6.313  0.6994 -1.6765 -0.1855
10980TIP3   OH232896   0.089   0.303   4.925  0.3469  0.1722  0.2986
10980TIP3    H132897   0.030   0.378   4.919 -1.0387 -0.8754  0.3997
10980TIP3    H232898   0.042   0.239   4.978  2.0136 -0.3169  1.2660
10981TIP3   OH232899   6.238   6.323   0.295  0.0031  0.2821 -0.4861
10981TIP3    H132900   6.311   6.384   0.305  0.7625 -0.7003  0.1653
10981TIP3    H232901   6.278   6.236   0.297 -1.3414 -0.4085  2.1222
10982TIP3   OH232902   7.878  -0.002   1.619  0.0707 -0.4811 -0.0703
10982TIP3    H132903   7.965   0.030   1.642  0.3265 -1.0688 -0.2051
10982TIP3    H232904   7.851   0.052   1.545  1.4593 -2.0133 -1.7878
10983TIP3   OH232905   0.094   2.493   4.562 -0.1203  0.4910 -0.6708
10983TIP3    H132906   0.010   2.530   4.589  0.0789  1.2493 -1.0684
10983TIP3    H232907   0.136   2.468   4.644 -0.3394  0.9771 -0.4051
10984TIP3   OH232908   4.549   0.778   1.313  0.3918  0.1857  0.3307
10984TIP3    H132909   4.468   0.742   1.278  0.5374  0.1751 -0.0021
10984TIP3    H232910   4.527   0.869   1.335  0.0622 -0.0661  1.0439
10985TIP3   OH232911   4.709   0.548   0.361 -0.0326  0.1306 -0.7140
10985TIP3    H132912   4.673   0.621   0.411 -0.2276  0.6453 -1.5799
10985TIP3    H232913   4.690   0.570   0.270  1.7886  0.0461 -1.1476
10986TIP3   OH232914   7.903   5.203   1.244  0.1618  0.1076 -0.9520
10986TIP3    H132915   7.983   5.251   1.221  1.7898 -1.5479  0.8284
10986TIP3    H232916   7.878   5.239   1.329  1.2703 -1.8918  0.2915
10987TIP3   OH232917   1.405   1.180   1.686  0.1845  0.1163  0.2008
10987TIP3    H132918   1.392   1.101   1.739  0.4967 -0.0125  0.0844
10987TIP3    H232919   1.475   1.227   1.731  0.5876 -0.0894 -0.2087
10988TIP3   OH232920   5.577   0.370   2.256 -0.3851  0.2718 -0.6845
10988TIP3    H132921   5.609   0.446   2.304 -0.5798 -0.3206  0.3942
10988TIP3    H232922   5.535   0.315   2.321  1.4541 -1.7101 -1.0475
10989TIP3   OH232923   0.107   7.295   6.746 -0.1262  0.2444  0.0459
10989TIP3    H132924   0.131   7.370   6.693 -0.2144 -0.9559 -1.7598
10989TIP3    H232925   0.034   7.254   6.699 -1.1825 -0.0813  1.8361
10990TIP3   OH232926   6.314   2.458   1.583  0.3419 -0.0286 -0.5852
10990TIP3    H132927   6.360   2.442   1.501  0.3612  0.2834 -0.6364
10990TIP3    H232928   6.237   2.400   1.579  0.5107 -0.2472 -0.6788
10991TIP3   OH232929   4.842   5.966   4.231 -0.3505  0.0090 -0.1589
10991TIP3    H132930   4.796   6.041   4.268 -0.1979  0.1258 -0.2074
10991TIP3    H232931   4.783   5.892   4.247 -0.0782 -0.0220  0.7216
10992TIP3   OH232932   4.832   2.929   5.865 -0.1147 -0.3015  0.0630
10992TIP3    H132933   4.789   2.844   5.853 -1.8132  0.4238  0.7007
10992TIP3    H232934   4.846   2.961   5.776  1.4432 -1.6478 -0.2155
10993TIP3   OH232935   7.452   4.824   6.724  0.4225 -0.4212 -0.4933
10993TIP3    H132936   7.410   4.744   6.694 -0.5173 -0.2702  0.3672
10993TIP3    H232937   7.467   4.875   6.644 -2.2072  0.0668 -0.7768
10994TIP3   OH232938   0.262   5.024   2.695 -0.1730  0.7144 -0.1754
10994TIP3    H132939   0.226   4.973   2.622 -0.9336 -0.1691  0.7796
10994TIP3    H232940   0.350   4.988   2.708  0.0208  0.9781 -0.7539
10995TIP3   OH232941   8.167   0.264   6.035 -0.3308 -0.0613 -0.1653
10995TIP3    H132942   8.236   0.200   6.019 -0.4863 -0.0511 -0.9240
10995TIP3    H232943   8.176   0.287   6.127  0.8895  0.1873 -0.3256
10996TIP3   OH232944   7.042   4.276   0.051  0.8075 -0.0530  0.5168
10996TIP3    H132945   7.067   4.345  -0.011  0.2812  0.7395  1.1613
10996TIP3    H232946   7.067   4.312   0.137 -1.3221  0.2266  1.0625
10997TIP3   OH232947   3.032   1.835   1.353  0.2092 -0.8033  0.4884
10997TIP3    H132948   2.948   1.855   1.312  0.3168  1.2233  1.1239
10997TIP3    H232949   3.058   1.917   1.396  2.5205 -1.3659  0.3194
10998TIP3   OH232950   6.723   7.609   0.066 -0.1892  0.5973 -0.3651
10998TIP3    H132951   6.759   7.567   0.143 -0.1965  0.6682 -0.3232
10998TIP3    H232952   6.666   7.678   0.100 -0.8276  0.1082 -0.4192
10999TIP3   OH232953   3.322   5.012   2.888 -0.6460 -0.5289  0.2411
10999TIP3    H132954   3.416   5.019   2.904 -0.8308  2.4095  0.7397
10999TIP3    H232955   3.291   4.946   2.950  0.9624 -0.8188  0.7755
11000TIP3   OH232956   5.028   4.626   3.615 -0.0016  0.1721 -0.0819
11000TIP3    H132957   5.022   4.539   3.575  0.2822  0.6165 -1.1393
11000TIP3    H232958   5.006   4.612   3.707 -1.6659 -0.7367 -0.5773
11001TIP3   OH232959   0.397   0.460   5.150 -0.0523 -0.2504  0.1753
11001TIP3    H132960   0.481   0.502   5.129  0.1778 -0.6272  0.3174
11001TIP3    H232961   0.362   0.511   5.223  0.2090 -0.2842  0.3250
11002TIP3   OH232962   5.693   5.776   4.251  0.0053  0.0954 -0.0929
11002TIP3    H132963   5.603   5.745   4.241 -0.1830  0.3188  0.8098
11002TIP3    H232964   5.685   5.871   4.260  0.2636  0.0490  0.7007
11003TIP3   OH232965   0.284   2.628   0.257 -0.1894  0.0604  0.2826
11003TIP3    H132966   0.277   2.672   0.172 -0.1845 -1.0812 -0.3293
11003TIP3    H232967   0.204   2.653   0.303  0.0830  1.1633  0.1814
11004TIP3   OH232968   4.506   4.324   1.860  0.1537  0.0010 -0.4093
11004TIP3    H132969   4.520   4.285   1.946  0.2534  1.4646  0.2742
11004TIP3    H232970   4.552   4.267   1.799  0.7270 -0.6372  0.6054
11005TIP3   OH232971   3.980   5.635   3.951  0.0300  0.3176  0.1319
11005TIP3    H132972   3.971   5.541   3.965  0.2617  0.3480  0.5065
11005TIP3    H232973   4.048   5.662   4.013 -0.5552  0.8567  0.5533
11006TIP3   OH232974   5.494   5.976   4.482 -0.1883  0.1981 -0.1661
11006TIP3    H132975   5.465   5.890   4.514  0.4996 -0.3313 -0.9118
11006TIP3    H232976   5.449   6.039   4.538 -1.5603 -0.6162 -0.2948
11007TIP3   OH232977   7.154   3.005   1.641  0.6745  0.1263 -0.3713
11007TIP3    H132978   7.208   2.926   1.643  1.6505  0.7818  0.7220
11007TIP3    H232979   7.156   3.037   1.731 -3.4601 -1.0411  0.3261
11008TIP3   OH232980   7.302   5.948   0.533 -0.1247  0.3732 -0.3564
11008TIP3    H132981   7.304   5.856   0.558 -0.1936  0.4298 -0.1390
11008TIP3    H232982   7.349   5.993   0.603 -0.0030  0.4912 -0.5138
11009TIP3   OH232983   7.637   6.831   4.245  0.0711  0.2987 -0.4429
11009TIP3    H132984   7.666   6.740   4.255 -0.5429  0.0088 -1.2649
11009TIP3    H232985   7.637   6.866   4.334  0.4675 -0.4511 -0.1405
11010TIP3   OH232986   6.146   1.882   2.386  0.1773 -0.9363 -0.4428
11010TIP3    H132987   6.113   1.970   2.371  3.4434  0.2753 -1.4623
11010TIP3    H232988   6.160   1.846   2.299 -0.3515 -2.1903 -0.0363
11011TIP3   OH232989   0.752   2.114   2.521  0.1477 -0.0114  0.0819
11011TIP3    H132990   0.671   2.105   2.472 -0.1454  0.4509  0.4784
11011TIP3    H232991   0.820   2.087   2.459 -0.2192  0.5467 -0.5764
11012TIP3   OH232992   6.763   4.575   2.778  0.1204  0.4475  0.5128
11012TIP3    H132993   6.730   4.642   2.719 -0.0971  0.8350  1.0656
11012TIP3    H232994   6.832   4.619   2.829  0.8133 -0.0812  0.0545
11013TIP3   OH232995   0.557   1.989   3.646  0.2164  0.3802  0.3560
11013TIP3    H132996   0.503   2.060   3.612 -0.3700  0.0929  0.6903
11013TIP3    H232997   0.550   1.919   3.581 -1.1659 -0.2928  1.2049
11014TIP3   OH232998   4.999   7.265   1.891 -0.2614  0.2743 -0.1278
11014TIP3    H132999   4.984   7.321   1.815  0.3167 -2.1599 -2.1742
11014TIP3    H233000   4.943   7.301   1.959  0.3151  3.4610 -1.1908
11015TIP3   OH233001   6.741   6.540   2.697  0.3671  0.0874  0.5162
11015TIP3    H133002   6.829   6.567   2.668  0.1552 -0.6271 -0.9260
11015TIP3    H233003   6.745   6.444   2.696  0.4300  0.0005  3.3081
11016TIP3   OH233004   3.040   4.241   2.949 -0.5507 -0.2725 -0.1136
11016TIP3    H133005   3.018   4.155   2.986 -0.0390 -0.7024 -0.7807
11016TIP3    H233006   2.963   4.294   2.964 -1.0674 -0.9999 -0.1392
11017TIP3   OH233007   7.172   0.804   5.798 -0.1445  0.2211 -0.1020
11017TIP3    H133008   7.101   0.864   5.775 -1.0822 -0.7651  0.1322
11017TIP3    H233009   7.240   0.861   5.833 -0.6449  1.2366 -0.7230
11018TIP3   OH233010   7.947   1.923   1.049 -0.1755  0.3346 -0.1438
11018TIP3    H133011   8.032   1.892   1.080  0.3711  1.0936 -0.8406
11018TIP3    H233012   7.928   2.000   1.103 -0.9670 -0.4481  0.7617
11019TIP3   OH233013   5.294   4.177   2.392 -0.3141 -0.1923 -0.3892
11019TIP3    H133014   5.219   4.234   2.375 -0.1326  0.2306  0.1582
11019TIP3    H233015   5.360   4.236   2.429 -0.4060 -0.8814  0.9662
11020TIP3   OH233016   5.774   5.308   6.172 -0.0430  0.2319 -0.2877
11020TIP3    H133017   5.818   5.224   6.170 -0.4671  0.0072 -2.2601
11020TIP3    H233018   5.842   5.372   6.148  0.0832  0.3605  0.3954
11021TIP3   OH233019   7.931   6.092   5.092 -0.3873 -0.2348  0.4697
11021TIP3    H133020   7.919   6.094   4.997  2.2528  1.1722  0.0883
11021TIP3    H233021   7.881   6.168   5.123  0.8543  0.8615 -0.1329
11022TIP3   OH233022   1.536   4.537   0.350 -0.7795  0.0406 -0.1804
11022TIP3    H133023   1.524   4.489   0.432 -1.7278  2.1140  0.9728
11022TIP3    H233024   1.447   4.565   0.325 -0.1714  2.1060 -0.1833
11023TIP3   OH233025   2.245   0.971   4.063  0.1265 -0.0339  0.4412
11023TIP3    H133026   2.258   1.002   3.974  0.4789 -0.4961  0.3308
11023TIP3    H233027   2.169   1.021   4.095 -1.6059 -1.6499 -0.9680
11024TIP3   OH233028   1.579   0.221   2.335 -0.5015 -0.2206  0.6370
11024TIP3    H133029   1.535   0.301   2.307  0.3545 -0.4145 -1.4591
11024TIP3    H233030   1.509   0.168   2.374 -1.8319  0.1303 -1.1345
11025TIP3   OH233031   1.130   7.614   0.535  0.0308  0.6712  0.1075
11025TIP3    H133032   1.153   7.596   0.444  1.4323  1.5627  0.2589
11025TIP3    H233033   1.114   7.708   0.537 -0.0965  0.6373  0.7590
11026TIP3   OH233034   0.145   3.360   3.324 -0.5180  0.6013  0.8129
11026TIP3    H133035   0.072   3.365   3.387 -1.9213  1.9623 -0.8107
11026TIP3    H233036   0.150   3.448   3.287  1.4376  0.3014  0.2473
11027TIP3   OH233037   5.637   7.690   3.408  0.4993 -0.3617  0.3501
11027TIP3    H133038   5.603   7.660   3.492 -1.8011 -0.2908 -0.4809
11027TIP3    H233039   5.621   7.617   3.348  2.3717 -0.5179 -0.0034
11028TIP3   OH233040   4.550   3.018   1.528  0.2139  0.7509 -0.4858
11028TIP3    H133041   4.461   2.988   1.511 -0.7562  0.4608  4.0590
11028TIP3    H233042   4.601   2.983   1.454 -2.7037 -2.7586 -1.1317
11029TIP3   OH233043   4.286   7.056   3.220  0.1296  0.0369 -0.2498
11029TIP3    H133044   4.326   6.981   3.177  2.0337  0.7630  0.1529
11029TIP3    H233045   4.254   7.111   3.148  0.6257 -0.1617 -0.6229
11030TIP3   OH233046   0.146   7.447   6.528  0.0312 -0.1047  0.0833
11030TIP3    H133047   0.222   7.488   6.570  0.7030 -0.8246 -0.3968
11030TIP3    H233048   0.184   7.382   6.469 -0.9361 -0.0026 -0.6780
11031TIP3   OH233049   2.618   2.499   4.106 -0.1113 -0.0357  0.0514
11031TIP3    H133050   2.688   2.471   4.164  1.5408 -0.4137 -2.0161
11031TIP3    H233051   2.558   2.425   4.103 -0.7413  0.3427  1.9467
11032TIP3   OH233052   1.515   4.549   4.488  0.4250  0.3199 -0.3754
11032TIP3    H133053   1.485   4.516   4.403  1.9464 -2.1954 -0.0201
11032TIP3    H233054   1.603   4.581   4.472  0.8656 -0.5205  0.3144
11033TIP3   OH233055   2.379   3.144   6.228  0.0084  0.7874 -0.2398
11033TIP3    H133056   2.463   3.190   6.232 -0.8868  2.4925  0.1448
11033TIP3    H233057   2.391   3.066   6.281  1.3830  0.9300 -0.3014
11034TIP3   OH233058   2.584   4.885   4.725 -0.3653  0.3327 -0.7035
11034TIP3    H133059   2.658   4.890   4.664  0.5297 -0.1296  0.3123
11034TIP3    H233060   2.596   4.960   4.784 -0.0343 -0.3794  0.1646
11035TIP3   OH233061   5.149   3.628   2.613  0.1600  0.2230 -0.5269
11035TIP3    H133062   5.072   3.679   2.636 -0.4710 -1.1961  0.6291
11035TIP3    H233063   5.141   3.614   2.519 -1.2780 -0.3304 -0.3425
11036TIP3   OH233064   7.469   3.932   6.568  0.5085  0.2502  0.2280
11036TIP3    H133065   7.506   3.861   6.516  2.4827  1.4017 -0.0541
11036TIP3    H233066   7.378   3.906   6.584  0.3832 -1.0402 -2.1626
11037TIP3   OH233067   5.667   0.690   6.544 -0.0670  0.7402  0.2942
11037TIP3    H133068   5.701   0.698   6.633  0.9640  1.7794 -0.1700
11037TIP3    H233069   5.572   0.702   6.553 -0.0364  0.2899  1.3103
11038TIP3   OH233070   7.525   0.215   5.871 -0.0716  0.0155  0.0240
11038TIP3    H133071   7.515   0.270   5.949  0.3426  0.4661 -0.2326
11038TIP3    H233072   7.461   0.145   5.883  0.8030 -0.6096  1.3462
11039TIP3   OH233073   4.198   0.375   0.746 -0.1235 -0.2598  0.8028
11039TIP3    H133074   4.224   0.336   0.662  2.3503  1.0486  0.8831
11039TIP3    H233075   4.114   0.417   0.727  0.3281 -0.0770 -0.9996
11040TIP3   OH233076   1.395   0.685   4.045  0.4006 -0.2814  0.0299
11040TIP3    H133077   1.384   0.607   4.100  1.8741 -0.8764 -0.4764
11040TIP3    H233078   1.483   0.677   4.010  0.0917  0.9570 -1.0877
11041TIP3   OH233079   4.664   6.084   5.739 -0.1289  0.6071 -0.5519
11041TIP3    H133080   4.738   6.053   5.687 -1.1490  0.5941 -2.0615
11041TIP3    H233081   4.587   6.044   5.698 -0.9190 -0.4542  1.7653
11042TIP3   OH233082   2.527   4.902   5.334  0.1607 -0.2190  0.0201
11042TIP3    H133083   2.577   4.820   5.335  0.0302 -0.2928  0.4176
11042TIP3    H233084   2.447   4.882   5.383  0.5784  0.4342  0.9888
11043TIP3   OH233085   5.800   2.499   4.905 -0.3626 -0.4476 -0.3295
11043TIP3    H133086   5.740   2.497   4.980  1.0927  1.3079  0.9608
11043TIP3    H233087   5.805   2.591   4.880  0.7877 -0.7327 -1.2679
11044TIP3   OH233088   4.125   2.053   0.420 -0.0652  0.0133 -0.7572
11044TIP3    H133089   4.082   2.118   0.476  2.0436  0.5933  0.2779
11044TIP3    H233090   4.054   1.996   0.391 -1.3650  0.2012  1.8186
11045TIP3   OH233091   0.455   4.749   4.417  0.4637 -0.2339  0.2007
11045TIP3    H133092   0.487   4.748   4.327 -0.9156  0.3123 -0.3183
11045TIP3    H233093   0.421   4.837   4.430 -0.6872 -0.7394  0.7654
11046TIP3   OH233094   2.242   0.092   4.662 -0.2403 -0.5611 -0.5116
11046TIP3    H133095   2.295   0.102   4.582  1.6379 -0.5320  0.6713
11046TIP3    H233096   2.296   0.036   4.718 -1.3853 -0.3186  0.8591
11047TIP3   OH233097   5.695   5.787   3.595 -0.1110 -0.1044 -0.2149
11047TIP3    H133098   5.691   5.720   3.662  1.4583  0.1893  0.2007
11047TIP3    H233099   5.713   5.868   3.642  1.0398  0.1024 -0.9703
11048TIP3   OH233100   6.505   5.684   6.006 -0.0149 -0.4852 -0.3375
11048TIP3    H133101   6.509   5.779   6.006 -1.1167 -0.4201 -0.1368
11048TIP3    H233102   6.430   5.663   6.061  1.0420 -1.5272  0.7744
11049TIP3   OH233103   1.643   7.496   3.035 -0.0343 -0.4518 -0.1735
11049TIP3    H133104   1.583   7.432   2.998  1.4117 -1.9012 -0.1190
11049TIP3    H233105   1.687   7.535   2.960  0.8613 -1.3380 -0.1224
11050TIP3   OH233106   1.455   4.549   3.794  0.2754  0.3327  0.1799
11050TIP3    H133107   1.500   4.465   3.803  1.1711  0.7695 -0.1517
11050TIP3    H233108   1.389   4.532   3.727  1.8450  0.4264 -1.4712
11051TIP3   OH233109   3.128   6.675   1.609  0.1081  0.5393  0.0358
11051TIP3    H133110   3.042   6.676   1.567 -0.5679 -2.7030  1.0113
11051TIP3    H233111   3.164   6.588   1.587  2.1786  0.9506  1.4669
11052TIP3   OH233112   5.428   5.009   5.261 -0.0209  0.3888  0.5666
11052TIP3    H133113   5.428   5.070   5.188 -0.5186 -0.9018 -0.5526
11052TIP3    H233114   5.353   4.952   5.245  0.5672 -0.6694  1.4385
11053TIP3   OH233115   2.547   1.180   5.821  0.1028 -1.1006 -0.5138
11053TIP3    H133116   2.574   1.197   5.731  0.8593 -0.8186 -0.2381
11053TIP3    H233117   2.625   1.144   5.863  0.5993  1.2455  0.7339
11054TIP3   OH233118   6.153   2.491   6.291  0.1167  0.1043 -0.2197
11054TIP3    H133119   6.241   2.509   6.325  1.2391 -1.3851 -2.1236
11054TIP3    H233120   6.168   2.433   6.216 -2.2731  2.0065 -2.3531
11055TIP3   OH233121   4.987   1.578   5.930  0.3254  0.0282  0.4364
11055TIP3    H133122   5.035   1.532   5.861 -1.3264 -1.7551  0.3870
11055TIP3    H233123   4.967   1.510   5.995 -1.6512  0.7854  0.6884
11056TIP3   OH233124   5.324   5.722   1.449 -0.2725  0.1718 -0.3152
11056TIP3    H133125   5.362   5.803   1.482  0.8819  0.4055 -2.1007
11056TIP3    H233126   5.386   5.691   1.383 -0.8178 -2.0408  0.1350
11057TIP3   OH233127   6.056   7.458   3.837 -0.3862 -0.0611 -0.7751
11057TIP3    H133128   6.042   7.366   3.817  0.2664 -0.5426  0.8686
11057TIP3    H233129   5.970   7.499   3.823 -1.1261 -1.2387  0.1755
11058TIP3   OH233130   1.658   4.852   6.197  0.1966  0.1546 -0.3807
11058TIP3    H133131   1.685   4.937   6.232  1.1543  0.9531 -2.8413
11058TIP3    H233132   1.563   4.850   6.209  0.1756  1.5122 -0.1859
11059TIP3   OH233133   4.558   7.584   4.183  0.4836  0.1388 -0.1987
11059TIP3    H133134   4.473   7.588   4.140 -0.0205 -0.2188  0.7427
11059TIP3    H233135   4.593   7.497   4.159  0.7169  0.3948 -0.8096
11060TIP3   OH233136   6.901   0.341   4.658 -0.2591  0.2107  0.2520
11060TIP3    H133137   6.865   0.255   4.679  3.3500 -1.4098  0.4900
11060TIP3    H233138   6.853   0.402   4.714 -0.5618 -2.1497  2.7430
11061TIP3   OH233139   6.126   3.836   0.476  0.6038 -0.0239  0.1229
11061TIP3    H133140   6.107   3.748   0.441  0.8477  0.7893 -2.2317
11061TIP3    H233141   6.045   3.861   0.521  0.1618 -1.0513 -0.0493
11062TIP3   OH233142   1.548   1.406   2.136 -0.0501 -0.1475 -0.3912
11062TIP3    H133143   1.616   1.471   2.152 -0.3870  0.4903 -1.4212
11062TIP3    H233144   1.504   1.396   2.220  1.7890 -1.1859  0.5229
11063TIP3   OH233145   2.251   5.055   2.338 -0.3729  0.0114 -0.1860
11063TIP3    H133146   2.312   5.120   2.373 -0.7515 -0.0820  0.6829
11063TIP3    H233147   2.268   5.054   2.244  2.4048 -1.4800  0.2091
11064TIP3   OH233148   4.870   1.110   2.322 -0.5418 -0.2247  0.4508
11064TIP3    H133149   4.878   1.025   2.366  0.2022 -0.2855  0.2154
11064TIP3    H233150   4.960   1.141   2.314 -0.7770  0.3859  0.1356
11065TIP3   OH233151   1.861   3.067   5.761 -0.0572 -0.0789 -0.4249
11065TIP3    H133152   1.796   2.998   5.747 -0.0310 -0.3932  0.8364
11065TIP3    H233153   1.945   3.024   5.743  0.0087 -0.5978  0.9780
11066TIP3   OH233154   3.647   4.550   0.851  0.3757 -0.2201 -0.3449
11066TIP3    H133155   3.682   4.494   0.782 -0.9545 -0.6699 -0.6821
11066TIP3    H233156   3.623   4.489   0.921 -0.0517  0.0377 -0.2622
11067TIP3   OH233157   2.572   2.634   6.686  0.0953 -0.1493 -0.0872
11067TIP3    H133158   2.552   2.545   6.716  0.1423 -0.8552 -2.0177
11067TIP3    H233159   2.666   2.642   6.697  0.1929 -0.6056 -0.5484
11068TIP3   OH233160   3.783   1.517   6.693  0.2212 -0.0139  0.2496
11068TIP3    H133161   3.711   1.577   6.674 -0.3654 -1.4048 -2.3946
11068TIP3    H233162   3.740   1.433   6.712  1.1067 -0.3985  0.6130
11069TIP3   OH233163   5.392   7.205   5.588  0.3185  0.4682  0.0487
11069TIP3    H133164   5.435   7.123   5.565  1.6136  0.6800  1.5597
11069TIP3    H233165   5.434   7.271   5.532  0.6659  0.3910  0.2155
11070TIP3   OH233166   7.241   6.608   3.154 -0.3316  0.3863 -0.4373
11070TIP3    H133167   7.281   6.578   3.073 -1.4700 -0.9851 -0.5403
11070TIP3    H233168   7.146   6.604   3.137 -0.6023 -0.3503  1.0924
11071TIP3   OH233169   8.279   2.587   2.938 -0.0056 -0.1792 -0.1488
11071TIP3    H133170   8.330   2.513   2.904 -0.2150 -0.5157  0.2607
11071TIP3    H233171   8.198   2.547   2.969 -0.4786  0.3378 -0.6871
11072TIP3   OH233172   1.761   6.050   5.717 -0.0877  0.1896 -0.1007
11072TIP3    H133173   1.752   5.966   5.763 -1.4785 -0.0709 -0.7846
11072TIP3    H233174   1.694   6.106   5.757  0.5089  0.8336  0.0158
11073TIP3   OH233175   6.546   2.105   2.519 -0.4079  0.2800  0.4480
11073TIP3    H133176   6.479   2.158   2.562 -0.4077 -0.0105  0.8108
11073TIP3    H233177   6.621   2.107   2.578  0.8463  2.6073 -1.0384
11074TIP3   OH233178   1.527   4.093   4.351  0.2412 -0.1230  0.0225
11074TIP3    H133179   1.433   4.108   4.343  0.1572  0.1073  1.3035
11074TIP3    H233180   1.541   4.008   4.309 -0.3552  0.3174 -1.1163
11075TIP3   OH233181   3.763   2.975   2.049  0.1739  0.3166  0.8905
11075TIP3    H133182   3.834   2.952   2.109  0.5282  1.8120  1.0941
11075TIP3    H233183   3.792   2.944   1.964  2.6624  3.6061  0.3133
11076TIP3   OH233184   6.042   0.726   3.792  0.1307 -0.4917 -0.1090
11076TIP3    H133185   6.027   0.634   3.813 -2.2592  0.2471  1.8452
11076TIP3    H233186   6.115   0.752   3.848  1.1747 -1.2922 -1.0645
11077TIP3   OH233187   1.918   5.085   4.218  1.0579  0.6947 -0.1979
11077TIP3    H133188   1.882   5.121   4.137 -1.1637  2.5715  1.4608
11077TIP3    H233189   2.013   5.083   4.203  0.7181  0.8255 -2.8549
11078TIP3   OH233190   4.309   7.360   3.515  0.3325  0.2078 -0.5138
11078TIP3    H133191   4.383   7.318   3.472 -1.0817 -0.8028 -2.0576
11078TIP3    H233192   4.291   7.306   3.592  0.0023 -0.6808 -1.2010
11079TIP3   OH233193   3.676   6.306   5.354  0.2184 -0.1395 -0.0711
11079TIP3    H133194   3.671   6.314   5.259  2.5156  0.1584 -0.2080
11079TIP3    H233195   3.637   6.387   5.387 -1.3368 -0.5937 -0.6900
11080TIP3   OH233196   7.564   5.382   1.639 -0.0271  0.3555  0.3939
11080TIP3    H133197   7.632   5.340   1.586 -1.0764 -1.3707  0.3561
11080TIP3    H233198   7.491   5.321   1.638 -1.4908  2.0207  0.6983
11081TIP3   OH233199   3.923   4.407   4.187  0.6684 -0.2120  0.3240
11081TIP3    H133200   3.941   4.322   4.226 -0.6585 -0.3922  0.5864
11081TIP3    H233201   4.000   4.460   4.209  0.8724 -0.9156  1.3922
11082TIP3   OH233202   0.461   7.759   4.623 -0.3227 -0.0269  0.3868
11082TIP3    H133203   0.412   7.688   4.582  0.9682 -1.8035  1.7121
11082TIP3    H233204   0.522   7.714   4.682 -0.5864  2.2496  2.5689
11083TIP3   OH233205   6.707   2.613   5.230 -0.5953  0.4567 -0.2174
11083TIP3    H133206   6.749   2.615   5.316 -0.6881  0.2436 -0.1663
11083TIP3    H233207   6.735   2.694   5.187 -2.2666  1.6877  0.8540
11084TIP3   OH233208   0.660   1.286   4.408 -0.2526  0.3637 -0.6830
11084TIP3    H133209   0.627   1.299   4.319  0.0446  3.1811 -0.4489
11084TIP3    H233210   0.755   1.287   4.399 -0.2212  0.8443 -0.3271
11085TIP3   OH233211   7.917   5.715   2.323  0.1009 -0.1139 -0.2468
11085TIP3    H133212   7.928   5.632   2.276  4.5929 -0.1857  0.4156
11085TIP3    H233213   7.908   5.781   2.254  0.6197 -0.8001 -0.9938
11086TIP3   OH233214   5.665   3.976   3.845 -0.0288  0.4617  0.1746
11086TIP3    H133215   5.588   4.002   3.794  0.8916  2.9259 -0.1301
11086TIP3    H233216   5.739   3.999   3.788  0.9849  1.5147  1.8480
11087TIP3   OH233217   7.239   4.586   1.880  0.5466  0.2769  0.9026
11087TIP3    H133218   7.152   4.612   1.849 -0.1394 -1.0162  1.6456
11087TIP3    H233219   7.295   4.659   1.857 -0.3992  0.4529 -1.0843
11088TIP3   OH233220   3.147   1.895   1.111 -0.1716 -0.3011  0.0518
11088TIP3    H133221   3.107   1.845   1.182  2.0384 -1.9882  0.2253
11088TIP3    H233222   3.139   1.838   1.034  1.0404 -0.3142 -0.0950
11089TIP3   OH233223   4.521   3.069   2.900 -0.2474  0.0221 -0.1144
11089TIP3    H133224   4.522   3.165   2.892 -0.2335  0.1285  0.9747
11089TIP3    H233225   4.429   3.045   2.894 -0.5335  0.3678  1.9856
11090TIP3   OH233226   1.109   7.836   1.946 -0.0132 -0.2762 -0.1582
11090TIP3    H133227   1.096   7.747   1.979  0.4887 -0.7066 -1.1059
11090TIP3    H233228   1.055   7.841   1.867  0.1859  0.1706 -0.2685
11091TIP3   OH233229   1.716   7.390   3.723 -0.4479 -1.0186  0.3538
11091TIP3    H133230   1.724   7.300   3.693  1.5459 -0.5879 -0.5419
11091TIP3    H233231   1.662   7.433   3.655  2.0345 -0.6237 -1.5007
11092TIP3   OH233232   6.983   4.304   5.319 -0.3933 -0.0361 -0.7443
11092TIP3    H133233   7.027   4.241   5.377 -0.2037 -1.1534 -2.0386
11092TIP3    H233234   6.952   4.373   5.377 -1.5460 -1.8514  0.9230
11093TIP3   OH233235   0.892   0.352   0.730 -0.2611  0.0181 -0.3540
11093TIP3    H133236   0.935   0.381   0.650 -0.8042 -0.4783 -0.8279
11093TIP3    H233237   0.804   0.325   0.703 -0.9211  1.0545  0.5988
11094TIP3   OH233238   7.118   4.604   5.429 -0.1200  0.6203  0.2380
11094TIP3    H133239   7.169   4.603   5.348  1.7015 -0.0270  1.3355
11094TIP3    H233240   7.139   4.688   5.470  0.5245  0.1190  0.9587
11095TIP3   OH233241   0.885   6.252   3.475 -0.1000  0.1095  0.8749
11095TIP3    H133242   0.834   6.327   3.445 -0.5564 -0.0413  1.2670
11095TIP3    H233243   0.872   6.185   3.408 -0.9853 -0.1713  1.3132
11096TIP3   OH233244   1.818   1.557   4.251 -0.5036 -1.1120  0.2753
11096TIP3    H133245   1.848   1.483   4.199  0.4801 -1.0803  0.7832
11096TIP3    H233246   1.732   1.578   4.215 -0.2279 -1.6576 -0.7305
11097TIP3   OH233247   6.566   3.780   0.768 -0.0552 -0.4037  0.1130
11097TIP3    H133248   6.537   3.761   0.679 -1.0883 -0.0076  0.3440
11097TIP3    H233249   6.497   3.837   0.804  0.9326  0.4192  0.7669
11098TIP3   OH233250   0.828   4.935   2.501 -0.3770 -0.3667 -0.0063
11098TIP3    H133251   0.813   4.854   2.452  1.1242 -0.2664 -0.6969
11098TIP3    H233252   0.890   4.910   2.569  1.1891  0.4358 -1.0671
11099TIP3   OH233253   7.637   4.117   5.326 -0.1728  0.4120  0.5222
11099TIP3    H133254   7.699   4.113   5.399  0.0667 -0.4130  0.2938
11099TIP3    H233255   7.686   4.079   5.252  0.2371  2.8751 -0.5576
11100TIP3   OH233256   4.498   4.788   0.171 -0.3645  0.2907  0.4027
11100TIP3    H133257   4.487   4.694   0.185  0.8468  0.3090  1.6638
11100TIP3    H233258   4.568   4.795   0.106 -1.0719  0.3324 -0.3790
11101TIP3   OH233259   6.821   1.399   1.405 -0.2462 -0.2203  0.1456
11101TIP3    H133260   6.792   1.482   1.443 -0.5302 -0.3155  0.1377
11101TIP3    H233261   6.860   1.423   1.321  2.4713  0.2866  1.4242
11102TIP3   OH233262   7.331   4.803   5.836 -0.5126  0.2539  0.2273
11102TIP3    H133263   7.355   4.889   5.869  2.3856 -0.1683 -0.5309
11102TIP3    H233264   7.391   4.743   5.880  0.2792 -0.8641 -2.2066
11103TIP3   OH233265   0.673   2.737   6.621  0.5518 -0.0874  0.4339
11103TIP3    H133266   0.622   2.664   6.585  0.7558  0.4428 -1.0052
11103TIP3    H233267   0.758   2.698   6.641  0.9321 -0.0993 -1.1047
11104TIP3   OH233268   3.940   0.456   3.871  0.3678  0.0947 -0.1255
11104TIP3    H133269   3.872   0.399   3.835  1.2900 -0.6792 -0.6996
11104TIP3    H233270   3.942   0.437   3.964 -0.6357  0.6032  0.0129
11105TIP3   OH233271   6.903   4.090   6.156 -0.5630 -0.1665 -0.2155
11105TIP3    H133272   6.842   4.034   6.203 -0.1796 -0.3094  0.1199
11105TIP3    H233273   6.969   4.114   6.222 -0.5765  0.4506 -0.4269
11106TIP3   OH233274   1.435   6.890   2.762  0.1265 -0.2696 -0.7175
11106TIP3    H133275   1.353   6.922   2.798 -0.1962 -1.0808 -0.7061
11106TIP3    H233276   1.464   6.822   2.823  1.8922  1.3920  0.4136
11107TIP3   OH233277   7.943   0.491   3.640  0.0192  0.3320 -0.0663
11107TIP3    H133278   7.946   0.513   3.547 -0.2736  0.6883  0.0041
11107TIP3    H233279   7.912   0.571   3.682  1.9801  0.8094  0.5596
11108TIP3   OH233280   4.728   4.448   3.909  0.0037 -0.8066  0.5857
11108TIP3    H133281   4.792   4.517   3.888 -0.3389 -0.3339  1.0600
11108TIP3    H233282   4.748   4.377   3.848  1.2334 -0.8191  0.9739
11109TIP3   OH233283   3.518   7.493   3.396  0.0427 -0.2756 -0.1059
11109TIP3    H133284   3.549   7.548   3.324 -0.4623  1.2698  0.8183
11109TIP3    H233285   3.565   7.525   3.473  0.6094 -1.9288  0.2801
11110TIP3   OH233286   7.877   5.192   6.206 -0.2572 -0.3395 -0.1819
11110TIP3    H133287   7.911   5.106   6.229  1.0304 -0.0202 -0.8043
11110TIP3    H233288   7.931   5.254   6.255 -2.6246  0.1060  2.0678
11111TIP3   OH233289   6.459   1.332   5.953 -0.4940 -0.2699 -0.5741
11111TIP3    H133290   6.515   1.406   5.975 -0.0362 -0.0945 -2.2542
11111TIP3    H233291   6.518   1.266   5.915 -0.8947 -1.5145  0.8493
11112TIP3   OH233292   1.009   6.719   6.724  0.0939  0.1888 -0.0312
11112TIP3    H133293   1.043   6.700   6.811 -0.6510 -1.0696  0.0206
11112TIP3    H233294   1.059   6.794   6.694  1.0782 -0.0027  1.0616
11113TIP3   OH233295   1.035   6.596   5.649 -0.1583  0.5127  0.2625
11113TIP3    H133296   1.053   6.594   5.555 -1.5982 -2.9103 -0.0519
11113TIP3    H233297   0.973   6.525   5.664 -2.4311  2.8715  3.3882
11114TIP3   OH233298   4.044   7.659   1.392 -0.0592  0.0849 -0.0795
11114TIP3    H133299   4.047   7.599   1.317 -0.3506 -1.2123  0.9003
11114TIP3    H233300   3.976   7.622   1.448  1.7752 -0.3658  1.9606
11115TIP3   OH233301   3.168   1.233   6.099  0.2321  0.2061  0.2131
11115TIP3    H133302   3.255   1.225   6.059  0.2722  1.4716 -0.0058
11115TIP3    H233303   3.166   1.166   6.167 -0.0196 -2.3947 -2.1683
11116TIP3   OH233304   7.119   7.621   0.761 -0.4072  0.6272  0.2431
11116TIP3    H133305   7.039   7.671   0.780 -0.9442  0.1008 -0.5599
11116TIP3    H233306   7.115   7.546   0.821 -0.2727  0.8472  0.5300
11117TIP3   OH233307   8.148   0.041   1.344 -0.3208 -0.0865 -0.1193
11117TIP3    H133308   8.138  -0.047   1.307  0.6245 -0.3639  0.2613
11117TIP3    H233309   8.150   0.027   1.439 -2.4747  0.5943  0.0987
11118TIP3   OH233310   1.392   6.123   2.140  0.0955 -0.4338  0.0115
11118TIP3    H133311   1.415   6.077   2.060 -0.7345  0.3499 -0.6972
11118TIP3    H233312   1.373   6.213   2.112 -2.7732 -0.7454  0.6438
11119TIP3   OH233313   5.303   0.366   4.440 -0.1960  0.1982  0.1635
11119TIP3    H133314   5.215   0.396   4.419 -1.4506 -1.0608  3.0707
11119TIP3    H233315   5.359   0.442   4.426 -1.7698  1.1345 -1.3966
11120TIP3   OH233316   1.263   4.334   5.871  0.5151 -0.1733 -0.2378
11120TIP3    H133317   1.180   4.326   5.919  0.3543  0.9723 -0.2991
11120TIP3    H233318   1.251   4.411   5.815  1.3641 -0.4220 -0.7766
11121TIP3   OH233319   5.606   4.314   1.970 -0.7480  0.1913 -0.1169
11121TIP3    H133320   5.613   4.269   1.886  0.8135 -0.2609  0.2179
11121TIP3    H233321   5.569   4.248   2.029  0.9184 -0.4871  0.2165
11122TIP3   OH233322   1.326   3.459   4.225  0.3533  0.4638  0.6729
11122TIP3    H133323   1.273   3.520   4.175 -0.9987  0.3782  1.9335
11122TIP3    H233324   1.354   3.393   4.162  0.2262  1.3256 -0.3074
11123TIP3   OH233325   2.384   4.334   3.471  0.0669 -0.3072  0.1090
11123TIP3    H133326   2.388   4.247   3.510  0.5108 -0.2756  0.1313
11123TIP3    H233327   2.443   4.388   3.524 -0.1824  0.0024  0.0803
11124TIP3   OH233328   6.819   2.936   0.914 -0.5496  0.1930 -0.6816
11124TIP3    H133329   6.851   3.023   0.892  0.4743 -0.6505 -2.7597
11124TIP3    H233330   6.803   2.939   1.009 -2.0423  3.0753 -0.9227
11125TIP3   OH233331   0.079   5.114   4.673  0.3229  0.1661  0.3742
11125TIP3    H133332   0.094   5.196   4.628  2.2706  0.1412  0.8870
11125TIP3    H233333   0.096   5.134   4.765  2.0838 -1.0441  0.3630
11126TIP3   OH233334   2.989   4.159   5.925  0.3342 -0.5188 -0.4794
11126TIP3    H133335   3.063   4.212   5.896  0.2442  0.6094  1.2566
11126TIP3    H233336   2.914   4.219   5.923  0.0512 -0.8246  0.6236
11127TIP3   OH233337   1.612   2.635   6.399 -0.8561 -0.2370  0.7447
11127TIP3    H133338   1.688   2.654   6.454 -1.2794 -0.1456  1.3153
11127TIP3    H233339   1.648   2.608   6.315 -0.2059  0.2767  0.8595
11128TIP3   OH233340   1.432   7.625   4.060 -0.0934 -0.1814  0.1410
11128TIP3    H133341   1.384   7.615   3.978  0.3958  1.8576 -0.4494
11128TIP3    H233342   1.363   7.626   4.127 -0.4495 -2.5011 -0.1338
11129TIP3   OH233343   2.815   5.038   4.754 -0.0786 -0.0707  0.3700
11129TIP3    H133344   2.905   5.071   4.758  0.1629 -0.4750 -1.1389
11129TIP3    H233345   2.763   5.112   4.724 -0.4896  0.5271  2.4170
11130TIP3   OH233346   4.019   2.963   3.104 -0.0380  0.5572 -0.3120
11130TIP3    H133347   3.962   2.988   3.176 -1.7053 -0.8391 -1.0725
11130TIP3    H233348   4.009   2.868   3.097  1.0948  0.4951 -1.5411
11131TIP3   OH233349   6.897   6.068   6.243  1.0680  0.4128  1.3168
11131TIP3    H133350   6.977   6.024   6.215  1.7164 -0.3007  3.9487
11131TIP3    H233351   6.923   6.115   6.323 -0.7399  1.6278  1.2573
11132TIP3   OH233352   0.073   4.856   4.398 -0.3100  0.0944  0.0297
11132TIP3    H133353   0.083   4.838   4.491  0.5117 -0.5714 -0.1705
11132TIP3    H233354   0.011   4.929   4.393 -0.7832 -0.2260  1.0626
11133TIP3   OH233355   6.140   4.456   4.233  0.8034  0.6558 -0.3102
11133TIP3    H133356   6.139   4.392   4.162 -1.8745  0.0815  0.1494
11133TIP3    H233357   6.085   4.528   4.202  2.0260  1.8007  0.0514
11134TIP3   OH233358   0.234   7.314   5.634 -0.3984 -0.1766  0.1947
11134TIP3    H133359   0.261   7.392   5.681 -1.1630  1.1595 -1.4699
11134TIP3    H233360   0.138   7.314   5.640 -0.4517 -0.5373 -0.4587
11135TIP3   OH233361   6.852   4.323   5.650  0.0027  0.2118  0.3952
11135TIP3    H133362   6.845   4.252   5.586  2.0082  0.0671  0.2647
11135TIP3    H233363   6.841   4.280   5.734 -1.9203  0.2851  0.2166
11136TIP3   OH233364   2.868   2.651   0.263 -0.4033 -0.5206  0.2052
11136TIP3    H133365   2.833   2.627   0.177  1.3017  0.9459 -0.9746
11136TIP3    H233366   2.900   2.569   0.299 -2.2409 -1.3668  0.0090
11137TIP3   OH233367   2.457   1.240   4.802 -0.0250  0.5711  0.2866
11137TIP3    H133368   2.476   1.254   4.895  0.6034 -1.3367  0.4926
11137TIP3    H233369   2.520   1.295   4.756  0.0577  1.0759  0.9888
11138TIP3   OH233370   7.189   2.160   2.422  0.4122  0.2650  0.6441
11138TIP3    H133371   7.096   2.149   2.406  0.3560  0.5017  0.8044
11138TIP3    H233372   7.231   2.100   2.361  0.1404 -0.1755  0.8880
11139TIP3   OH233373   5.782   4.521   1.750  0.0308  0.1148 -0.0190
11139TIP3    H133374   5.853   4.585   1.746  0.8712 -0.8271 -0.7233
11139TIP3    H233375   5.702   4.573   1.744  0.7057  1.0522 -1.2939
11140TIP3   OH233376   2.075   6.699   5.416  0.0732  0.1773 -0.1750
11140TIP3    H133377   1.996   6.652   5.391 -0.8787  1.2765  0.6432
11140TIP3    H233378   2.112   6.729   5.334  0.9553 -2.2974 -0.7640
11141TIP3   OH233379   7.678   4.559   4.759  0.0368 -0.3073 -0.1111
11141TIP3    H133380   7.691   4.481   4.813 -0.0128  0.4376  1.0050
11141TIP3    H233381   7.732   4.627   4.800 -0.4484  0.4292 -0.6584
11142TIP3   OH233382   4.085   2.566   3.792  0.1363  0.8502  0.8743
11142TIP3    H133383   4.111   2.656   3.773 -0.7984  0.6694 -1.4998
11142TIP3    H233384   4.014   2.575   3.856  0.9866  1.6807  1.7559
11143TIP3   OH233385   3.060   2.898   0.585 -0.2218  0.2546 -0.6890
11143TIP3    H133386   3.100   2.969   0.534  1.5291 -0.7278 -0.7686
11143TIP3    H233387   3.057   2.932   0.674  1.0843  0.2735 -0.6276
11144TIP3   OH233388   6.178   7.338   2.146  0.5630 -0.1512 -0.9676
11144TIP3    H133389   6.209   7.265   2.200  2.0606 -0.0358 -1.6283
11144TIP3    H233390   6.083   7.333   2.151  0.6607 -1.4550 -0.0767
11145TIP3   OH233391   3.730   7.061   4.342 -0.0314  0.3417 -0.2224
11145TIP3    H133392   3.758   6.985   4.393  0.0588  0.0444 -0.7151
11145TIP3    H233393   3.761   7.044   4.253 -2.0841 -0.1931 -0.8900
11146TIP3   OH233394   5.747   4.251   6.544 -0.1752 -0.0276  0.5204
11146TIP3    H133395   5.694   4.318   6.501  0.0818 -0.6218 -0.7828
11146TIP3    H233396   5.829   4.296   6.566  0.4710 -0.1343 -1.4134
11147TIP3   OH233397   7.193   1.141   5.047  0.2695 -0.2214  0.0182
11147TIP3    H133398   7.127   1.166   5.112  0.4314  2.3322 -0.6573
11147TIP3    H233399   7.237   1.065   5.085  0.6787  1.3984  3.1691
11148TIP3   OH233400   6.079   6.946   5.917  0.3761 -0.0332 -0.7921
11148TIP3    H133401   6.161   6.994   5.923  0.0012  0.5231  0.0968
11148TIP3    H233402   6.051   6.957   5.826 -0.0747  2.1190 -0.4522
11149TIP3   OH233403   1.403   3.109   3.492  0.6676 -0.1564  0.1067
11149TIP3    H133404   1.348   3.178   3.530 -0.3604 -2.3284  2.9347
11149TIP3    H233405   1.363   3.091   3.407 -1.0463  0.5368  0.7221
11150TIP3   OH233406   4.366   6.704   4.883  0.1429 -0.0709  0.5670
11150TIP3    H133407   4.323   6.648   4.818  0.8728 -1.9519  1.6091
11150TIP3    H233408   4.459   6.684   4.875  0.4412  1.1245  0.8815
11151TIP3   OH233409   5.530   5.766   4.006  0.0756  0.5904  0.2516
11151TIP3    H133410   5.514   5.860   4.016 -2.4497  0.2062  0.5637
11151TIP3    H233411   5.443   5.727   4.014  1.2176 -1.8882  1.3273
11152TIP3   OH233412   7.746   1.981   4.915 -0.1947  0.1345  0.3988
11152TIP3    H133413   7.768   1.888   4.922 -0.3109  0.1591  1.2891
11152TIP3    H233414   7.652   1.984   4.934 -0.6458  0.2196 -1.6531
11153TIP3   OH233415   6.724   2.488   3.884  0.4106 -0.1711 -0.0099
11153TIP3    H133416   6.783   2.425   3.925  0.1595 -0.6911 -0.4511
11153TIP3    H233417   6.722   2.562   3.946  2.2020  0.2417 -0.3817
11154TIP3   OH233418   3.261   7.094   3.481 -0.3856  0.0092 -0.1800
11154TIP3    H133419   3.228   7.167   3.428  0.4660  0.9377  0.5223
11154TIP3    H233420   3.268   7.131   3.570 -0.6835 -1.1697  0.3514
11155TIP3   OH233421   6.652   1.580   3.503 -0.3431 -0.3042  0.2453
11155TIP3    H133422   6.743   1.562   3.482  0.1171  1.3943  0.5985
11155TIP3    H233423   6.606   1.572   3.419  0.3424 -0.0080 -0.1681
11156TIP3   OH233424   4.435   0.431   6.069 -0.7962  0.3930  0.0191
11156TIP3    H133425   4.407   0.522   6.079 -1.2454  0.6271 -2.5786
11156TIP3    H233426   4.355   0.380   6.082 -1.7051  0.7793 -3.1359
11157TIP3   OH233427   7.521   1.158   4.864 -0.5760  0.1732  0.0069
11157TIP3    H133428   7.608   1.189   4.887 -1.3343  0.8207  2.2172
11157TIP3    H233429   7.493   1.215   4.792  0.9506 -0.3510 -1.0629
11158TIP3   OH233430   2.978   4.112   6.304 -0.4307  0.0543  0.3049
11158TIP3    H133431   2.998   4.121   6.397  1.2251 -0.3795  0.0276
11158TIP3    H233432   3.001   4.021   6.283  0.4556  0.4962 -0.7861
11159TIP3   OH233433   2.844   6.694   6.076 -0.6277 -0.8718  0.1635
11159TIP3    H133434   2.938   6.693   6.059 -0.1028  0.1604  2.6044
11159TIP3    H233435   2.817   6.603   6.063  1.2116 -1.7044  1.7021
11160TIP3   OH233436   4.624   2.827   1.915  0.0090 -0.6835 -0.3128
11160TIP3    H133437   4.549   2.840   1.972 -1.5259 -0.4579 -2.2808
11160TIP3    H233438   4.660   2.915   1.902  0.6502 -0.7900  0.6167
11161TIP3   OH233439   5.498   5.702   5.156  0.2494 -0.1606  0.5377
11161TIP3    H133440   5.533   5.622   5.119  0.2023  0.2835 -0.5107
11161TIP3    H233441   5.414   5.676   5.194  0.2862 -0.6273  0.3075
11162TIP3   OH233442   1.005   4.166   6.143 -0.1467  0.1877 -0.6989
11162TIP3    H133443   1.032   4.254   6.168 -0.6922 -0.2844  1.8057
11162TIP3    H233444   1.078   4.110   6.168 -1.2976 -0.4807  1.4674
11163TIP3   OH233445   2.365   4.301   5.402  0.0330  0.5017  0.3037
11163TIP3    H133446   2.304   4.242   5.447 -1.0318  0.2181 -1.4391
11163TIP3    H233447   2.440   4.307   5.462  0.0237 -2.3012  0.7438
11164TIP3   OH233448   7.433   3.903   2.492 -0.1732  0.0761  0.0433
11164TIP3    H133449   7.485   3.839   2.540  1.1741  0.7153 -0.5097
11164TIP3    H233450   7.368   3.851   2.445  0.2420 -0.7831  0.4003
11165TIP3   OH233451   0.091   0.588   6.536 -0.0084 -0.1212  0.1473
11165TIP3    H133452   0.089   0.594   6.631 -0.4990  2.5788  0.0419
11165TIP3    H233453   0.025   0.651   6.506 -1.3566 -2.3484 -1.9992
11166TIP3   OH233454   2.259   5.708   6.557  0.1462  0.4065  0.7312
11166TIP3    H133455   2.239   5.763   6.481  0.3468 -1.7103 -0.9377
11166TIP3    H233456   2.350   5.682   6.543 -0.5128 -1.8852  0.4174
11167TIP3   OH233457   1.140   4.699   6.396  0.0952 -0.2792 -0.1949
11167TIP3    H133458   1.148   4.682   6.303 -0.2132 -0.0328 -0.2704
11167TIP3    H233459   1.226   4.680   6.432  0.4237  0.3203 -0.6430
11168TIP3   OH233460   7.655   7.487   3.862  0.4289  0.0002  0.3542
11168TIP3    H133461   7.748   7.463   3.858  0.2121 -0.6848 -1.0190
11168TIP3    H233462   7.656   7.583   3.860  1.1347  0.0295  1.3575
11169TIP3   OH233463   6.959   4.301   1.937  0.6312  0.0088  0.4143
11169TIP3    H133464   7.027   4.287   1.871  0.2579 -0.6915  0.1614
11169TIP3    H233465   7.006   4.336   2.013  1.2215 -0.1525  0.1310
11170TIP3   OH233466   1.007   1.295   4.047  0.7345  0.4288 -0.3765
11170TIP3    H133467   0.974   1.372   4.093  0.1967 -1.5594  2.8260
11170TIP3    H233468   0.934   1.265   3.993  0.6771  1.6179 -0.9920
11171TIP3   OH233469   6.725   5.517   3.051 -0.0265 -0.2358  0.0790
11171TIP3    H133470   6.689   5.428   3.056  0.0683 -0.2640  0.2430
11171TIP3    H233471   6.648   5.574   3.053 -0.2166 -0.3549 -1.6449
11172TIP3   OH233472   6.350   3.008   4.572  0.2894  0.3698 -0.1238
11172TIP3    H133473   6.318   2.978   4.657  0.7519 -1.4252 -0.5417
11172TIP3    H233474   6.393   3.091   4.590 -0.8343  0.7152  1.1450
11173TIP3   OH233475   0.433   1.205   2.033  0.1257  0.2945  0.0236
11173TIP3    H133476   0.495   1.255   2.087  0.1435  0.3722 -0.0689
11173TIP3    H233477   0.473   1.118   2.026  0.9851  0.7699 -1.2970
11174TIP3   OH233478   1.261   0.097   4.260  0.4766  0.4882  0.4859
11174TIP3    H133479   1.182   0.060   4.300 -1.2524  0.1405 -2.9125
11174TIP3    H233480   1.333   0.060   4.311 -1.3514 -3.1288  0.7934
11175TIP3   OH233481   3.803   3.957   1.383  0.3038  0.2006 -0.3999
11175TIP3    H133482   3.716   3.998   1.385 -0.3159 -1.0677  0.8244
11175TIP3    H233483   3.815   3.930   1.292 -0.8173 -0.0191 -0.5040
11176TIP3   OH233484   6.485   3.246   1.072 -0.1950  0.5748 -0.1554
11176TIP3    H133485   6.509   3.226   1.163  0.5462  1.6445 -0.0938
11176TIP3    H233486   6.427   3.321   1.078  1.4716  1.9789 -0.6298
11177TIP3   OH233487   4.070   5.711   4.708  0.0821 -0.3623 -0.3249
11177TIP3    H133488   3.985   5.681   4.741  0.4617 -0.2948  0.7510
11177TIP3    H233489   4.111   5.755   4.783  1.1000 -0.4557 -0.8069
11178TIP3   OH233490   2.505   6.582   5.739  1.3465  0.4913 -0.4002
11178TIP3    H133491   2.449   6.554   5.666 -1.8862  1.1053  1.6400
11178TIP3    H233492   2.542   6.666   5.711  0.6100  0.4517 -1.5347
11179TIP3   OH233493   3.573   0.006   2.416 -0.0528  0.4937  0.2792
11179TIP3    H133494   3.479   0.023   2.410 -0.1068  0.3137  0.5850
11179TIP3    H233495   3.592   0.008   2.510  0.0594 -0.4761  0.2903
11180TIP3   OH233496   3.778   6.988   0.000 -0.1755  0.8532  0.1653
11180TIP3    H133497   3.825   7.056   0.047 -0.0691 -1.1746  3.3763
11180TIP3    H233498   3.829   6.908   0.015 -1.3059 -0.3120 -1.7163
11181TIP3   OH233499   5.436   1.020   4.201 -0.0261 -0.5237 -0.0090
11181TIP3    H133500   5.372   1.080   4.239 -0.8651  0.1489 -2.3117
11181TIP3    H233501   5.461   0.962   4.273 -0.3033  1.6205  1.9315
11182TIP3   OH233502   1.315   5.250   3.609 -0.4758  0.0518 -0.0877
11182TIP3    H133503   1.346   5.291   3.690  0.0694  1.1868 -0.8409
11182TIP3    H233504   1.265   5.174   3.639 -1.3304  1.1080  1.3890
11183TIP3   OH233505   7.679   1.729   5.585 -0.2480 -0.1550  0.7999
11183TIP3    H133506   7.721   1.789   5.647 -0.4861 -0.0634  0.8753
11183TIP3    H233507   7.751   1.695   5.532 -0.1470  0.4231  0.5586
11184TIP3   OH233508   6.723   0.440   2.320  0.0037 -0.0781  0.6369
11184TIP3    H133509   6.798   0.499   2.331  0.9429 -1.1660  0.2116
11184TIP3    H233510   6.677   0.474   2.244  0.8622 -0.2042  0.0439
11185TIP3   OH233511   7.058   3.154   3.946 -0.1645 -0.3800  0.3142
11185TIP3    H133512   6.978   3.190   3.985 -0.8171 -0.2255 -1.0986
11185TIP3    H233513   7.106   3.116   4.019 -0.3590  1.6819  1.5809
11186TIP3   OH233514   8.012   5.375   5.166 -0.6624  0.1696  0.1999
11186TIP3    H133515   8.054   5.292   5.143  0.5561  1.0938 -1.1271
11186TIP3    H233516   7.936   5.381   5.109 -0.8651 -0.1305  0.4407
11187TIP3   OH233517   6.170   7.247   6.330 -0.3447 -0.1949  0.0259
11187TIP3    H133518   6.200   7.163   6.297 -0.1402 -0.8245  1.7194
11187TIP3    H233519   6.208   7.312   6.270  2.2765 -1.1116  0.6042
11188TIP3   OH233520   0.804   7.197   4.269 -0.5521 -0.7256  0.0546
11188TIP3    H133521   0.744   7.130   4.237 -0.3893 -0.3950 -0.9990
11188TIP3    H233522   0.751   7.250   4.328 -0.6680 -1.7911  0.9365
11189TIP3   OH233523   0.792   4.240   4.572  0.4226 -0.3930 -0.2465
11189TIP3    H133524   0.878   4.280   4.554  0.8914 -1.0144  0.5834
11189TIP3    H233525   0.739   4.312   4.606  0.8752 -0.1994  0.0535
11190TIP3   OH233526   6.962   1.882   5.327  0.5305  0.1504  0.6704
11190TIP3    H133527   7.030   1.836   5.279  0.6403 -0.4304  1.3568
11190TIP3    H233528   6.893   1.899   5.263  1.1054  0.3038  0.0886
11191TIP3   OH233529   6.677   4.766   2.594  0.4345  0.0052 -0.1301
11191TIP3    H133530   6.587   4.798   2.584 -0.3525 -2.2971 -1.2598
11191TIP3    H233531   6.703   4.741   2.505  1.6350 -0.7367  0.4104
11192TIP3   OH233532   6.255   5.431   3.421 -0.1205  0.0882 -0.1991
11192TIP3    H133533   6.338   5.447   3.376  0.9130  0.1526  1.6389
11192TIP3    H233534   6.281   5.406   3.510 -2.0464 -1.0524  0.0841
11193TIP3   OH233535   3.152   0.664   3.365  0.3154 -0.6298  0.2429
11193TIP3    H133536   3.065   0.665   3.325  0.7306  0.3290 -0.6720
11193TIP3    H233537   3.165   0.572   3.391 -0.9962 -0.7748  0.4942
11194TIP3   OH233538   0.144   4.930   2.464  0.1819 -0.1389 -0.3434
11194TIP3    H133539   0.138   4.900   2.373  0.4054  1.6209 -0.9842
11194TIP3    H233540   0.059   4.971   2.482  0.3845  0.1317  0.0095
11195TIP3   OH233541   6.609   0.164   5.844  0.1763 -0.0218 -0.3581
11195TIP3    H133542   6.692   0.203   5.818 -0.1308  1.0456  0.2245
11195TIP3    H233543   6.592   0.097   5.778  1.1981  0.1632 -0.8166
11196TIP3   OH233544   4.328   2.002   0.887 -0.1509  0.2929  0.3389
11196TIP3    H133545   4.401   1.942   0.904 -0.3057  0.4404  1.6408
11196TIP3    H233546   4.250   1.947   0.893 -0.1854  0.1350 -1.0547
11197TIP3   OH233547   5.953   3.606   1.577 -0.2752  0.4447  0.9409
11197TIP3    H133548   5.900   3.621   1.498 -0.5297 -1.0684  0.7972
11197TIP3    H233549   6.029   3.663   1.566 -0.5522  0.6307 -0.1511
11198TIP3   OH233550   1.842   3.761   3.706  0.3680  0.0280 -0.3014
11198TIP3    H133551   1.801   3.760   3.620  1.1217 -0.5796 -0.6675
11198TIP3    H233552   1.808   3.682   3.749 -0.3695  0.5774  0.1419
11199TIP3   OH233553   4.672   2.941   2.387  0.0650  0.2773 -0.3448
11199TIP3    H133554   4.742   2.880   2.361 -0.3521 -0.3790  0.0383
11199TIP3    H233555   4.618   2.891   2.448  1.0815  1.8002  1.9204
11200TIP3   OH233556   8.271   1.043   3.898 -0.2611  0.3818 -0.5468
11200TIP3    H133557   8.304   1.069   3.812 -0.0140  1.8984 -0.0285
11200TIP3    H233558   8.207   0.974   3.880  0.8740 -0.3798 -1.8183
11201TIP3   OH233559   4.105   4.173   5.527 -0.7809  0.5723  0.1161
11201TIP3    H133560   4.039   4.112   5.560 -0.9262  0.1903 -0.8544
11201TIP3    H233561   4.129   4.139   5.441 -0.9154  1.9159 -0.4815
11202TIP3   OH233562   4.808   7.063   3.003  0.3989  0.1834 -0.1801
11202TIP3    H133563   4.769   7.144   2.970 -0.8638  0.6367  2.1948
11202TIP3    H233564   4.902   7.081   3.005  0.1559  1.5687  0.1641
11203TIP3   OH233565   6.265   7.824   3.005 -0.1193 -0.5009 -0.0389
11203TIP3    H133566   6.199   7.773   3.052 -0.4801 -0.0187 -0.0143
11203TIP3    H233567   6.339   7.764   2.996  0.5440 -0.1694  2.4683
11204TIP3   OH233568   1.897   0.404   0.394  0.3162  0.1474  0.3974
11204TIP3    H133569   1.885   0.445   0.480  1.7748  2.7503 -0.5342
11204TIP3    H233570   1.862   0.467   0.332  0.9108 -0.8878 -1.0358
11205TIP3   OH233571   0.854   5.502   0.174  0.5222 -0.3104  0.1132
11205TIP3    H133572   0.843   5.410   0.149  2.0676 -0.4116 -0.2855
11205TIP3    H233573   0.948   5.512   0.192  0.8153  1.6557 -1.9314
11206TIP3   OH233574   7.367   4.907   3.555  0.5300 -0.1691 -0.6294
11206TIP3    H133575   7.288   4.946   3.593  0.6942  1.2597 -1.6581
11206TIP3    H233576   7.439   4.947   3.604  0.6485 -0.9926 -0.1152
11207TIP3   OH233577   6.053   7.618   4.634  0.4191  0.1192 -0.0385
11207TIP3    H133578   6.080   7.709   4.622  1.4117 -0.2988 -1.1811
11207TIP3    H233579   6.044   7.584   4.546  0.4924 -1.0175  0.3740
11208TIP3   OH233580   5.570   6.215   6.716 -0.4674  0.3310 -0.2148
11208TIP3    H133581   5.663   6.197   6.725 -0.2990  1.0710 -0.4584
11208TIP3    H233582   5.562   6.263   6.634 -0.8246  1.9850  0.7498
11209TIP3   OH233583   0.140   6.533   2.729  0.3522  0.5003 -0.1543
11209TIP3    H133584   0.132   6.628   2.720  0.7963  0.5117 -0.4397
11209TIP3    H233585   0.210   6.508   2.669 -0.6466 -0.1713 -1.0837
11210TIP3   OH233586   7.351   6.966   0.690  0.7374 -0.0199 -0.4202
11210TIP3    H133587   7.322   6.880   0.719  0.3078 -0.5023 -2.1322
11210TIP3    H233588   7.279   6.999   0.637  1.5031  0.7328 -1.0299
11211TIP3   OH233589   6.683   1.492   5.677  0.1640 -0.3092 -0.4612
11211TIP3    H133590   6.667   1.426   5.744 -2.0287  1.3376  0.7604
11211TIP3    H233591   6.662   1.448   5.595 -2.4456 -0.8539  0.4105
11212TIP3   OH233592   4.310   5.599   5.310  0.0205  0.2655 -0.0209
11212TIP3    H133593   4.290   5.515   5.350 -1.8754 -0.6279 -2.5899
11212TIP3    H233594   4.396   5.587   5.271 -0.9624 -1.1750 -1.8839
11213TIP3   OH233595   1.266   1.918   1.790  0.0744 -0.3867 -0.1570
11213TIP3    H133596   1.354   1.942   1.760  0.7081 -2.7128 -0.3221
11213TIP3    H233597   1.210   1.940   1.715  1.1249 -2.6406 -1.7142
11214TIP3   OH233598   2.923   0.650   4.789 -0.2206  0.9744  0.2488
11214TIP3    H133599   2.875   0.709   4.731 -0.1849  1.7395  0.9773
11214TIP3    H233600   2.884   0.664   4.875 -1.6425 -1.6047  0.1303
11215TIP3   OH233601   5.669   7.150   4.289 -0.7918 -0.0069  1.0790
11215TIP3    H133602   5.681   7.055   4.292 -1.4114 -0.1575 -0.4397
11215TIP3    H233603   5.577   7.162   4.267 -1.1519  0.9977  2.9443
11216TIP3   OH233604   8.025   5.835   5.691  0.0915  0.5967  0.2476
11216TIP3    H133605   7.989   5.873   5.771  0.5931 -0.4545  1.0078
11216TIP3    H233606   8.101   5.889   5.670  1.6172 -0.6737  2.0902
11217TIP3   OH233607   0.341   4.224   1.007 -0.4110 -0.2146 -0.5183
11217TIP3    H133608   0.350   4.256   0.917  1.8233  3.6051  0.8238
11217TIP3    H233609   0.404   4.152   1.013  0.3614  0.3220 -1.6977
11218TIP3   OH233610   0.171   7.258   2.179 -0.0973  0.2748 -0.6901
11218TIP3    H133611   0.260   7.290   2.164  0.1122 -0.5287 -1.2022
11218TIP3    H233612   0.178   7.163   2.172 -0.8294  0.1474  0.1838
11219TIP3   OH233613   6.749   2.719   1.227  0.5572  0.0475 -0.0726
11219TIP3    H133614   6.750   2.639   1.279 -0.3947  0.1104  0.0634
11219TIP3    H233615   6.784   2.694   1.142 -0.3470 -0.6724 -0.2420
11220TIP3   OH233616   6.697   3.798   4.311  0.3246 -0.4886  0.4923
11220TIP3    H133617   6.773   3.770   4.260  0.1365 -0.9481  0.4648
11220TIP3    H233618   6.672   3.882   4.273  0.2849 -0.7549 -0.0719
11221TIP3   OH233619   2.409   6.340   6.741  0.1372  0.1612  0.1180
11221TIP3    H133620   2.416   6.250   6.709  1.1104  0.6561 -1.1679
11221TIP3    H233621   2.326   6.343   6.787 -0.4050 -1.1287 -0.7204
11222TIP3   OH233622   6.264   2.253   1.263 -0.1417  0.1876  0.6725
11222TIP3    H133623   6.228   2.322   1.208 -1.4828 -0.3707  0.8131
11222TIP3    H233624   6.298   2.299   1.340 -0.1714  0.7711  0.3423
11223TIP3   OH233625   7.840   0.823   1.018  0.5473  0.7411  0.6000
11223TIP3    H133626   7.918   0.873   1.042  0.4985  1.4529 -0.6645
11223TIP3    H233627   7.847   0.811   0.924 -1.3379  1.6175  0.3176
11224TIP3   OH233628   5.071   7.272   0.630 -0.2518 -0.6422 -0.2007
11224TIP3    H133629   4.995   7.320   0.662 -0.7317 -1.5742  0.0956
11224TIP3    H233630   5.085   7.306   0.542  0.9901  1.8511  0.8539
11225TIP3   OH233631   5.447   4.482   0.748  0.4499  0.2869  0.1429
11225TIP3    H133632   5.530   4.529   0.738  0.9911 -0.8218 -1.0589
11225TIP3    H233633   5.462   4.399   0.702 -1.6522  0.4592 -0.9714
11226TIP3   OH233634   7.555   1.595   0.591 -0.1313  0.0538  0.0575
11226TIP3    H133635   7.539   1.654   0.664 -1.7760  0.4977 -0.6057
11226TIP3    H233636   7.495   1.625   0.522  1.2460 -0.4381 -1.4243
11227TIP3   OH233637   3.562   4.094   1.205 -0.2313 -0.3004  0.0945
11227TIP3    H133638   3.482   4.146   1.200  0.4888  0.8176 -0.1439
11227TIP3    H233639   3.576   4.061   1.116 -0.2293 -0.1943  0.0561
11228TIP3   OH233640   2.143   2.605   4.994 -0.1851 -0.1902  0.5017
11228TIP3    H133641   2.122   2.652   4.913  1.5243  2.2554  1.3728
11228TIP3    H233642   2.218   2.550   4.971  1.7230  2.1296  0.8260
11229TIP3   OH233643   7.739   1.423   0.804 -0.4875  0.0686 -0.0005
11229TIP3    H133644   7.669   1.470   0.759 -0.4324 -0.0136 -0.1732
11229TIP3    H233645   7.694   1.352   0.850 -0.6957  0.8686  1.0697
11230TIP3   OH233646   7.409   2.711   1.055 -0.2189  0.2908  0.1005
11230TIP3    H133647   7.334   2.657   1.029  2.0617 -3.4746  0.6759
11230TIP3    H233648   7.380   2.755   1.135 -1.5790 -1.7429  0.8023
11231TIP3   OH233649   7.953   6.139   2.818  0.5214  0.2384 -0.1756
11231TIP3    H133650   7.875   6.193   2.803  0.8013  0.6362 -0.2005
11231TIP3    H233651   8.027   6.197   2.800  0.8564  0.3457  1.4333
11232TIP3   OH233652   2.993   2.034   5.664 -0.4348  0.0291  0.7117
11232TIP3    H133653   3.054   1.984   5.718 -1.0999  0.4185  1.8397
11232TIP3    H233654   3.029   2.123   5.664  0.7398 -0.3882 -1.2792
11233TIP3   OH233655   1.930   2.802   5.638  0.1183 -0.3217  0.0290
11233TIP3    H133656   1.965   2.716   5.614 -1.3614 -0.9878  0.1434
11233TIP3    H233657   1.835   2.789   5.641 -0.1458  1.3590 -0.0818
11234TIP3   OH233658   1.757   6.114   2.168 -0.3199 -0.0861  0.0861
11234TIP3    H133659   1.778   6.022   2.152  0.0756 -0.0810  0.5328
11234TIP3    H233660   1.701   6.140   2.095 -0.5062 -0.7081  0.0080
11235TIP3   OH233661   4.442   5.496   3.939  0.4150  0.0419 -0.1685
11235TIP3    H133662   4.519   5.472   3.886  0.2023  0.4280 -0.6639
11235TIP3    H233663   4.447   5.439   4.016  0.6124 -0.6912 -0.7111
11236TIP3   OH233664   1.972   7.081   3.242 -0.5808 -0.4092  0.8400
11236TIP3    H133665   1.941   6.995   3.214 -0.4880 -0.0223 -0.5226
11236TIP3    H233666   1.911   7.143   3.203  0.1517  0.2071  0.6408
11237TIP3   OH233667   6.696   1.293   3.969  0.2534 -0.1429 -0.1415
11237TIP3    H133668   6.677   1.294   3.876  2.1948  0.5759 -0.5746
11237TIP3    H233669   6.762   1.224   3.979  0.0188 -0.2574  0.7101
11238TIP3   OH233670   2.405   6.588   4.232  0.3027 -0.1643  0.2878
11238TIP3    H133671   2.328   6.595   4.289 -0.7640  3.2682 -1.3044
11238TIP3    H233672   2.429   6.679   4.213  2.2513 -1.1486 -2.5797
11239TIP3   OH233673   3.793   3.434   5.018 -0.0372  0.2312 -0.1474
11239TIP3    H133674   3.865   3.408   4.961  1.1229  2.5212  0.1728
11239TIP3    H233675   3.826   3.421   5.107 -0.2227  0.7021 -0.0040
11240TIP3   OH233676   8.005   7.053   2.529 -0.2555  0.2981 -0.4867
11240TIP3    H133677   8.081   7.079   2.477 -0.6740  1.5483 -0.5155
11240TIP3    H233678   7.934   7.045   2.465 -0.3561  0.0410 -0.3437
11241TIP3   OH233679   1.193   7.805   2.579 -0.2492  0.6186  0.3384
11241TIP3    H133680   1.271   7.760   2.547  0.0110  0.4331  1.2221
11241TIP3    H233681   1.141   7.737   2.622 -1.4718  0.4933 -1.2239
11242TIP3   OH233682   5.459   1.868   0.327  0.1577  0.3618 -0.4760
11242TIP3    H133683   5.402   1.791   0.331 -0.4730  0.8650  0.7347
11242TIP3    H233684   5.544   1.836   0.356  0.0778 -0.0140 -0.6345
11243TIP3   OH233685   7.932   6.941   5.151  0.5340 -0.1477 -0.6560
11243TIP3    H133686   7.852   6.990   5.132 -0.4880 -2.2970 -2.3787
11243TIP3    H233687   7.927   6.922   5.245 -1.1946 -0.5403 -0.7917
11244TIP3   OH233688   4.423   0.996   3.178  0.2794 -0.0657 -0.0003
11244TIP3    H133689   4.478   1.061   3.135  0.6519 -1.7402 -2.2248
11244TIP3    H233690   4.481   0.922   3.195 -0.9872 -1.5900 -1.7495
11245TIP3   OH233691   0.303   7.410   2.695 -0.6220 -0.2989 -0.0808
11245TIP3    H133692   0.331   7.497   2.723  1.7404 -1.2402  0.7626
11245TIP3    H233693   0.269   7.423   2.606  1.1241  1.2664 -0.5832
11246TIP3   OH233694   0.134   3.639   4.945  0.3688  0.0111  0.4548
11246TIP3    H133695   0.129   3.570   5.012 -3.3202  0.7873  1.1842
11246TIP3    H233696   0.045   3.674   4.940  1.0293  1.5950 -3.2534
11247TIP3   OH233697   7.417   0.998   3.625  0.2088 -0.1506 -0.0593
11247TIP3    H133698   7.504   0.982   3.587 -0.1411 -0.2194 -0.8579
11247TIP3    H233699   7.418   0.951   3.708  2.2579  2.8397  1.8139
11248TIP3   OH233700   1.530   4.442   0.619 -0.6899 -0.5278  0.1297
11248TIP3    H133701   1.493   4.354   0.618 -1.4953 -0.2182  0.9797
11248TIP3    H233702   1.539   4.463   0.711  0.6538 -0.1732 -0.0625
11249TIP3   OH233703   4.542   1.568   1.120  0.4056 -0.1919  1.2803
11249TIP3    H133704   4.635   1.574   1.139  0.6807 -2.4418  0.9359
11249TIP3    H233705   4.504   1.529   1.198 -0.3106  0.8950  1.4973
11250TIP3   OH233706   5.694   1.194   2.032  0.0555  0.1725 -0.0970
11250TIP3    H133707   5.760   1.124   2.034 -0.3931 -0.2334  0.8515
11250TIP3    H233708   5.650   1.182   1.948  1.5729  0.8325 -1.0420
11251TIP3   OH233709   2.994   0.305   3.076  0.0914 -0.2361  0.5075
11251TIP3    H133710   2.992   0.394   3.040 -0.7008 -0.8511 -1.0598
11251TIP3    H233711   3.071   0.265   3.035 -0.8182 -0.9424 -0.5864
11252TIP3   OH233712   0.229   5.930   1.506  0.3970 -0.0396  0.0214
11252TIP3    H133713   0.212   5.837   1.489  0.7689 -0.0763 -0.1554
11252TIP3    H233714   0.317   5.932   1.541 -0.6414 -0.0729  2.8968
11253TIP3   OH233715   7.528   6.433   3.033 -0.0883 -0.0536 -0.3869
11253TIP3    H133716   7.468   6.402   2.965 -1.9069  1.8938  0.1991
11253TIP3    H233717   7.495   6.391   3.113  1.2248 -1.2935 -0.4603
11254TIP3   OH233718   2.532   1.519   5.004  0.0083  0.1972  0.0971
11254TIP3    H133719   2.573   1.581   5.064  0.4505 -1.3092  1.4279
11254TIP3    H233720   2.439   1.539   5.007  0.0202  0.1183  1.3463
11255TIP3   OH233721   7.212   2.332   1.402  0.4697  0.3891 -0.4399
11255TIP3    H133722   7.302   2.327   1.369  1.3616  0.6645  1.7727
11255TIP3    H233723   7.198   2.249   1.446 -0.2666  0.4708 -0.5055
11256TIP3   OH233724   1.482   1.650   2.650 -0.4983 -0.2989 -0.3001
11256TIP3    H133725   1.402   1.624   2.697 -0.2450 -1.9282 -0.7180
11256TIP3    H233726   1.488   1.745   2.664 -1.8443 -0.3367  0.7514
11257TIP3   OH233727   0.521   3.934   4.634 -0.1252 -0.4187 -0.1389
11257TIP3    H133728   0.609   3.926   4.671 -0.4457  0.3266  0.8339
11257TIP3    H233729   0.492   3.843   4.622  0.5026 -0.6710  0.1989
11258TIP3   OH233730   6.551   6.797   6.269  0.0308 -0.1266 -0.0691
11258TIP3    H133731   6.628   6.812   6.215 -0.3362 -0.3048 -0.6631
11258TIP3    H233732   6.569   6.714   6.314  0.4429  0.1466  0.2632
11259TIP3   OH233733   7.312   6.922   0.344  0.1417  0.2079  0.0412
11259TIP3    H133734   7.292   6.965   0.427 -0.0838  1.3132 -0.5714
11259TIP3    H233735   7.251   6.961   0.281 -0.0279 -0.9665 -0.5550
11260TIP3   OH233736   2.308   6.037   3.088  0.4002 -0.6575  0.1517
11260TIP3    H133737   2.237   5.978   3.113 -0.1981  0.0082  0.0710
11260TIP3    H233738   2.266   6.100   3.029  0.8470  0.3026  0.8462
11261TIP3   OH233739   4.253   1.848   0.222 -0.1974  0.0555 -0.0117
11261TIP3    H133740   4.300   1.786   0.276 -0.4473 -2.5309 -2.5080
11261TIP3    H233741   4.165   1.852   0.260  0.3962  0.4748  1.3409
11262TIP3   OH233742   8.185   0.847   0.950  0.1781 -0.0739  0.2539
11262TIP3    H133743   8.151   0.851   1.039 -0.5482 -4.5423  0.4311
11262TIP3    H233744   8.278   0.829   0.960 -0.0594 -1.4561  0.2282
11263TIP3   OH233745   6.154   5.370   0.089 -0.0758 -0.6197 -0.9121
11263TIP3    H133746   6.152   5.401   0.179  2.7222 -1.3835 -0.4756
11263TIP3    H233747   6.064   5.376   0.059 -1.0039  0.1294  1.7573
11264TIP3   OH233748   5.861   2.093   3.212 -0.3378  0.3054  0.2026
11264TIP3    H133749   5.947   2.097   3.255 -0.2887 -0.5326  0.1897
11264TIP3    H233750   5.845   2.183   3.184  0.9742  0.3074 -0.6417
11265TIP3   OH233751   3.920   6.169   2.407  0.1925 -0.5149 -0.3087
11265TIP3    H133752   3.856   6.210   2.465 -0.5541 -2.0009 -0.0425
11265TIP3    H233753   3.991   6.142   2.465  2.2861  3.1882 -0.8711
11266TIP3   OH233754   2.182   0.034   0.850  0.0432 -0.5436 -0.3651
11266TIP3    H133755   2.088   0.053   0.847 -0.0940 -1.1207  0.0559
11266TIP3    H233756   2.192  -0.045   0.796  0.3102 -0.4169 -0.5050
11267TIP3   OH233757   3.431   5.567   3.597 -0.5737  0.2266  0.2098
11267TIP3    H133758   3.490   5.536   3.528 -1.4039  1.6154 -1.1929
11267TIP3    H233759   3.360   5.502   3.599 -1.4645  1.0684 -1.5569
11268TIP3   OH233760   4.462   5.337   4.667  0.7149 -0.1018 -0.0063
11268TIP3    H133761   4.369   5.343   4.645  1.0650  0.7641 -1.3743
11268TIP3    H233762   4.465   5.339   4.763 -0.6032  0.9830  0.0311
11269TIP3   OH233763   7.798   2.721   5.750 -0.4842  0.2553  0.0259
11269TIP3    H133764   7.884   2.682   5.733 -0.2081  1.3135 -1.1135
11269TIP3    H233765   7.779   2.772   5.672 -0.9888  2.1189  1.3021
11270TIP3   OH233766   2.788   3.246   6.257  0.2810 -0.0275  0.1665
11270TIP3    H133767   2.878   3.266   6.281  0.0106 -0.0451  1.2296
11270TIP3    H233768   2.737   3.318   6.294 -0.2156 -0.3880  0.1955
11271TIP3   OH233769   4.657   3.854   6.423 -0.1383  0.0800 -0.0957
11271TIP3    H133770   4.677   3.769   6.385 -0.3316  0.3006 -0.6997
11271TIP3    H233771   4.690   3.848   6.513  1.7373  0.0837 -0.7306
11272TIP3   OH233772   2.044   0.038   6.593 -0.1913  0.2251 -0.3998
11272TIP3    H133773   2.078  -0.033   6.647  0.9283  0.2361 -1.0598
11272TIP3    H233774   2.003   0.098   6.656 -0.4066 -0.5865  0.2510
11273TIP3   OH233775   7.239   1.465   0.189 -0.5137 -0.4484  0.4957
11273TIP3    H133776   7.233   1.369   0.190 -1.1100 -0.4222  0.2826
11273TIP3    H233777   7.174   1.492   0.124  1.2375  0.0077 -1.1647
11274TIP3   OH233778   7.150   0.683   1.549  0.0536 -0.6486  0.0236
11274TIP3    H133779   7.059   0.682   1.520 -0.5771  0.0650  1.8422
11274TIP3    H233780   7.182   0.770   1.526  0.5452 -1.1623 -1.3145
11275TIP3   OH233781   8.236   6.855   5.719  0.3074 -0.0046  0.0415
11275TIP3    H133782   8.292   6.809   5.781  0.9869  0.0643 -0.5119
11275TIP3    H233783   8.178   6.908   5.773  0.8181 -0.0331  0.6186
11276TIP3   OH233784   3.856   3.595   0.736  0.0331  0.8673  0.4393
11276TIP3    H133785   3.909   3.530   0.783  0.2789  1.5701  1.1634
11276TIP3    H233786   3.904   3.611   0.655  0.0223  0.2249  0.3014
11277TIP3   OH233787   3.310   5.555   1.625  0.5221 -0.2841  0.5766
11277TIP3    H133788   3.244   5.595   1.568  0.9127 -0.1046  0.2423
11277TIP3    H233789   3.286   5.584   1.713 -0.7005 -1.4158  0.6385
11278TIP3   OH233790   5.805   4.985   6.180 -0.4972 -0.3703 -0.1119
11278TIP3    H133791   5.782   4.933   6.104  0.2873  0.4063 -0.9070
11278TIP3    H233792   5.724   4.993   6.229 -0.9476 -1.1223 -0.7165
11279TIP3   OH233793   6.566   4.570   4.909 -0.3514 -0.0003 -0.6123
11279TIP3    H133794   6.551   4.649   4.858  1.3174  1.7818  1.4344
11279TIP3    H233795   6.604   4.601   4.991  1.7822 -3.0302 -0.2703
11280TIP3   OH233796   6.366   4.804   4.440  0.6376  0.3232 -0.5128
11280TIP3    H133797   6.387   4.809   4.347  0.4387  0.8123 -0.5351
11280TIP3    H233798   6.330   4.890   4.461 -1.3662 -0.4785 -0.4884
11281TIP3   OH233799   6.857   0.187   0.388  0.3735  0.6302  0.4543
11281TIP3    H133800   6.823   0.272   0.360  1.8036  0.7175 -1.1951
11281TIP3    H233801   6.945   0.205   0.420  1.0496 -0.3097 -0.7691
11282TIP3   OH233802   1.069   6.892   2.522  0.6506  0.0176  0.1805
11282TIP3    H133803   1.136   6.834   2.557  1.5465  0.5273 -0.6528
11282TIP3    H233804   1.006   6.833   2.480  0.9925 -0.4122  0.2652
11283TIP3   OH233805   4.589   0.793   4.965  0.0379 -0.0809 -0.5094
11283TIP3    H133806   4.569   0.827   4.878 -0.1443 -2.7232 -1.6194
11283TIP3    H233807   4.552   0.857   5.026  1.2015  2.4569 -2.2865
11284TIP3   OH233808   3.702   0.949   4.157 -0.5039 -0.2156  0.2188
11284TIP3    H133809   3.701   1.039   4.125 -2.6683  0.0579  0.8958
11284TIP3    H233810   3.679   0.896   4.081 -2.1401  0.1095  0.4535
11285TIP3   OH233811   0.209   4.343   1.435  0.2148 -0.5435  0.1864
11285TIP3    H133812   0.284   4.344   1.494 -0.5867 -1.8580  1.2941
11285TIP3    H233813   0.134   4.321   1.491 -1.2288  1.8114 -0.6665
11286TIP3   OH233814   1.933   7.448   6.215 -0.0014  0.2597 -0.0212
11286TIP3    H133815   2.018   7.451   6.170 -0.1540 -0.8267 -0.3945
11286TIP3    H233816   1.905   7.357   6.209  1.7537 -1.0231  5.5994
11287TIP3   OH233817   5.830   3.775   0.234  0.1288  0.0035  0.2870
11287TIP3    H133818   5.783   3.695   0.210 -1.5842  1.1565 -0.3653
11287TIP3    H233819   5.902   3.781   0.172  0.6323 -1.3074  0.7072
11288TIP3   OH233820   5.495   1.401   4.876 -0.1107 -0.1227  0.4267
11288TIP3    H133821   5.543   1.340   4.932  0.3534  0.1259  0.3051
11288TIP3    H233822   5.536   1.486   4.892  0.2463 -0.0992 -0.5312
11289TIP3   OH233823   4.314   6.240   4.195  0.2855  0.0881 -0.5582
11289TIP3    H133824   4.311   6.144   4.204  0.3571 -0.0915 -2.1382
11289TIP3    H233825   4.401   6.258   4.160  0.0313  0.6648 -0.9101
11290TIP3   OH233826   5.199   0.662   0.102  0.0924  0.5669 -0.7295
11290TIP3    H133827   5.279   0.619   0.133  0.2755  0.9067 -0.7227
11290TIP3    H233828   5.129   0.624   0.155  0.0362 -0.8164 -1.7118
11291TIP3   OH233829   4.357   3.275   6.036  0.1898  0.0382  0.1789
11291TIP3    H133830   4.285   3.261   5.975 -0.9487 -0.0986  1.5171
11291TIP3    H233831   4.404   3.192   6.036  0.3624  0.1270 -0.6999
11292TIP3   OH233832   4.948   5.319   6.249  0.2668 -0.6654 -0.3273
11292TIP3    H133833   4.987   5.251   6.194 -0.7668  0.0211 -1.9870
11292TIP3    H233834   4.868   5.280   6.284  0.0883 -0.5701 -0.6283
11293TIP3   OH233835   3.256   5.201   2.610  0.2437  0.7924  0.0418
11293TIP3    H133836   3.275   5.260   2.683 -0.2903  0.6969  0.2666
11293TIP3    H233837   3.274   5.113   2.644  2.4298  0.8857 -0.7414
11294TIP3   OH233838   4.346   1.854   5.815  0.0596  0.5173 -0.3141
11294TIP3    H133839   4.301   1.885   5.894 -0.3699 -1.0118  0.0790
11294TIP3    H233840   4.350   1.931   5.758 -0.4571  1.4174  0.8202
11295TIP3   OH233841   3.402   0.323   3.030 -0.0593 -0.0929  0.0202
11295TIP3    H133842   3.431   0.323   3.121  0.1447  0.3313 -0.0408
11295TIP3    H233843   3.427   0.409   2.996  0.2302 -0.3927 -0.5531
11296TIP3   OH233844   2.727   7.480   1.336 -0.1427  0.2867  0.6791
11296TIP3    H133845   2.654   7.511   1.283 -1.4132 -1.2632  1.4669
11296TIP3    H233846   2.709   7.514   1.424 -0.9305 -1.5660  1.2856
11297TIP3   OH233847   5.876   5.760   6.599  0.0828  0.7731 -0.0447
11297TIP3    H133848   5.913   5.844   6.626  0.8162  0.7015 -0.7775
11297TIP3    H233849   5.796   5.782   6.553 -0.7965  0.9397  1.5107
11298TIP3   OH233850   0.584   0.593   1.201  0.4287 -0.1561 -0.2307
11298TIP3    H133851   0.536   0.612   1.121 -1.1927 -0.6986  0.5675
11298TIP3    H233852   0.634   0.514   1.181  0.0595 -0.2689 -0.7350
11299TIP3   OH233853   4.325   3.327   2.414  0.6990 -0.0973 -0.0548
11299TIP3    H133854   4.258   3.380   2.457  2.2246 -0.0228  2.4389
11299TIP3    H233855   4.339   3.254   2.474  2.0501 -0.7063 -1.0754
11300TIP3   OH233856   0.719   6.150   0.587 -0.9184  0.0274 -0.4972
11300TIP3    H133857   0.689   6.083   0.525 -1.9043  1.1139 -1.2471
11300TIP3    H233858   0.739   6.226   0.532 -1.3807  0.8796  0.4756
11301TIP3   OH233859   1.454   0.113   1.356 -0.5193  0.5228  0.4553
11301TIP3    H133860   1.447   0.197   1.401 -0.6210 -0.7056  2.8827
11301TIP3    H233861   1.546   0.106   1.331 -0.0145  0.4376  2.2387
11302TIP3   OH233862   7.352   2.563   0.697 -0.0923  0.3209 -0.3754
11302TIP3    H133863   7.336   2.615   0.776 -0.6919  0.2957 -0.4737
11302TIP3    H233864   7.269   2.567   0.649 -0.1502 -0.7563 -0.3735
11303TIP3   OH233865   6.748   2.040   6.546  0.8240  0.0608  0.2920
11303TIP3    H133866   6.729   1.969   6.608  0.6901 -0.7457 -0.6501
11303TIP3    H233867   6.800   1.998   6.477 -1.8217  0.1078 -1.8985
11304TIP3   OH233868   7.924   5.094   3.120  0.0637  0.7885 -0.3830
11304TIP3    H133869   7.846   5.106   3.066 -0.8070  1.3692  0.9428
11304TIP3    H233870   7.930   5.173   3.173  0.9610  0.3059  0.2805
11305TIP3   OH233871   0.868   2.678   5.625 -0.1709 -0.5925 -0.0044
11305TIP3    H133872   0.778   2.701   5.604  0.5277  1.0866 -1.4457
11305TIP3    H233873   0.892   2.739   5.696  0.3463  0.2427 -0.8642
11306TIP3   OH233874   2.814   1.690   1.670 -0.2486 -0.3423  0.5640
11306TIP3    H133875   2.721   1.712   1.682 -0.6554 -1.4658 -0.3698
11306TIP3    H233876   2.856   1.774   1.654 -1.6379 -0.0429 -2.2258
11307TIP3   OH233877   3.690   4.458   5.772  0.0195 -0.3275  1.5960
11307TIP3    H133878   3.756   4.510   5.819  1.3125  1.9553 -2.2301
11307TIP3    H233879   3.628   4.523   5.739  0.1501 -1.4612 -1.1468
11308TIP3   OH233880   3.383   6.753   3.746  0.1960  0.1442 -0.4098
11308TIP3    H133881   3.324   6.746   3.822 -0.1281  0.4202 -0.6368
11308TIP3    H233882   3.326   6.780   3.674  0.7482  1.2945 -0.4360
11309TIP3   OH233883   4.223   1.441   4.252  0.4473  0.2751  0.2480
11309TIP3    H133884   4.236   1.442   4.347  2.3567  0.2482  0.0215
11309TIP3    H233885   4.135   1.404   4.241  1.1516 -2.2241  1.9432
11310TIP3   OH233886   6.007   1.356   2.712  0.4149  0.2206  0.7921
11310TIP3    H133887   6.007   1.262   2.729  0.3355  0.2009  0.6861
11310TIP3    H233888   6.042   1.363   2.623 -0.1929  0.2441  0.5494
11311TIP3   OH233889   3.493   7.108   5.498  0.5350 -0.1817 -0.1230
11311TIP3    H133890   3.537   7.088   5.415  1.2767  1.2513 -0.1044
11311TIP3    H233891   3.414   7.054   5.497  1.1735 -1.1445 -1.1767
11312TIP3   OH233892   5.771   5.664   5.960  0.2127  0.3853 -0.4617
11312TIP3    H133893   5.860   5.683   5.991  0.0094  0.0249  0.3917
11312TIP3    H233894   5.715   5.723   6.010 -0.2104 -0.8519  0.6208
11313TIP3   OH233895   7.296   0.320   3.460  0.0536 -0.2096 -0.5774
11313TIP3    H133896   7.349   0.251   3.419 -0.7594 -2.3636  1.7086
11313TIP3    H233897   7.338   0.334   3.545 -0.0585  1.8872 -0.8306
11314TIP3   OH233898   2.437   3.451   2.119 -0.0255 -0.2505  0.1104
11314TIP3    H133899   2.343   3.471   2.120 -0.6611 -2.2855 -2.9311
11314TIP3    H233900   2.480   3.535   2.137 -2.3475  0.4529  3.0711
11315TIP3   OH233901   2.486   2.133   6.422 -0.3731  0.2306 -0.2329
11315TIP3    H133902   2.489   2.038   6.411  0.1489  0.1854  0.2350
11315TIP3    H233903   2.423   2.147   6.492 -2.5471  0.4238 -2.1059
11316TIP3   OH233904   1.261   6.571   1.982  0.1878  0.1246  0.9476
11316TIP3    H133905   1.322   6.509   1.941 -0.9013 -0.6513  0.4456
11316TIP3    H233906   1.270   6.651   1.931  2.7354  0.9554  2.5340
11317TIP3   OH233907   1.337   5.149   0.568  0.0487 -0.6009  0.0131
11317TIP3    H133908   1.308   5.058   0.574  0.3280 -0.7662 -0.9813
11317TIP3    H233909   1.394   5.151   0.491  0.4324  0.3157  0.3036
11318TIP3   OH233910   4.074   3.918   3.611  0.7476 -0.0663  0.5146
11318TIP3    H133911   4.063   3.991   3.672  1.3025  0.1998  0.3011
11318TIP3    H233912   4.165   3.890   3.623  1.4274  1.1307 -1.4299
11319TIP3   OH233913   5.808   5.281   4.021  0.2351 -0.5746 -0.2346
11319TIP3    H133914   5.760   5.364   4.024  1.7458  0.3782 -1.0777
11319TIP3    H233915   5.793   5.242   4.107 -0.7668  0.4139  0.0679
11320TIP3   OH233916   3.280   2.334   2.456 -0.2504 -0.1239  0.3493
11320TIP3    H133917   3.259   2.424   2.431  0.7040  0.5364  1.7736
11320TIP3    H233918   3.202   2.284   2.434 -2.1785  1.6564  2.5636
11321TIP3   OH233919   1.121   4.497   2.421  0.2713 -0.1051 -0.1827
11321TIP3    H133920   1.204   4.516   2.465  0.8322 -1.4129 -0.6284
11321TIP3    H233921   1.093   4.581   2.384  0.4844  0.7267  1.4515
11322TIP3   OH233922   4.564   6.833   5.154 -0.0723 -0.2067  0.6333
11322TIP3    H133923   4.505   6.905   5.178  1.3417  1.1867  0.0637
11322TIP3    H233924   4.597   6.857   5.067  0.8009 -1.3203  0.6355
11323TIP3   OH233925   5.814   1.123   0.817  0.2597  0.2582  0.1375
11323TIP3    H133926   5.846   1.049   0.867  1.6816  0.2463 -0.7544
11323TIP3    H233927   5.814   1.196   0.879 -1.9562 -0.6152  1.2522
11324TIP3   OH233928   6.120   0.439   3.102 -0.4633  0.7172 -0.0222
11324TIP3    H133929   6.133   0.527   3.136 -2.3285  0.7975  0.6243
11324TIP3    H233930   6.062   0.397   3.166  0.7110 -1.1320 -0.1032
11325TIP3   OH233931   7.910   7.538   0.084 -0.2210  0.0028 -0.0015
11325TIP3    H133932   7.856   7.591   0.025 -0.8795  1.1321  1.5578
11325TIP3    H233933   7.864   7.541   0.168  0.1037 -2.4996  0.3218
11326TIP3   OH233934   1.720   7.437   5.599  0.0735  0.4885  0.2704
11326TIP3    H133935   1.714   7.531   5.586 -0.3399  0.4536  0.1747
11326TIP3    H233936   1.802   7.424   5.647  0.1232  0.8959  0.2996
11327TIP3   OH233937   6.362   1.575   5.881  0.0437 -0.1762  0.4250
11327TIP3    H133938   6.391   1.618   5.961 -0.2208 -0.3612  0.6234
11327TIP3    H233939   6.366   1.481   5.901 -0.8600 -0.2039  0.5265
11328TIP3   OH233940   8.270   0.906   6.781 -0.3652  0.0274  0.0905
11328TIP3    H133941   8.231   0.863   6.704  1.5524 -2.4584  0.3948
11328TIP3    H233942   8.362   0.919   6.758 -0.7665  4.1274  0.0717
11329TIP3   OH233943   7.781   4.510   6.350 -0.0232  0.8083  0.0988
11329TIP3    H133944   7.760   4.579   6.412 -0.3124  1.9786 -1.2434
11329TIP3    H233945   7.696   4.483   6.315  0.0105 -0.8377  1.2006
11330TIP3   OH233946   3.430   5.559   4.485 -0.6683 -0.2545 -0.5565
11330TIP3    H133947   3.471   5.477   4.458 -1.3768 -0.9266  0.3539
11330TIP3    H233948   3.372   5.582   4.412 -1.1523 -1.0536 -0.4313
11331TIP3   OH233949   0.310   5.969   5.179 -0.1801  0.3039 -0.7470
11331TIP3    H133950   0.368   6.041   5.155  1.9398 -1.0145  0.2108
11331TIP3    H233951   0.356   5.890   5.153 -1.0883 -0.8468  0.9487
11332TIP3   OH233952   3.579   7.577   6.200  0.5829 -0.0833 -0.3817
11332TIP3    H133953   3.656   7.632   6.211  0.3996  0.1839 -0.4251
11332TIP3    H233954   3.562   7.577   6.106  0.9313 -0.6978 -0.4515
11333TIP3   OH233955   0.465   0.844   3.980 -0.5105  0.3168 -0.1897
11333TIP3    H133956   0.383   0.797   3.969 -0.3652  0.1403 -0.5096
11333TIP3    H233957   0.481   0.886   3.895 -1.6399  2.5623  0.6126
11334TIP3   OH233958   0.288   7.675   2.284  0.1882 -0.4486  0.1108
11334TIP3    H133959   0.239   7.682   2.202 -2.3872 -0.0333  1.5655
11334TIP3    H233960   0.253   7.746   2.338  0.1202 -2.0740  2.3419
11335TIP3   OH233961   1.816   3.690   5.267 -0.1224 -0.1270 -0.5818
11335TIP3    H133962   1.910   3.703   5.277 -0.1056 -0.9269  0.4062
11335TIP3    H233963   1.806   3.596   5.252 -0.8328 -0.2333  0.4351
11336TIP3   OH233964   4.762   4.704   0.108  0.1441 -0.2834  0.2151
11336TIP3    H133965   4.851   4.706   0.144  0.4318 -0.4436 -0.4794
11336TIP3    H233966   4.774   4.695   0.014 -0.6319 -1.4250  0.2058
11337TIP3   OH233967   0.108   3.590   2.076 -0.0404 -0.0998  0.4834
11337TIP3    H133968   0.033   3.631   2.032  1.5417  0.3773 -1.9803
11337TIP3    H233969   0.129   3.649   2.148 -1.5720  0.1279  0.7795
11338TIP3   OH233970   3.183   3.628   6.389 -0.0294  0.1280  0.2254
11338TIP3    H133971   3.122   3.564   6.351  1.0555 -0.9131  0.1745
11338TIP3    H233972   3.132   3.671   6.457 -0.9313 -0.4664 -0.0413
11339TIP3   OH233973   7.148   1.289   2.923 -0.2470 -0.2044 -0.0617
11339TIP3    H133974   7.130   1.375   2.961  1.4585  0.7989 -1.3715
11339TIP3    H233975   7.199   1.243   2.990  0.9154  0.7484 -0.2704
11340TIP3   OH233976   1.123   4.660   4.164  0.0795  0.6957 -0.1191
11340TIP3    H133977   1.156   4.629   4.248  1.1324  0.9737 -0.4164
11340TIP3    H233978   1.166   4.604   4.099  1.8530  2.5661 -0.6577
11341TIP3   OH233979   3.571   2.127   3.278 -0.0641 -0.4611 -0.4579
11341TIP3    H133980   3.645   2.142   3.219 -0.3109 -0.6552 -0.8179
11341TIP3    H233981   3.533   2.213   3.293  2.4469  0.2998  2.6971
11342TIP3   OH233982   3.324   6.531   6.403 -0.1180  0.2011  0.0902
11342TIP3    H133983   3.416   6.505   6.400  0.1544  1.1861 -0.3623
11342TIP3    H233984   3.276   6.449   6.390  0.6855 -0.3192  0.3105
11343TIP3   OH233985   4.401   2.964   4.906 -0.1430 -0.2461  0.4466
11343TIP3    H133986   4.355   2.929   4.983  0.8995  0.1397  1.2753
11343TIP3    H233987   4.334   3.008   4.855 -0.7812 -0.1632  1.3487
11344TIP3   OH233988   6.760   0.368   6.715 -0.6758  0.0631  0.1740
11344TIP3    H133989   6.739   0.318   6.794 -0.3316  2.3204  1.8236
11344TIP3    H233990   6.853   0.354   6.701 -1.2472 -2.5775 -1.6056
11345TIP3   OH233991   0.079   5.739   3.497  0.4383 -0.0787 -0.4608
11345TIP3    H133992   0.046   5.794   3.426 -2.5340 -1.2750 -0.1873
11345TIP3    H233993   0.003   5.726   3.554  1.3184 -3.3191  0.1892
11346TIP3   OH233994   5.097   0.752   1.814  0.0812 -0.4409  0.0887
11346TIP3    H133995   5.093   0.700   1.733  0.0124  0.6172 -0.6081
11346TIP3    H233996   5.106   0.843   1.784 -0.2999  0.0101  1.2653
11347TIP3   OH233997   2.314   4.741   4.727  0.2970  0.5009  0.1036
11347TIP3    H133998   2.399   4.777   4.699  0.6664 -1.2465 -1.1820
11347TIP3    H233999   2.330   4.647   4.737 -1.1308  0.3610  1.3226
11348TIP3   OH234000   6.098   2.388   4.654 -0.4159 -0.0631 -0.1355
11348TIP3    H134001   6.008   2.359   4.661 -0.0817 -1.7552 -1.8847
11348TIP3    H234002   6.150   2.316   4.691  0.2172  1.0887  1.2851
11349TIP3   OH234003   4.312   4.721   2.410 -0.0264  0.4482  0.3830
11349TIP3    H134004   4.340   4.651   2.469 -0.1718  1.9490  2.3384
11349TIP3    H234005   4.330   4.687   2.322  2.0238 -1.1274  1.3295
11350TIP3   OH234006   6.918   0.577   1.450  0.5087 -0.1515 -0.1444
11350TIP3    H134007   6.923   0.484   1.429  1.6222 -0.0543 -0.3546
11350TIP3    H234008   6.887   0.580   1.541 -0.6379 -0.6739 -0.4950
11351TIP3   OH234009   4.465   2.474   0.431  0.0194  0.1898 -0.5940
11351TIP3    H134010   4.506   2.551   0.392 -1.7143  2.0271  1.0123
11351TIP3    H234011   4.534   2.408   0.432  1.5079  1.6298 -2.1831
11352TIP3   OH234012   0.770   4.613   0.581  0.3828  0.6653  0.0810
11352TIP3    H134013   0.742   4.524   0.563  2.9459 -0.5150  1.4048
11352TIP3    H234014   0.749   4.662   0.501 -1.2461 -1.0236 -0.6028
11353TIP3   OH234015   1.698   7.634   2.794 -0.1691  0.0002  0.0272
11353TIP3    H134016   1.641   7.667   2.725  1.2405 -1.4624 -1.9691
11353TIP3    H234017   1.717   7.710   2.849 -1.8766  1.0606 -0.7754
11354TIP3   OH234018   0.149   4.251   6.419 -0.1433 -0.3299 -0.1679
11354TIP3    H134019   0.132   4.179   6.358 -0.4143 -0.1352 -0.3290
11354TIP3    H234020   0.099   4.324   6.383  0.3505  0.0180 -0.1595
11355TIP3   OH234021   7.307   6.073   1.680  0.3933  0.3684  0.5343
11355TIP3    H134022   7.233   6.076   1.740  0.4389  0.0746  0.6062
11355TIP3    H234023   7.339   5.983   1.685  1.1356  0.6483  0.9580
11356TIP3   OH234024   1.728   1.275   5.302 -0.2914  0.0035  0.0880
11356TIP3    H134025   1.799   1.261   5.240 -0.6173 -0.5687 -0.1675
11356TIP3    H234026   1.648   1.257   5.252 -0.6865  1.5368  0.1105
11357TIP3   OH234027   2.810   1.043   4.515  0.2584 -0.0786 -0.1856
11357TIP3    H134028   2.875   1.114   4.520 -0.1899  0.2535  1.6733
11357TIP3    H234029   2.861   0.966   4.489  1.2944  0.3229  0.5632
11358TIP3   OH234030   8.177   4.473   1.690 -0.1927  0.2767 -0.3829
11358TIP3    H134031   8.090   4.438   1.672 -0.6681  0.7293  0.8980
11358TIP3    H234032   8.209   4.422   1.764 -0.8205  2.3353  1.3983
11359TIP3   OH234033   2.560   1.619   6.499 -0.0729  0.1995 -0.1483
11359TIP3    H134034   2.609   1.689   6.543 -0.8038  1.2442 -0.9687
11359TIP3    H234035   2.563   1.642   6.406 -2.7982  0.7421 -0.1612
11360TIP3   OH234036   7.131   6.494   1.026 -0.0129  0.4459  0.5726
11360TIP3    H134037   7.101   6.403   1.031 -0.9105  0.7523  0.8770
11360TIP3    H234038   7.151   6.518   1.116  0.8661  0.3494  0.4131
11361TIP3   OH234039   3.269   3.651   4.552  0.4164  0.2450 -0.2644
11361TIP3    H134040   3.184   3.624   4.518  0.1322 -0.2716  0.8101
11361TIP3    H234041   3.283   3.738   4.516 -0.8074  0.5440 -0.0365
11362TIP3   OH234042   5.650   1.586   1.714  0.1508 -0.2113 -0.2154
11362TIP3    H134043   5.561   1.574   1.683  0.6459 -1.6570 -1.2056
11362TIP3    H234044   5.676   1.672   1.682 -1.0590  0.4748  0.5755
11363TIP3   OH234045   1.256   0.988   4.959  0.2426 -0.1556 -0.4373
11363TIP3    H134046   1.274   1.080   4.942 -1.6626  0.1721 -0.8923
11363TIP3    H234047   1.219   0.955   4.877 -0.8751 -0.8312  0.3108
11364TIP3   OH234048   4.897   2.551   2.007 -0.3969  0.0752 -0.5105
11364TIP3    H134049   4.961   2.615   1.973 -0.2722  0.9788  1.3291
11364TIP3    H234050   4.815   2.600   2.010 -0.0018  0.7315  2.3454
11365TIP3   OH234051   7.293   7.052   2.082  0.4706  0.4549  0.5108
11365TIP3    H134052   7.272   7.059   1.989 -0.5537 -1.0223  0.5989
11365TIP3    H234053   7.296   6.958   2.099 -0.4764  0.6966  2.2190
11366TIP3   OH234054   1.068   3.787   6.158  0.0811 -0.0960 -0.3368
11366TIP3    H134055   1.111   3.843   6.223  0.0973 -2.0879  1.4988
11366TIP3    H234056   0.981   3.771   6.194 -0.9684  0.9812 -2.2403
11367TIP3   OH234057   6.780   6.772   2.882  0.0221  0.1836  0.1779
11367TIP3    H134058   6.746   6.695   2.835 -0.6234 -0.7951  2.1249
11367TIP3    H234059   6.703   6.810   2.925  0.6513  0.7220  0.8579
11368TIP3   OH234060   2.741   1.463   5.432 -0.1338 -0.2044 -0.2693
11368TIP3    H134061   2.778   1.401   5.368 -1.1464 -0.8599 -0.2406
11368TIP3    H234062   2.784   1.546   5.412  1.3927 -0.9280 -0.2043
11369TIP3   OH234063   1.670   3.084   1.529 -0.1675 -0.2518 -0.0821
11369TIP3    H134064   1.641   3.000   1.494  0.7774  0.1697 -1.9911
11369TIP3    H234065   1.592   3.140   1.525 -0.1962 -0.3510 -1.1051
11370TIP3   OH234066   8.212   3.301   0.194 -0.0995 -0.1480 -0.1048
11370TIP3    H134067   8.146   3.363   0.223  0.5304  0.0167  1.0399
11370TIP3    H234068   8.285   3.355   0.166  0.3538 -0.3426  0.6562
11371TIP3   OH234069   7.415   0.638   0.451 -0.3701 -0.4354  0.3007
11371TIP3    H134070   7.331   0.683   0.464 -0.4447 -0.8925  1.5170
11371TIP3    H234071   7.454   0.683   0.376 -1.9577 -0.5897 -0.6755
11372TIP3   OH234072   4.919   0.236   5.632 -0.5656  0.8375  0.8731
11372TIP3    H134073   4.961   0.286   5.563 -0.6972 -0.9334 -0.5559
11372TIP3    H234074   4.881   0.303   5.690  0.3789  2.3751 -0.2055
11373TIP3   OH234075   4.883   7.612   2.803 -0.4805  0.2583  0.1044
11373TIP3    H134076   4.918   7.559   2.731 -3.1849 -0.4157 -0.8331
11373TIP3    H234077   4.884   7.554   2.879  1.1059  0.5241  0.3167
11374TIP3   OH234078   2.905   0.624   3.231 -0.2668 -0.4599 -0.1466
11374TIP3    H134079   2.942   0.596   3.147 -0.1813  0.2912 -0.3680
11374TIP3    H234080   2.811   0.626   3.216 -0.2185  0.2096 -0.4027
11375TIP3   OH234081   2.137   4.292   3.983  0.0224 -0.3606 -0.5844
11375TIP3    H134082   2.230   4.311   3.996  0.1805 -1.4260 -0.0145
11375TIP3    H234083   2.105   4.363   3.928  1.1628  0.0445 -0.7465
11376TIP3   OH234084   1.602   0.161   4.073  0.1125  0.5320 -0.2905
11376TIP3    H134085   1.666   0.097   4.103  0.5723  1.4472  0.7391
11376TIP3    H234086   1.559   0.119   3.998 -1.2401 -1.9557  1.7320
11377TIP3   OH234087   0.773   2.377   2.046 -0.2444 -0.0183 -0.5117
11377TIP3    H134088   0.697   2.435   2.042 -1.0719 -1.0425 -0.0877
11377TIP3    H234089   0.846   2.432   2.021 -1.0739  1.0910 -0.5738
11378TIP3   OH234090   3.115   3.680   6.053  0.0472 -0.2527 -0.5641
11378TIP3    H134091   3.057   3.749   6.020 -0.2655  1.3835  2.9915
11378TIP3    H234092   3.055   3.614   6.088  0.2551  0.6218  1.5434
11379TIP3   OH234093   6.229   4.658   1.705  0.2647  0.3339  0.2462
11379TIP3    H134094   6.236   4.584   1.645 -1.2716  0.0510  0.3920
11379TIP3    H234095   6.136   4.663   1.727  0.2890  2.4521  0.0560
11380TIP3   OH234096   2.162   0.589   3.131  0.0403  0.0938 -0.5865
11380TIP3    H134097   2.074   0.552   3.130  0.0230  0.1381 -0.6790
11380TIP3    H234098   2.198   0.569   3.045 -0.7787  2.2415 -1.4889
11381TIP3   OH234099   5.009   1.723   4.237  0.1293 -0.7287  0.7117
11381TIP3    H134100   5.083   1.697   4.183 -1.2487  0.0424 -1.6809
11381TIP3    H234101   4.936   1.670   4.206 -1.1745  1.1545  0.3657
11382TIP3   OH234102   4.520   1.322   0.341  0.5010  0.1998 -0.1746
11382TIP3    H134103   4.581   1.341   0.270  1.1273 -0.3030  0.2115
11382TIP3    H234104   4.457   1.393   0.339  1.2926  0.9117 -0.3841
11383TIP3   OH234105   0.754   0.501   5.710  0.6212  0.1649  0.0125
11383TIP3    H134106   0.745   0.595   5.728  0.1712  0.5863 -2.1650
11383TIP3    H234107   0.815   0.470   5.777  0.8217  2.0051  0.7510
11384TIP3   OH234108   7.419   5.830   4.935  0.2270  0.1816 -0.0594
11384TIP3    H134109   7.470   5.753   4.912 -1.0946 -1.5621  2.3952
11384TIP3    H234110   7.468   5.871   5.007  0.5154  1.2395 -0.8249
11385TIP3   OH234111   7.744   0.147   6.668  0.5637  0.1277 -0.5132
11385TIP3    H134112   7.770   0.067   6.714 -0.2538 -0.0052 -0.2611
11385TIP3    H234113   7.648   0.146   6.671  0.5102  0.4238 -1.7070
11386TIP3   OH234114   5.522   1.284   2.511  0.3982  0.0892  0.2691
11386TIP3    H134115   5.528   1.343   2.586  1.9275 -0.7251  0.8395
11386TIP3    H234116   5.521   1.197   2.550 -1.5866 -0.3174 -0.5734
11387TIP3   OH234117   2.746   1.294   3.412  0.7918  0.3198  0.2916
11387TIP3    H134118   2.712   1.296   3.501  1.0153  1.0481  0.3726
11387TIP3    H234119   2.733   1.204   3.382  1.7824 -0.2392  1.4651
11388TIP3   OH234120   1.893   1.222   5.081 -0.4607  0.1208  0.0450
11388TIP3    H134121   1.963   1.283   5.102 -1.9612  1.0929  2.6173
11388TIP3    H234122   1.935   1.136   5.083  1.3222  0.8473 -1.9540
11389TIP3   OH234123   7.410   5.102   1.681 -0.3469  0.5566  0.3115
11389TIP3    H134124   7.444   5.095   1.592 -0.3891  1.9798  0.1544
11389TIP3    H234125   7.316   5.086   1.673 -0.0327 -1.7449  0.5015
11390TIP3   OH234126   4.797   7.467   4.469 -0.0285  0.1773 -0.0659
11390TIP3    H134127   4.813   7.554   4.506 -3.4040  1.5046 -1.3701
11390TIP3    H234128   4.797   7.409   4.545  1.2707  1.4364  0.9703
11391TIP3   OH234129   7.401   3.289   1.719  0.5488  0.0712  0.2050
11391TIP3    H134130   7.388   3.365   1.662 -0.4867  0.0913  0.4388
11391TIP3    H234131   7.446   3.225   1.664  0.8745  0.6240 -0.1816
11392TIP3   OH234132   3.983   0.066   1.169 -1.0068 -0.2749  0.2275
11392TIP3    H134133   3.951   0.050   1.080 -2.3802 -0.7900  0.7814
11392TIP3    H234134   4.024   0.153   1.165 -2.9897  0.6962 -0.4480
11393TIP3   OH234135   6.163   4.225   0.436 -0.5417  0.0294 -0.3226
11393TIP3    H134136   6.163   4.214   0.340 -0.4477 -1.0634 -0.2180
11393TIP3    H234137   6.255   4.234   0.459 -0.6161  1.1491 -0.4023
11394TIP3   OH234138   7.089   1.508   5.212 -0.1422 -0.9195 -0.1491
11394TIP3    H134139   7.051   1.424   5.188  0.9104 -1.2750 -0.6559
11394TIP3    H234140   7.167   1.485   5.263  0.6715 -0.3066 -1.0646
11395TIP3   OH234141   4.646   4.089   4.037 -0.2944  0.5083 -0.0161
11395TIP3    H134142   4.703   4.159   4.069  0.1720  0.3005 -0.3789
11395TIP3    H234143   4.598   4.059   4.115 -0.0336  0.7978  0.2578
11396TIP3   OH234144   2.503   4.813   6.292  0.3208  0.3229 -0.1041
11396TIP3    H134145   2.421   4.783   6.254 -0.2234  0.9633  0.5393
11396TIP3    H234146   2.477   4.865   6.368  1.2079  2.1074 -0.9485
11397TIP3   OH234147   3.675   4.376   6.214  0.3810 -0.0977 -0.3994
11397TIP3    H134148   3.699   4.467   6.196  0.4230 -0.0228  0.0370
11397TIP3    H234149   3.584   4.381   6.241  1.0464  0.1107  1.9732
11398TIP3   OH234150   5.297   7.702   5.130  0.1982 -0.2427 -0.2664
11398TIP3    H134151   5.235   7.740   5.068 -1.5307 -0.3836  1.3065
11398TIP3    H234152   5.245   7.640   5.181  1.6468 -0.3876  1.1013
11399TIP3   OH234153   7.282   1.554   2.575  0.1620 -0.3188 -0.1272
11399TIP3    H134154   7.231   1.478   2.603  0.4778 -1.0889 -1.5663
11399TIP3    H234155   7.298   1.539   2.482  1.5791  0.7478 -0.0817
11400TIP3   OH234156   1.917   4.171   2.717  0.2643  0.8409 -0.5548
11400TIP3    H134157   1.861   4.247   2.702 -0.1009  0.5193 -0.8638
11400TIP3    H234158   1.864   4.097   2.687 -0.2618  0.2075  1.7647
11401TIP3   OH234159   2.872   1.060   3.054  0.0613  0.1887 -0.2923
11401TIP3    H134160   2.861   0.971   3.020  1.5774 -0.0172 -0.3073
11401TIP3    H234161   2.941   1.098   3.000  0.9490  0.6211  1.0901
11402TIP3   OH234162   3.470   7.677   1.884 -0.6389 -0.3672 -0.2570
11402TIP3    H134163   3.564   7.688   1.895 -0.7955  0.3910  0.4431
11402TIP3    H234164   3.452   7.588   1.914 -0.0700 -0.7163 -0.9411
11403TIP3   OH234165   6.978   4.233   2.279  0.5516  0.2163 -0.3002
11403TIP3    H134166   7.013   4.184   2.205  0.1367 -1.3543  0.5030
11403TIP3    H234167   6.894   4.191   2.298  1.5792 -0.7914  2.3494
11404TIP3   OH234168   3.216   2.874   0.039  0.2754 -0.2338 -0.2193
11404TIP3    H134169   3.242   2.946  -0.020 -0.8787  0.5433  0.1864
11404TIP3    H234170   3.289   2.812   0.034  1.4299  1.0818 -0.3848
11405TIP3   OH234171   1.547   1.345   1.436 -0.3639 -0.5641 -0.5360
11405TIP3    H134172   1.474   1.392   1.396 -1.3666 -1.5440  0.0749
11405TIP3    H234173   1.593   1.410   1.488 -0.4092  0.2084 -1.4360
11406TIP3   OH234174   1.111   0.426   3.061 -0.0328 -0.0526  0.0068
11406TIP3    H134175   1.199   0.460   3.080  0.4553  1.1919 -3.6137
11406TIP3    H234176   1.052   0.496   3.091  0.1466 -0.7730  2.2007
11407TIP3   OH234177   6.514  -0.030   6.319  0.0612 -0.2842  0.4427
11407TIP3    H134178   6.534   0.019   6.399 -0.4652 -0.6684  0.8126
11407TIP3    H234179   6.519   0.036   6.250  1.1176 -0.0595  0.7034
11408TIP3   OH234180   0.537   5.888   5.470  0.1758  0.8107 -0.0389
11408TIP3    H134181   0.464   5.949   5.482  0.9733  1.7136  0.3426
11408TIP3    H234182   0.596   5.906   5.543 -1.1623 -2.8511  2.2550
11409TIP3   OH234183   0.626   5.331   3.990 -0.2404  0.5622  0.1292
11409TIP3    H134184   0.594   5.323   3.900  0.1068  0.6150 -0.0030
11409TIP3    H234185   0.551   5.307   4.045 -0.5396  0.8014 -0.1669
11410TIP3   OH234186   5.394   4.195   5.647 -0.1742 -0.5080 -0.2961
11410TIP3    H134187   5.327   4.127   5.638  0.1402 -1.0714  1.2078
11410TIP3    H234188   5.449   4.185   5.570 -0.5615 -1.4985 -0.4633
11411TIP3   OH234189   6.399   6.159   3.994 -0.5754 -0.3108 -0.7106
11411TIP3    H134190   6.381   6.156   4.088  0.9287 -2.4053 -0.4117
11411TIP3    H234191   6.485   6.201   3.988 -0.9036  0.3072 -1.2214
11412TIP3   OH234192   2.088   5.435   4.569 -0.1931 -0.3620  0.3789
11412TIP3    H134193   2.035   5.447   4.490  0.5111 -0.4784 -0.1266
11412TIP3    H234194   2.094   5.340   4.579 -0.4260 -0.3467  0.6761
11413TIP3   OH234195   4.446   3.728   1.966 -0.1004  0.0994 -0.3930
11413TIP3    H134196   4.422   3.818   1.947 -0.8024 -0.2308 -1.1193
11413TIP3    H234197   4.464   3.689   1.881 -0.9508 -0.7630 -0.2001
11414TIP3   OH234198   2.438   2.822   4.996  0.0149 -0.0753 -0.1829
11414TIP3    H134199   2.446   2.730   5.018  1.9569 -0.1480 -1.0187
11414TIP3    H234200   2.486   2.832   4.914 -1.1384  1.4716 -0.7244
11415TIP3   OH234201   7.635   5.822   6.031  0.0087 -0.1054  0.2019
11415TIP3    H134202   7.664   5.735   6.004 -2.7896 -1.4148  1.0572
11415TIP3    H234203   7.574   5.850   5.963 -0.8988  0.1475  1.1015
11416TIP3   OH234204   0.687   4.798   2.307 -0.6108 -0.0166 -0.1570
11416TIP3    H134205   0.598   4.829   2.292 -0.3370 -0.2534 -2.8878
11416TIP3    H234206   0.743   4.868   2.273  0.3102  0.3186  1.9102
11417TIP3   OH234207   6.465   6.374   6.632 -0.3504  0.9933 -0.1400
11417TIP3    H134208   6.478   6.284   6.602 -0.8873  1.3098 -1.4024
11417TIP3    H234209   6.473   6.370   6.727 -0.5823 -0.4178 -0.1716
11418TIP3   OH234210   2.802   3.855   6.446  0.1407 -0.1296 -0.1617
11418TIP3    H134211   2.793   3.942   6.485  0.1486 -0.0242 -0.3920
11418TIP3    H234212   2.716   3.814   6.459  0.0102  0.0620 -0.4105
11419TIP3   OH234213   0.384   5.744   6.245  0.4662  0.0738 -0.0752
11419TIP3    H134214   0.358   5.831   6.276  1.7879 -0.5743  3.2763
11419TIP3    H234215   0.478   5.753   6.226  0.4857 -0.4937 -0.2729
11420TIP3   OH234216   5.381   4.001   3.008  0.1251 -0.2000 -0.3058
11420TIP3    H134217   5.297   4.046   3.012 -0.2413 -0.8764  4.0219
11420TIP3    H234218   5.445   4.068   3.032  0.6503 -0.1462 -1.7569
11421TIP3   OH234219   5.753   1.092   1.569  0.6372  0.0320  0.0074
11421TIP3    H134220   5.662   1.071   1.589  0.7914 -0.3687  0.2904
11421TIP3    H234221   5.759   1.187   1.585  1.0280 -0.3939  3.1071
11422TIP3   OH234222   0.603   5.539   1.789  0.1897  0.3082 -0.2213
11422TIP3    H134223   0.522   5.503   1.752  1.0499  0.5959 -2.5684
11422TIP3    H234224   0.574   5.591   1.864 -1.7545  0.0436 -0.7379
11423TIP3   OH234225   1.156   4.777   3.053 -0.6475  0.0781 -0.5481
11423TIP3    H134226   1.118   4.745   3.135  0.6209  2.3427  1.0282
11423TIP3    H234227   1.250   4.758   3.060 -0.4166  0.8976 -1.1549
11424TIP3   OH234228   2.855   5.624   5.807 -0.0451  0.6688 -0.2813
11424TIP3    H134229   2.929   5.684   5.810  1.1987 -0.8138  0.0789
11424TIP3    H234230   2.839   5.600   5.898 -0.0735 -0.0378 -0.4592
11425TIP3   OH234231   8.179   5.956   5.131  0.4674 -0.3708 -0.3707
11425TIP3    H134232   8.099   6.008   5.124 -0.0540 -1.0045  0.6410
11425TIP3    H234233   8.153   5.878   5.178  1.7881 -0.3802  0.4045
11426TIP3   OH234234   0.661   3.100   1.881  0.9890  0.0082  0.6426
11426TIP3    H134235   0.637   3.188   1.907  1.0096  0.7659 -1.6565
11426TIP3    H234236   0.728   3.073   1.944  0.3169  1.2402  1.9248
11427TIP3   OH234237   3.698   5.750   3.584  0.1399  0.3144  0.2448
11427TIP3    H134238   3.701   5.846   3.586 -0.0983  0.3104  1.3641
11427TIP3    H234239   3.605   5.729   3.586  0.1982  0.0483  0.1653
11428TIP3   OH234240   5.082   7.380   4.773  0.1202  0.3962 -0.0485
11428TIP3    H134241   4.996   7.346   4.748  0.2660  1.7609 -2.6754
11428TIP3    H234242   5.143   7.311   4.749 -0.1136 -0.0952  0.7303
11429TIP3   OH234243   1.155   3.602   3.731 -0.5210  0.2219  0.2968
11429TIP3    H134244   1.064   3.573   3.739  0.3619 -2.5751  1.4717
11429TIP3    H234245   1.174   3.595   3.638 -0.8134 -1.7626  0.3350
11430TIP3   OH234246   2.829   4.855   1.891 -0.3293  0.0623 -0.0684
11430TIP3    H134247   2.904   4.826   1.943 -0.6447  2.5359  1.9684
11430TIP3    H234248   2.860   4.934   1.847 -2.0133  1.8995  1.8462
11431TIP3   OH234249   4.403   2.727   3.688  0.6424  0.1572  0.2377
11431TIP3    H134250   4.345   2.768   3.623 -0.5081 -0.9909  0.5030
11431TIP3    H234251   4.438   2.650   3.643  1.2937  0.3659  0.3782
11432TIP3   OH234252   3.934   2.205   0.536 -0.4477  0.0004 -0.1728
11432TIP3    H134253   3.920   2.299   0.550 -0.6403 -0.2418  1.4453
11432TIP3    H234254   3.881   2.185   0.459 -4.0069  0.4125  1.9365
11433TIP3   OH234255   0.830   5.447   1.035  0.7372  0.3778 -0.2288
11433TIP3    H134256   0.847   5.377   1.098 -0.2146 -0.5844 -1.0062
11433TIP3    H234257   0.891   5.517   1.060  2.2097 -0.9851  0.1327
11434TIP3   OH234258   5.941   0.423   1.552  0.6209 -0.3067  0.0654
11434TIP3    H134259   5.876   0.387   1.612  0.1420  0.2436 -0.1072
11434TIP3    H234260   5.944   0.517   1.574 -1.1844  0.3782 -2.1936
11435TIP3   OH234261   7.469   4.207   6.668  0.1495  0.1392  0.4627
11435TIP3    H134262   7.540   4.172   6.721 -0.1833  0.8869  1.4519
11435TIP3    H234263   7.459   4.145   6.596 -0.8749 -2.2172  2.4737
11436TIP3   OH234264   5.655   3.488   2.409  0.3286  0.2654 -0.0329
11436TIP3    H134265   5.591   3.421   2.385  0.4684 -0.0999  0.6119
11436TIP3    H234266   5.639   3.559   2.346  0.4538 -0.5261 -0.9788
11437TIP3   OH234267   3.398   3.779   3.120  0.0694 -0.0783  0.5101
11437TIP3    H134268   3.365   3.845   3.181  0.2218  1.0693 -0.6052
11437TIP3    H234269   3.324   3.761   3.062  0.1723 -0.5479  0.5201
11438TIP3   OH234270   4.099   3.480   2.533  0.0176 -0.4709  0.3149
11438TIP3    H134271   4.043   3.407   2.506  1.9851 -0.9478 -3.0680
11438TIP3    H234272   4.065   3.555   2.484 -0.3240  0.2924  1.6819
11439TIP3   OH234273   2.745   0.665   2.525  0.0838  0.7062  0.3629
11439TIP3    H134274   2.809   0.724   2.484 -1.9672  3.1874  0.5198
11439TIP3    H234275   2.696   0.628   2.452 -0.1534  1.0370  0.3532
11440TIP3   OH234276   3.863   2.726   6.265  0.5161  0.5192  0.2131
11440TIP3    H134277   3.905   2.722   6.351 -0.7394 -0.2047  0.8198
11440TIP3    H234278   3.848   2.820   6.251 -0.6018  0.5711  1.4855
11441TIP3   OH234279   0.036   0.356   4.170  0.2769 -0.6024  0.0195
11441TIP3    H134280   0.073   0.267   4.171  0.2553 -0.6103  0.1091
11441TIP3    H234281   0.010   0.372   4.260 -0.5749 -0.8630 -0.1739
11442TIP3   OH234282   2.950   0.802   1.673  0.1348  0.2066 -0.0493
11442TIP3    H134283   2.986   0.713   1.684  0.5827  0.5839  1.8259
11442TIP3    H234284   2.865   0.799   1.715 -0.0569  0.5621 -0.4063
11443TIP3   OH234285   3.986   1.460   2.501 -0.5010  0.1426 -0.1388
11443TIP3    H134286   3.985   1.556   2.504 -1.4703  0.1377 -0.0730
11443TIP3    H234287   3.987   1.440   2.408 -0.7246  0.2260 -0.1621
11444TIP3   OH234288   3.965   5.395   4.766  0.5887 -0.3255  0.0841
11444TIP3    H134289   3.891   5.388   4.825  0.0234  0.0761 -0.5617
11444TIP3    H234290   4.042   5.396   4.823 -0.0222  2.4304  0.9939
11445TIP3   OH234291   4.491   2.365   4.554 -0.2062 -0.1246 -0.1956
11445TIP3    H134292   4.497   2.457   4.526  0.0602 -0.5049 -1.4411
11445TIP3    H234293   4.417   2.330   4.505 -1.1573 -0.2483  1.2880
11446TIP3   OH234294   4.252   3.100   1.868 -0.2426 -0.4920 -0.6575
11446TIP3    H134295   4.279   3.153   1.793 -0.2885 -0.8189 -0.9049
11446TIP3    H234296   4.206   3.162   1.925  1.7573  0.2865  0.2037
11447TIP3   OH234297   7.723   6.237   2.445 -0.1680  0.7918 -0.0440
11447TIP3    H134298   7.668   6.244   2.367  1.0822  1.5473 -0.8940
11447TIP3    H234299   7.720   6.324   2.484 -1.2298  0.2686  1.0901
11448TIP3   OH234300   4.726   3.425   0.201 -0.3100 -0.1659 -0.4275
11448TIP3    H134301   4.792   3.479   0.245 -1.4633  0.5082  0.5277
11448TIP3    H234302   4.660   3.488   0.173 -0.6347 -0.8539 -1.2318
11449TIP3   OH234303   4.635   6.593   6.714 -0.0843 -0.3676 -0.3807
11449TIP3    H134304   4.551   6.574   6.673 -1.4498  0.5918  1.7704
11449TIP3    H234305   4.638   6.535   6.791  0.0922  1.2141  0.8646
11450TIP3   OH234306   5.518   4.203   3.179 -0.4168 -0.1317  0.1415
11450TIP3    H134307   5.543   4.179   3.269  0.6219 -0.2329 -0.1700
11450TIP3    H234308   5.600   4.219   3.134 -0.6407 -3.2675 -1.7178
11451TIP3   OH234309   2.150   7.323   1.163 -0.0059  0.2959  0.5387
11451TIP3    H134310   2.108   7.401   1.201 -0.8212 -0.0317  0.3338
11451TIP3    H234311   2.214   7.296   1.229 -0.4001  0.5723  1.0443
11452TIP3   OH234312   1.206   1.002   0.825 -0.0870 -0.3873 -0.7477
11452TIP3    H134313   1.297   0.977   0.838 -0.0730  0.0910  0.1050
11452TIP3    H234314   1.209   1.095   0.804 -0.4699 -0.0642  0.5796
11453TIP3   OH234315   2.129   5.240   1.322 -0.0943 -0.2439  1.0579
11453TIP3    H134316   2.075   5.174   1.278  3.5728 -1.3327 -2.3593
11453TIP3    H234317   2.091   5.323   1.295 -1.0619 -0.9539  0.1336
11454TIP3   OH234318   2.952   4.331   1.561 -0.6630 -0.4588 -0.4648
11454TIP3    H134319   2.906   4.248   1.572 -1.2653 -0.0922 -0.1640
11454TIP3    H234320   2.925   4.383   1.637  0.4851 -0.3397 -0.1234
11455TIP3   OH234321   6.229   5.181   3.106 -0.0903 -0.4100 -0.0825
11455TIP3    H134322   6.300   5.118   3.121  0.1490  0.2076  1.4996
11455TIP3    H234323   6.264   5.240   3.039  0.1200 -1.2599 -0.7392
11456TIP3   OH234324   1.114   7.280   2.316  0.0012  0.1454 -0.0238
11456TIP3    H134325   1.045   7.296   2.251 -1.7728 -0.1558  1.7034
11456TIP3    H234326   1.191   7.323   2.279 -0.6906 -0.6880 -2.6991
11457TIP3   OH234327   0.160   1.233   1.991 -0.3909 -0.0347  0.0773
11457TIP3    H134328   0.250   1.203   1.987 -0.6505 -0.8782  0.2987
11457TIP3    H234329   0.140   1.241   2.084  0.1686  2.4600  0.0477
11458TIP3   OH234330   0.030   1.694   3.371  0.3266  0.4573 -0.5321
11458TIP3    H134331   0.027   1.601   3.396  1.5357  0.3624 -0.6795
11458TIP3    H234332   0.030   1.741   3.455  1.3800  0.2451 -0.3939
11459TIP3   OH234333   0.970   2.458   1.524 -0.0911  0.0336  0.6432
11459TIP3    H134334   0.974   2.378   1.473 -0.3959  0.4611 -0.0651
11459TIP3    H234335   0.889   2.501   1.496  0.6439  1.1553  0.1453
11460TIP3   OH234336   1.705   5.035   3.419  0.3771  0.4243 -0.4414
11460TIP3    H134337   1.782   5.057   3.471 -0.3469  0.1814  0.7774
11460TIP3    H234338   1.650   5.113   3.423 -2.4276 -1.3502  4.3155
11461TIP3   OH234339   2.423   1.964   4.958  0.6400 -0.1928 -0.4032
11461TIP3    H134340   2.350   2.025   4.947  0.6125 -0.2088 -0.3144
11461TIP3    H234341   2.499   2.011   4.924  0.3665 -0.6769 -1.7534
11462TIP3   OH234342   2.171   0.153   3.199  0.3624  0.2180 -0.1067
11462TIP3    H134343   2.149   0.213   3.128 -1.4187  0.5279  0.6508
11462TIP3    H234344   2.127   0.190   3.276 -0.0793 -1.5982  0.5649
11463TIP3   OH234345   1.841   2.876   3.852 -0.2196  0.4437  0.1178
11463TIP3    H134346   1.926   2.884   3.897 -1.0435 -0.8790  2.0352
11463TIP3    H234347   1.797   2.959   3.870  0.9710  1.5424 -1.7070
11464TIP3   OH234348   0.587   4.035   6.427 -0.6045  0.0275 -0.4591
11464TIP3    H134349   0.670   4.077   6.453 -0.9150  0.9281 -0.8820
11464TIP3    H234350   0.519   4.087   6.470 -0.9253 -2.4170  2.3107
11465TIP3   OH234351   3.574   3.710   2.595 -0.1746  0.3953  0.2312
11465TIP3    H134352   3.522   3.670   2.665 -0.9001  1.9373  0.6184
11465TIP3    H234353   3.643   3.759   2.640  0.2494  0.2034 -0.1952
11466TIP3   OH234354   0.528   3.729   0.378 -0.3235 -0.0516 -0.0223
11466TIP3    H134355   0.591   3.695   0.314 -1.0946 -1.5481 -0.0222
11466TIP3    H234356   0.481   3.652   0.408 -1.9246  0.9927  0.2407
11467TIP3   OH234357   5.201   3.382   5.307 -0.3140 -0.4447  0.5794
11467TIP3    H134358   5.285   3.388   5.352 -0.6728 -0.6982  1.2910
11467TIP3    H234359   5.224   3.359   5.217  0.4934  1.5303  0.2384
11468TIP3   OH234360   7.665   0.922   4.165 -0.5895  0.2191 -0.7433
11468TIP3    H134361   7.720   0.851   4.131 -1.2443 -1.7153  1.8740
11468TIP3    H234362   7.576   0.893   4.148 -0.8595  1.3306 -1.2738
11469TIP3   OH234363   7.247   3.501   0.735 -0.2504  0.3826  0.2293
11469TIP3    H134364   7.290   3.538   0.812 -0.2891 -0.7444  0.8240
11469TIP3    H234365   7.154   3.518   0.749 -0.1663  1.1750 -0.1363
11470TIP3   OH234366   3.053   7.418   1.944 -0.6527 -0.2774 -0.1383
11470TIP3    H134367   3.000   7.346   1.909  0.3596 -0.2830 -1.7539
11470TIP3    H234368   3.003   7.497   1.923 -0.8547 -0.3919 -0.0894
11471TIP3   OH234369   4.905   0.036   1.250  0.0135  0.0087 -0.4058
11471TIP3    H134370   4.874   0.063   1.336 -0.8042 -0.2362 -0.6144
11471TIP3    H234371   4.826   0.030   1.196  0.4884 -0.0191 -1.1279
11472TIP3   OH234372   6.529   5.349   0.716 -0.2907  0.5079 -0.0495
11472TIP3    H134373   6.509   5.382   0.628 -1.4501 -1.5924 -0.6578
11472TIP3    H234374   6.595   5.281   0.701  1.1913  1.6723  1.0049
11473TIP3   OH234375   1.817   2.845   2.856 -0.0024 -0.1629 -0.1775
11473TIP3    H134376   1.890   2.898   2.886  0.6854 -1.1139 -0.1000
11473TIP3    H234377   1.845   2.755   2.872  0.3148 -0.7624 -3.3790
11474TIP3   OH234378   3.295   0.045   2.393 -0.0016 -0.0709 -0.5821
11474TIP3    H134379   3.217  -0.001   2.362 -0.4480  0.5844 -0.4468
11474TIP3    H234380   3.268   0.088   2.474  0.6970 -0.4009 -0.1624
11475TIP3   OH234381   7.657   6.455   4.302  0.4776  0.3147 -0.2464
11475TIP3    H134382   7.726   6.486   4.360  1.1126 -2.7025  0.7992
11475TIP3    H234383   7.697   6.456   4.215  0.9185  1.0613 -0.0427
11476TIP3   OH234384   2.232   4.018   2.882 -0.1346 -0.4980  0.2528
11476TIP3    H134385   2.296   3.954   2.851  0.4672 -0.2356  0.9502
11476TIP3    H234386   2.224   4.080   2.810 -0.3195 -1.0545 -0.2145
11477TIP3   OH234387   3.735   3.122   2.544 -0.0239  0.0667  0.2233
11477TIP3    H134388   3.695   3.192   2.597 -1.6957 -1.4060  1.0161
11477TIP3    H234389   3.661   3.072   2.511  1.0577 -0.1582 -2.0567
11478TIP3   OH234390   2.094   7.434   0.886 -0.1714  0.3248  0.2244
11478TIP3    H134391   2.009   7.463   0.851 -1.5040  0.9511  3.5768
11478TIP3    H234392   2.071   7.366   0.949  2.0204 -0.6321  0.0554
11479TIP3   OH234393   4.042   6.009   5.873 -0.1942 -0.0106 -0.0048
11479TIP3    H134394   4.078   5.927   5.904  0.2956  0.2267  0.0614
11479TIP3    H234395   4.025   6.060   5.953  2.9440  1.3997 -0.1098
11480TIP3   OH234396   7.149   1.638   2.252  0.6544 -0.3890 -0.0687
11480TIP3    H134397   7.195   1.668   2.173  1.3577 -1.0231  0.0860
11480TIP3    H234398   7.197   1.560   2.279  0.2171 -0.3631  0.8069
11481TIP3   OH234399   2.221   2.649   3.389  0.3335  0.0200  0.3132
11481TIP3    H134400   2.301   2.596   3.393  0.0191 -0.5848 -0.9226
11481TIP3    H234401   2.150   2.588   3.409  0.1675  0.6393  1.8077
11482TIP3   OH234402   6.635   3.619   4.986  0.4379 -0.1771 -0.0130
11482TIP3    H134403   6.702   3.566   5.027 -0.0940 -0.6564  0.2500
11482TIP3    H234404   6.674   3.646   4.902 -0.2996 -3.4633 -1.6022
11483TIP3   OH234405   2.331   0.056   5.079 -0.6801  0.3797  0.0701
11483TIP3    H134406   2.343  -0.020   5.022 -0.8147  0.7084 -0.3980
11483TIP3    H234407   2.384   0.125   5.038  0.5182  0.1824  1.2056
11484TIP3   OH234408   6.800   6.938   1.042  0.2180 -0.0269 -0.3106
11484TIP3    H134409   6.786   7.032   1.027  2.5457  0.3441 -0.5392
11484TIP3    H234410   6.837   6.933   1.130 -1.0852 -0.8989  0.2153
11485TIP3   OH234411   4.878   0.272   4.870 -0.2748  0.3859 -0.1032
11485TIP3    H134412   4.878   0.354   4.920  0.3928 -0.4478  1.3490
11485TIP3    H234413   4.826   0.291   4.792 -1.5585  1.6984  1.0137
11486TIP3   OH234414   5.703   5.450   2.229  0.3596 -0.3930 -0.5353
11486TIP3    H134415   5.712   5.397   2.150 -0.2573  0.1364 -0.9721
11486TIP3    H234416   5.792   5.479   2.249  0.1910  2.1796 -2.9704
11487TIP3   OH234417   1.256   5.535   5.831 -0.2461 -0.0459  0.0758
11487TIP3    H134418   1.218   5.455   5.867 -0.1287  0.4606  1.3721
11487TIP3    H234419   1.274   5.590   5.908  1.0964  0.6009 -0.6582
11488TIP3   OH234420   6.858   1.585   4.612  0.1272 -0.6835  0.1116
11488TIP3    H134421   6.780   1.539   4.644  0.8897 -1.5174  0.8420
11488TIP3    H234422   6.829   1.631   4.533 -0.6928 -2.4191 -0.6503
11489TIP3   OH234423   0.498   3.341   5.727  0.3088  0.0131 -0.2719
11489TIP3    H134424   0.462   3.345   5.639 -0.0169 -1.1557 -0.2077
11489TIP3    H234425   0.440   3.397   5.779  0.3555  0.5049 -0.7453
11490TIP3   OH234426   0.776   3.889   3.458 -0.0311 -0.3287  0.0999
11490TIP3    H134427   0.720   3.899   3.380  1.9738  1.0922 -1.2537
11490TIP3    H234428   0.736   3.946   3.523 -0.7624 -0.1671 -0.4739
11491TIP3   OH234429   2.429   0.431   0.200 -0.0442 -0.2536 -0.2149
11491TIP3    H134430   2.465   0.346   0.227  0.5377 -0.2248 -0.8758
11491TIP3    H234431   2.373   0.410   0.125 -0.7367 -0.1827  0.2733
11492TIP3   OH234432   5.486   6.654   6.012  0.2965  0.1841  0.1888
11492TIP3    H134433   5.522   6.742   5.996 -1.5588  1.1317  0.9229
11492TIP3    H234434   5.395   6.669   6.035 -0.2595 -2.0291 -0.3340
11493TIP3   OH234435   8.232   3.786   0.657  0.4229  0.1750  0.5497
11493TIP3    H134436   8.287   3.713   0.627 -0.1419 -0.8130  1.8141
11493TIP3    H234437   8.198   3.756   0.741 -1.5897  0.9996  0.0777
11494TIP3   OH234438   3.674   4.817   0.802 -0.2120 -0.8275  0.3626
11494TIP3    H134439   3.642   4.727   0.810  0.7595 -1.3295 -0.9948
11494TIP3    H234440   3.754   4.809   0.749  0.0223  0.8146  0.4264
11495TIP3   OH234441   1.438   5.165   3.144  0.0589 -1.0171  0.5309
11495TIP3    H134442   1.421   5.218   3.222  0.2644 -0.9870  0.5547
11495TIP3    H234443   1.498   5.217   3.092  0.9504 -1.5865  0.9521
11496TIP3   OH234444   0.379   2.046   2.182 -0.0423  0.0258 -0.1103
11496TIP3    H134445   0.387   2.098   2.102 -0.2604  0.4910  0.1612
11496TIP3    H234446   0.286   2.050   2.204  0.4705  2.9550  2.1210
11497TIP3   OH234447   7.276   3.598   6.708 -0.4671  0.0821  0.3639
11497TIP3    H134448   7.316   3.511   6.718  1.6668  0.7926 -1.2475
11497TIP3    H234449   7.290   3.640   6.793  0.8773 -0.2518  0.3359
11498TIP3   OH234450   6.087   0.342   6.708 -0.2893 -0.0901  0.2599
11498TIP3    H134451   6.073   0.312   6.798  0.7560  0.4533  0.6334
11498TIP3    H234452   6.176   0.313   6.687 -0.8173 -0.9534 -0.9282
11499TIP3   OH234453   6.473   2.908   1.182 -0.4154 -1.0081  0.7390
11499TIP3    H134454   6.516   2.885   1.265  0.3814 -2.5549 -0.0718
11499TIP3    H234455   6.522   2.984   1.150  0.8895 -1.9191  0.4970
11500TIP3   OH234456   8.209   3.805   3.980  0.1007 -0.0049  0.1469
11500TIP3    H134457   8.166   3.828   3.897  2.8513  2.4593 -0.7753
11500TIP3    H234458   8.146   3.830   4.047 -1.4072 -0.1682 -1.1576
11501TIP3   OH234459   7.541   4.797   4.626 -0.0908 -0.3709 -0.1009
11501TIP3    H134460   7.633   4.773   4.630  0.2270  0.9096  0.4881
11501TIP3    H234461   7.501   4.727   4.573  0.8630 -1.9259  1.1470
11502TIP3   OH234462   7.839   6.842   2.194 -0.2032 -0.0265 -0.1888
11502TIP3    H134463   7.837   6.878   2.105 -1.1559  2.0201  0.5902
11502TIP3    H234464   7.885   6.759   2.185  0.3275  0.4372 -2.4826
11503TIP3   OH234465   5.155   3.800   1.298 -0.5777 -0.7021 -0.0273
11503TIP3    H134466   5.207   3.844   1.230 -1.3723  0.5775  0.1541
11503TIP3    H234467   5.149   3.709   1.268  0.0199 -0.4191 -1.0956
11504TIP3   OH234468   0.113   3.194   0.778 -0.0180  0.4235 -0.1346
11504TIP3    H134469   0.150   3.113   0.812  0.7450  1.9993  3.0963
11504TIP3    H234470   0.064   3.167   0.700  2.1302 -2.7446 -0.5586
11505TIP3   OH234471   5.027   7.029   0.078 -0.6343  0.2562  0.0958
11505TIP3    H134472   5.005   6.969   0.006  0.3225  0.7808 -0.6715
11505TIP3    H234473   4.989   6.989   0.156  0.8037 -1.9019 -0.2130
11506TIP3   OH234474   6.795   2.467   0.274  0.4234 -0.3524 -0.7179
11506TIP3    H134475   6.780   2.372   0.277  0.3976 -0.3170  0.6211
11506TIP3    H234476   6.878   2.479   0.320 -0.7280  0.4975  1.2480
11507TIP3   OH234477   5.530   0.174   1.599  0.4565 -0.3630 -0.0109
11507TIP3    H134478   5.610   0.143   1.557  0.6749 -1.3456  1.0677
11507TIP3    H234479   5.558   0.241   1.661  0.1853  0.7848 -1.1061
11508TIP3   OH234480   7.578   2.826   2.044  0.1699 -0.1556  0.3164
11508TIP3    H134481   7.517   2.897   2.066 -1.0037 -0.5196 -1.5045
11508TIP3    H234482   7.529   2.746   2.063  0.9380 -0.4863  0.9526
11509TIP3   OH234483   4.853   4.021   5.386  0.7790 -0.5076 -0.2219
11509TIP3    H134484   4.886   4.084   5.321 -2.8881  0.8043 -1.0704
11509TIP3    H234485   4.823   3.947   5.334  1.8060 -1.4447  0.4722
11510TIP3   OH234486   0.747   2.351   6.388  0.0527  0.2151  0.3043
11510TIP3    H134487   0.721   2.434   6.429  1.6573  0.3357  1.1567
11510TIP3    H234488   0.732   2.366   6.295  0.1587  1.4111  0.4547
11511TIP3   OH234489   6.450   3.992   0.947 -0.6196 -0.2551 -0.0698
11511TIP3    H134490   6.402   4.037   0.878 -0.8239  0.9232  0.8022
11511TIP3    H234491   6.391   3.923   0.977 -0.6945 -0.5060 -0.7846
11512TIP3   OH234492   3.341   1.484   0.098 -0.4685  0.3905  0.5658
11512TIP3    H134493   3.322   1.416   0.033  2.0855  1.7195 -1.7750
11512TIP3    H234494   3.280   1.555   0.076 -0.1048  0.5550  0.0735
11513TIP3   OH234495   2.731   3.000   6.174  0.1752 -0.4312 -0.5070
11513TIP3    H134496   2.749   3.092   6.192 -2.3216  0.1456 -0.5594
11513TIP3    H234497   2.707   2.963   6.258  1.2624 -1.0980 -0.4693
11514TIP3   OH234498   3.461   2.700   0.035 -0.6460  0.3406  0.2067
11514TIP3    H134499   3.525   2.665  -0.028 -0.8807  0.5410 -0.1436
11514TIP3    H234500   3.510   2.765   0.084 -0.6843  0.7941 -0.3421
11515TIP3   OH234501   4.984   2.651   1.655 -0.1961  0.8991 -0.0829
11515TIP3    H134502   4.889   2.650   1.652 -0.1730 -0.3254 -0.5998
11515TIP3    H234503   5.005   2.730   1.706 -1.5406 -0.1550  2.2539
11516TIP3   OH234504   7.053   6.547   3.932 -0.1072  0.7588  0.5113
11516TIP3    H134505   7.133   6.591   3.961  0.9095 -1.4693  1.2730
11516TIP3    H234506   7.049   6.565   3.838  1.1529  1.0856  0.5070
11517TIP3   OH234507   3.111   6.303   3.112 -0.0222  0.0535 -0.2304
11517TIP3    H134508   3.197   6.267   3.132 -0.8103 -2.1673 -0.5869
11517TIP3    H234509   3.116   6.326   3.019  1.1449  3.0503  0.4408
11518TIP3   OH234510   2.431   2.194   5.350 -0.2413 -0.7345  0.4971
11518TIP3    H134511   2.381   2.123   5.389  1.0424 -0.9491  1.8491
11518TIP3    H234512   2.507   2.204   5.407  0.8170  0.1434 -0.9833
11519TIP3   OH234513   3.829   0.077   1.605 -0.0536  0.4593  0.2307
11519TIP3    H134514   3.919   0.062   1.634 -0.4685 -1.6532  0.5782
11519TIP3    H234515   3.824   0.035   1.520 -0.6380  0.8180  0.0847
11520TIP3   OH234516   5.099   0.479   0.952  0.3231 -0.6161  0.0322
11520TIP3    H134517   5.086   0.394   0.994  2.6333 -0.3678  1.4260
11520TIP3    H234518   5.194   0.487   0.945  0.2388  2.3274  1.0349
11521TIP3   OH234519   3.208   1.318   4.171 -0.1213 -0.5928  0.3934
11521TIP3    H134520   3.208   1.303   4.077  0.0655 -0.1312  0.3135
11521TIP3    H234521   3.297   1.297   4.199  0.8269  2.2630 -0.0685
11522TIP3   OH234522   4.491   1.009   1.772 -0.6310 -0.4213 -0.3609
11522TIP3    H134523   4.570   0.976   1.729 -0.0008 -0.5056  0.8272
11522TIP3    H234524   4.419   0.968   1.724  0.0287 -0.0954 -1.6610
11523TIP3   OH234525   0.233   0.587   3.973  0.2036 -0.1227 -0.1588
11523TIP3    H134526   0.197   0.530   3.906 -0.9997 -0.5806  0.8364
11523TIP3    H234527   0.179   0.571   4.050  1.8285  0.0518  1.0661
11524TIP3   OH234528   3.333   1.934   6.037 -1.1023  0.2517  0.5826
11524TIP3    H134529   3.273   1.976   6.099  0.9798  1.4630  1.9241
11524TIP3    H234530   3.376   1.865   6.088 -1.2013 -0.4885 -0.3016
11525TIP3   OH234531   5.046   5.186   2.349 -0.1814 -0.4416 -0.1249
11525TIP3    H134532   5.100   5.265   2.344 -0.8532 -0.0155 -1.0149
11525TIP3    H234533   4.960   5.217   2.378 -0.1342 -1.0239  0.6720
11526TIP3   OH234534   7.582   2.689   2.887  0.5079  0.3803  0.2701
11526TIP3    H134535   7.556   2.642   2.966  0.1991 -0.9984 -0.6032
11526TIP3    H234536   7.513   2.753   2.872  0.3618  0.3684  0.8853
11527TIP3   OH234537   6.830   0.121   5.559  0.4947 -0.0952 -0.5113
11527TIP3    H134538   6.734   0.125   5.553  0.5809  1.6097 -1.1216
11527TIP3    H234539   6.859   0.211   5.544  2.1878 -0.5209  0.0154
11528TIP3   OH234540   6.112   2.482   5.472  0.3993  0.4955 -0.0823
11528TIP3    H134541   6.049   2.457   5.540  0.6387 -0.9028 -0.3436
11528TIP3    H234542   6.059   2.501   5.396  0.1820  1.2125  0.2446
11529TIP3   OH234543   5.582   5.418   4.397 -0.0003  0.5263 -0.0387
11529TIP3    H134544   5.563   5.508   4.374  0.5541  0.1638 -2.1055
11529TIP3    H234545   5.561   5.412   4.491  0.6820  2.9640  0.3266
11530TIP3   OH234546   7.404   7.436   6.574  0.4197 -0.0002  0.3017
11530TIP3    H134547   7.397   7.517   6.523 -0.6213 -0.0013  0.4135
11530TIP3    H234548   7.454   7.376   6.518  0.1842  0.3392 -0.2780
11531TIP3   OH234549   3.291   5.992   5.767  0.8098 -0.3113 -0.8705
11531TIP3    H134550   3.285   6.059   5.699 -1.4243 -0.4769 -0.8853
11531TIP3    H234551   3.368   5.941   5.743  1.3048  0.9316 -2.0577
11532TIP3   OH234552   0.570   4.752   5.636  0.4594  0.1198 -0.4187
11532TIP3    H134553   0.641   4.814   5.651  0.8620 -0.3195 -0.4883
11532TIP3    H234554   0.525   4.785   5.558 -0.1185  1.0267  0.2696
11533TIP3   OH234555   0.695   0.234   1.604 -0.1147 -0.1708  0.2716
11533TIP3    H134556   0.741   0.211   1.523  1.0369  0.0523  0.8298
11533TIP3    H234557   0.756   0.209   1.674 -0.2966  1.3234  1.0015
11534TIP3   OH234558   4.608   3.378   3.980  0.3651  0.0869 -0.2797
11534TIP3    H134559   4.613   3.460   3.932 -2.1415  0.1800 -0.5240
11534TIP3    H234560   4.684   3.328   3.951  0.1165  1.0070 -2.6883
11535TIP3   OH234561   6.684   1.301   4.963 -0.0932 -0.3479 -0.0790
11535TIP3    H134562   6.676   1.308   4.868  1.4614  0.1104 -0.2146
11535TIP3    H234563   6.735   1.378   4.989 -2.9289  1.1365  1.5542
11536TIP3   OH234564   2.570   6.002   3.588  0.4764  0.6990  0.9787
11536TIP3    H134565   2.536   6.091   3.579  2.3003  1.3618  0.1843
11536TIP3    H234566   2.638   5.995   3.521 -0.1814 -1.5934  0.4707
11537TIP3   OH234567   2.575   3.046   0.612 -0.3633 -0.0936 -1.1022
11537TIP3    H134568   2.531   3.026   0.694  2.8267  1.4896  1.2216
11537TIP3    H234569   2.650   2.987   0.609  1.0426  1.6321 -1.4799
11538TIP3   OH234570   4.987   0.230   4.309  0.4880  0.1534  0.0656
11538TIP3    H134571   4.998   0.157   4.247 -0.0042  0.7051 -0.6826
11538TIP3    H234572   4.930   0.292   4.264  0.1191  0.5768  1.0755
11539TIP3   OH234573   6.896   0.690   2.830 -0.0910  0.0416 -0.0983
11539TIP3    H134574   6.808   0.725   2.821 -0.1269  0.0528  0.2711
11539TIP3    H234575   6.918   0.703   2.922  0.5661  0.6599 -0.3356
11540TIP3   OH234576   3.779   4.298   0.375  0.0508 -0.2347  0.1248
11540TIP3    H134577   3.749   4.333   0.292 -0.6321  0.5126  0.6729
11540TIP3    H234578   3.871   4.276   0.360 -0.1262 -0.3176 -0.8813
11541TIP3   OH234579   3.440   5.038   3.738 -0.9613  0.0199  0.1375
11541TIP3    H134580   3.493   4.965   3.704  0.1739 -0.5434  2.8655
11541TIP3    H234581   3.350   5.012   3.720 -0.4936 -0.3322 -2.0925
11542TIP3   OH234582   1.509   3.492   4.983  0.6848 -0.4276  0.6007
11542TIP3    H134583   1.543   3.508   4.895 -0.1834 -1.6201  0.0150
11542TIP3    H234584   1.533   3.570   5.032  0.1306  0.8251 -1.0135
11543TIP3   OH234585   2.219   1.921   6.591 -0.6194 -0.2730 -0.7767
11543TIP3    H134586   2.221   1.826   6.588  2.1326 -0.3249 -0.4324
11543TIP3    H234587   2.268   1.949   6.514 -4.3690  1.0864 -2.9197
11544TIP3   OH234588   1.379   1.046   2.408  0.2250  0.1463 -0.3503
11544TIP3    H134589   1.447   1.079   2.349 -0.4927  0.4672 -1.0044
11544TIP3    H234590   1.427   1.023   2.488  1.1272  0.2324 -0.8469
11545TIP3   OH234591   0.640   2.569   3.548 -0.2858 -0.3071 -0.3944
11545TIP3    H134592   0.595   2.653   3.551 -1.2708 -0.8562  1.2895
11545TIP3    H234593   0.596   2.515   3.614 -1.6952 -3.1950 -3.4151
11546TIP3   OH234594   0.100   2.358   2.019 -0.1628  0.3284  0.5078
11546TIP3    H134595   0.012   2.327   1.997 -0.1357  1.3754 -1.2946
11546TIP3    H234596   0.155   2.325   1.948  0.5056  1.4181  0.5036
11547TIP3   OH234597   7.950   3.888   5.310 -0.6098 -0.7543  0.7371
11547TIP3    H134598   8.045   3.876   5.312 -0.7273 -2.5818 -0.8316
11547TIP3    H234599   7.933   3.961   5.369  1.6073 -1.4223  2.3497
11548TIP3   OH234600   5.781   6.561   4.418  0.1739 -0.3685  0.0851
11548TIP3    H134601   5.727   6.482   4.410  0.7418 -0.6276 -1.7476
11548TIP3    H234602   5.724   6.624   4.462 -1.7203 -0.6050 -1.8534
11549TIP3   OH234603   5.848   5.097   3.125  0.0355  0.6085 -0.3825
11549TIP3    H134604   5.782   5.076   3.058 -1.4080  0.8741  0.9067
11549TIP3    H234605   5.928   5.056   3.093 -1.1372 -1.1713 -1.1834
11550TIP3   OH234606   0.170   3.622   2.736 -0.2615 -0.0904  0.0802
11550TIP3    H134607   0.110   3.586   2.671  0.7612  2.5918 -2.6400
11550TIP3    H234608   0.254   3.579   2.718 -0.0690  0.3781 -0.1928
11551TIP3   OH234609   0.426   0.981   3.730 -0.1180  0.0457 -0.1611
11551TIP3    H134610   0.420   1.073   3.703  0.6357 -0.5119 -2.4532
11551TIP3    H234611   0.337   0.947   3.718 -0.2065  0.2641 -0.1317
11552TIP3   OH234612   4.983   5.367   3.348  0.4974 -0.0672 -0.1476
11552TIP3    H134613   5.060   5.422   3.364  1.1435 -0.4605 -1.7136
11552TIP3    H234614   4.999   5.328   3.262 -2.0554  0.8713 -1.1563
11553TIP3   OH234615   4.414   2.376   1.354 -1.0276 -0.0993  0.0379
11553TIP3    H134616   4.335   2.375   1.300 -2.0512  0.5595  1.4373
11553TIP3    H234617   4.459   2.458   1.330 -1.6491  0.3549  0.3901
11554TIP3   OH234618   3.569   5.641   2.079 -0.2158 -0.1882  0.2026
11554TIP3    H134619   3.597   5.551   2.097  0.4586  0.0287  0.2586
11554TIP3    H234620   3.577   5.686   2.163 -0.6673 -0.0987  0.2035
11555TIP3   OH234621   0.925   3.868   2.703 -0.3120 -0.5682  0.1051
11555TIP3    H134622   0.844   3.825   2.731 -0.5427  0.0763  0.4564
11555TIP3    H234623   0.932   3.849   2.610 -0.4169 -1.3530  0.2576
11556TIP3   OH234624   1.369   4.807   4.561 -0.1423 -0.1242 -0.0519
11556TIP3    H134625   1.289   4.839   4.603 -0.6262  0.1421 -1.1524
11556TIP3    H234626   1.347   4.719   4.532  0.7413 -0.9852  1.7213
11557TIP3   OH234627   2.933   0.067   4.800  0.1114 -0.9853 -0.1273
11557TIP3    H134628   2.922  -0.007   4.741 -0.2447 -1.5185  0.5832
11557TIP3    H234629   2.964   0.028   4.882  0.5271 -0.2772  0.0622
11558TIP3   OH234630   0.930   4.806   4.829 -0.5919  0.5063  0.8071
11558TIP3    H134631   0.855   4.865   4.817 -1.9738 -1.2538  0.4975
11558TIP3    H234632   0.908   4.755   4.907 -0.0260 -0.4815  0.3358
11559TIP3   OH234633   5.504   5.445   4.677 -0.3597 -0.1234  0.7571
11559TIP3    H134634   5.513   5.521   4.734  2.0184 -1.3799  2.2190
11559TIP3    H234635   5.439   5.389   4.721 -1.2267  0.4789  0.2870
11560TIP3   OH234636   3.296   6.166   0.089  0.4018  0.5251 -0.1521
11560TIP3    H134637   3.340   6.251   0.079 -0.1164  0.8137 -0.0754
11560TIP3    H234638   3.362   6.108   0.126  1.7210  0.0262 -3.0154
11561TIP3   OH234639   0.649   5.007   1.988 -0.2357 -0.0067  0.5466
11561TIP3    H134640   0.715   5.031   2.052  1.3136 -1.3914 -0.4593
11561TIP3    H234641   0.577   4.972   2.040  1.3645 -2.0024  1.5497
11562TIP3   OH234642   6.615   4.646   3.027 -0.0546  0.0946 -0.0286
11562TIP3    H134643   6.521   4.665   3.032  0.2069  1.2425  0.7344
11562TIP3    H234644   6.641   4.680   2.941 -0.5673 -1.3708 -0.7902
11563TIP3   OH234645   5.248   0.248   3.156  0.2880 -0.5389 -0.1892
11563TIP3    H134646   5.206   0.200   3.227 -2.2211  0.1054 -1.1143
11563TIP3    H234647   5.282   0.328   3.197  1.5795 -1.5363  0.7588
11564TIP3   OH234648   2.997   0.265   4.605  0.1206  0.5292 -0.3614
11564TIP3    H134649   2.972   0.239   4.694 -1.7998 -0.5560 -1.1665
11564TIP3    H234650   2.930   0.328   4.579  0.4440  0.5377 -1.1915
11565TIP3   OH234651   1.131   0.335   4.884  0.1068  0.1084  0.5955
11565TIP3    H134652   1.041   0.369   4.890 -0.8245 -2.0789 -0.0624
11565TIP3    H234653   1.143   0.285   4.964 -0.1960 -1.6120 -0.3887
11566TIP3   OH234654   3.959   6.337   2.067  0.0073 -0.5028  0.0293
11566TIP3    H134655   3.990   6.373   2.150  1.6755  1.4007 -1.3215
11566TIP3    H234656   4.008   6.255   2.056  2.7970  1.1424 -0.7984
11567TIP3   OH234657   6.965   3.032   3.449  0.0648 -0.4370  0.1827
11567TIP3    H134658   6.896   3.098   3.443 -0.4614 -0.9432  0.5260
11567TIP3    H234659   7.004   3.046   3.536 -0.7180 -1.2067  0.6788
11568TIP3   OH234660   3.308   3.543   5.887 -0.4718 -0.3222  0.3901
11568TIP3    H134661   3.266   3.564   5.804 -2.0014  0.0505  1.2174
11568TIP3    H234662   3.241   3.562   5.953  0.8807 -0.1047  1.7490
11569TIP3   OH234663   1.017   3.085   5.621  0.2612  0.5168 -0.1354
11569TIP3    H134664   0.924   3.098   5.602  0.4274  1.0157 -0.6440
11569TIP3    H234665   1.047   3.170   5.652  0.3358  0.0997  0.9728
11570TIP3   OH234666   4.161   2.275   0.773 -0.1743 -0.2917  0.2440
11570TIP3    H134667   4.255   2.275   0.753 -0.1402  0.7832  0.3094
11570TIP3    H234668   4.120   2.318   0.697 -0.5235 -0.0860  0.5439
11571TIP3   OH234669   5.973   1.337   2.065  0.0830 -0.2563 -0.3465
11571TIP3    H134670   5.906   1.279   2.101 -1.0461  1.6404  0.7457
11571TIP3    H234671   5.924   1.405   2.020  1.2917  0.7337 -0.2135
11572TIP3   OH234672   5.369   2.098   5.420 -0.0525 -0.2494 -0.0691
11572TIP3    H134673   5.308   2.056   5.359 -0.4928 -0.7528  0.6833
11572TIP3    H234674   5.332   2.079   5.507  1.0692 -0.4015  0.4018
11573TIP3   OH234675   2.764   6.301   2.144  0.0929  0.4115 -0.9107
11573TIP3    H134676   2.669   6.311   2.148 -0.0592 -1.1510 -0.0790
11573TIP3    H234677   2.793   6.376   2.092 -1.3041  2.5686  1.1949
11574TIP3   OH234678   6.133   5.128   0.767 -0.0200  0.1448  0.3775
11574TIP3    H134679   6.143   5.219   0.794  0.2035 -0.1216  1.2181
11574TIP3    H234680   6.178   5.078   0.835  0.8249 -0.5307 -0.6440
11575TIP3   OH234681   6.213   3.798   1.519  0.1023  0.5835  0.5269
11575TIP3    H134682   6.161   3.866   1.476 -0.9038  1.5079  3.0221
11575TIP3    H234683   6.284   3.846   1.561  1.5304 -0.3849 -0.7158
11576TIP3   OH234684   2.682   7.030   3.278 -0.0296  0.2307 -0.6283
11576TIP3    H134685   2.751   6.967   3.295  0.0969  0.7437  0.9404
11576TIP3    H234686   2.672   7.030   3.183 -0.4829 -2.5861 -0.6566
11577TIP3   OH234687   6.759   4.724   0.915 -0.2883  0.3029 -0.3999
11577TIP3    H134688   6.699   4.760   0.980 -1.1125  0.0887 -1.0346
11577TIP3    H234689   6.846   4.746   0.949 -0.7281  1.8110 -0.1457
11578TIP3   OH234690   5.329   2.176   4.995 -0.0799  0.2344 -1.0469
11578TIP3    H134691   5.275   2.125   4.934  0.1605 -0.1777 -0.9157
11578TIP3    H234692   5.321   2.129   5.079 -1.3924  1.4581 -0.4380
11579TIP3   OH234693   5.064   2.391   2.325 -0.4105  0.3756  0.2783
11579TIP3    H134694   4.981   2.439   2.323 -0.2123  0.7622  1.0806
11579TIP3    H234695   5.047   2.311   2.274 -0.7125  1.3263 -1.1701
11580TIP3   OH234696   4.281   5.652   2.910  0.1320  0.0832  0.0186
11580TIP3    H134697   4.194   5.688   2.930  0.4420  0.4312  0.8000
11580TIP3    H234698   4.268   5.602   2.830 -0.7930  0.1340  0.1193
11581TIP3   OH234699   0.103   0.774   1.438  0.0192 -0.0599 -0.7517
11581TIP3    H134700   0.043   0.849   1.443  0.0502 -0.0043 -1.1607
11581TIP3    H234701   0.059   0.713   1.378 -0.0406 -0.4024 -0.3626
11582TIP3   OH234702   1.846   3.369   3.192 -0.5251  0.5018 -0.5989
11582TIP3    H134703   1.851   3.333   3.281 -1.9444 -0.4875 -0.8837
11582TIP3    H234704   1.775   3.434   3.197 -0.5124  0.5449 -0.9786
11583TIP3   OH234705   8.229   2.102   1.168 -0.1955 -0.3964 -0.3817
11583TIP3    H134706   8.246   2.053   1.088 -0.4113  1.1771 -1.4276
11583TIP3    H234707   8.315   2.110   1.210  0.2924  0.5238 -1.5097
11584TIP3   OH234708   0.277   1.394   0.081  0.3186  0.8845 -0.0475
11584TIP3    H134709   0.239   1.379   0.167  0.1019 -0.4085 -0.3408
11584TIP3    H234710   0.223   1.341   0.022  2.3324 -0.7482 -0.5346
11585TIP3   OH234711   6.351   1.891   1.098 -0.0547 -0.0178  0.7916
11585TIP3    H134712   6.350   1.970   1.045 -0.4843  0.4464  1.4777
11585TIP3    H234713   6.368   1.820   1.035 -2.4391  0.2868 -0.2929
11586TIP3   OH234714   3.264   4.094   0.076 -0.6573  0.1091  0.0329
11586TIP3    H134715   3.261   4.002   0.051 -0.7712 -0.5448  2.1814
11586TIP3    H234716   3.343   4.101   0.130 -0.8845  1.1590  0.2495
11587TIP3   OH234717   0.860   1.558   4.979  0.1143 -0.3319  0.0684
11587TIP3    H134718   0.897   1.482   5.025  0.9578  0.3573  0.5467
11587TIP3    H234719   0.930   1.623   4.981 -1.0928  0.9677  0.8594
11588TIP3   OH234720   5.762   2.751   5.102  0.3617 -0.2728 -0.4322
11588TIP3    H134721   5.820   2.774   5.174  0.1628  0.1323 -0.3962
11588TIP3    H234722   5.819   2.747   5.025  0.6095 -0.9212 -0.2168
11589TIP3   OH234723   7.020   2.728   2.180  0.6908  0.3960  0.3226
11589TIP3    H134724   6.935   2.769   2.198  0.4122 -0.7119  1.7211
11589TIP3    H234725   7.083   2.798   2.195  0.0813  1.0593 -0.0955
11590TIP3   OH234726   4.748   2.076   1.459  0.0807  0.4794 -0.3072
11590TIP3    H134727   4.667   2.111   1.497  1.1485  2.2838  0.4740
11590TIP3    H234728   4.792   2.153   1.423  1.2951 -0.5124 -1.0047
11591TIP3   OH234729   4.373   5.739   0.297  0.1135 -0.2879 -0.1480
11591TIP3    H134730   4.429   5.696   0.233 -0.2227 -0.9580  0.0083
11591TIP3    H234731   4.290   5.753   0.252  0.3600  0.6142 -0.3458
11592TIP3   OH234732   6.609   0.185   3.909 -0.4126 -0.5252 -0.2436
11592TIP3    H134733   6.657   0.160   3.989 -1.0009 -0.2355  0.2061
11592TIP3    H234734   6.677   0.217   3.850 -0.0509 -0.0573  0.4110
11593TIP3   OH234735   5.449   5.411   0.537  0.2733  0.4006  0.1221
11593TIP3    H134736   5.361   5.401   0.501  0.4466 -2.4479  0.3221
11593TIP3    H234737   5.440   5.385   0.629  1.1657  1.0007  0.3886
11594TIP3   OH234738   6.843   4.594   5.029  0.7460 -0.6317 -0.4836
11594TIP3    H134739   6.919   4.573   4.975  0.2925 -1.4513 -0.8137
11594TIP3    H234740   6.834   4.519   5.088  1.4912  0.4310  1.0676
11595TIP3   OH234741   2.877   0.052   1.612  0.0329  0.5755  0.0695
11595TIP3    H134742   2.810   0.099   1.563 -0.1374  0.4480  0.1808
11595TIP3    H234743   2.907  -0.017   1.552 -0.4234  0.1980  0.2709
11596TIP3   OH234744   1.380   7.321   0.644 -0.4002 -0.2847 -0.2398
11596TIP3    H134745   1.413   7.386   0.582 -1.4326  0.0587 -0.4437
11596TIP3    H234746   1.334   7.257   0.591 -0.7284 -0.3425  0.1069
11597TIP3   OH234747   6.435   6.840   5.992 -0.0399  0.0552 -0.3134
11597TIP3    H134748   6.407   6.931   5.988 -1.1719 -0.3194 -1.4099
11597TIP3    H234749   6.444   6.822   6.086  0.5105  1.3633 -0.0940
11598TIP3   OH234750   7.002  -0.007   5.410 -0.2451  0.3318  0.0151
11598TIP3    H134751   7.093   0.015   5.427  0.0889 -1.1453  0.2831
11598TIP3    H234752   6.952   0.035   5.480  0.5599 -1.3305  1.6440
11599TIP3   OH234753   6.109   7.698   4.043  0.9906  0.3404  0.1432
11599TIP3    H134754   6.181   7.686   4.104 -0.7974 -1.0617  2.0976
11599TIP3    H234755   6.081   7.609   4.021 -0.2054  0.8606 -0.5224
11600TIP3   OH234756   0.178   1.533   5.662 -0.2232  0.0843 -0.8046
11600TIP3    H134757   0.132   1.613   5.636  0.8879  1.0023 -0.0570
11600TIP3    H234758   0.109   1.468   5.671 -1.4253  1.4427  0.4030
11601TIP3   OH234759   2.886   0.730   1.399 -0.9780 -0.1730 -0.0145
11601TIP3    H134760   2.830   0.728   1.476  0.9306 -0.0169  1.4281
11601TIP3    H234761   2.905   0.823   1.385 -1.2217 -0.2086 -0.6190
11602TIP3   OH234762   1.225   2.850   5.811  0.0074  0.3117  0.7305
11602TIP3    H134763   1.129   2.848   5.807  0.0334 -0.3125  0.2504
11602TIP3    H234764   1.248   2.942   5.801 -0.4320  0.1988 -2.0763
11603TIP3   OH234765   3.503   1.454   2.165 -0.0166 -0.0215 -0.4891
11603TIP3    H134766   3.562   1.520   2.203 -0.7181 -0.4286  1.4099
11603TIP3    H234767   3.492   1.389   2.235 -3.3896  0.4759 -0.4231
11604TIP3   OH234768   1.879   6.268   5.980  0.2152  0.2043  0.8250
11604TIP3    H134769   1.905   6.348   6.026 -0.6125  0.3032  1.1385
11604TIP3    H234770   1.892   6.288   5.888 -0.4391  0.8679  0.8723
11605TIP3   OH234771   7.844   1.377   3.504  0.4587 -0.9480  0.0836
11605TIP3    H134772   7.851   1.442   3.575 -1.2131 -0.1584 -0.4142
11605TIP3    H234773   7.755   1.389   3.470  1.0598 -1.6345 -1.8390
11606TIP3   OH234774   6.771   1.973   4.449  0.1584  0.0737 -0.1986
11606TIP3    H134775   6.679   1.959   4.427 -0.5460  0.2052  2.3539
11606TIP3    H234776   6.819   1.923   4.383 -1.8244 -1.8582 -0.2930
11607TIP3   OH234777   6.945   7.767   1.170 -0.5374 -0.3540 -0.1397
11607TIP3    H134778   6.936   7.839   1.108  1.7505  0.2060  0.1131
11607TIP3    H234779   6.937   7.808   1.256 -3.9379 -1.1579  0.0888
11608TIP3   OH234780   4.519   2.005   1.955 -0.4264  0.3317 -0.1916
11608TIP3    H134781   4.566   2.088   1.954 -0.8426  0.5654 -0.8098
11608TIP3    H234782   4.556   1.955   1.882 -0.9193  0.4050 -0.5011
11609TIP3   OH234783   7.252   6.663   0.474 -0.1806 -0.6042  0.0185
11609TIP3    H134784   7.212   6.586   0.433  2.5245 -1.5682 -1.0493
11609TIP3    H234785   7.269   6.723   0.400  1.0148 -0.5705  0.3054
11610TIP3   OH234786   3.689   5.103   3.901  0.4326  0.0502 -0.4150
11610TIP3    H134787   3.694   5.009   3.887  0.0235  0.1576 -1.3606
11610TIP3    H234788   3.768   5.125   3.950  0.5818 -0.7692 -0.2909
11611TIP3   OH234789   7.042   4.009   1.202 -0.1496  0.1505 -0.4618
11611TIP3    H134790   7.040   4.056   1.285  0.2703 -1.1587  0.3253
11611TIP3    H234791   6.957   3.965   1.198  0.1558 -0.4678 -0.2995
11612TIP3   OH234792   7.237   2.033   5.757 -0.2104  0.4844  0.5701
11612TIP3    H134793   7.237   2.089   5.679  0.7229 -0.3585 -0.0538
11612TIP3    H234794   7.162   2.064   5.809 -0.6742  1.2456 -0.5246
11613TIP3   OH234795   2.302   7.234   0.776 -0.0283  0.3321  0.1643
11613TIP3    H134796   2.249   7.313   0.789  0.6171  0.7981  0.0162
11613TIP3    H234797   2.390   7.261   0.800  0.4611  0.0650 -1.2573
11614TIP3   OH234798   7.615  -0.020   1.435  0.3315 -0.2593 -0.0339
11614TIP3    H134799   7.706  -0.013   1.463  0.1402 -0.8650  0.7871
11614TIP3    H234800   7.573   0.059   1.469  0.5708  0.0733 -0.5076
11615TIP3   OH234801   8.114   0.653   3.518  0.0211  0.5833  0.3601
11615TIP3    H134802   8.137   0.673   3.427  1.0884 -1.0175  0.2381
11615TIP3    H234803   8.180   0.700   3.570  0.5603  0.0205  0.2062
11616TIP3   OH234804   8.152   2.468   6.687  0.3133 -0.2789 -0.4517
11616TIP3    H134805   8.205   2.480   6.766  0.8868 -3.1246 -0.2748
11616TIP3    H234806   8.068   2.434   6.720  0.3534 -0.9375 -1.0106
11617TIP3   OH234807   2.398   4.306   2.305 -0.3817 -0.8826 -0.2553
11617TIP3    H134808   2.442   4.221   2.300 -0.5802 -1.0106  0.1235
11617TIP3    H234809   2.392   4.324   2.399  0.7585  0.1267 -0.3557
11618TIP3   OH234810   5.603   5.842   6.098 -0.3046 -0.2559  0.2288
11618TIP3    H134811   5.569   5.873   6.182  1.2366  1.1973  0.3706
11618TIP3    H234812   5.628   5.922   6.051 -2.8293 -0.8535 -2.4554
11619TIP3   OH234813   5.370   6.506   6.330  0.0098  0.1281 -0.4099
11619TIP3    H134814   5.286   6.550   6.345  0.0909  0.5934 -1.2573
11619TIP3    H234815   5.435   6.567   6.366 -0.0540 -0.5932  0.9721
11620TIP3   OH234816   4.726   2.435   4.012  0.0429  0.5873 -0.4472
11620TIP3    H134817   4.771   2.511   4.049  0.9106 -0.5716  0.9864
11620TIP3    H234818   4.775   2.360   4.045 -0.9858 -0.6149 -1.5583
11621TIP3   OH234819   4.980   4.856   4.413  0.3822  0.3084 -0.0250
11621TIP3    H134820   5.014   4.832   4.327  1.4945  1.7373 -0.0261
11621TIP3    H234821   4.886   4.868   4.400  0.4136 -0.2977 -0.8474
11622TIP3   OH234822   1.954   6.976   0.681 -0.5343 -0.1032  0.7813
11622TIP3    H134823   1.884   7.005   0.740  0.5960  3.5104  0.5799
11622TIP3    H234824   2.006   7.055   0.665  3.1935 -2.4316  0.3268
11623TIP3   OH234825   7.750   3.688   6.200  0.6595 -0.2738  0.0831
11623TIP3    H134826   7.801   3.613   6.171 -0.3505 -0.2639 -1.9125
11623TIP3    H234827   7.785   3.762   6.149  0.0633  0.1269  0.2425
11624TIP3   OH234828   0.362   5.451   3.340 -0.1064 -0.3706 -0.3575
11624TIP3    H134829   0.415   5.379   3.375  1.3461  0.6722 -0.2781
11624TIP3    H234830   0.396   5.465   3.252  1.1145  1.5184  0.3391
11625TIP3   OH234831   0.705   2.970   6.777 -0.1386  0.5551  0.0790
11625TIP3    H134832   0.745   3.018   6.703  0.1021 -1.1541 -0.9431
11625TIP3    H234833   0.677   2.887   6.739  0.7858 -0.7377  2.1254
11626TIP3   OH234834   4.662   5.892   3.418  0.4929  0.5415  0.3311
11626TIP3    H134835   4.670   5.983   3.447  0.8798  0.7333 -0.3769
11626TIP3    H234836   4.652   5.842   3.500 -0.2987  1.2710  0.6943
11627TIP3   OH234837   4.658   3.165   3.666  0.1516  0.2186 -0.3119
11627TIP3    H134838   4.659   3.176   3.571  1.8522 -0.2510 -0.3791
11627TIP3    H234839   4.687   3.074   3.680  0.1394  0.3530  0.6545
11628TIP3   OH234840   1.350   7.365   0.915 -0.0173  0.3933 -0.1547
11628TIP3    H134841   1.363   7.325   0.829 -0.4657  0.2397 -0.1540
11628TIP3    H234842   1.263   7.335   0.942  0.0976  0.4926  0.3245
11629TIP3   OH234843   4.394   4.993   0.709 -0.0228  0.4186  0.3940
11629TIP3    H134844   4.318   4.947   0.675 -0.3171 -0.2303  1.8578
11629TIP3    H234845   4.358   5.059   0.769  0.5551 -0.1152  1.3564
11630TIP3   OH234846   7.805   6.438   0.284  0.6902 -0.1510  0.0982
11630TIP3    H134847   7.718   6.475   0.273  0.3222 -1.0747 -0.1683
11630TIP3    H234848   7.859   6.511   0.314 -0.2060  0.3878  0.4093
11631TIP3   OH234849   7.377   6.886   2.362 -0.1358 -0.1073  0.2003
11631TIP3    H134850   7.282   6.900   2.360 -0.3094 -1.2416  0.1950
11631TIP3    H234851   7.413   6.974   2.356 -1.1991  0.4299  1.1029
11632TIP3   OH234852   2.665   0.806   1.756  0.1795 -0.6803  0.2552
11632TIP3    H134853   2.645   0.736   1.694 -1.0740  0.1072 -0.2661
11632TIP3    H234854   2.592   0.805   1.817  1.1954 -1.1686  1.5024
11633TIP3   OH234855   7.532   2.667   4.624  0.2272  0.2377 -0.2992
11633TIP3    H134856   7.483   2.597   4.580  1.0116  0.3856 -1.4473
11633TIP3    H234857   7.474   2.696   4.694 -1.2089  0.1900 -1.4118
11634TIP3   OH234858   2.034   1.184   4.193  0.0457  0.1939  0.3844
11634TIP3    H134859   2.003   1.257   4.139  0.0285 -0.1565 -0.0841
11634TIP3    H234860   2.023   1.214   4.283 -0.0531  0.7324  0.1955
11635TIP3   OH234861   6.795   7.461   0.272 -0.4092  0.0424 -0.0452
11635TIP3    H134862   6.823   7.371   0.258 -0.7263  0.0233 -0.6331
11635TIP3    H234863   6.795   7.473   0.367  1.5548  0.0500 -0.0101
11636TIP3   OH234864   4.803   4.509   0.972 -0.4898  0.0732  0.2226
11636TIP3    H134865   4.844   4.577   0.919  0.1959  0.9830  1.8344
11636TIP3    H234866   4.713   4.538   0.983  0.1940  1.6885  2.2692
11637TIP3   OH234867   4.231   0.688   6.621  0.5901  0.5615  0.5912
11637TIP3    H134868   4.145   0.730   6.629  0.2440  0.4868 -1.8277
11637TIP3    H234869   4.275   0.706   6.704 -0.9946  2.3858  1.1119
11638TIP3   OH234870   4.671   1.878   4.063 -0.5871 -0.4513 -0.0407
11638TIP3    H134871   4.718   1.935   4.003 -1.0826  0.0747  0.0561
11638TIP3    H234872   4.590   1.856   4.016 -0.6026 -0.7039  0.1046
11639TIP3   OH234873   8.017   2.234   2.989  0.5450 -0.2466 -0.2949
11639TIP3    H134874   7.932   2.214   2.949  0.0469  0.9849  0.1267
11639TIP3    H234875   8.037   2.157   3.042  1.2087 -1.9345 -2.8031
11640TIP3   OH234876   3.602   6.993   5.244 -0.3941 -0.0285  0.4025
11640TIP3    H134877   3.650   7.061   5.197  0.0967 -0.3610  0.4187
11640TIP3    H234878   3.543   6.956   5.179  0.2445 -0.4488  0.0514
11641TIP3   OH234879   8.009   6.163   6.275  0.0900  0.2316  0.7423
11641TIP3    H134880   7.921   6.194   6.295  0.2206  1.2194 -0.1464
11641TIP3    H234881   7.998   6.099   6.205  0.1679  1.1293 -0.0975
11642TIP3   OH234882   6.598   7.509   4.178 -0.6025 -0.8682 -0.2542
11642TIP3    H134883   6.661   7.580   4.184  0.7153 -1.8587 -1.5287
11642TIP3    H234884   6.514   7.549   4.201  0.3768  0.6172  0.9370
11643TIP3   OH234885   2.394   6.198   4.098 -0.6027  0.1861 -0.3678
11643TIP3    H134886   2.450   6.195   4.176 -1.0211 -3.4308 -0.0279
11643TIP3    H234887   2.307   6.174   4.130 -0.7824 -1.3916 -1.8801
11644TIP3   OH234888   4.282   5.454   1.151  0.2118  0.2066 -0.0351
11644TIP3    H134889   4.319   5.379   1.198 -0.0963 -0.5546 -0.9655
11644TIP3    H234890   4.211   5.484   1.208 -2.1749 -2.5824 -1.2418
11645TIP3   OH234891   5.400   6.270   0.220  0.0133 -0.6494 -0.1897
11645TIP3    H134892   5.406   6.273   0.315  0.0591  0.2318 -0.2152
11645TIP3    H234893   5.458   6.198   0.194  0.5187 -0.4580  0.3966
11646TIP3   OH234894   5.667   3.219   3.960 -0.0179 -0.0274 -0.5835
11646TIP3    H134895   5.678   3.259   3.873 -1.2269  1.1632 -0.2237
11646TIP3    H234896   5.693   3.288   4.021 -2.2661  0.3455  0.0573
11647TIP3   OH234897   0.814   0.035   0.999  0.1669  0.6295  0.3188
11647TIP3    H134898   0.890  -0.005   0.957  1.1884  1.4758  1.3201
11647TIP3    H234899   0.832   0.129   0.999 -2.3906  1.2869 -2.4277
11648TIP3   OH234900   7.937   2.994   2.358 -0.1082 -0.0123 -0.3401
11648TIP3    H134901   7.992   3.046   2.300  1.7472 -2.7355 -1.2458
11648TIP3    H234902   7.871   2.956   2.301 -1.1705  0.8971  0.2334
11649TIP3   OH234903   5.765   1.922   5.980  0.2329 -0.0550  0.1029
11649TIP3    H134904   5.704   1.853   5.956 -0.4240  1.2920 -2.5147
11649TIP3    H234905   5.850   1.889   5.951 -0.0897  0.2025 -1.2223
11650TIP3   OH234906   1.783   6.167   4.150 -0.0620 -0.2729  0.5003
11650TIP3    H134907   1.712   6.111   4.119  1.0743 -0.2787 -2.3590
11650TIP3    H234908   1.862   6.130   4.112  1.1259  1.4839  1.1061
11651TIP3   OH234909   1.042   3.174   2.760  0.6124  0.0343  0.7520
11651TIP3    H134910   0.997   3.172   2.675  1.3564 -1.6402  0.3464
11651TIP3    H234911   1.010   3.253   2.803  1.5717  1.9462 -1.8102
11652TIP3   OH234912   2.865   5.929   1.094  0.0497  0.1246 -0.0957
11652TIP3    H134913   2.812   5.938   1.015 -1.1163  0.6983  0.7244
11652TIP3    H234914   2.955   5.930   1.062 -0.4091 -0.8236 -1.5138
11653TIP3   OH234915   3.883   0.113   4.863 -0.5480 -0.0473 -0.1875
11653TIP3    H134916   3.871   0.146   4.774 -2.0925  0.5709  0.2156
11653TIP3    H234917   3.957   0.164   4.897 -0.3039  0.1044 -0.9315
11654TIP3   OH234918   7.168   0.036   1.761 -0.0757 -0.4569 -0.0990
11654TIP3    H134919   7.081  -0.003   1.753 -1.0351  1.8600 -1.8198
11654TIP3    H234920   7.181   0.046   1.855 -1.8703 -0.4427  0.1852
11655TIP3   OH234921   3.905   3.417   2.205  0.0572  0.4867  0.6339
11655TIP3    H134922   3.857   3.444   2.126 -0.3957  0.3043  0.8434
11655TIP3    H234923   3.952   3.495   2.233 -0.7905  0.9062  0.9079
11656TIP3   OH234924   7.949   4.467   6.632 -0.0623  0.0797  0.5137
11656TIP3    H134925   7.858   4.443   6.652 -0.1167 -0.8404 -0.7391
11656TIP3    H234926   7.981   4.507   6.713 -1.5838  0.4315  0.9786
11657TIP3   OH234927   5.181   2.851   5.294  0.0750 -0.6070  0.3520
11657TIP3    H134928   5.208   2.760   5.307  1.0774 -0.1970  1.2394
11657TIP3    H234929   5.238   2.902   5.352 -0.4595  0.5925 -0.1439
11658TIP3   OH234930   0.396   6.218   0.387 -0.0054 -0.2032 -0.3025
11658TIP3    H134931   0.455   6.147   0.414 -0.0119 -0.2599 -0.4373
11658TIP3    H234932   0.435   6.297   0.425  0.7667 -0.0880 -1.3189
11659TIP3   OH234933   5.118   6.555   1.818  0.4143  0.0236 -0.1470
11659TIP3    H134934   5.031   6.523   1.842  0.0239  0.8760 -0.4165
11659TIP3    H234935   5.113   6.650   1.828  0.8298  0.2265 -1.6972
11660TIP3   OH234936   2.630   4.054   3.112  0.4130 -0.1954 -0.5754
11660TIP3    H134937   2.661   4.109   3.040 -0.1628  0.8006 -0.0803
11660TIP3    H234938   2.535   4.069   3.115 -0.1804 -2.9521 -1.8686
11661TIP3   OH234939   4.792   5.424   5.436  0.6891  0.4277 -0.2657
11661TIP3    H134940   4.858   5.356   5.428 -0.2174 -0.3862 -1.1511
11661TIP3    H234941   4.817   5.490   5.371  0.0627 -0.3973 -1.3832
11662TIP3   OH234942   3.671   6.509   1.736 -0.4232 -0.5734 -0.4039
11662TIP3    H134943   3.644   6.592   1.699  0.3555  0.2709  0.8340
11662TIP3    H234944   3.600   6.485   1.796  0.6203  0.7360  1.4760
11663TIP3   OH234945   1.268   0.960   2.777 -0.1032 -0.2369  0.2880
11663TIP3    H134946   1.312   0.907   2.844  0.0178 -0.3821  0.0958
11663TIP3    H234947   1.293   1.050   2.797 -1.1021 -0.1415  1.2165
11664TIP3   OH234948   6.947   2.737   0.319  0.3075 -0.3536  0.9288
11664TIP3    H134949   6.925   2.744   0.226 -0.7576 -2.5209  0.9553
11664TIP3    H234950   6.905   2.813   0.360 -0.1822 -0.0116 -0.1943
11665TIP3   OH234951   1.520   3.829   2.729  0.7308 -0.2745  0.2601
11665TIP3    H134952   1.552   3.739   2.732  0.5631 -0.3180  1.1554
11665TIP3    H234953   1.513   3.850   2.636 -0.0205 -1.4672  0.0289
11666TIP3   OH234954   6.423   5.324   3.953 -0.0011 -0.1556 -0.4025
11666TIP3    H134955   6.452   5.361   4.036 -0.1534  1.6068 -1.0882
11666TIP3    H234956   6.355   5.260   3.977  0.4403 -0.1783  0.8444
11667TIP3   OH234957   7.566   5.577   2.501  0.5844 -0.0914  0.3438
11667TIP3    H134958   7.584   5.627   2.422  1.0200  0.4939  0.8099
11667TIP3    H234959   7.569   5.485   2.472 -0.2610  0.1377 -0.5205
11668TIP3   OH234960   7.339   4.873   6.132 -0.0847 -0.7309  0.0847
11668TIP3    H134961   7.292   4.813   6.189  0.9778 -1.0736  0.6425
11668TIP3    H234962   7.403   4.818   6.087 -0.9007 -0.4636 -1.4710
11669TIP3   OH234963   5.958   5.722   3.989  0.1979  0.4197  0.6709
11669TIP3    H134964   5.989   5.695   3.902 -0.1569 -0.6444  0.8600
11669TIP3    H234965   5.956   5.817   3.985  1.5015  0.4480 -0.0347
11670TIP3   OH234966   1.843   0.842   4.142  0.2952 -0.1156 -0.1245
11670TIP3    H134967   1.780   0.874   4.207  0.8304  1.3766 -0.2970
11670TIP3    H234968   1.928   0.869   4.175  0.4753  2.4555 -2.2805
11671TIP3   OH234969   7.341   0.350   3.876  0.6661  0.1241 -0.0252
11671TIP3    H134970   7.316   0.288   3.807 -0.3680  0.2105  0.2458
11671TIP3    H234971   7.352   0.433   3.831  1.3649 -0.1073 -0.2876
11672TIP3   OH234972   7.878   0.094   2.198 -0.3433  0.0008 -0.5882
11672TIP3    H134973   7.909   0.184   2.204  0.6516 -0.3617  0.0052
11672TIP3    H234974   7.794   0.094   2.245 -1.1851  0.9511 -2.0230
11673TIP3   OH234975   0.879   6.391   1.334 -0.6834  0.0745  0.1743
11673TIP3    H134976   0.856   6.460   1.395 -1.6237  0.1966 -0.3063
11673TIP3    H234977   0.825   6.408   1.256 -1.4953 -1.6101  0.3218
11674TIP3   OH234978   7.655   0.696   0.240  0.5083  0.2673 -0.1399
11674TIP3    H134979   7.683   0.653   0.159 -1.5345 -1.7233  0.0942
11674TIP3    H234980   7.604   0.772   0.211  0.1350 -0.1991 -0.7303
11675TIP3   OH234981   0.694   2.558   4.729 -0.0883 -0.0976 -0.5128
11675TIP3    H134982   0.686   2.630   4.792  0.0761  0.7152 -1.3951
11675TIP3    H234983   0.778   2.517   4.751  0.2067  0.4903 -0.5040
11676TIP3   OH234984   5.338   4.134   1.490  0.6273  0.2849 -0.3624
11676TIP3    H134985   5.356   4.210   1.546  1.1771  0.3664 -0.6443
11676TIP3    H234986   5.385   4.152   1.409  1.6981 -0.8592 -0.0297
11677TIP3   OH234987   1.625   1.294   6.244  0.2465  0.1279  0.1463
11677TIP3    H134988   1.624   1.217   6.301  0.1401  0.1783  0.2129
11677TIP3    H234989   1.533   1.315   6.230  0.1769  2.2306  2.8626
11678TIP3   OH234990   6.714   0.134   4.448  0.5249 -0.5777  0.0915
11678TIP3    H134991   6.774   0.097   4.514  1.4765 -0.4273 -0.6639
11678TIP3    H234992   6.677   0.057   4.404  1.0509 -0.6661 -0.2064
11679TIP3   OH234993   4.455   4.815   4.419  0.2207 -0.1363 -0.4337
11679TIP3    H134994   4.452   4.719   4.419 -0.9311 -0.1141 -0.9861
11679TIP3    H234995   4.448   4.839   4.512 -4.8848 -0.5393 -0.4651
11680TIP3   OH234996   1.082   2.472   5.792  0.3361  0.3071 -0.0365
11680TIP3    H134997   1.027   2.531   5.844  0.3618 -0.9849  1.5587
11680TIP3    H234998   1.025   2.444   5.720 -0.0231  1.4218 -0.2079
11681TIP3   OH234999   0.235   4.749   5.229 -0.2065 -0.6922 -0.2826
11681TIP3    H135000   0.152   4.794   5.245  1.2446  2.1422 -0.0726
11681TIP3    H235001   0.272   4.793   5.153  0.7146 -2.5283 -0.9526
11682TIP3   OH235002   2.519   6.043   6.229  1.0180 -0.1373  0.1708
11682TIP3    H135003   2.520   6.080   6.140 -1.3796 -0.1365  0.0672
11682TIP3    H235004   2.531   6.118   6.286  1.6362 -0.0012 -0.1300
11683TIP3   OH235005   7.076   3.374   3.027  0.3287 -0.0128  0.1055
11683TIP3    H135006   7.042   3.454   3.068  2.7784  1.9771 -1.4879
11683TIP3    H235007   7.151   3.350   3.080  0.7331 -0.1515 -0.5238
11684TIP3   OH235008   7.090   4.316   2.517  0.4733 -0.0385 -0.3659
11684TIP3    H135009   7.089   4.287   2.426 -0.3388  1.4421 -0.8491
11684TIP3    H235010   7.171   4.278   2.553  1.6146  0.6140 -2.1155
11685TIP3   OH235011   7.676   1.436   5.759  0.6870  0.3488  0.0199
11685TIP3    H135012   7.587   1.430   5.722  1.0619 -0.9985 -0.7496
11685TIP3    H235013   7.677   1.520   5.804 -0.2633  1.4569 -1.8583
11686TIP3   OH235014   4.233   3.460   2.767  0.2287 -0.3881 -0.2362
11686TIP3    H135015   4.218   3.366   2.776  1.9944 -0.7543 -0.8448
11686TIP3    H235016   4.196   3.482   2.681 -2.8920  0.1368  1.0928
11687TIP3   OH235017   0.102   6.365   0.585  0.0173 -0.6937 -0.0512
11687TIP3    H135018   0.128   6.273   0.587  0.7464 -0.4852  0.6182
11687TIP3    H235019   0.184   6.413   0.596 -0.0886  0.0980 -2.2295
11688TIP3   OH235020   8.302   6.475   5.322 -0.2688  0.1800 -0.0424
11688TIP3    H135021   8.339   6.435   5.401  0.6596 -0.8518 -0.9557
11688TIP3    H235022   8.265   6.558   5.352 -0.8550 -0.6377  1.6484
11689TIP3   OH235023   3.807   3.845   2.733  0.4917 -0.0149  0.1749
11689TIP3    H135024   3.819   3.800   2.817 -0.9189  1.1744  1.0816
11689TIP3    H235025   3.815   3.938   2.755  1.5912  0.2694 -1.3093
11690TIP3   OH235026   4.489   3.454   4.519  0.1982 -0.6837  0.3859
11690TIP3    H135027   4.526   3.488   4.438 -2.8267 -0.0205 -0.8728
11690TIP3    H235028   4.438   3.377   4.492  0.5106 -1.4871  1.9581
11691TIP3   OH235029   4.107   7.525   1.664 -0.3956  0.2885  0.1666
11691TIP3    H135030   4.056   7.452   1.700  0.4492 -2.1959 -3.1651
11691TIP3    H235031   4.176   7.483   1.613  1.6444  3.5139 -0.0431
11692TIP3   OH235032   2.610   0.227   5.434  0.2642  0.4235 -0.2399
11692TIP3    H135033   2.664   0.199   5.360 -2.0903 -0.3910 -1.7370
11692TIP3    H235034   2.522   0.197   5.413 -0.4983  0.0866  2.9661
11693TIP3   OH235035   4.948   1.001   3.177  0.1080  0.0757 -0.1622
11693TIP3    H135036   4.972   0.928   3.234  0.1765 -0.0505 -0.3557
11693TIP3    H235037   4.910   0.960   3.099  3.4747  0.0225 -1.9624
11694TIP3   OH235038   2.602   2.218   5.564  0.4386 -0.1218 -0.5108
11694TIP3    H135039   2.650   2.156   5.619 -1.0528 -0.6171  0.2911
11694TIP3    H235040   2.670   2.278   5.531  1.4272  0.2945  1.9804
11695TIP3   OH235041   4.017   0.501   2.486 -0.3821 -0.4305  0.1579
11695TIP3    H135042   3.991   0.427   2.539 -0.1667 -0.3776  0.3423
11695TIP3    H235043   4.093   0.470   2.436 -1.0305 -0.7096 -0.6733
11696TIP3   OH235044   6.600   5.996   3.765  0.2135 -0.9117  0.5014
11696TIP3    H135045   6.572   5.942   3.839  0.1181 -2.9053 -0.9206
11696TIP3    H235046   6.518   6.020   3.721  0.0238  2.5443  2.4298
11697TIP3   OH235047   5.055   6.932   1.536  0.1831  0.4319 -0.8069
11697TIP3    H135048   5.024   6.988   1.607 -1.3757 -1.8547  0.4369
11697TIP3    H235049   5.016   6.969   1.457 -4.7744 -1.3018  0.4649
11698TIP3   OH235050   0.581   2.334   5.419  0.0630  1.0403 -0.3614
11698TIP3    H135051   0.525   2.287   5.357 -0.9549 -0.3136  1.4911
11698TIP3    H235052   0.670   2.302   5.399 -0.2436  0.5782 -1.0527
11699TIP3   OH235053   0.539   7.585   2.577 -0.0853 -0.2004  0.3779
11699TIP3    H135054   0.468   7.613   2.635  0.0846 -0.9871  0.9901
11699TIP3    H235055   0.592   7.526   2.632  1.8340  1.4407  0.3793
11700TIP3   OH235056   4.601   4.335   6.431 -0.3211  0.1851  0.2703
11700TIP3    H135057   4.607   4.373   6.344 -0.5656  1.0099  0.6058
11700TIP3    H235058   4.640   4.400   6.489  0.2522 -0.5490  0.7342
11701TIP3   OH235059   2.817   5.301   4.567 -0.0116 -0.3316  0.0304
11701TIP3    H135060   2.834   5.368   4.634  0.2638  0.5099 -0.8649
11701TIP3    H235061   2.724   5.281   4.577 -0.3015  0.8134 -0.2514
11702TIP3   OH235062   3.657   7.785   5.058 -0.3476  0.1182 -0.5341
11702TIP3    H135063   3.669   7.867   5.105  2.2142 -2.0024  2.9873
11702TIP3    H235064   3.565   7.785   5.032 -0.0297  4.9371 -2.8030
11703TIP3   OH235065   6.867   0.973   2.120 -0.0428 -0.0629 -0.1380
11703TIP3    H135066   6.801   0.966   2.189 -0.1741 -1.0906 -0.3472
11703TIP3    H235067   6.864   0.888   2.075  2.1857 -0.5521  0.5331
11704TIP3   OH235068   7.763   1.911   3.952 -0.0577  0.3992  0.3573
11704TIP3    H135069   7.726   1.900   4.040  0.9640  0.3756  0.7939
11704TIP3    H235070   7.852   1.877   3.959  0.7751  2.3579 -0.1125
11705TIP3   OH235071   3.397   4.596   5.637  0.3462 -0.0279  0.4445
11705TIP3    H135072   3.478   4.647   5.632 -0.2437  0.7973 -2.4150
11705TIP3    H235073   3.364   4.611   5.725  2.2468  1.2831  0.9869
11706TIP3   OH235074   5.994   1.273   6.444 -0.3865 -0.4938  0.5249
11706TIP3    H135075   6.046   1.339   6.399  1.0429 -0.8945  1.5019
11706TIP3    H235076   5.955   1.221   6.373 -0.8787  0.8594 -0.2413
11707TIP3   OH235077   7.723   4.525   3.611  0.5763 -0.1603 -0.2879
11707TIP3    H135078   7.739   4.592   3.544 -0.3353  0.6537  0.2777
11707TIP3    H235079   7.668   4.460   3.568 -0.1277  0.4308 -0.3163
11708TIP3   OH235080   3.373   6.828   5.895 -0.1063  0.1591 -0.4257
11708TIP3    H135081   3.458   6.867   5.878 -0.0458  0.3449  0.2623
11708TIP3    H235082   3.385   6.735   5.877  0.0759  0.2718 -0.8998
11709TIP3   OH235083   6.678   1.297   4.662  0.0060  0.3620  0.1666
11709TIP3    H135084   6.631   1.379   4.649  0.3039  0.1925 -2.6136
11709TIP3    H235085   6.672   1.253   4.578  2.2679 -1.1831  0.7346
11710TIP3   OH235086   6.098   2.868   5.382  0.1258  0.3696 -0.4430
11710TIP3    H135087   6.152   2.826   5.449 -0.9667  0.3303  0.4286
11710TIP3    H235088   6.011   2.830   5.394 -0.1554  0.5508 -1.7232
11711TIP3   OH235089   5.633   1.406   5.910  0.8320  0.1686  0.2514
11711TIP3    H135090   5.695   1.348   5.866 -1.4716 -0.6464 -2.2110
11711TIP3    H235091   5.560   1.350   5.934  0.2800  1.3766  1.5726
11712TIP3   OH235092   7.498   5.755   1.394 -0.1155 -0.1194 -0.2875
11712TIP3    H135093   7.581   5.747   1.346 -0.4342  3.1716 -1.6620
11712TIP3    H235094   7.431   5.759   1.325 -0.9209  1.5563  0.5311
11713TIP3   OH235095   7.503   2.403   1.562 -0.1779  0.0567 -0.2576
11713TIP3    H135096   7.591   2.381   1.530 -0.3338 -0.2407 -0.4823
11713TIP3    H235097   7.475   2.326   1.610  1.5338  1.7212  3.8982
11714TIP3   OH235098   2.091   5.623   3.513  0.0055 -0.1634  0.1496
11714TIP3    H135099   2.026   5.557   3.489 -2.1078  1.7790  0.2202
11714TIP3    H235100   2.092   5.622   3.608 -0.3292  0.1662  0.1586
11715TIP3   OH235101   6.177   7.045   1.174 -0.3471 -0.7261 -0.2890
11715TIP3    H135102   6.142   7.015   1.090  1.1776  2.0690 -2.0721
11715TIP3    H235103   6.264   7.007   1.180 -0.9162 -1.9740  0.7555
11716TIP3   OH235104   1.222   2.316   3.138 -0.0013  0.3750  0.1475
11716TIP3    H135105   1.182   2.375   3.202 -0.3853  0.9121 -0.5609
11716TIP3    H235106   1.148   2.267   3.102  0.0839  0.7309 -0.5280
11717TIP3   OH235107   1.937   6.446   3.269  0.0469 -0.5251  0.0853
11717TIP3    H135108   1.923   6.537   3.295  2.2478 -0.1038 -0.0037
11717TIP3    H235109   1.895   6.395   3.339 -0.5597  0.5576  0.5368
11718TIP3   OH235110   6.474   1.097   5.550 -0.0869  0.7171  0.1475
11718TIP3    H135111   6.456   1.153   5.625  1.4555  1.2531  0.1621
11718TIP3    H235112   6.565   1.116   5.528 -0.1370 -0.3504 -1.0850
11719TIP3   OH235113   6.410   2.020   5.984  0.0523 -0.1511 -0.6012
11719TIP3    H135114   6.351   2.076   5.933 -0.1393 -0.4040 -0.6584
11719TIP3    H235115   6.498   2.043   5.953  0.1788  1.8129  1.0147
11720TIP3   OH235116   6.482   1.041   2.349  0.0670 -0.0030 -0.1153
11720TIP3    H135117   6.488   1.104   2.277  2.2787  0.3524  0.2972
11720TIP3    H235118   6.514   0.959   2.311  0.9557  0.1127  0.3648
11721TIP3   OH235119   4.755   4.815   0.366  0.3437  0.0818 -0.1644
11721TIP3    H135120   4.735   4.908   0.373  0.4411  0.1131 -0.3088
11721TIP3    H235121   4.717   4.788   0.283 -0.3656 -0.1830  0.2364
11722TIP3   OH235122   5.262   6.194   3.507 -0.0496  0.5985 -0.1715
11722TIP3    H135123   5.296   6.209   3.419  0.7077 -1.4269 -0.2872
11722TIP3    H235124   5.337   6.212   3.565 -0.6037  2.1282  0.1056
11723TIP3   OH235125   3.634   6.018   2.935  0.3336 -0.0327 -0.1022
11723TIP3    H135126   3.722   5.986   2.956  0.2110 -0.6902 -0.5974
11723TIP3    H235127   3.576   5.946   2.957 -0.3482  1.1779  2.4300
11724TIP3   OH235128   0.972   6.892   5.675 -0.0818  0.0482 -0.3025
11724TIP3    H135129   1.056   6.917   5.713 -0.7198  1.3761  0.2972
11724TIP3    H235130   0.987   6.806   5.637  2.1084  1.0400 -1.9361
11725TIP3   OH235131   2.820   5.426   3.580 -0.0904 -0.0526  0.7209
11725TIP3    H135132   2.732   5.439   3.544 -0.6804  0.3049  2.2189
11725TIP3    H235133   2.872   5.395   3.505 -1.4754 -0.2688 -0.1951
11726TIP3   OH235134   8.243   5.848   0.247 -0.4820 -0.5985  0.1313
11726TIP3    H135135   8.206   5.818   0.164 -1.2026 -1.2759  0.6863
11726TIP3    H235136   8.294   5.774   0.278 -0.0647 -0.2784  0.2065
11727TIP3   OH235137   4.580   5.748   0.535 -0.0568  0.0832 -0.3202
11727TIP3    H135138   4.583   5.833   0.580 -0.1539 -0.4448  0.7185
11727TIP3    H235139   4.515   5.760   0.466  0.9819  1.2817 -1.1322
11728TIP3   OH235140   8.045   4.493   1.303 -0.3440 -0.1579  0.0110
11728TIP3    H135141   8.057   4.399   1.292 -1.2631 -0.2788 -0.0465
11728TIP3    H235142   8.008   4.502   1.391 -2.1961 -0.0485 -0.7332
11729TIP3   OH235143   3.285   3.188   0.188 -0.3091 -0.0947  0.0704
11729TIP3    H135144   3.334   3.268   0.207  0.8209 -0.5796 -0.6741
11729TIP3    H235145   3.212   3.217   0.133 -0.6776  0.5859  0.8832
11730TIP3   OH235146   3.177   1.444   0.880 -0.6908  0.0802  0.6445
11730TIP3    H135147   3.091   1.412   0.853 -0.4421  0.3512 -0.4942
11730TIP3    H235148   3.210   1.377   0.941 -1.3815 -0.3960  0.5022
11731TIP3   OH235149   2.275   5.218   6.614 -0.4080 -0.2982 -0.1629
11731TIP3    H135150   2.317   5.304   6.613  0.7407 -0.8275  0.4308
11731TIP3    H235151   2.188   5.235   6.650 -0.2970  0.6562 -0.3035
11732TIP3   OH235152   7.464   4.309   5.217 -0.2163 -0.0466 -0.0669
11732TIP3    H135153   7.503   4.257   5.288 -0.3315  0.7153  0.5762
11732TIP3    H235154   7.436   4.244   5.153  1.3573 -0.6730 -0.1798
11733TIP3   OH235155   3.910   1.941   3.089  0.0160 -0.0794 -0.4203
11733TIP3    H135156   3.926   1.968   2.999 -2.1269  1.6277 -0.3868
11733TIP3    H235157   3.965   1.864   3.102 -0.0341 -0.7196 -3.3580
11734TIP3   OH235158   1.546   3.165   0.235  0.7447  0.1718  0.0121
11734TIP3    H135159   1.514   3.194   0.320 -0.8997 -0.7316 -0.2698
11734TIP3    H235160   1.471   3.174   0.176  1.5385 -0.2555 -1.1046
11735TIP3   OH235161   3.186   0.169   6.476  0.0459 -0.0013 -0.4940
11735TIP3    H135162   3.180   0.081   6.513  1.4328 -0.2969 -0.9160
11735TIP3    H235163   3.095   0.199   6.471 -0.5212 -1.6931 -1.0030
11736TIP3   OH235164   1.757   7.747   5.538 -0.1062  0.0174  0.1285
11736TIP3    H135165   1.764   7.781   5.627 -0.3187 -1.6098  0.7876
11736TIP3    H235166   1.778   7.822   5.482  1.2455  0.7527  1.5665
11737TIP3   OH235167   1.561   0.157   2.013 -0.7657 -0.2180 -0.1523
11737TIP3    H135168   1.636   0.209   1.984 -0.3245 -0.6199  0.2482
11737TIP3    H235169   1.514   0.214   2.073  0.1477 -0.5426  0.8947
11738TIP3   OH235170   4.034   5.084   0.614 -0.2169 -0.6267  0.4147
11738TIP3    H135171   4.068   5.174   0.610 -0.1461 -0.5109  2.4883
11738TIP3    H235172   3.950   5.092   0.658 -0.0916 -1.6134  0.8565
11739TIP3   OH235173   1.732   4.966   0.322 -0.0414 -0.5708  0.2042
11739TIP3    H135174   1.763   4.876   0.319 -0.9975 -0.9159  0.0582
11739TIP3    H235175   1.751   5.001   0.235 -0.1384 -0.8008  0.0888
11740TIP3   OH235176   6.981   6.753   1.576 -0.2761 -0.5466  0.0303
11740TIP3    H135177   7.059   6.701   1.594  0.2130  0.7599  2.0363
11740TIP3    H235178   7.016   6.835   1.540 -0.7963 -0.3698 -0.0714
11741TIP3   OH235179   0.851   0.787   5.411 -0.0345 -0.2235 -0.0233
11741TIP3    H135180   0.907   0.852   5.455 -2.2120  0.4667  1.9395
11741TIP3    H235181   0.889   0.778   5.324  0.0142  4.3045 -0.7259
11742TIP3   OH235182   1.889   3.571   0.664 -0.0750  0.3984 -0.1533
11742TIP3    H135183   1.959   3.506   0.663 -1.2469 -0.9017 -0.2925
11742TIP3    H235184   1.841   3.554   0.745 -0.7048  0.7513 -0.4479
11743TIP3   OH235185   3.902   0.031   0.061 -0.2761 -0.1938  0.2330
11743TIP3    H135186   3.973   0.089   0.088 -0.5420 -0.0679  0.6766
11743TIP3    H235187   3.824   0.086   0.062 -0.4140 -0.3848 -0.0393
11744TIP3   OH235188   8.206   2.127   5.012  0.1712  0.1525  0.3051
11744TIP3    H135189   8.213   2.038   4.978 -0.6624 -0.4662  1.6770
11744TIP3    H235190   8.199   2.182   4.934 -0.8432 -1.1334 -0.5564
11745TIP3   OH235191   6.724   2.220   4.568  0.5414 -0.3389 -0.4760
11745TIP3    H135192   6.712   2.201   4.661  1.6478  2.1818  0.2658
11745TIP3    H235193   6.758   2.139   4.531 -0.7794 -1.6880  1.0819
11746TIP3   OH235194   3.103   5.302   5.778  0.3879  0.0329 -0.3653
11746TIP3    H135195   3.010   5.285   5.795  0.6803  0.1892  1.6691
11746TIP3    H235196   3.148   5.260   5.852  1.8542  0.9304 -0.7193
11747TIP3   OH235197   0.734   6.243   2.876 -0.1780 -0.3989  0.0723
11747TIP3    H135198   0.682   6.297   2.935 -0.2240  0.3266 -0.6119
11747TIP3    H235199   0.672   6.178   2.843 -0.6716  0.4634 -0.7432
11748TIP3   OH235200   8.141   3.020   6.557  0.1829 -0.2704  0.0434
11748TIP3    H135201   8.055   3.000   6.520 -1.3001  1.0866  2.4967
11748TIP3    H235202   8.145   3.115   6.558  1.7612 -0.3181 -0.0775
11749TIP3   OH235203   5.399   1.659   1.601  0.6483 -0.2532  0.2782
11749TIP3    H135204   5.411   1.754   1.591  1.2257 -0.5895 -3.7627
11749TIP3    H235205   5.310   1.650   1.635  0.4245  1.7178  0.3703
11750TIP3   OH235206   3.445   4.227   4.369 -0.1723  0.2140 -0.2599
11750TIP3    H135207   3.408   4.186   4.447  0.4648  1.9120  0.9895
11750TIP3    H235208   3.486   4.155   4.321 -0.4238 -0.8435  1.0636
11751TIP3   OH235209   5.762   2.151   3.586 -0.4220 -0.0763 -0.2788
11751TIP3    H135210   5.670   2.135   3.608 -0.9077  0.0480 -2.0004
11751TIP3    H235211   5.769   2.123   3.494  0.9361  1.1289 -0.5838
11752TIP3   OH235212   6.317   3.045   1.831  0.1581 -0.6446  0.3205
11752TIP3    H135213   6.327   3.136   1.858  1.1243  1.1741 -4.9029
11752TIP3    H235214   6.227   3.022   1.853 -1.7699  3.4354 -2.2807
11753TIP3   OH235215   6.657   3.960   1.739  0.0014 -0.0756  0.2219
11753TIP3    H135216   6.711   3.891   1.776  3.2613  0.6697 -2.6730
11753TIP3    H235217   6.680   4.038   1.790  1.3808  0.1219 -0.6439
11754TIP3   OH235218   5.927   7.127   6.133  0.1859  0.5780 -0.1382
11754TIP3    H135219   6.016   7.113   6.165  0.1987  0.1449 -0.3659
11754TIP3    H235220   5.931   7.105   6.040 -0.1724  0.4966 -0.1360
11755TIP3   OH235221   2.321   1.952   2.521 -0.2551 -0.0381 -0.2154
11755TIP3    H135222   2.384   1.949   2.449 -1.0634  0.4679 -0.9746
11755TIP3    H235223   2.332   2.040   2.557  0.4144 -0.4217  0.5435
11756TIP3   OH235224   1.082   4.895   0.246 -0.3618  0.2256  0.4706
11756TIP3    H135225   1.056   4.806   0.222 -0.1659  0.3160 -0.1070
11756TIP3    H235226   1.008   4.929   0.297 -0.6910 -0.0653  0.1938
11757TIP3   OH235227   4.054   1.923   2.854  0.4929 -0.4001  0.1659
11757TIP3    H135228   4.035   1.914   2.760  0.3882 -1.3269  0.2705
11757TIP3    H235229   4.149   1.913   2.860  0.8505  2.0367 -0.0934
11758TIP3   OH235230   1.359   1.217   2.814  0.0658  0.5529 -0.1662
11758TIP3    H135231   1.331   1.236   2.725  1.2126 -1.2569 -0.9500
11758TIP3    H235232   1.425   1.283   2.833  2.1294 -0.8809 -1.8870
11759TIP3   OH235233   3.809   7.136   4.058 -0.4390 -0.7850 -0.0119
11759TIP3    H135234   3.736   7.199   4.056 -0.2969 -0.5532  1.2178
11759TIP3    H235235   3.886   7.190   4.079  0.0603 -1.0575 -1.1013
11760TIP3   OH235236   6.874   7.589   6.038 -0.3587  0.3801 -0.1301
11760TIP3    H135237   6.818   7.666   6.036  0.0057  0.6377 -0.6388
11760TIP3    H235238   6.819   7.518   6.006 -0.6607  0.4456  0.2307
11761TIP3   OH235239   8.003   4.405   5.061 -0.0952 -0.1228  0.4304
11761TIP3    H135240   7.974   4.386   4.972  0.2620  0.2076  0.2381
11761TIP3    H235241   7.924   4.399   5.114  0.1056 -2.9349  0.5412
11762TIP3   OH235242   0.414   4.287   4.561  0.4525  0.4526 -0.3454
11762TIP3    H135243   0.368   4.371   4.556  1.1154  0.7590 -4.1691
11762TIP3    H235244   0.346   4.222   4.545  0.5396  0.5740 -1.2613
11763TIP3   OH235245   0.406   4.877   2.142  0.0465 -0.3851 -0.3154
11763TIP3    H135246   0.314   4.890   2.167  0.0949  0.0662 -0.3726
11763TIP3    H235247   0.426   4.788   2.172 -0.2474 -0.2855  0.1857
11764TIP3   OH235248   3.694   4.685   1.357 -0.3861 -0.3062 -0.3141
11764TIP3    H135249   3.719   4.682   1.265 -0.6897  4.6114 -0.7995
11764TIP3    H235250   3.612   4.635   1.361 -0.6398 -0.2189 -2.8439
11765TIP3   OH235251   3.284   4.797   3.065 -0.0482  0.2617 -0.1963
11765TIP3    H135252   3.354   4.750   3.020 -0.3029 -0.2239 -0.0923
11765TIP3    H235253   3.295   4.775   3.157  1.3970  2.4349  0.2302
11766TIP3   OH235254   3.643   6.219   0.774 -0.0883  0.1894 -0.2350
11766TIP3    H135255   3.616   6.206   0.865  1.9245 -0.5130  0.3142
11766TIP3    H235256   3.652   6.130   0.739  2.3421  0.2889 -0.0585
11767TIP3   OH235257   6.819   2.963   0.376 -0.2474 -0.3045 -0.6675
11767TIP3    H135258   6.829   3.029   0.444  1.0368 -0.5486 -0.5968
11767TIP3    H235259   6.768   2.893   0.418  0.5955 -0.4873  0.0841
11768TIP3   OH235260   3.113   1.054   4.514 -0.1283 -0.1243 -0.8669
11768TIP3    H135261   3.113   0.967   4.473 -0.5834 -1.0517  1.0280
11768TIP3    H235262   3.096   1.114   4.441  0.1182 -1.6122 -2.2073
11769TIP3   OH235263   1.592   0.672   5.237  0.0340 -0.0434 -0.3979
11769TIP3    H135264   1.574   0.578   5.237 -0.3226 -0.0334  1.8413
11769TIP3    H235265   1.529   0.709   5.174  0.6906 -1.3353 -1.8704
11770TIP3   OH235266   5.968   1.092   2.825  0.3515  0.1609  0.4370
11770TIP3    H135267   5.954   1.011   2.776 -0.3555  1.7526 -2.1904
11770TIP3    H235268   6.062   1.093   2.843  0.4976 -0.8577 -0.1858
11771TIP3   OH235269   4.775   7.544   3.862 -0.3501  0.1787 -0.5550
11771TIP3    H135270   4.736   7.531   3.948  0.1962 -2.2227 -0.6206
11771TIP3    H235271   4.713   7.504   3.801  0.0271  0.4399 -1.1204
11772TIP3   OH235272   4.122   7.336   4.855 -0.0797  0.2077  0.2921
11772TIP3    H135273   4.209   7.331   4.816 -0.5851  1.4465 -1.1102
11772TIP3    H235274   4.124   7.273   4.927  2.0909  0.5086  0.5582
11773TIP3   OH235275   1.002   5.741   4.722 -0.3795  0.1028  0.5347
11773TIP3    H135276   0.961   5.805   4.663 -0.1157  0.4807  0.7532
11773TIP3    H235277   0.933   5.718   4.785 -0.6099 -0.1728  0.1841
11774TIP3   OH235278   8.050   4.583   6.386 -0.0967 -0.4695  0.2992
11774TIP3    H135279   8.019   4.541   6.306 -2.8803  1.7264  0.0469
11774TIP3    H235280   7.993   4.548   6.455  0.0963  0.0339  0.7212
11775TIP3   OH235281   3.275   4.082   6.461  0.0426  0.2398  0.0319
11775TIP3    H135282   3.362   4.043   6.467  0.9263  2.1138  0.3006
11775TIP3    H235283   3.221   4.015   6.419  2.1549 -0.1748 -2.2530
11776TIP3   OH235284   2.902   7.247   2.912  0.0878 -0.0222 -0.1339
11776TIP3    H135285   2.868   7.266   2.825  1.1012 -0.9718 -0.7730
11776TIP3    H235286   2.858   7.309   2.969 -0.9262  0.3359 -1.2533
11777TIP3   OH235287   1.547   1.167   3.874  0.3627  0.5728 -0.3098
11777TIP3    H135288   1.560   1.094   3.935  0.6543 -0.3702 -1.4781
11777TIP3    H235289   1.636   1.198   3.855  0.2939  0.5672 -0.6305
11778TIP3   OH235290   3.800   1.222   4.674  0.5786 -0.6432 -0.0090
11778TIP3    H135291   3.846   1.243   4.755  3.9367 -1.2656 -1.6076
11778TIP3    H235292   3.707   1.227   4.698  1.3671  1.1883  3.3169
11779TIP3   OH235293   4.667   4.237   1.645 -0.1712 -0.5930  0.2171
11779TIP3    H135294   4.718   4.158   1.625  3.8517  2.0240 -1.0358
11779TIP3    H235295   4.710   4.275   1.721 -0.8120  1.3191 -0.3128
11780TIP3   OH235296   1.322   2.737   3.207 -0.0200 -0.3608  0.6204
11780TIP3    H135297   1.317   2.770   3.117  1.7475 -1.0492  0.2170
11780TIP3    H235298   1.271   2.798   3.259  0.3221  1.0267 -0.6141
11781TIP3   OH235299   6.056   5.941   4.609  0.1414  0.5294 -1.0708
11781TIP3    H135300   6.002   5.864   4.588  1.4364 -0.3139 -1.4345
11781TIP3    H235301   6.141   5.905   4.632  0.8300  1.8761 -1.4017
11782TIP3   OH235302   2.243  -0.033   2.279 -0.3107 -0.0453  0.4837
11782TIP3    H135303   2.199   0.028   2.220  0.2519 -1.0848 -1.0494
11782TIP3    H235304   2.289   0.024   2.341 -0.4126  1.0801 -0.4372
11783TIP3   OH235305   6.576   2.598   2.343 -0.4219  0.0903 -0.0416
11783TIP3    H135306   6.656   2.639   2.377  0.4874 -0.5996 -1.2440
11783TIP3    H235307   6.607   2.542   2.272 -2.0211 -0.0189 -0.6849
11784TIP3   OH235308   0.751   0.597   1.924 -0.0188  0.3868  0.0149
11784TIP3    H135309   0.794   0.548   1.853  0.8704 -0.0369  0.8250
11784TIP3    H235310   0.822   0.650   1.962 -0.3314  0.0935  1.0258
11785TIP3   OH235311   5.362   5.043   2.878  0.3730  0.4869  0.0454
11785TIP3    H135312   5.340   4.988   2.803 -0.5239  0.2353  0.4776
11785TIP3    H235313   5.454   5.023   2.897 -0.0869 -1.2943  0.5349
11786TIP3   OH235314   0.830   2.734   4.225  0.4121 -0.4506  0.2838
11786TIP3    H135315   0.920   2.720   4.256  0.6072 -2.5012 -0.9855
11786TIP3    H235316   0.775   2.692   4.291  0.4056  0.4529  0.8588
11787TIP3   OH235317   4.100   1.061   4.181  0.1444  0.2302 -0.2577
11787TIP3    H135318   4.104   1.053   4.276  0.7469  0.6842 -0.2381
11787TIP3    H235319   4.069   1.150   4.166  1.1936  0.5713 -0.4804
11788TIP3   OH235320   4.377   7.111   2.828 -0.0882  0.6300 -0.5639
11788TIP3    H135321   4.374   7.055   2.750  0.6545  0.1075 -0.2379
11788TIP3    H235322   4.435   7.064   2.888  0.3800  1.6514 -0.1960
11789TIP3   OH235323   3.350   1.207   3.489 -0.4344  0.1865 -0.1505
11789TIP3    H135324   3.258   1.235   3.493 -0.2280  0.8034  0.3865
11789TIP3    H235325   3.400   1.287   3.501  0.1863 -0.1051 -0.7408
11790TIP3   OH235326   6.389   2.129   2.260  0.1946  0.2704  0.6832
11790TIP3    H135327   6.311   2.113   2.313  1.2673 -2.2624  1.6293
11790TIP3    H235328   6.461   2.125   2.322  1.3525 -0.9501 -0.6806
11791TIP3   OH235329   1.450   2.737   2.049 -0.0218 -0.0381 -0.1589
11791TIP3    H135330   1.536   2.718   2.086 -0.0263  0.0805 -0.0840
11791TIP3    H235331   1.389   2.727   2.123 -0.1575 -0.7632 -0.3624
11792TIP3   OH235332   5.940   6.830   4.791  0.1318  0.6173 -0.2263
11792TIP3    H135333   5.859   6.780   4.795  0.0893  0.5868 -1.1484
11792TIP3    H235334   5.956   6.859   4.881 -0.0553 -0.7216  0.2644
11793TIP3   OH235335   5.550   2.862   1.376  0.5630  0.7557 -0.1500
11793TIP3    H135336   5.595   2.780   1.393  2.4923  1.6488 -0.6916
11793TIP3    H235337   5.488   2.871   1.449 -0.2245 -1.4703 -0.4624
11794TIP3   OH235338   1.943   2.651   4.195 -0.0477  0.2846  0.5212
11794TIP3    H135339   1.869   2.711   4.190  0.7527  1.2319 -0.3816
11794TIP3    H235340   1.947   2.610   4.109 -0.4169 -0.9023  1.0370
11795TIP3   OH235341   1.452   1.521   0.414 -0.5590  0.3728  0.5292
11795TIP3    H135342   1.424   1.456   0.349  0.9659 -0.5709  0.7748
11795TIP3    H235343   1.407   1.496   0.495  0.1103 -0.4484  0.6494
11796TIP3   OH235344   0.211   0.100   5.088  0.3710  0.3841 -0.7128
11796TIP3    H135345   0.187   0.188   5.117  1.3450  0.3701  0.1719
11796TIP3    H235346   0.128   0.051   5.089  0.3718  0.2134  2.6918
11797TIP3   OH235347   4.924   1.052   5.740 -0.2978  0.5855  0.0378
11797TIP3    H135348   4.955   1.141   5.729  0.7945  0.3622  1.1503
11797TIP3    H235349   4.994   0.997   5.705 -0.7112  0.1511 -0.1165
11798TIP3   OH235350   6.894   5.895   2.984  0.3909  0.2064  0.3677
11798TIP3    H135351   6.814   5.945   3.000  0.7006  0.7625  0.2217
11798TIP3    H235352   6.960   5.940   3.037  0.7489  0.1579 -0.0327
11799TIP3   OH235353   3.976   3.518   1.484  0.2594 -0.0093 -0.2597
11799TIP3    H135354   3.997   3.509   1.577  0.8154 -2.2184 -0.5361
11799TIP3    H235355   4.027   3.593   1.455  1.2137 -0.1651  0.9335
11800TIP3   OH235356   0.171   6.333   4.433 -0.4028 -0.1477 -0.8353
11800TIP3    H135357   0.234   6.354   4.503 -0.7932  2.0224 -1.0733
11800TIP3    H235358   0.190   6.242   4.411  1.2836 -0.1781  0.5067
11801TIP3   OH235359   1.150   1.059   3.842 -0.6032  0.2370 -0.5407
11801TIP3    H135360   1.234   1.043   3.800 -1.1174  1.6024 -2.2039
11801TIP3    H235361   1.101   1.112   3.779 -1.5968  2.0444  1.5921
11802TIP3   OH235362   0.606   7.573   4.793 -0.0224  0.1902  0.5291
11802TIP3    H135363   0.624   7.533   4.878 -1.7581 -0.9447  0.4227
11802TIP3    H235364   0.629   7.505   4.729 -1.9870 -0.3184  0.2964
11803TIP3   OH235365   0.700   2.270   2.852  0.4994 -0.4204  0.3430
11803TIP3    H135366   0.783   2.309   2.822 -1.2112  0.8058 -3.4140
11803TIP3    H235367   0.709   2.177   2.832  0.1618  0.0772 -2.6824
11804TIP3   OH235368   6.287   5.164   0.368  0.9775 -0.1089 -0.2882
11804TIP3    H135369   6.381   5.181   0.356  1.3219 -0.5947  1.4028
11804TIP3    H235370   6.249   5.250   0.383  0.7825  0.3308 -2.8672
11805TIP3   OH235371   7.307   5.729   5.744  0.0285  0.4300 -0.1281
11805TIP3    H135372   7.287   5.684   5.662 -0.6459  1.5715 -0.6192
11805TIP3    H235373   7.241   5.799   5.749 -1.3508 -0.8968  2.4504
11806TIP3   OH235374   5.102   5.062   4.193  0.3227  0.1463 -0.2633
11806TIP3    H135375   5.086   4.972   4.220  1.5041  0.3195  1.1423
11806TIP3    H235376   5.020   5.091   4.154 -0.0874 -1.5110 -0.6790
11807TIP3   OH235377   1.318   5.845   0.494 -0.8180 -0.0873 -0.4365
11807TIP3    H135378   1.397   5.871   0.447 -0.2411 -0.5667  0.2485
11807TIP3    H235379   1.322   5.893   0.577 -1.1309 -0.2883 -0.3024
11808TIP3   OH235380   7.879   4.027   2.374 -0.5820  0.1612  0.1950
11808TIP3    H135381   7.864   4.098   2.436 -2.2420 -0.4103  0.4797
11808TIP3    H235382   7.909   4.071   2.294 -1.8465  1.2213  0.2743
11809TIP3   OH235383   4.183   4.905   6.157  0.5155 -0.5617 -0.1925
11809TIP3    H135384   4.087   4.902   6.158  0.4274  1.1554  1.0781
11809TIP3    H235385   4.207   4.902   6.250  1.5229  1.7583 -0.3134
11810TIP3   OH235386   6.694   7.557   4.985 -0.1595  0.6147  0.1340
11810TIP3    H135387   6.682   7.613   4.907  0.7559  0.8452  0.1501
11810TIP3    H235388   6.768   7.596   5.031  2.8993 -2.5674 -1.6292
11811TIP3   OH235389   7.654   2.896   0.272  0.0045 -0.3235  0.7053
11811TIP3    H135390   7.720   2.835   0.304 -0.3006 -1.1956 -0.2966
11811TIP3    H235391   7.675   2.909   0.180 -1.9256 -1.5970  0.0343
11812TIP3   OH235392   7.786   2.948   0.867  0.2447  0.0877  0.2632
11812TIP3    H135393   7.879   2.961   0.884  0.8405 -1.9143 -1.0409
11812TIP3    H235394   7.769   2.998   0.787  0.2677  0.2103  0.3346
11813TIP3   OH235395   6.204   7.334   1.115 -0.7434  0.2397  0.0102
11813TIP3    H135396   6.190   7.239   1.110  0.6442 -0.0756  1.3659
11813TIP3    H235397   6.278   7.350   1.057 -0.1224  0.2614  0.7866
11814TIP3   OH235398   7.123   3.442   1.946  0.0128  0.0965  0.0886
11814TIP3    H135399   7.084   3.502   2.009  0.3117 -0.8222  1.2049
11814TIP3    H235400   7.155   3.369   2.000  0.9763 -0.3618 -1.0546
11815TIP3   OH235401   5.057   2.400   1.558  0.1694  0.0312 -0.4548
11815TIP3    H135402   5.028   2.480   1.602  0.8291 -0.5759  1.1843
11815TIP3    H235403   4.981   2.342   1.562  0.9499 -1.0048  2.4741
11816TIP3   OH235404   4.917   6.795   2.577 -0.2851  0.2933  0.3604
11816TIP3    H135405   4.882   6.772   2.491  0.7350  1.1600 -0.3289
11816TIP3    H235406   5.011   6.806   2.562 -0.1542  0.8988  1.4931
11817TIP3   OH235407   4.631   6.650   4.856  0.2010  0.3720  0.0533
11817TIP3    H135408   4.683   6.603   4.920 -0.5861 -2.4238 -1.1840
11817TIP3    H235409   4.678   6.639   4.773 -0.7763  0.4149 -0.5349
11818TIP3   OH235410   3.433   3.269   1.906 -0.4290  0.5261 -0.2930
11818TIP3    H135411   3.389   3.332   1.849  0.8993  1.8704  0.1189
11818TIP3    H235412   3.478   3.210   1.846 -1.0064  0.4450 -0.6616
11819TIP3   OH235413   7.790   6.514   6.390 -0.1265 -0.2336 -0.3061
11819TIP3    H135414   7.756   6.507   6.479  0.5404  0.5083  0.0105
11819TIP3    H235415   7.870   6.461   6.390 -0.5017 -0.8229 -0.6734
11820TIP3   OH235416   6.206   5.928   2.841 -0.4937  0.0258  0.0446
11820TIP3    H135417   6.230   6.017   2.866  0.9375  0.4841 -2.5979
11820TIP3    H235418   6.123   5.938   2.794 -0.7993 -0.1983  0.5204
11821TIP3   OH235419   1.166   3.370   0.015  0.0203 -0.1638  0.6250
11821TIP3    H135420   1.210   3.294   0.053 -1.7197 -0.6649  1.7229
11821TIP3    H235421   1.092   3.387   0.073 -1.3918  0.4886 -1.2742
11822TIP3   OH235422   2.052   6.671   4.252  0.4559  0.4168 -0.0167
11822TIP3    H135423   1.996   6.661   4.329 -0.5549 -2.4948 -1.0269
11822TIP3    H235424   2.133   6.625   4.275  0.1852 -0.3827 -0.6176
11823TIP3   OH235425   3.774   6.875   6.661 -0.0238  0.0812  0.1672
11823TIP3    H135426   3.754   6.913   6.575 -0.9722 -0.9093 -0.0722
11823TIP3    H235427   3.859   6.831   6.649 -0.1713 -0.0852 -0.2772
11824TIP3   OH235428   2.919   4.911   6.047 -0.2962 -0.1659  0.1346
11824TIP3    H135429   2.859   4.838   6.040 -2.0308  1.2929 -1.2497
11824TIP3    H235430   2.912   4.956   5.963 -0.1318  2.1751  1.2925
11825TIP3   OH235431   0.062   3.852   5.942  0.4128  0.3625  0.0571
11825TIP3    H135432   0.118   3.925   5.967  1.5401  0.3318 -2.1425
11825TIP3    H235433   0.051   3.861   5.847 -1.2389 -1.0898  0.0509
11826TIP3   OH235434   5.899   0.711   0.035 -0.5865  0.0739 -0.1784
11826TIP3    H135435   5.905   0.670  -0.052 -0.8956 -0.4039  0.0190
11826TIP3    H235436   5.980   0.760   0.044  0.4584 -1.6028  0.1314
11827TIP3   OH235437   0.433   0.682   0.992  0.2032  0.4383  0.1617
11827TIP3    H135438   0.466   0.769   0.972 -0.4764  0.5479 -0.5256
11827TIP3    H235439   0.427   0.638   0.907 -1.1797  0.3470  0.2809
11828TIP3   OH235440   2.741   5.089   2.161  0.3762  0.4706 -0.0250
11828TIP3    H135441   2.676   5.094   2.231  0.2115 -2.1339  0.1170
11828TIP3    H235442   2.822   5.064   2.204  0.2817 -1.1245 -0.7143
11829TIP3   OH235443   2.651   4.582   0.581 -0.4754 -0.3500  0.3407
11829TIP3    H135444   2.616   4.657   0.533  0.2800  0.1645  0.5746
11829TIP3    H235445   2.628   4.507   0.527  1.2614  0.2992 -1.4034
11830TIP3   OH235446   3.035   3.550   1.340  0.0814 -0.0026 -0.0395
11830TIP3    H135447   3.093   3.566   1.265 -0.9357  0.3129 -0.7824
11830TIP3    H235448   2.966   3.493   1.305 -0.7230  0.6080  0.4950
11831TIP3   OH235449   3.296   2.576   5.335 -0.1773  0.0916  0.2182
11831TIP3    H135450   3.217   2.606   5.290 -0.5394 -2.1972 -0.8022
11831TIP3    H235451   3.365   2.632   5.300 -1.0340  0.7983 -0.4032
11832TIP3   OH235452   7.942   1.058   0.293  0.5158 -0.0043  0.1763
11832TIP3    H135453   7.963   1.106   0.373  1.5368  0.3966 -0.3264
11832TIP3    H235454   7.917   1.125   0.230 -0.4980 -0.3370  0.2059
11833TIP3   OH235455   7.874   6.596   0.822  0.4663  0.0174 -0.0256
11833TIP3    H135456   7.822   6.517   0.833 -2.6646  2.0637  1.2737
11833TIP3    H235457   7.893   6.599   0.728  0.1477 -1.9405 -0.1961
11834TIP3   OH235458   5.970   4.335   2.684  0.0180  0.4530 -0.1528
11834TIP3    H135459   5.907   4.289   2.628 -0.5579  0.3908  0.5258
11834TIP3    H235460   5.947   4.428   2.674 -2.3538  0.2933  2.5180
11835TIP3   OH235461   5.768   1.165   4.734 -0.1533 -1.1385  0.7442
11835TIP3    H135462   5.795   1.253   4.758 -1.1229 -0.9116  1.0470
11835TIP3    H235463   5.751   1.121   4.817 -1.6584 -0.9492  0.5657
11836TIP3   OH235464   1.118   7.293   4.036 -0.1959 -0.1972 -0.0220
11836TIP3    H135465   1.213   7.279   4.037 -0.0941  0.2052 -1.7314
11836TIP3    H235466   1.082   7.219   4.084  1.1526  1.6030  4.3271
11837TIP3   OH235467   0.689   4.493   6.565  0.3166 -0.3260 -0.6782
11837TIP3    H135468   0.766   4.525   6.517 -0.3577 -1.0637 -2.3074
11837TIP3    H235469   0.655   4.421   6.512  0.3067 -2.1145  1.6178
11838TIP3   OH235470   3.971   4.237   1.551 -0.6654  0.6595 -0.1280
11838TIP3    H135471   3.952   4.328   1.530 -0.7474  0.4455 -1.0020
11838TIP3    H235472   4.004   4.199   1.469 -3.9000 -0.9993 -0.8515
11839TIP3   OH235473   6.202   0.742   3.353  0.3584 -0.0344  0.1418
11839TIP3    H135474   6.190   0.813   3.290 -0.4673 -0.4171 -0.1514
11839TIP3    H235475   6.132   0.753   3.416 -1.3210 -1.9525 -1.2426
11840TIP3   OH235476   7.962   1.617   2.615 -0.0403 -0.3569  0.3138
11840TIP3    H135477   7.882   1.587   2.657 -0.9579  1.9551  0.3892
11840TIP3    H235478   7.959   1.577   2.528 -2.0448  0.7187 -0.1930
11841TIP3   OH235479   5.542   3.242   4.269  0.3654 -0.6201  0.0116
11841TIP3    H135480   5.504   3.288   4.194  3.0061  0.9935 -0.4841
11841TIP3    H235481   5.495   3.159   4.272 -1.7849  0.4297 -1.6313
11842TIP3   OH235482   2.630   6.510   6.312 -0.1241 -0.0678 -0.1836
11842TIP3    H135483   2.659   6.483   6.225 -0.1936 -0.1640 -0.1771
11842TIP3    H235484   2.601   6.429   6.354  1.3723 -0.2844  0.5051
11843TIP3   OH235485   3.644   3.471   3.805  0.5484  0.4234  0.0885
11843TIP3    H135486   3.565   3.469   3.859  0.8009 -1.5211  0.4738
11843TIP3    H235487   3.621   3.526   3.730 -1.0179  0.2422  0.4058
11844TIP3   OH235488   7.646   3.306   3.489  0.6609  0.0346  0.4513
11844TIP3    H135489   7.616   3.264   3.569  1.2588 -0.7387  0.2739
11844TIP3    H235490   7.678   3.235   3.434 -0.6449  0.4401 -0.8915
11845TIP3   OH235491   8.172   0.290   6.358  0.1847  0.2029 -0.0871
11845TIP3    H135492   8.102   0.255   6.413 -0.3186 -0.5574 -1.1589
11845TIP3    H235493   8.163   0.385   6.363  0.0507  0.1451  0.9861
11846TIP3   OH235494   3.301   6.619   4.844 -0.3448  0.3659 -0.3904
11846TIP3    H135495   3.237   6.628   4.915  0.0553 -1.7664  0.3332
11846TIP3    H235496   3.248   6.609   4.765 -0.8038  2.4500 -0.3904
11847TIP3   OH235497   7.798   1.195   2.759 -0.0926 -0.1369 -0.4341
11847TIP3    H135498   7.891   1.179   2.776  0.7418  1.6895 -2.8107
11847TIP3    H235499   7.778   1.276   2.805 -0.7737 -0.8680  0.6364
11848TIP3   OH235500   0.097   5.681   0.803  0.1026  0.3274  0.4562
11848TIP3    H135501   0.190   5.698   0.821  0.1001 -0.0825  0.8920
11848TIP3    H235502   0.094   5.589   0.776 -0.3460 -0.1088  1.8898
11849TIP3   OH235503   5.247   1.185   4.299  0.1095  0.4147  0.3473
11849TIP3    H135504   5.264   1.155   4.389 -1.9132 -2.2708 -0.0238
11849TIP3    H235505   5.176   1.249   4.309  0.7073  1.0291  0.7333
11850TIP3   OH235506   7.400   0.129   2.935 -0.0648 -0.0179 -0.3857
11850TIP3    H135507   7.463   0.200   2.925 -0.8516  0.6703 -0.5580
11850TIP3    H235508   7.406   0.104   3.027  0.2922  0.1894 -0.3491
11851TIP3   OH235509   0.608   4.246   3.818  0.6744 -0.2747 -0.8363
11851TIP3    H135510   0.531   4.287   3.857  1.2688 -0.0555  0.1384
11851TIP3    H235511   0.673   4.247   3.888  0.4213 -3.7775 -0.3851
11852TIP3   OH235512   8.144   6.186   4.177  0.1411  0.4908 -0.1637
11852TIP3    H135513   8.051   6.189   4.153  0.4832 -2.9740 -2.6314
11852TIP3    H235514   8.190   6.205   4.096  1.5631 -0.1967  0.4562
11853TIP3   OH235515   1.729   0.201   4.463  0.5003 -0.3442  0.2921
11853TIP3    H135516   1.811   0.164   4.495  0.4086 -0.3660  0.5005
11853TIP3    H235517   1.757   0.266   4.397  0.6708 -0.5517  0.1577
11854TIP3   OH235518   3.833   5.707   0.236  0.5034 -0.1167 -0.0647
11854TIP3    H135519   3.796   5.621   0.258 -2.6418  1.4114  1.3682
11854TIP3    H235520   3.788   5.733   0.156 -0.0897  0.9576  0.5877
11855TIP3   OH235521   4.350   4.627   2.142 -0.1409  0.2666 -0.3588
11855TIP3    H135522   4.443   4.615   2.160  0.0153  0.5236 -0.9783
11855TIP3    H235523   4.320   4.541   2.112  0.0943  0.4094 -1.0054
11856TIP3   OH235524   7.145   2.144   1.137 -0.2993 -0.2989 -0.2322
11856TIP3    H135525   7.106   2.089   1.069  1.3140  2.2436 -3.4570
11856TIP3    H235526   7.227   2.099   1.158 -0.8989 -1.2069  0.2642
11857TIP3   OH235527   8.026   3.861   1.130 -0.4226  0.1216  0.5369
11857TIP3    H135528   8.113   3.820   1.134  0.0594  1.1333  0.7862
11857TIP3    H235529   8.035   3.929   1.063 -1.4084 -0.6214 -0.3703
11858TIP3   OH235530   5.472   7.211   1.457  0.1559  0.3726  0.2743
11858TIP3    H135531   5.482   7.300   1.491 -1.0663  0.9147 -0.7057
11858TIP3    H235532   5.561   7.176   1.456  0.9073  2.1773 -0.8801
11859TIP3   OH235533   6.078   1.643   2.606 -0.3650 -0.2547 -0.3470
11859TIP3    H135534   6.043   1.691   2.531 -0.9040 -0.0534  0.0230
11859TIP3    H235535   6.007   1.584   2.631 -0.9062  0.9378  1.1083
11860TIP3   OH235536   7.719   4.143   1.756  0.9229 -0.7817 -0.5556
11860TIP3    H135537   7.806   4.173   1.783  0.6945  0.1896 -0.8470
11860TIP3    H235538   7.662   4.167   1.829  0.9346 -1.7133 -0.2209
11861TIP3   OH235539   6.763   0.113   4.120 -0.0939  0.4813  0.4007
11861TIP3    H135540   6.857   0.109   4.105 -0.3939 -2.4012 -1.5653
11861TIP3    H235541   6.747   0.052   4.192 -0.7262 -2.3032 -1.9200
11862TIP3   OH235542   1.246   2.478   1.879  0.1030 -0.0054 -0.2931
11862TIP3    H135543   1.260   2.523   1.795  0.7971  0.2862 -0.0223
11862TIP3    H235544   1.249   2.385   1.857 -1.1018  0.0473 -0.8184
11863TIP3   OH235545   7.372   0.825   6.495  0.2873  0.1201 -0.0013
11863TIP3    H135546   7.370   0.911   6.454 -2.6996 -0.6682 -1.8046
11863TIP3    H235547   7.449   0.782   6.458  1.0212  1.4939 -0.1292
11864TIP3   OH235548   1.878   0.436   2.454  0.0770 -0.5334 -0.0156
11864TIP3    H135549   1.925   0.402   2.530  0.4462 -0.2162 -0.1021
11864TIP3    H235550   1.876   0.363   2.392  0.8908 -0.3954 -0.2147
11865TIP3   OH235551   3.871   3.935   4.752 -0.0375  0.1091  0.5349
11865TIP3    H135552   3.873   3.870   4.823  0.1173 -0.6186 -0.1170
11865TIP3    H235553   3.888   3.884   4.673 -1.3921  0.7127 -0.1754
11866TIP3   OH235554   8.041   7.192   0.692 -0.2940 -0.1298 -0.4414
11866TIP3    H135555   8.106   7.132   0.655 -1.5252 -1.5297 -0.4077
11866TIP3    H235556   8.086   7.233   0.766  0.0944 -2.1707  0.5073
11867TIP3   OH235557   6.257   4.559   6.232 -0.4796  0.5107  0.1244
11867TIP3    H135558   6.165   4.563   6.258 -0.4456  1.0690  0.1675
11867TIP3    H235559   6.259   4.493   6.163 -0.8085  0.0572  0.5419
11868TIP3   OH235560   5.964   6.920   5.070  0.1113  0.2559  0.3796
11868TIP3    H135561   5.983   6.831   5.100  0.6692  0.3004  0.1653
11868TIP3    H235562   6.038   6.973   5.099  0.3920  0.4081 -0.5542
11869TIP3   OH235563   4.142   7.244   0.875  0.8173  0.0502 -0.7918
11869TIP3    H135564   4.195   7.182   0.824 -0.0419 -1.0607 -0.3875
11869TIP3    H235565   4.057   7.244   0.831  0.8717  1.1406 -0.9171
11870TIP3   OH235566   6.353   4.563   5.591 -0.6983 -0.4315 -0.3240
11870TIP3    H135567   6.283   4.626   5.574 -0.9596 -0.8350 -0.7560
11870TIP3    H235568   6.398   4.552   5.507 -0.2866 -0.3825 -0.1142
11871TIP3   OH235569   6.170   1.778   2.118 -0.9676 -0.0585 -0.0019
11871TIP3    H135570   6.171   1.683   2.128  0.1151  0.1056  1.7834
11871TIP3    H235571   6.147   1.792   2.026 -1.1049 -2.0333 -0.3109
11872TIP3   OH235572   5.370   4.767   0.429  0.2245 -0.1506  0.0527
11872TIP3    H135573   5.390   4.765   0.523  1.6836  1.7844 -0.1529
11872TIP3    H235574   5.277   4.746   0.424  0.1650 -0.5143  1.9003
11873TIP3   OH235575   0.509   4.192   1.370  0.0419 -0.2051  0.2679
11873TIP3    H135576   0.552   4.158   1.449 -0.3626 -1.1201  0.1118
11873TIP3    H235577   0.457   4.119   1.338  2.2852 -0.8390 -2.3859
11874TIP3   OH235578   4.488   5.929   0.047  0.0144 -0.4889 -0.0565
11874TIP3    H135579   4.523   6.006   0.002 -0.5349  0.8870  1.7185
11874TIP3    H235580   4.397   5.951   0.064  0.4313 -0.4654  2.5423
11875TIP3   OH235581   1.326   7.534   2.445 -0.1412  0.1319  0.1446
11875TIP3    H135582   1.306   7.520   2.352  1.1596 -0.1837 -0.1190
11875TIP3    H235583   1.390   7.465   2.465 -0.0779  0.4798  1.1530
11876TIP3   OH235584   5.568   6.032   0.228  0.0258 -0.0416  0.0274
11876TIP3    H135585   5.664   6.025   0.229  0.0798  0.6377  1.1755
11876TIP3    H235586   5.538   5.941   0.229  0.6622 -0.2555  0.6007
11877TIP3   OH235587   0.104   4.223   1.638  0.5408 -0.1084  0.1585
11877TIP3    H135588   0.169   4.154   1.628 -0.3478 -0.7828 -1.1796
11877TIP3    H235589   0.060   4.202   1.721 -0.7692 -2.1015 -0.9629
11878TIP3   OH235590   8.235   5.665   5.941  0.6391 -0.0670  0.1532
11878TIP3    H135591   8.318   5.643   5.898  0.5511 -1.2752  0.5578
11878TIP3    H235592   8.240   5.759   5.957  2.1962 -0.2261  0.7065
11879TIP3   OH235593   0.475   7.032   0.714  0.4010 -0.2370  0.5319
11879TIP3    H135594   0.512   7.119   0.698  0.3544 -0.1623  0.8261
11879TIP3    H235595   0.462   7.029   0.809  0.2717 -0.5127  0.5047
11880TIP3   OH235596   1.928   5.393   3.471  0.3059  0.0899 -0.1239
11880TIP3    H135597   1.876   5.424   3.396  0.6027  0.8203 -0.0421
11880TIP3    H235598   1.870   5.407   3.547  0.6692  1.0768 -0.0107
11881TIP3   OH235599   1.914   7.444   0.668  0.3202  0.2584 -0.9705
11881TIP3    H135600   1.937   7.532   0.639  1.0190  0.2763 -0.4043
11881TIP3    H235601   1.818   7.445   0.674  0.3186  0.9722 -0.9878
11882TIP3   OH235602   4.705   3.048   6.319 -0.0021 -0.5191  0.0829
11882TIP3    H135603   4.667   3.100   6.390 -0.6518 -1.1819  0.2305
11882TIP3    H235604   4.800   3.056   6.332 -0.0506  1.0840 -0.2387
11883TIP3   OH235605   6.674   0.175   2.204 -0.3080  0.3746 -0.1993
11883TIP3    H135606   6.632   0.208   2.124  0.0124  0.0298 -0.5142
11883TIP3    H235607   6.673   0.250   2.264 -0.4595  0.6673 -0.5610
11884TIP3   OH235608   6.227   1.345   2.907  0.4663  0.4690  0.4818
11884TIP3    H135609   6.148   1.363   2.856 -0.6826 -0.4390  1.8472
11884TIP3    H235610   6.264   1.266   2.868  1.3668  1.5176 -0.8642
11885TIP3   OH235611   3.929   1.068   4.456  0.6003 -0.5645  0.8291
11885TIP3    H135612   3.871   1.123   4.509  1.6146  0.9101  0.4739
11885TIP3    H235613   3.952   0.995   4.513 -0.5959 -0.5224  1.4059
11886TIP3   OH235614   7.304   6.196   3.589  0.3154 -0.1351  0.5371
11886TIP3    H135615   7.216   6.168   3.565  0.3339  1.2230 -1.3157
11886TIP3    H235616   7.290   6.269   3.650  0.0025  1.8166 -1.7226
11887TIP3   OH235617   6.147   0.755   0.732  0.1478 -0.9277 -0.4058
11887TIP3    H135618   6.085   0.779   0.801  1.8152 -0.7931  1.1229
11887TIP3    H235619   6.101   0.776   0.650 -0.9093  1.4279  0.7079
11888TIP3   OH235620   6.506   0.410   6.220 -0.0668 -0.3883  0.1127
11888TIP3    H135621   6.562   0.442   6.291  0.2619 -0.8939  0.0884
11888TIP3    H235622   6.537   0.321   6.203  1.2958  0.4133 -2.0764
11889TIP3   OH235623   1.814   2.771   3.564 -0.9000 -0.3762  0.4139
11889TIP3    H135624   1.815   2.803   3.655 -1.8933  1.1354 -0.0726
11889TIP3    H235625   1.795   2.849   3.512  0.8529 -0.9889 -1.2251
11890TIP3   OH235626   5.943   4.880   5.550  0.6320 -0.4732  0.1930
11890TIP3    H135627   5.870   4.823   5.572  0.2550 -0.3443 -0.6790
11890TIP3    H235628   5.941   4.949   5.616 -0.1582 -0.3697  0.0696
11891TIP3   OH235629   6.027   5.280   1.698 -0.1099  0.0549 -0.4252
11891TIP3    H135630   5.991   5.336   1.629 -2.7349  0.5259  1.1989
11891TIP3    H235631   5.959   5.215   1.714  0.8767 -0.6745  1.0440
11892TIP3   OH235632   2.229   3.351   1.289  0.0309 -0.0504  0.0489
11892TIP3    H135633   2.174   3.429   1.286  0.4549  0.3013  1.1141
11892TIP3    H235634   2.313   3.379   1.254 -0.7221 -0.8868 -2.7672
11893TIP3   OH235635   1.146   1.071   1.590 -0.3908 -0.2105 -0.2046
11893TIP3    H135636   1.215   1.133   1.610  0.6800 -1.5927  0.5427
11893TIP3    H235637   1.084   1.079   1.662 -0.7367  0.6185 -0.5822
11894TIP3   OH235638   2.033   1.010   0.951  0.1772 -0.5888  0.1721
11894TIP3    H135639   1.952   0.999   1.000  1.1981  0.5903  2.2568
11894TIP3    H235640   2.087   1.068   1.006  2.5632 -1.5878 -0.9740
11895TIP3   OH235641   1.819   7.273   4.595 -0.3430  0.0566  0.0878
11895TIP3    H135642   1.741   7.326   4.582  1.0977  2.0452 -1.0160
11895TIP3    H235643   1.844   7.288   4.686 -0.4285  0.6053  0.0200
11896TIP3   OH235644   1.005   3.190   6.532 -0.0173 -0.6319 -0.0090
11896TIP3    H135645   0.996   3.159   6.622  0.5346  0.0732  0.2952
11896TIP3    H235646   1.095   3.169   6.508 -0.2421 -1.0640 -0.4980
11897TIP3   OH235647   5.646   1.014   5.970  0.3340  0.3465 -0.1932
11897TIP3    H135648   5.713   0.971   6.025  1.6317  1.1676 -1.0757
11897TIP3    H235649   5.692   1.088   5.930 -1.2190  1.1476 -0.5664
11898TIP3   OH235650   4.465   3.372   1.198  0.1753 -0.2750  0.0675
11898TIP3    H135651   4.493   3.331   1.280 -0.9598 -1.2854 -0.0354
11898TIP3    H235652   4.405   3.310   1.159 -2.2476  1.7782  0.2874
11899TIP3   OH235653   6.466   2.347   4.705  0.3961 -0.5286 -0.2657
11899TIP3    H135654   6.543   2.321   4.755 -0.5119 -1.0062  0.9294
11899TIP3    H235655   6.394   2.297   4.744 -0.1420 -2.2361 -3.0919
11900TIP3   OH235656   5.726   3.285   3.706  0.4906 -0.4875 -0.4010
11900TIP3    H135657   5.752   3.369   3.668  3.0362 -0.4392  1.2179
11900TIP3    H235658   5.720   3.226   3.631  1.4114  0.5141 -1.3030
11901TIP3   OH235659   4.407   5.228   0.502  0.5162 -0.3288  0.1650
11901TIP3    H135660   4.317   5.193   0.501  0.6783 -0.8113 -1.6447
11901TIP3    H235661   4.424   5.247   0.594 -0.8936 -1.6544  0.7506
11902TIP3   OH235662   5.884   6.022   4.371  0.0268 -0.0643 -0.0174
11902TIP3    H135663   5.954   6.036   4.434 -0.5304  1.6869  0.2896
11902TIP3    H235664   5.842   6.108   4.363 -1.1088 -0.6975 -1.3505
11903TIP3   OH235665   4.109   3.236   5.347 -0.7262  0.0756  0.0939
11903TIP3    H135666   4.194   3.262   5.382 -0.4254 -0.3798 -0.2832
11903TIP3    H235667   4.112   3.140   5.348 -0.6666  0.0508 -1.2828
11904TIP3   OH235668   6.703   4.712   4.328  0.1576  0.2231 -0.4857
11904TIP3    H135669   6.730   4.631   4.286 -3.2421 -1.4212  0.2143
11904TIP3    H235670   6.619   4.734   4.287  0.8270  3.3402 -0.4925
11905TIP3   OH235671   0.257   2.965   0.925  0.1252 -0.0900  0.3468
11905TIP3    H135672   0.303   2.902   0.869  0.6588  0.8959 -0.3544
11905TIP3    H235673   0.325   3.005   0.979 -0.2804 -0.4716  1.1514
11906TIP3   OH235674   7.723   0.071   0.695 -0.4483 -0.5363  0.2628
11906TIP3    H135675   7.748   0.148   0.644  0.8324 -2.2605 -1.8688
11906TIP3    H235676   7.685   0.011   0.631 -1.0974 -1.8417  1.7959
11907TIP3   OH235677   4.461   0.447   3.532  0.1156  0.0724  0.4690
11907TIP3    H135678   4.512   0.495   3.596  1.1596 -0.7151  0.2513
11907TIP3    H235679   4.370   0.454   3.563  0.5027  0.4193  1.5486
11908TIP3   OH235680   1.878   0.075   3.041  0.0263 -0.3430  1.0764
11908TIP3    H135681   1.939   0.029   3.098  2.3017  1.1157 -0.0056
11908TIP3    H235682   1.830   0.006   2.996  0.6091 -1.5593  2.2396
11909TIP3   OH235683   1.667   1.932   1.335 -0.0356  0.5940  0.4586
11909TIP3    H135684   1.639   1.895   1.419 -0.4327  0.0956  0.1093
11909TIP3    H235685   1.674   1.857   1.277  1.2004  0.8105  0.3028
11910TIP3   OH235686   0.946   6.904   5.155 -0.0640 -0.0840 -0.1667
11910TIP3    H135687   0.981   6.815   5.164  4.4483  1.4569  0.4508
11910TIP3    H235688   0.944   6.921   5.061  0.6261 -0.3746 -0.2405
11911TIP3   OH235689   4.175   6.728   3.343 -0.0207 -0.3812  0.3938
11911TIP3    H135690   4.148   6.651   3.393 -0.1681  0.6744  2.0051
11911TIP3    H235691   4.186   6.696   3.254 -0.0204 -2.2752  1.0353
11912TIP3   OH235692   4.800   4.389   3.443 -0.4021  0.7789 -0.3694
11912TIP3    H135693   4.779   4.299   3.465 -1.1023  0.3868 -2.3562
11912TIP3    H235694   4.876   4.383   3.385 -0.2091  1.4880 -0.1977
11913TIP3   OH235695   7.486   0.942   1.101  0.4058 -0.0237 -0.1767
11913TIP3    H135696   7.574   0.971   1.124  0.8338 -2.1604  1.1802
11913TIP3    H235697   7.496   0.898   1.017  0.4392  0.5182 -0.4620
11914TIP3   OH235698   4.591   3.574   5.905 -0.0370  1.0614  0.3685
11914TIP3    H135699   4.622   3.485   5.887  0.9731  1.2991  0.8088
11914TIP3    H235700   4.576   3.612   5.819  1.3596  1.0656  0.1005
11915TIP3   OH235701   4.618   0.777   0.501 -0.8254  0.1693 -0.3196
11915TIP3    H135702   4.535   0.813   0.531 -1.7526 -1.4340 -0.8161
11915TIP3    H235703   4.646   0.836   0.432 -0.6023  1.7392  1.0463
11916TIP3   OH235704   5.505   3.745   2.301  0.7287 -0.4694  0.0055
11916TIP3    H135705   5.461   3.799   2.367  1.1508  0.3740 -0.3919
11916TIP3    H235706   5.472   3.777   2.217  2.0265  0.1489 -0.3005
11917TIP3   OH235707   4.961   0.243   0.408 -0.1725 -0.0477 -0.1352
11917TIP3    H135708   4.917   0.213   0.487 -0.8931 -1.9156 -1.1877
11917TIP3    H235709   4.889   0.269   0.350  0.1128 -2.0174 -1.4421
11918TIP3   OH235710   5.251   7.511   4.183  0.6275 -0.3552  0.8334
11918TIP3    H135711   5.259   7.472   4.270 -1.2531  2.2534  2.3220
11918TIP3    H235712   5.328   7.567   4.175 -0.5670  1.5775  2.1277
11919TIP3   OH235713   0.461   3.586   1.724 -0.1876 -0.2766  0.5523
11919TIP3    H135714   0.449   3.554   1.813 -0.6942 -1.1327  0.1911
11919TIP3    H235715   0.525   3.526   1.685 -0.9311 -0.7004 -0.0461
11920TIP3   OH235716   3.658   2.083   2.832  0.4840  0.2317  0.4485
11920TIP3    H135717   3.608   2.022   2.778 -0.8423 -1.0574  2.9410
11920TIP3    H235718   3.616   2.168   2.818  1.2095  0.2929 -1.6906
11921TIP3   OH235719   4.403   2.759   1.455 -0.3169  0.0279  0.7188
11921TIP3    H135720   4.409   2.729   1.546  0.3788 -0.9309  0.3760
11921TIP3    H235721   4.310   2.755   1.435 -0.2981 -1.7011  0.7910
11922TIP3   OH235722   5.261   6.915   1.368 -0.2675 -0.8297  0.2277
11922TIP3    H135723   5.229   6.995   1.328  1.8302  0.6067  1.2849
11922TIP3    H235724   5.198   6.896   1.438 -0.1583  0.5806  0.7279
11923TIP3   OH235725   7.466   0.260   1.830  0.4875 -0.1094 -0.1698
11923TIP3    H135726   7.373   0.247   1.811  0.6639  0.1380 -1.3066
11923TIP3    H235727   7.479   0.220   1.916 -0.9497  1.0480  0.6269
11924TIP3   OH235728   6.224   5.404   2.659 -0.0001 -0.1466 -0.5525
11924TIP3    H135729   6.167   5.416   2.735 -0.3906 -0.3442 -0.8102
11924TIP3    H235730   6.164   5.385   2.587  0.4929 -2.2724 -0.4471
11925TIP3   OH235731   5.858   4.681   6.631 -0.3635 -0.1620  0.0970
11925TIP3    H135732   5.790   4.701   6.695 -0.7926  1.3174 -0.7729
11925TIP3    H235733   5.877   4.765   6.588  0.9775 -0.8238 -0.6771
11926TIP3   OH235734   0.187   0.341   5.567 -0.1927 -0.3123  0.0701
11926TIP3    H135735   0.175   0.304   5.655  0.7186 -1.4346 -0.2488
11926TIP3    H235736   0.107   0.390   5.550 -0.6113 -0.5335  1.3132
11927TIP3   OH235737   6.782   5.314   2.393  0.3565  0.2663  0.5070
11927TIP3    H135738   6.693   5.321   2.428  0.5618  3.4127  0.6215
11927TIP3    H235739   6.805   5.222   2.406 -3.6667 -1.2981 -1.5933
11928TIP3   OH235740   3.118   0.418   6.239  0.2577  0.0046  0.3952
11928TIP3    H135741   3.173   0.478   6.288 -0.3519  0.7590  0.1740
11928TIP3    H235742   3.080   0.360   6.305  0.2208  0.3713  0.6962
11929TIP3   OH235743   2.713   2.229   4.132 -0.5495  0.5843 -0.1175
11929TIP3    H135744   2.639   2.168   4.124  0.6171 -0.8140 -0.6598
11929TIP3    H235745   2.753   2.207   4.216  1.1697 -0.9693 -1.2678
11930TIP3   OH235746   0.437   4.319   1.849 -0.0948 -0.7267  0.8226
11930TIP3    H135747   0.510   4.298   1.791 -2.0732 -3.1275 -1.0178
11930TIP3    H235748   0.407   4.405   1.819  0.4750 -0.8046 -0.0274
11931TIP3   OH235749   7.006   2.782   3.141  0.0843 -0.5488 -0.4022
11931TIP3    H135750   6.988   2.692   3.112 -1.8886 -0.0959 -0.7342
11931TIP3    H235751   6.959   2.837   3.079 -0.0390  0.6549  0.7086
11932TIP3   OH235752   5.552   7.528   2.971  0.4851 -0.2502  0.2648
11932TIP3    H135753   5.635   7.490   2.944  1.0971  0.8002  0.6331
11932TIP3    H235754   5.492   7.509   2.898  1.1826 -0.5451 -0.2386
11933TIP3   OH235755   5.915   5.795   1.624  0.4878  0.0972 -0.3856
11933TIP3    H135756   5.917   5.847   1.544 -0.7069 -0.6943 -0.9640
11933TIP3    H235757   5.823   5.799   1.652  0.8874  0.3426  0.9421
11934TIP3   OH235758   3.965   1.870   4.184  0.4179  0.4959  0.8730
11934TIP3    H135759   4.022   1.908   4.117 -0.9312 -0.3974 -0.8748
11934TIP3    H235760   3.879   1.864   4.142 -0.0520 -1.8513  1.9951
11935TIP3   OH235761   4.164   6.068   5.198 -0.2195  0.6386  0.1650
11935TIP3    H135762   4.140   5.980   5.228 -0.2974  0.7821  0.5221
11935TIP3    H235763   4.102   6.126   5.241 -0.8182  0.7864 -0.8712
11936TIP3   OH235764   2.351   1.954   1.648  0.1158 -0.1574  0.0381
11936TIP3    H135765   2.337   2.047   1.630 -0.9892 -0.6799 -2.1747
11936TIP3    H235766   2.264   1.915   1.642  0.6061 -1.3938  0.6079
11937TIP3   OH235767   1.653   2.676   3.064  0.0806  0.1172 -0.2866
11937TIP3    H135768   1.730   2.637   3.023  0.5354 -0.1031  0.7452
11937TIP3    H235769   1.579   2.638   3.017  0.4942 -2.1342  0.7226
11938TIP3   OH235770   2.338   1.083   3.567  0.2696 -0.1299  0.0463
11938TIP3    H135771   2.258   1.097   3.518  0.7928  1.1135 -0.5050
11938TIP3    H235772   2.402   1.054   3.502  0.7169  0.5892  0.1544
11939TIP3   OH235773   6.282   1.234   5.745 -0.2429 -0.1894  0.1701
11939TIP3    H135774   6.318   1.244   5.833 -0.8275 -1.6500  0.6085
11939TIP3    H235775   6.229   1.154   5.750 -2.9082  1.4172 -0.6561
11940TIP3   OH235776   5.410   3.546   0.845  0.1898  0.1688 -0.4103
11940TIP3    H135777   5.482   3.523   0.903 -0.4111  0.0776  0.3202
11940TIP3    H235778   5.428   3.500   0.763 -0.7294 -2.5533  0.8263
11941TIP3   OH235779   0.731   6.591   4.389  0.0114 -0.0131  0.1245
11941TIP3    H135780   0.802   6.527   4.390 -0.5126 -0.6333  1.5364
11941TIP3    H235781   0.691   6.582   4.476 -1.3850  0.7621 -0.4165
11942TIP3   OH235782   1.503   3.251   1.109 -0.5991 -0.2444  0.0819
11942TIP3    H135783   1.423   3.217   1.068  0.1476 -0.8064 -0.9293
11942TIP3    H235784   1.544   3.174   1.149  0.0509 -0.1807 -0.4510
11943TIP3   OH235785   0.001   7.302   1.678  0.6939  0.2173  0.4702
11943TIP3    H135786  -0.024   7.386   1.641  1.2145 -0.1076 -0.6593
11943TIP3    H235787   0.070   7.269   1.621 -0.4457 -1.6122  0.0426
11944TIP3   OH235788   2.669   4.227   0.650 -0.5663 -0.3794 -0.2574
11944TIP3    H135789   2.637   4.287   0.717  1.2879  0.8414 -0.4179
11944TIP3    H235790   2.590   4.182   0.618 -1.4931 -1.1529  2.8205
11945TIP3   OH235791   3.303   2.846   2.922  0.0748 -0.4752 -0.6247
11945TIP3    H135792   3.364   2.886   2.860 -0.2547  0.8481 -0.1158
11945TIP3    H235793   3.348   2.852   3.006  0.5907 -2.4154 -0.7037
11946TIP3   OH235794   2.547   4.250   5.658 -0.3796 -0.0708 -0.0494
11946TIP3    H135795   2.608   4.179   5.677 -0.3738 -0.6327 -2.0217
11946TIP3    H235796   2.466   4.224   5.702 -0.2995 -1.1830 -0.5313
11947TIP3   OH235797   7.653   5.024   5.934  0.1033 -0.1570 -0.9088
11947TIP3    H135798   7.687   5.109   5.905  0.1400  0.1336 -0.0681
11947TIP3    H235799   7.702   4.959   5.883 -0.7432  0.3346 -2.4099
11948TIP3   OH235800   1.685   6.029   0.985  0.6154 -0.1519  0.2815
11948TIP3    H135801   1.590   6.032   0.995  0.7494  0.9894  1.4172
11948TIP3    H235802   1.698   6.000   0.894 -0.7964 -0.5959  0.1912
11949TIP3   OH235803   0.260   0.734   3.680  0.4619 -0.0927 -0.2370
11949TIP3    H135804   0.326   0.677   3.718  0.3102  1.3368  2.3407
11949TIP3    H235805   0.184   0.725   3.737 -1.1255 -0.5643 -2.2928
11950TIP3   OH235806   7.517   0.330   3.129  0.0649 -0.2190 -0.0452
11950TIP3    H135807   7.543   0.411   3.086 -0.2166  1.1593  2.2034
11950TIP3    H235808   7.439   0.354   3.179 -0.2551 -1.9908  0.3726
11951TIP3   OH235809   1.774   1.236   0.822 -0.0515 -0.5032 -0.9176
11951TIP3    H135810   1.796   1.145   0.799  2.1424  0.6023 -3.7471
11951TIP3    H235811   1.848   1.266   0.874  0.8745  0.5349 -2.7307
11952TIP3   OH235812   7.801   7.692   4.392 -0.2553  0.3985 -0.0399
11952TIP3    H135813   7.785   7.656   4.305 -0.1082  1.4017 -0.4929
11952TIP3    H235814   7.837   7.618   4.442 -1.4225 -0.5103 -0.4804
11953TIP3   OH235815   3.454   4.267   3.487  0.3957  0.3526  0.3761
11953TIP3    H135816   3.394   4.314   3.428  1.5263  1.4676  0.0897
11953TIP3    H235817   3.520   4.229   3.428 -0.0840 -1.0116  0.6746
11954TIP3   OH235818   7.442   2.180   6.032 -0.0240 -0.0079  0.3618
11954TIP3    H135819   7.485   2.139   5.957 -1.0765 -0.8724  0.2028
11954TIP3    H235820   7.366   2.124   6.050 -1.2574  1.6186  0.4382
11955TIP3   OH235821   1.602   7.330   1.372  0.1978  0.0218  0.1161
11955TIP3    H135822   1.612   7.336   1.277  1.7228  0.4936  0.2745
11955TIP3    H235823   1.548   7.405   1.395  0.9751  0.7183 -0.2535
11956TIP3   OH235824   0.082   6.228   3.195  0.0192 -0.2831  0.0136
11956TIP3    H135825   0.146   6.250   3.262  0.0127 -2.8534  1.0025
11956TIP3    H235826   0.131   6.177   3.131 -0.7319 -1.1939  0.1273
11957TIP3   OH235827   1.894   2.989   1.657  0.2142 -0.2051 -0.2943
11957TIP3    H135828   1.828   3.035   1.605  0.4951 -0.7758 -1.1872
11957TIP3    H235829   1.924   3.054   1.721 -0.8796  0.1986 -0.1652
11958TIP3   OH235830   4.018   3.853   5.086 -0.4069  0.1425 -0.0107
11958TIP3    H135831   4.033   3.759   5.076 -0.4120  0.3078 -2.1021
11958TIP3    H235832   3.931   3.868   5.049 -0.1031  1.0685 -0.3832
11959TIP3   OH235833   5.455   5.765   2.844 -0.1210  0.0226  0.1637
11959TIP3    H135834   5.530   5.732   2.894  0.4298  0.9958  0.0029
11959TIP3    H235835   5.494   5.808   2.768 -0.8413  0.5857  0.1062
11960TIP3   OH235836   3.645   2.613   1.586 -0.4880  0.1865  0.4402
11960TIP3    H135837   3.565   2.560   1.592 -0.3547  0.0288  0.9012
11960TIP3    H235838   3.716   2.549   1.588 -0.3372  0.3590  0.6241
11961TIP3   OH235839   3.298   6.521   0.401  0.0752 -0.0067 -0.6370
11961TIP3    H135840   3.386   6.555   0.383  0.2234  1.2790  2.0406
11961TIP3    H235841   3.311   6.457   0.470 -1.0600 -0.1538 -0.5479
11962TIP3   OH235842   7.177   6.236   2.911 -0.5961  0.1113  0.0155
11962TIP3    H135843   7.210   6.160   2.864  2.6914 -0.5162  2.8787
11962TIP3    H235844   7.099   6.205   2.956 -1.2872 -0.5033 -1.5568
11963TIP3   OH235845   3.643   5.685   2.787 -0.3158  0.1738 -0.3630
11963TIP3    H135846   3.616   5.701   2.878  1.3951 -0.2681  0.2696
11963TIP3    H235847   3.725   5.637   2.795  1.3102  2.4258 -2.1100
11964TIP3   OH235848   5.802   7.073   0.452  0.4866 -0.3249  0.4408
11964TIP3    H135849   5.734   7.139   0.468  0.7561  0.1687 -0.3659
11964TIP3    H235850   5.847   7.065   0.536  1.3903  1.6405  0.2136
11965TIP3   OH235851   7.822   1.075   5.428 -0.1388 -0.5394 -0.4325
11965TIP3    H135852   7.736   1.076   5.468 -0.0306  4.0393  0.1842
11965TIP3    H235853   7.874   1.018   5.483 -1.5986  0.5684  2.2545
11966TIP3   OH235854   5.032   5.417   2.873  0.2884  0.6803  0.2893
11966TIP3    H135855   4.958   5.459   2.829 -0.6326  1.5234  2.5123
11966TIP3    H235856   5.086   5.489   2.906  0.7228  0.1009  0.8889
11967TIP3   OH235857   1.273   3.965   6.038 -0.3916  0.6585 -0.0369
11967TIP3    H135858   1.242   4.021   5.966  0.0663 -1.1470 -1.7210
11967TIP3    H235859   1.209   3.894   6.043  1.7489 -1.5359 -1.5967
11968TIP3   OH235860   0.897   3.431   2.607  1.0782  0.0836  0.3887
11968TIP3    H135861   0.843   3.498   2.566  0.8087  0.2661  1.0285
11968TIP3    H235862   0.891   3.450   2.701  0.7961 -0.9798  0.5990
11969TIP3   OH235863   2.987   6.484   2.399  0.5106 -0.1990  0.0304
11969TIP3    H135864   3.074   6.449   2.419  1.7564  3.0827  1.0061
11969TIP3    H235865   2.927   6.430   2.451  2.1930 -1.1020  1.1241
11970TIP3   OH235866   0.614   7.155   5.453 -0.1616 -0.0387  0.6455
11970TIP3    H135867   0.556   7.127   5.382 -0.0459 -0.5636  0.7558
11970TIP3    H235868   0.691   7.098   5.445  0.8170  1.3250 -0.1528
11971TIP3   OH235869   4.085   0.593   1.059  0.1859  0.7295  0.4333
11971TIP3    H135870   4.043   0.543   0.989  0.1118 -1.0335  1.6675
11971TIP3    H235871   4.054   0.683   1.047 -0.1154  0.3968 -1.5436
11972TIP3   OH235872   0.540   7.606   3.554  0.2594  0.2784 -0.2003
11972TIP3    H135873   0.511   7.549   3.624 -0.6495 -0.0101 -0.7938
11972TIP3    H235874   0.465   7.661   3.535  0.4409  0.2503 -1.0430
11973TIP3   OH235875   7.450   4.421   4.040  0.1700  0.3171 -0.3348
11973TIP3    H135876   7.523   4.365   4.067  0.9624  1.6589  0.4394
11973TIP3    H235877   7.465   4.436   3.946  1.0351  0.7726 -0.1322
11974TIP3   OH235878   0.772   2.682   2.997 -0.3804  0.2802  0.2531
11974TIP3    H135879   0.853   2.648   2.959 -0.3948  1.7372 -1.2033
11974TIP3    H235880   0.704   2.625   2.961 -0.3817  1.5795 -1.9838
11975TIP3   OH235881   7.864   4.035   4.027 -0.6635 -0.4303 -0.0157
11975TIP3    H135882   7.818   3.980   4.090 -1.2770  1.1956  1.0198
11975TIP3    H235883   7.796   4.093   3.992 -0.1847 -0.7842 -1.6339
11976TIP3   OH235884   6.895   5.385   1.174  0.0782 -0.7867  0.5253
11976TIP3    H135885   6.898   5.449   1.245 -0.4223  0.7725 -0.7758
11976TIP3    H235886   6.931   5.432   1.099 -3.1183 -0.9003 -1.2642
11977TIP3   OH235887   3.912   5.830   4.998  0.4769  0.2662  0.1815
11977TIP3    H135888   3.990   5.776   5.000  0.3015 -0.4765 -4.1507
11977TIP3    H235889   3.843   5.773   4.964 -0.5930  2.2246 -1.1800
11978TIP3   OH235890   5.001   6.938   0.927 -0.2291 -0.6103 -0.0098
11978TIP3    H135891   4.931   6.894   0.881 -0.4900 -0.3276  0.1101
11978TIP3    H235892   5.047   6.868   0.974  0.7046 -1.0642 -1.5155
11979TIP3   OH235893   0.479   1.432   3.843  0.1920 -0.4227  0.0676
11979TIP3    H135894   0.453   1.514   3.884 -2.4347 -0.8938 -0.4556
11979TIP3    H235895   0.449   1.364   3.904 -1.1236 -1.0345 -1.1764
11980TIP3   OH235896   4.755   5.468   5.965  0.2144  0.1968 -0.5944
11980TIP3    H135897   4.823   5.520   6.007 -1.3960  1.6903  0.2929
11980TIP3    H235898   4.778   5.469   5.872  1.1963  0.9880 -0.3567
11981TIP3   OH235899   4.534   2.489   3.587 -0.0164  0.4258 -0.0505
11981TIP3    H135900   4.499   2.433   3.518 -0.1004  1.3521 -0.7838
11981TIP3    H235901   4.491   2.459   3.667  1.9249 -2.3562  0.0997
11982TIP3   OH235902   6.063   2.546   0.742 -0.0962 -0.1122 -0.4385
11982TIP3    H135903   5.979   2.565   0.701 -0.1088 -0.7638 -0.7369
11982TIP3    H235904   6.094   2.630   0.775 -1.2092  0.0253  0.3259
11983TIP3   OH235905   1.742   4.592   6.508  0.6536  0.3149 -0.2197
11983TIP3    H135906   1.761   4.563   6.597  0.5251  1.8261  0.3336
11983TIP3    H235907   1.805   4.544   6.453  2.7167  1.4428  1.0155
11984TIP3   OH235908   1.337   0.517   3.160  0.4217 -0.2824 -0.0183
11984TIP3    H135909   1.394   0.524   3.237 -0.0655  1.6077  0.2296
11984TIP3    H235910   1.279   0.594   3.166 -0.3806 -0.7073 -1.6734
11985TIP3   OH235911   2.797   3.273   4.073  0.0627 -0.3022 -0.7028
11985TIP3    H135912   2.755   3.348   4.116 -1.6428 -1.0797 -0.9493
11985TIP3    H235913   2.753   3.266   3.988  0.3124 -1.5001 -0.7426
11986TIP3   OH235914   0.176   2.022   5.104  0.0984 -0.4355  0.2076
11986TIP3    H135915   0.198   1.959   5.172  1.3194  1.1062  1.3060
11986TIP3    H235916   0.088   1.998   5.076 -0.5523 -0.9311  2.5475
11987TIP3   OH235917   2.816   0.833   2.908 -0.2361 -0.6483 -0.2333
11987TIP3    H135918   2.738   0.817   2.853 -0.7154  2.0756 -0.4943
11987TIP3    H235919   2.877   0.879   2.850 -0.0034  0.6337  0.9778
11988TIP3   OH235920   4.698   1.070   4.562  0.6031  0.0271 -0.5312
11988TIP3    H135921   4.716   1.003   4.628  1.4091  0.5046 -0.2584
11988TIP3    H235922   4.730   1.033   4.481 -0.0028 -0.3865 -0.5891
11989TIP3   OH235923   4.256   0.137   1.944  0.4554 -0.1718  0.4583
11989TIP3    H135924   4.205   0.056   1.933  1.2036 -0.7004  0.7893
11989TIP3    H235925   4.291   0.155   1.857  0.6390 -0.4434  0.4761
11990TIP3   OH235926   1.870   3.813   1.683  0.2411  0.5975  0.1063
11990TIP3    H135927   1.861   3.865   1.763  0.5193 -0.6007  0.9426
11990TIP3    H235928   1.957   3.776   1.688  1.2239  2.4008 -1.9763
11991TIP3   OH235929   2.357   1.537   2.876  0.3491  0.6532 -0.2432
11991TIP3    H135930   2.365   1.599   2.804 -1.7681  2.2413  0.7764
11991TIP3    H235931   2.263   1.518   2.882  0.7866 -1.8320  0.2215
11992TIP3   OH235932   6.160   2.792   4.219  0.1794 -0.5261 -0.2045
11992TIP3    H135933   6.210   2.798   4.137  0.2443  0.5378 -0.1011
11992TIP3    H235934   6.179   2.704   4.253  0.0822 -1.0203 -1.3669
11993TIP3   OH235935   2.388   0.279   4.906 -0.0982  0.3879 -0.1653
11993TIP3    H135936   2.399   0.365   4.946 -3.7430  1.2937 -0.8097
11993TIP3    H235937   2.359   0.297   4.816 -0.6715 -1.5252 -0.4117
11994TIP3   OH235938   4.856   5.486   5.700 -0.3310  0.1476 -0.2914
11994TIP3    H135939   4.828   5.455   5.614 -0.3807 -0.8426  0.0625
11994TIP3    H235940   4.850   5.581   5.695  1.5511  0.2452 -2.0192
11995TIP3   OH235941   4.332   2.735   0.194  0.1055  0.1852 -0.7163
11995TIP3    H135942   4.321   2.642   0.216 -0.7779  0.4477  0.0259
11995TIP3    H235943   4.357   2.735   0.102  1.1954 -0.8384 -0.4479
11996TIP3   OH235944   5.588   2.337   6.129 -0.0532  0.1681  0.3872
11996TIP3    H135945   5.512   2.371   6.177  0.8488 -0.0266  2.0548
11996TIP3    H235946   5.611   2.408   6.069 -1.1977  0.4652  0.2715
11997TIP3   OH235947   4.696   7.643   5.647  0.2073  0.0572  0.0387
11997TIP3    H135948   4.684   7.593   5.566  0.6866 -1.1899  0.7067
11997TIP3    H235949   4.791   7.649   5.657  0.1498  0.0876  0.5693
11998TIP3   OH235950   6.896   3.199   0.226  0.5651  0.2202  0.1960
11998TIP3    H135951   6.981   3.229   0.256  1.0688  0.2443 -1.1854
11998TIP3    H235952   6.854   3.164   0.304  1.3839  1.2428  1.1190
11999TIP3   OH235953   7.516   6.092   3.450  0.1324 -0.3064  0.4260
11999TIP3    H135954   7.554   6.132   3.372  1.8437  1.6680  2.1257
11999TIP3    H235955   7.450   6.155   3.479 -2.0354 -2.0328 -0.5173
12000TIP3   OH235956   6.925   5.514   5.163 -0.4768  0.4359  0.1786
12000TIP3    H135957   7.018   5.537   5.159 -0.4293  0.4161  1.1065
12000TIP3    H235958   6.887   5.555   5.085  0.1756  1.0757  0.1926
12001TIP3   OH235959   3.653   4.940   1.061  0.2906  0.2010 -0.3847
12001TIP3    H135960   3.671   4.901   0.976 -1.3990 -2.6742  0.4698
12001TIP3    H235961   3.559   4.929   1.074  0.6117 -0.0825  2.1516
12002TIP3   OH235962   7.868   6.041   4.846 -0.4043  0.1599  0.6798
12002TIP3    H135963   7.922   5.964   4.866  1.6415  1.7898  1.9041
12002TIP3    H235964   7.817   6.015   4.769  1.5138 -1.8315 -0.0506
12003TIP3   OH235965   4.608   5.591   0.235  0.6710  0.5838 -0.5379
12003TIP3    H135966   4.665   5.658   0.273  0.5885 -0.4074  1.4684
12003TIP3    H235967   4.624   5.513   0.287 -0.2445 -0.6015 -1.9360
12004TIP3   OH235968   8.200   6.578   0.793 -0.6276 -0.5172  0.1107
12004TIP3    H135969   8.181   6.501   0.740  0.5347 -1.8523  1.5682
12004TIP3    H235970   8.161   6.560   0.878  1.1984 -0.3159  1.0242
12005TIP3   OH235971   5.810   5.252   5.045  0.6294  0.1432  0.2688
12005TIP3    H135972   5.770   5.255   4.958  1.4632  0.5570 -0.1148
12005TIP3    H235973   5.765   5.181   5.090  1.2953 -1.2078 -1.0734
12006TIP3   OH235974   1.738   1.973   0.640  0.4548  0.7761  0.3368
12006TIP3    H135975   1.829   1.954   0.665  0.8121  2.3936  0.3629
12006TIP3    H235976   1.686   1.943   0.714  0.9943  0.1561  0.4786
12007TIP3   OH235977   4.233   5.503   4.431 -0.4778  0.0097 -0.3331
12007TIP3    H135978   4.186   5.545   4.360  2.1788  0.2874 -2.0983
12007TIP3    H235979   4.295   5.569   4.462 -0.2330 -0.7499  0.8957
12008TIP3   OH235980   2.378   6.402   1.167 -0.0970 -0.3525 -0.3186
12008TIP3    H135981   2.374   6.480   1.222 -0.7492 -0.4392 -0.2290
12008TIP3    H235982   2.391   6.435   1.078 -0.3391 -0.1398 -0.2757
12009TIP3   OH235983   7.764   6.543   4.596  0.0910 -0.2805 -0.3048
12009TIP3    H135984   7.856   6.566   4.614 -0.2543  0.9531 -0.0518
12009TIP3    H235985   7.716   6.625   4.608 -1.1639 -1.0910  0.4014
12010TIP3   OH235986   4.625   2.923   0.201 -0.3212  0.0869  0.9176
12010TIP3    H135987   4.676   3.001   0.183  0.6243 -0.4548  1.1799
12010TIP3    H235988   4.578   2.905   0.119  0.3922  0.2409  0.4714
12011TIP3   OH235989   7.276   0.436   5.268 -0.4290  0.2353 -0.4563
12011TIP3    H135990   7.219   0.404   5.338  1.7817 -2.5416  0.2278
12011TIP3    H235991   7.222   0.429   5.189 -1.5040 -0.9414  0.3433
12012TIP3   OH235992   5.569   5.155   0.459 -0.8197 -0.3830  0.1833
12012TIP3    H135993   5.521   5.237   0.445 -0.4964 -0.5630 -2.5575
12012TIP3    H235994   5.614   5.167   0.542  1.5295  3.4700 -1.3739
12013TIP3   OH235995   1.608   5.419   1.226 -0.5634  0.0497  0.1266
12013TIP3    H135996   1.543   5.395   1.292 -0.3467  1.3559  0.8531
12013TIP3    H235997   1.690   5.428   1.275  0.0433 -0.9537 -0.6738
12014TIP3   OH235998   4.299   6.170   1.099 -0.0902  0.1748 -0.4650
12014TIP3    H135999   4.203   6.174   1.096 -0.0923 -0.4592 -2.3433
12014TIP3    H236000   4.326   6.165   1.007  1.7593  0.4318  0.0273
12015TIP3   OH236001   2.766   2.613   0.989 -0.0314 -0.6390  0.0370
12015TIP3    H136002   2.673   2.597   0.976  0.0280  0.3433 -2.0375
12015TIP3    H236003   2.770   2.691   1.045 -0.4950  0.1132 -0.9526
12016TIP3   OH236004   3.310   7.111   1.052 -0.0293  0.2348 -0.4695
12016TIP3    H136005   3.323   7.205   1.066  0.4776  0.2509 -0.9944
12016TIP3    H236006   3.288   7.103   0.959 -0.0633 -0.1688 -0.4294
12017TIP3   OH236007   0.022   7.630   3.989 -0.1230  0.1847  0.3938
12017TIP3    H136008   0.052   7.674   3.910  0.1143  0.0612  0.4164
12017TIP3    H236009   0.016   7.700   4.054 -0.2825  0.2791  0.2800
12018TIP3   OH236010   5.055   2.553   4.204  0.2109  0.4689 -0.2651
12018TIP3    H136011   5.083   2.577   4.292  0.1528 -1.3120  0.2824
12018TIP3    H236012   4.975   2.603   4.190  0.1578  0.6916  0.7302
12019TIP3   OH236013   2.607   6.750   3.420  0.2004 -0.0777  0.7539
12019TIP3    H136014   2.571   6.749   3.509  1.0038 -0.7492  1.0840
12019TIP3    H236015   2.573   6.830   3.381  0.2202  0.4604  1.8202
12020TIP3   OH236016   3.058   2.838   4.206  0.1956 -0.3495  0.4794
12020TIP3    H136017   3.144   2.872   4.230  0.6073 -0.5128 -0.6776
12020TIP3    H236018   2.996   2.900   4.244  0.7681 -0.6612  2.0198
12021TIP3   OH236019   2.569   5.570   4.173  0.3302 -0.5781 -0.3519
12021TIP3    H136020   2.478   5.569   4.143 -0.0593  0.3700  0.7101
12021TIP3    H236021   2.578   5.488   4.222 -0.5472  0.1557  1.1111
12022TIP3   OH236022   6.636   1.604   0.012  1.0299  0.5482 -0.6848
12022TIP3    H136023   6.651   1.559   0.096  0.6457  0.4617 -0.6604
12022TIP3    H236024   6.689   1.683   0.018 -0.3861  1.4549  0.3907
12023TIP3   OH236025   4.344   6.992   5.247 -0.4935 -0.2798 -0.1778
12023TIP3    H136026   4.290   6.954   5.179 -1.4805  1.2813 -0.3091
12023TIP3    H236027   4.291   6.985   5.327  0.5925 -1.9639  0.4604
12024TIP3   OH236028   4.571   2.526   2.091 -0.6058 -0.1456  0.0435
12024TIP3    H136029   4.498   2.524   2.029 -0.0571 -1.3788 -0.6116
12024TIP3    H236030   4.554   2.602   2.146 -0.6964  1.5176 -2.1388
12025TIP3   OH236031   1.774   0.927   2.058 -0.7868 -0.2125  0.0650
12025TIP3    H136032   1.689   0.885   2.067 -0.9701  0.1054 -0.1389
12025TIP3    H236033   1.814   0.887   1.981 -0.0879 -1.4696  1.0522
12026TIP3   OH236034   2.987   1.491   0.520 -0.6183  0.5624  0.5387
12026TIP3    H136035   3.075   1.471   0.549 -0.4406  1.7178  0.8084
12026TIP3    H236036   2.965   1.574   0.561 -1.4724  0.7645 -0.2743
12027TIP3   OH236037   1.816   0.144   3.775  0.8616 -0.3598 -0.2548
12027TIP3    H136038   1.897   0.189   3.798  0.8668 -1.2772  1.6573
12027TIP3    H236039   1.747   0.200   3.809  0.8097 -0.9904  0.6960
12028TIP3   OH236040   5.388   5.991   1.986 -0.3416  0.1958  0.0831
12028TIP3    H136041   5.439   6.048   2.044 -0.7412  2.0429 -1.3100
12028TIP3    H236042   5.369   6.045   1.910 -3.6018 -0.6978  0.1260
12029TIP3   OH236043   0.164   4.314   3.502  0.0143  0.0165 -0.4044
12029TIP3    H136044   0.245   4.264   3.495  0.2172  0.4048 -0.8454
12029TIP3    H236045   0.097   4.256   3.467 -0.0560 -0.6624  0.8030
12030TIP3   OH236046   7.443   0.207   2.478  0.0165  0.3588 -0.3794
12030TIP3    H136047   7.492   0.273   2.527  0.4121 -0.4918  0.4086
12030TIP3    H236048   7.362   0.195   2.527 -0.6828  1.2394 -1.2843
12031TIP3   OH236049   4.265   4.911   5.288  0.4300 -0.7082  0.2116
12031TIP3    H136050   4.275   4.861   5.369 -0.2979 -0.0556  0.7315
12031TIP3    H236051   4.259   5.002   5.318  0.2484 -0.4554 -0.5864
12032TIP3   OH236052   7.875   5.776   0.744 -0.3773 -0.3052  0.1400
12032TIP3    H136053   7.936   5.750   0.675  1.4552  0.7434  1.2934
12032TIP3    H236054   7.907   5.730   0.822  0.3069  1.9161  1.2423
12033TIP3   OH236055   3.178   7.674   0.992  0.1529 -0.6685 -0.1965
12033TIP3    H136056   3.097   7.651   1.038 -1.2643 -0.0083 -2.2189
12033TIP3    H236057   3.156   7.754   0.944  2.5028  0.4066  0.3789
12034TIP3   OH236058   0.130   7.077   6.518 -0.1841 -0.1921  0.0125
12034TIP3    H136059   0.041   7.104   6.541 -0.6266 -1.0726 -0.6132
12034TIP3    H236060   0.145   6.997   6.568 -0.2817 -0.8217 -0.9347
12035TIP3   OH236061   4.118   4.962   1.587 -0.2656 -0.4212  0.4470
12035TIP3    H136062   4.027   4.935   1.580 -0.4242  0.5337 -2.2078
12035TIP3    H236063   4.169   4.884   1.566 -0.4952 -0.5655  0.4341
12036TIP3   OH236064   6.885   1.889   3.057 -0.3611  0.7896  0.1011
12036TIP3    H136065   6.845   1.933   3.132 -2.3370  0.7202 -0.8532
12036TIP3    H236066   6.819   1.895   2.988 -0.2746 -2.6928 -0.4333
12037TIP3   OH236067   1.249   4.271   1.173  0.1996  0.3971  0.5994
12037TIP3    H136068   1.320   4.213   1.144 -2.0651 -1.0196 -2.7280
12037TIP3    H236069   1.192   4.214   1.225 -1.3791 -0.2060 -1.6337
12038TIP3   OH236070   2.562   0.657   4.798 -0.5374  0.4526  0.3615
12038TIP3    H136071   2.622   0.691   4.865 -0.8072 -0.2482  0.9645
12038TIP3    H236072   2.600   0.687   4.716  0.2986  0.5631  0.7735
12039TIP3   OH236073   4.931   6.017   0.463 -0.1987  0.0295  0.0748
12039TIP3    H136074   5.000   6.070   0.505 -0.7410  0.4975  0.3848
12039TIP3    H236075   4.875   5.989   0.535 -1.8238  1.8195 -0.4129
12040TIP3   OH236076   2.573   5.515   0.259  0.4114 -0.6005 -0.2917
12040TIP3    H136077   2.628   5.444   0.292 -0.5060 -1.2612 -0.1476
12040TIP3    H236078   2.487   5.475   0.249 -0.4429  0.8166  1.0420
12041TIP3   OH236079   3.216   1.026   6.300  0.1869  0.1030  0.2780
12041TIP3    H136080   3.274   1.044   6.374  2.5339 -0.4622 -1.3339
12041TIP3    H236081   3.245   0.942   6.266  0.2450  1.0438 -2.2145
12042TIP3   OH236082   8.198   4.751   1.281  0.0290 -0.7953 -0.3645
12042TIP3    H136083   8.146   4.671   1.275  1.4274 -1.8036  0.3241
12042TIP3    H236084   8.249   4.740   1.361  0.2197  0.8162 -0.2457
12043TIP3   OH236085   5.162   7.559   5.319 -0.0826 -0.1834 -0.6243
12043TIP3    H136086   5.160   7.475   5.365 -2.5795 -1.7520 -3.2427
12043TIP3    H236087   5.126   7.621   5.382  0.4110 -1.3381  0.8819
12044TIP3   OH236088   4.131   0.894   1.116 -0.2740  0.1673  0.3854
12044TIP3    H136089   4.075   0.972   1.112 -0.3131  0.2066  1.4202
12044TIP3    H236090   4.199   0.911   1.051 -1.8576 -0.2302 -1.4709
12045TIP3   OH236091   6.502   1.474   6.279 -0.0955  0.0748  0.3856
12045TIP3    H136092   6.434   1.525   6.235 -0.3677 -0.2214  0.4560
12045TIP3    H236093   6.560   1.447   6.209 -0.5509 -0.4308  0.1959
12046TIP3   OH236094   4.379   2.155   5.751  0.0868  0.1863 -0.2626
12046TIP3    H136095   4.364   2.153   5.657 -1.5739 -0.1561 -0.0141
12046TIP3    H236096   4.360   2.245   5.777  1.7084  0.6054 -0.3930
12047TIP3   OH236097   5.224   4.996   2.447  0.0072  0.0072 -0.2231
12047TIP3    H136098   5.153   5.055   2.425 -0.8253 -1.2597 -1.0934
12047TIP3    H236099   5.193   4.948   2.524  0.1719 -0.1384 -0.2465
12048TIP3   OH236100   5.609   4.363   3.600  0.1235  0.3788 -0.1486
12048TIP3    H136101   5.657   4.407   3.530 -0.5224  0.4362 -0.5538
12048TIP3    H236102   5.519   4.394   3.592  0.4551  2.2423  2.1722
12049TIP3   OH236103   6.815   6.451   1.081 -0.3031 -0.4756  0.0425
12049TIP3    H136104   6.777   6.393   1.147  0.1101  0.3569  1.0392
12049TIP3    H236105   6.902   6.415   1.065  0.1769  0.1771  1.0911
12050TIP3   OH236106   1.717   6.622   4.607  0.3802 -0.4765  0.3280
12050TIP3    H136107   1.660   6.663   4.543  0.1807 -1.3157 -0.0399
12050TIP3    H236108   1.803   6.663   4.593 -0.1774  1.0862  1.1537
12051TIP3   OH236109   1.027   0.824   3.482  0.0427 -0.4697 -0.2078
12051TIP3    H136110   1.083   0.898   3.457 -1.4854  1.1947  1.0243
12051TIP3    H236111   1.077   0.778   3.550  0.2936  0.5410  0.3219
12052TIP3   OH236112   4.646   3.377   0.984 -0.0379 -0.2634  0.0737
12052TIP3    H136113   4.606   3.440   0.924  1.6255  1.4244  0.6875
12052TIP3    H236114   4.581   3.366   1.054 -0.3207  0.8157 -0.0065
12053TIP3   OH236115   0.981   1.901   2.687 -0.4975  0.3381 -0.2091
12053TIP3    H136116   1.070   1.913   2.720 -0.4015 -0.2074 -0.2631
12053TIP3    H236117   0.973   1.965   2.616  0.4053 -0.6930 -1.2753
12054TIP3   OH236118   5.433   4.542   5.199 -0.6352  0.8050  0.4475
12054TIP3    H136119   5.463   4.546   5.290 -0.2388  1.5312  0.2865
12054TIP3    H236120   5.339   4.528   5.206 -0.2249 -2.4117  0.9660
12055TIP3   OH236121   2.160   4.872   6.525  0.1582 -0.1606  0.1898
12055TIP3    H136122   2.254   4.856   6.533 -0.0195 -0.9840  0.8335
12055TIP3    H236123   2.136   4.913   6.608 -0.2890 -1.2560  0.6160
12056TIP3   OH236124   2.582   4.563   0.111 -0.0729  0.5679  0.5259
12056TIP3    H136125   2.573   4.543   0.204  2.1463  0.1511  0.7153
12056TIP3    H236126   2.625   4.486   0.074 -1.5526  0.4297 -1.0122
12057TIP3   OH236127   0.429   1.708   1.393 -0.1045  0.6753 -0.1726
12057TIP3    H136128   0.474   1.671   1.468 -0.0939  0.8579 -0.0887
12057TIP3    H236129   0.402   1.632   1.341 -0.9667  0.5031  0.5051
12058TIP3   OH236130   1.660   5.626   0.982  0.1425  0.1019  0.3296
12058TIP3    H136131   1.674   5.610   0.889  3.4923 -1.2643  0.9314
12058TIP3    H236132   1.748   5.640   1.018 -1.0519  0.8658  3.2631
12059TIP3   OH236133   6.086   3.907   4.505  0.2268 -0.8096 -0.2494
12059TIP3    H136134   6.173   3.936   4.478  0.3035 -0.2377  0.5716
12059TIP3    H236135   6.099   3.820   4.542  0.8357  0.1389  1.8968
12060TIP3   OH236136   0.677   2.932   0.245 -1.0099 -1.4184 -0.2772
12060TIP3    H136137   0.649   2.855   0.195 -0.2807 -1.2350 -0.9848
12060TIP3    H236138   0.767   2.949   0.215 -1.7522  0.7956 -1.5108
12061TIP3   OH236139   6.080   4.850   1.430 -0.0857  0.2893 -0.4198
12061TIP3    H136140   6.037   4.765   1.436 -0.8404  0.6959  0.1970
12061TIP3    H236141   6.037   4.903   1.497  1.8097  0.5471  0.6645
12062TIP3   OH236142   2.351   5.465   6.681  0.3457  0.4345  0.3869
12062TIP3    H136143   2.417   5.514   6.730 -0.0477  2.0786 -0.6506
12062TIP3    H236144   2.278   5.527   6.672  0.1535 -0.0240 -1.7015
12063TIP3   OH236145   4.085   3.771   5.575 -0.7132  0.3437 -0.1045
12063TIP3    H136146   4.097   3.731   5.662  0.3651 -4.7915 -2.2247
12063TIP3    H236147   4.170   3.809   5.555  0.4946 -2.2311 -0.3568
12064TIP3   OH236148   4.895   1.753   1.871  0.4717 -0.3204 -0.0294
12064TIP3    H136149   4.828   1.684   1.871  0.6861 -0.5683  1.5899
12064TIP3    H236150   4.849   1.831   1.840 -0.4480 -0.6035  0.5927
12065TIP3   OH236151   3.903   2.665   2.551 -0.0326  0.3249  0.5270
12065TIP3    H136152   3.939   2.709   2.629  1.4090  1.4163 -0.6989
12065TIP3    H236153   3.879   2.578   2.583 -3.2850  1.9572  3.1186
12066TIP3   OH236154   6.821   6.253   2.779  0.3176  0.0632 -1.0929
12066TIP3    H136155   6.859   6.165   2.781 -0.7870 -0.4252  0.2453
12066TIP3    H236156   6.888   6.308   2.820 -0.9625 -1.1132  3.1015
12067TIP3   OH236157   0.909   1.182   4.317  0.0676 -0.3147  0.5082
12067TIP3    H136158   0.844   1.129   4.271 -1.3277  1.7858 -0.0916
12067TIP3    H236159   0.986   1.179   4.260 -0.0943 -1.3773  0.3163
12068TIP3   OH236160   7.199   5.532   2.906 -0.4516 -0.2828 -0.5473
12068TIP3    H136161   7.106   5.545   2.886 -0.0840  1.7861 -1.1482
12068TIP3    H236162   7.244   5.556   2.825  0.7074  0.9246  0.4134
12069TIP3   OH236163   4.538   6.855   4.408 -0.4919  0.2282 -0.0044
12069TIP3    H136164   4.469   6.921   4.404  0.4326  1.3882  1.6023
12069TIP3    H236165   4.598   6.888   4.476  1.2867 -1.0530 -0.8738
12070TIP3   OH236166   5.478   4.572   1.796 -0.5961  0.2697  0.3742
12070TIP3    H136167   5.501   4.655   1.753 -0.1725  0.9368  1.8184
12070TIP3    H236168   5.521   4.577   1.881 -0.4243 -1.5358  0.4141
12071TIP3   OH236169   6.985   7.619   6.300 -0.7428 -0.0354  0.2276
12071TIP3    H136170   6.909   7.625   6.359 -0.8894 -1.6149  0.2174
12071TIP3    H236171   6.948   7.594   6.216 -0.1941 -1.1433  0.3020
12072TIP3   OH236172   2.480   3.827   0.450 -0.0481  0.4417  0.4130
12072TIP3    H136173   2.511   3.913   0.420 -0.8786  0.9840  1.0697
12072TIP3    H236174   2.544   3.765   0.414  1.2193  1.4335  0.8637
12073TIP3   OH236175   2.221   7.413   6.498  0.1088  0.1909  0.0453
12073TIP3    H136176   2.255   7.324   6.513 -0.6477 -0.1811 -0.3957
12073TIP3    H236177   2.126   7.403   6.503 -0.0835  0.5738 -2.1307
12074TIP3   OH236178   0.438   5.724   2.813  0.2026 -0.2941  0.3992
12074TIP3    H136179   0.520   5.747   2.857  1.4618 -0.8562 -1.5303
12074TIP3    H236180   0.373   5.780   2.855  1.9673  1.8733  0.4733
12075TIP3   OH236181   2.240   5.058   5.244 -0.2650 -0.6591  0.6968
12075TIP3    H136182   2.302   5.024   5.309  1.2866 -0.3828 -0.5837
12075TIP3    H236183   2.163   5.081   5.295  0.4130 -1.6810  2.2547
12076TIP3   OH236184   3.040   3.964   6.608  0.6788  0.1020  0.5481
12076TIP3    H136185   2.959   4.010   6.629  1.8066  2.5640 -0.1934
12076TIP3    H236186   3.110   4.019   6.643  2.1209 -0.8740 -0.6595
12077TIP3   OH236187   5.172   7.825   0.849  0.0292  0.3882  0.1131
12077TIP3    H136188   5.123   7.819   0.768  2.6510  2.3468 -1.7884
12077TIP3    H236189   5.106   7.842   0.916 -2.0412  0.8195 -1.9091
12078TIP3   OH236190   4.857   2.095   0.950 -0.0147  0.1612  0.3599
12078TIP3    H136191   4.931   2.134   0.904  0.3049  0.2442  0.9308
12078TIP3    H236192   4.780   2.138   0.913  0.2027 -0.0411 -0.3560
12079TIP3   OH236193   6.869   0.191   1.964 -0.1449  0.1171  0.2012
12079TIP3    H136194   6.868   0.157   2.053  0.0792 -1.3744 -0.3320
12079TIP3    H236195   6.874   0.112   1.908 -2.2786  0.8853 -1.1972
12080TIP3   OH236196   5.197   7.074   1.878  0.6780  0.0643  0.1751
12080TIP3    H136197   5.127   7.132   1.910  1.7796  1.2711  0.5000
12080TIP3    H236198   5.217   7.107   1.790 -2.0361 -2.9553 -1.8071
12081TIP3   OH236199   0.832   4.557   4.447  0.6472  0.3618  0.2562
12081TIP3    H136200   0.750   4.540   4.400  0.4720  1.0563  0.2985
12081TIP3    H236201   0.842   4.652   4.442  1.2448  0.3158  0.6016
12082TIP3   OH236202   4.830   7.761   4.417  0.0554  0.5068 -0.0297
12082TIP3    H136203   4.858   7.753   4.326 -0.4518  0.0931 -0.1512
12082TIP3    H236204   4.890   7.826   4.454  0.2944  0.6496 -0.6444
12083TIP3   OH236205   2.413   4.498   4.527  0.1757  0.4788 -0.2882
12083TIP3    H136206   2.317   4.498   4.529  0.1473  2.3372 -0.4294
12083TIP3    H236207   2.439   4.492   4.619 -0.1585  3.0658  0.0476
12084TIP3   OH236208   6.677   5.822   4.660  0.0177  0.1822  0.1890
12084TIP3    H136209   6.622   5.878   4.714 -0.5055 -0.1543  0.0126
12084TIP3    H236210   6.765   5.835   4.694 -0.1717  0.6982  0.4994
12085TIP3   OH236211   0.779   7.780   5.850  0.0156 -0.1365 -0.0684
12085TIP3    H136212   0.803   7.749   5.937  1.6083 -0.7958 -0.7100
12085TIP3    H236213   0.857   7.823   5.816 -1.0217  1.4093 -0.6414
12086TIP3   OH236214   4.385   2.911   1.232  0.0432  0.0497 -0.2950
12086TIP3    H136215   4.362   2.850   1.163  2.3723 -0.0279 -1.0623
12086TIP3    H236216   4.437   2.860   1.294 -0.5297  0.5455  0.6164
12087TIP3   OH236217   1.561   7.371   5.914 -0.1869 -0.3860 -0.3631
12087TIP3    H136218   1.601   7.450   5.876  0.1766 -0.7920 -0.8449
12087TIP3    H236219   1.597   7.299   5.862  1.8899 -1.1635  1.9721
12088TIP3   OH236220   3.897   5.665   2.465  0.1897 -0.2294  0.5149
12088TIP3    H136221   3.808   5.635   2.446  0.3492 -0.6376  0.4041
12088TIP3    H236222   3.885   5.742   2.519 -0.2324 -0.3405  0.5831
12089TIP3   OH236223   6.267   3.365   5.616 -0.2418 -0.0384 -0.1307
12089TIP3    H136224   6.244   3.349   5.708 -1.9097 -0.1888 -0.5359
12089TIP3    H236225   6.257   3.279   5.574 -1.3215  0.3886 -0.7867
12090TIP3   OH236226   3.280   2.334   1.796  0.3831 -0.3319  0.0628
12090TIP3    H136227   3.369   2.368   1.807 -0.3338  0.9761  2.5510
12090TIP3    H236228   3.271   2.267   1.864 -0.5360 -0.4616 -0.1724
12091TIP3   OH236229   7.764   5.828   4.530  0.1964  0.5814 -0.0409
12091TIP3    H136230   7.750   5.818   4.436  0.6280 -3.3545  0.1701
12091TIP3    H236231   7.852   5.793   4.545 -0.5523 -0.5317  2.0229
12092TIP3   OH236232   0.128   6.844   4.289  0.1224 -0.5602  0.2563
12092TIP3    H136233   0.162   6.756   4.272  0.0496 -0.1929 -2.1375
12092TIP3    H236234   0.091   6.872   4.205 -2.7122  0.5449  1.7473
12093TIP3   OH236235   2.327   4.060   4.229  0.2759 -0.1252  0.1851
12093TIP3    H136236   2.233   4.080   4.233  0.0897 -0.9581  0.1913
12093TIP3    H236237   2.368   4.125   4.287 -0.1551  0.9887 -0.7105
12094TIP3   OH236238   3.103   7.145   5.653 -0.1390  0.2866  0.4412
12094TIP3    H136239   3.051   7.087   5.598  0.1661  1.2359 -0.9107
12094TIP3    H236240   3.039   7.200   5.698 -0.3671  1.2868 -1.0256
12095TIP3   OH236241   4.306   2.515   6.318  0.4223  0.3588  0.5636
12095TIP3    H136242   4.393   2.475   6.304  0.8805  1.6487 -0.5448
12095TIP3    H236243   4.246   2.455   6.274  0.9361  0.1782  0.0824
12096TIP3   OH236244   3.671   2.673   4.783 -0.0015 -0.2005  0.3980
12096TIP3    H136245   3.592   2.618   4.783  0.5977 -1.0792  0.2781
12096TIP3    H236246   3.740   2.616   4.748  0.1047  1.4543 -2.3907
12097TIP3   OH236247   6.587   2.984   5.877  0.1624 -0.3511  0.2379
12097TIP3    H136248   6.652   3.012   5.812  1.5325 -0.6204  1.4446
12097TIP3    H236249   6.505   2.978   5.827  1.1625 -0.5962 -1.4652
12098TIP3   OH236250   5.709   0.112   3.673 -0.3220 -0.1356  0.7625
12098TIP3    H136251   5.668   0.077   3.594  0.0992 -0.5930  0.7379
12098TIP3    H236252   5.673   0.200   3.682 -0.4875 -0.1358  0.1494
12099TIP3   OH236253   6.463   7.116   2.388  0.2205 -0.5266  0.2772
12099TIP3    H136254   6.435   7.206   2.404 -0.8302 -0.5079 -1.4236
12099TIP3    H236255   6.552   7.124   2.353  0.6175 -0.2631  1.3102
12100TIP3   OH236256   4.284   5.355   6.644 -0.0335 -0.1609  0.1137
12100TIP3    H136257   4.267   5.287   6.709  2.4160 -1.6155 -0.6704
12100TIP3    H236258   4.236   5.328   6.566  0.4237 -0.6649  0.0051
12101TIP3   OH236259   0.851   4.390   0.796 -0.5168 -0.4744  0.0125
12101TIP3    H136260   0.869   4.479   0.827  0.4413 -1.5461  2.8881
12101TIP3    H236261   0.765   4.369   0.832 -1.0779 -0.5070 -1.2826
12102TIP3   OH236262   0.852   4.714   5.395 -0.3383  0.6419  0.1667
12102TIP3    H136263   0.832   4.621   5.384  0.8911  0.2403  1.0860
12102TIP3    H236264   0.820   4.736   5.483  2.6189  0.0934  1.4929
12103TIP3   OH236265   4.964   6.327   3.227 -0.4747  0.0122  0.3423
12103TIP3    H136266   4.936   6.272   3.154 -1.4157  0.0080  0.6836
12103TIP3    H236267   5.059   6.334   3.218 -0.4548 -0.9020 -0.2287
12104TIP3   OH236268   1.095   5.032   5.754  0.2786 -0.3336  0.0082
12104TIP3    H136269   1.181   4.989   5.757  0.4762  0.0635  0.1867
12104TIP3    H236270   1.035   4.970   5.794  0.5055 -0.5674 -0.0122
12105TIP3   OH236271   2.597   6.992   6.106 -0.6979 -0.4404 -0.1554
12105TIP3    H136272   2.531   7.031   6.162  0.5051  1.2732  0.1655
12105TIP3    H236273   2.643   6.929   6.162 -1.7681 -1.3453 -0.2728
12106TIP3   OH236274   3.449   6.472   1.901 -0.1570  0.2289  0.0474
12106TIP3    H136275   3.456   6.485   1.996 -1.2460 -0.4254  0.2396
12106TIP3    H236276   3.425   6.379   1.892  2.0777 -0.3104 -0.9766
12107TIP3   OH236277   8.251   0.916   4.796  0.0226  0.3711  0.5968
12107TIP3    H136278   8.294   0.858   4.734 -0.8616 -0.4930  0.7616
12107TIP3    H236279   8.321   0.946   4.854  0.2887 -1.9060  1.5833
12108TIP3   OH236280   7.586   5.832   6.387 -0.0008 -0.1591  0.0315
12108TIP3    H136281   7.624   5.744   6.381 -2.1890 -1.1133 -1.3722
12108TIP3    H236282   7.611   5.875   6.305 -0.1573 -0.0270  0.0521
12109TIP3   OH236283   4.315   6.175   1.595 -1.0529 -0.1328  0.0939
12109TIP3    H136284   4.290   6.084   1.613 -0.4937  0.0811  2.2280
12109TIP3    H236285   4.406   6.181   1.624 -0.3338  0.5968 -2.0823
12110TIP3   OH236286   3.049   6.003   4.794 -0.7976  0.2712 -0.0779
12110TIP3    H136287   2.996   5.930   4.826  0.0215 -0.4927 -0.4140
12110TIP3    H236288   3.049   5.992   4.699 -0.7596  0.7777 -0.1384
12111TIP3   OH236289   1.262   0.114   6.705 -0.2170  0.1725 -0.0562
12111TIP3    H136290   1.285   0.025   6.731 -0.1946  0.4469  0.8988
12111TIP3    H236291   1.271   0.114   6.610  0.2541 -0.7087 -0.0239
12112TIP3   OH236292   4.333   4.290   3.515  0.2790 -0.3829 -0.1029
12112TIP3    H136293   4.258   4.258   3.465 -0.7915  0.8731  0.6326
12112TIP3    H236294   4.398   4.312   3.449 -0.3627 -0.5825 -0.8181
12113TIP3   OH236295   1.436   5.899   3.243  0.1715  0.0351 -0.9692
12113TIP3    H136296   1.393   5.905   3.158  0.9270  1.3149 -1.2840
12113TIP3    H236297   1.493   5.976   3.247  0.3561 -0.1472  0.5805
12114TIP3   OH236298   7.730   7.718   3.143  0.1869  0.0971  0.7050
12114TIP3    H136299   7.747   7.813   3.146 -1.2626  0.3677  1.3320
12114TIP3    H236300   7.809   7.681   3.105  0.1503  1.7202 -1.1270
12115TIP3   OH236301   3.217   0.339   1.820  0.0309 -0.6803 -0.4893
12115TIP3    H136302   3.267   0.352   1.900 -0.0871  1.1172 -0.6737
12115TIP3    H236303   3.159   0.415   1.814  0.4025 -0.4832 -2.5206
12116TIP3   OH236304   6.817   2.478   0.643 -0.7415 -0.4627  0.0599
12116TIP3    H136305   6.778   2.398   0.678  0.8065 -0.5328  1.7816
12116TIP3    H236306   6.752   2.546   0.660 -1.4001 -1.0807  0.0429
12117TIP3   OH236307   7.449   3.080   0.797 -0.3951 -0.3535 -0.3575
12117TIP3    H136308   7.472   3.140   0.725  1.2841 -0.1071  0.3291
12117TIP3    H236309   7.496   3.115   0.872  0.7268 -2.5713  0.0584
12118TIP3   OH236310   7.322   4.805   3.848 -0.0733 -0.5904 -0.4025
12118TIP3    H136311   7.407   4.763   3.863 -0.2386 -0.2492  1.9014
12118TIP3    H236312   7.340   4.898   3.858 -1.0039 -0.6114  2.2414
12119TIP3   OH236313   2.281   6.779   0.490  0.1013  0.3299  0.0231
12119TIP3    H136314   2.281   6.872   0.511  1.1556  0.3380  0.0116
12119TIP3    H236315   2.321   6.737   0.566 -0.6914 -0.1550  0.1781
12120TIP3   OH236316   3.511   1.596   4.546 -0.1158 -0.5842  0.2759
12120TIP3    H136317   3.560   1.677   4.529  0.0125 -0.9298 -1.1517
12120TIP3    H236318   3.512   1.587   4.641  2.4296 -0.4372  0.3486
12121TIP3   OH236319   5.447   3.805   5.432  0.1387  0.1664  0.3137
12121TIP3    H136320   5.517   3.853   5.387 -0.0411  1.5045  1.3884
12121TIP3    H236321   5.422   3.736   5.370  0.1740  1.6683 -1.4710
12122TIP3   OH236322   4.726   7.193   3.601 -0.0105  0.2599 -0.2845
12122TIP3    H136323   4.800   7.192   3.663  0.4102 -1.7886 -0.7267
12122TIP3    H236324   4.661   7.249   3.642  1.6169  1.8146  0.3138
12123TIP3   OH236325   3.806   3.255   5.696  0.0249 -0.0820  0.2964
12123TIP3    H136326   3.800   3.260   5.791 -1.4788 -0.3841  0.2419
12123TIP3    H236327   3.898   3.233   5.679  0.0502 -1.3049  1.7403
12124TIP3   OH236328   5.740   5.500   0.493  0.1072  0.4846 -0.4290
12124TIP3    H136329   5.648   5.488   0.469 -0.0904  1.6300 -0.3171
12124TIP3    H236330   5.737   5.544   0.579  0.7451  0.7836 -0.5520
12125TIP3   OH236331   4.825   6.654   3.465 -0.0363  0.5286 -0.1465
12125TIP3    H136332   4.812   6.625   3.555  0.5196 -0.2116 -0.2930
12125TIP3    H236333   4.772   6.734   3.458 -1.8997 -0.6094  0.1751
12126TIP3   OH236334   5.884   5.740   1.973 -0.0234  0.4770  0.8962
12126TIP3    H136335   5.826   5.752   1.897 -0.1292  0.6807  1.0095
12126TIP3    H236336   5.967   5.778   1.945  0.1200 -0.0038  0.6557
12127TIP3   OH236337   2.014   4.530   0.280 -0.1803  0.1444  0.2999
12127TIP3    H136338   2.084   4.473   0.312 -0.1355 -1.2030 -1.9909
12127TIP3    H236339   2.060   4.597   0.229 -0.4855 -0.7646 -1.2403
12128TIP3   OH236340   4.856   3.785   3.213  0.2047  0.2868 -0.2988
12128TIP3    H136341   4.795   3.757   3.282  0.9346 -0.3529  0.1038
12128TIP3    H236342   4.913   3.709   3.200  0.4461  0.6179 -1.1925
12129TIP3   OH236343   0.445   6.334   0.122 -0.3773 -0.2798 -0.0627
12129TIP3    H136344   0.412   6.303   0.206  1.1101 -1.0798  0.2798
12129TIP3    H236345   0.539   6.344   0.137 -0.0808 -0.5051 -1.6421
12130TIP3   OH236346   6.379   3.560   2.518 -0.0948  0.1635 -0.2122
12130TIP3    H136347   6.354   3.625   2.584  0.9944  0.8907 -0.4947
12130TIP3    H236348   6.311   3.568   2.450 -0.7810 -0.0347  0.4312
12131TIP3   OH236349   2.574   6.895   0.878  0.2255 -0.3026 -0.2131
12131TIP3    H136350   2.579   6.874   0.972  1.2105 -0.2396 -0.2357
12131TIP3    H236351   2.645   6.843   0.839  1.6294  1.7512 -0.5152
12132TIP3   OH236352   8.024   6.024   2.421  0.2328 -0.0784  0.5673
12132TIP3    H136353   8.101   6.027   2.478 -1.0431 -1.1142  2.4848
12132TIP3    H236354   8.003   5.930   2.413 -0.2105  0.1131 -0.8241
12133TIP3   OH236355   2.648   1.713   5.139 -0.3316 -0.2022  0.3234
12133TIP3    H136356   2.711   1.694   5.208 -1.2467 -1.0339  0.9543
12133TIP3    H236357   2.677   1.797   5.103 -0.5967  0.9815  2.6382
12134TIP3   OH236358   2.736   7.731   3.568 -0.8289  0.0604  0.1595
12134TIP3    H136359   2.659   7.750   3.622 -1.8999 -0.6337 -1.0662
12134TIP3    H236360   2.701   7.723   3.479  0.7254  0.0651 -0.4783
12135TIP3   OH236361   0.571   1.674   0.216 -0.3485 -0.1506  0.4384
12135TIP3    H136362   0.611   1.599   0.173  1.4444  0.1998  1.4087
12135TIP3    H236363   0.627   1.748   0.194 -1.1594  0.6017  0.8328
12136TIP3   OH236364   4.069   1.027   0.769 -0.5030 -0.0312  0.1215
12136TIP3    H136365   4.076   1.112   0.727 -1.1454  0.0439  0.1572
12136TIP3    H236366   4.149   1.018   0.820 -0.4458  0.5640  0.1385
12137TIP3   OH236367   7.055   6.581   6.698  0.0122  0.0397  0.5126
12137TIP3    H136368   7.052   6.618   6.610  1.6403  0.6442  0.6877
12137TIP3    H236369   6.963   6.576   6.725 -0.5448 -0.5060 -1.3411
12138TIP3   OH236370   0.338   5.929   0.710  0.1203 -0.0590 -0.2401
12138TIP3    H136371   0.390   5.952   0.787  1.4082 -1.2171 -0.7327
12138TIP3    H236372   0.293   6.010   0.688  1.1385  0.7946  0.6561
12139TIP3   OH236373   7.512   6.632   2.799  0.1110  0.3619 -0.0377
12139TIP3    H136374   7.459   6.600   2.726 -0.6089  0.2621  0.5224
12139TIP3    H236375   7.503   6.565   2.867 -1.7431  1.8543  1.3081
12140TIP3   OH236376   2.210   1.024   2.338  0.0714  0.6815 -0.5876
12140TIP3    H136377   2.229   0.993   2.426  2.0814 -1.3127 -1.6088
12140TIP3    H236378   2.256   1.107   2.331  0.3579  0.5819  0.0840
12141TIP3   OH236379   1.658   2.790   0.220  0.4544  0.6607  0.2577
12141TIP3    H136380   1.687   2.861   0.277  0.3909  1.5607 -0.7815
12141TIP3    H236381   1.578   2.758   0.260  2.0128 -0.8868  2.3825
12142TIP3   OH236382   5.287   6.019   3.750  0.4249  0.1194  0.3959
12142TIP3    H136383   5.255   6.051   3.834 -0.8057 -0.9853  0.3882
12142TIP3    H236384   5.245   6.075   3.685  0.9635  0.6344  0.4771
12143TIP3   OH236385   2.566   3.699   0.036 -0.2585 -0.7641  0.2100
12143TIP3    H136386   2.639   3.640   0.016  0.3400  0.0293 -0.0363
12143TIP3    H236387   2.571   3.766  -0.033 -0.8509 -0.3747  0.5427
12144TIP3   OH236388   3.977   1.740   5.369  0.9889  0.5615  0.1399
12144TIP3    H136389   3.893   1.727   5.326  1.3406 -1.1060 -0.0892
12144TIP3    H236390   4.042   1.727   5.300  1.4912  0.0991  0.6924
12145TIP3   OH236391   5.442   3.033   6.576  0.2504 -0.1149 -0.2654
12145TIP3    H136392   5.447   3.129   6.583  2.4332 -0.2665  1.6411
12145TIP3    H236393   5.532   3.004   6.590 -0.6684 -2.5351  1.3310
12146TIP3   OH236394   5.713   0.743   4.691 -0.3216 -0.5261 -0.6886
12146TIP3    H136395   5.742   0.669   4.637 -0.5084 -0.7293 -0.5133
12146TIP3    H236396   5.635   0.710   4.736  0.3540 -0.6765  0.4129
12147TIP3   OH236397   2.601   2.196   3.239 -0.0650 -0.3937  0.6836
12147TIP3    H136398   2.670   2.209   3.174 -1.1803 -0.9161 -0.6794
12147TIP3    H236399   2.646   2.193   3.323  1.7247 -1.9538 -0.2568
12148TIP3   OH236400   6.769   1.799   5.502 -0.1183  0.3410  0.0264
12148TIP3    H136401   6.759   1.716   5.456  0.6400 -0.0986  0.6410
12148TIP3    H236402   6.839   1.844   5.454  0.0112  0.2963  0.1763
12149TIP3   OH236403   1.528   5.356   5.791  0.2219  0.6215 -0.2679
12149TIP3    H136404   1.527   5.416   5.866  0.6284  0.8592 -0.4496
12149TIP3    H236405   1.518   5.269   5.829  1.6234  0.6277  0.1729
12150TIP3   OH236406   4.412   2.043   5.479  0.4977 -0.1873 -0.0954
12150TIP3    H136407   4.371   1.960   5.453  2.0398 -1.0364  0.0050
12150TIP3    H236408   4.498   2.017   5.513  1.1328  1.4908 -0.3215
12151TIP3   OH236409   6.401   3.477   5.316  0.5664 -0.4721 -0.0808
12151TIP3    H136410   6.330   3.414   5.308  0.3425 -0.2833  0.3551
12151TIP3    H236411   6.356   3.561   5.328  0.8125  0.0501 -2.3070
12152TIP3   OH236412   3.076   3.519   4.379  0.4151  0.3074  0.2424
12152TIP3    H136413   2.989   3.554   4.398  0.8082  2.0488 -0.9567
12152TIP3    H236414   3.093   3.545   4.289  1.2328 -2.0639 -0.3632
12153TIP3   OH236415   6.905   5.717   3.609  0.6467 -0.4738 -0.1450
12153TIP3    H136416   6.995   5.749   3.620  0.2658  0.2329  1.1348
12153TIP3    H236417   6.875   5.701   3.698 -0.7470  0.0101 -0.5121
12154TIP3   OH236418   5.269   2.031   3.350  0.3617 -0.0233  0.5273
12154TIP3    H136419   5.202   1.964   3.366 -0.3689  0.6846  0.4998
12154TIP3    H236420   5.351   1.989   3.375 -0.3271 -0.1782  2.7144
12155TIP3   OH236421   8.158   2.381   1.139 -0.0170  0.1192 -0.2475
12155TIP3    H136422   8.160   2.286   1.125 -1.5560  0.0496 -0.1148
12155TIP3    H236423   8.247   2.410   1.118  0.2520 -1.2348 -1.0836
12156TIP3   OH236424   4.100   0.841   1.495 -0.0233 -0.3157 -0.1773
12156TIP3    H136425   4.134   0.754   1.474  1.2678  0.1942 -0.3313
12156TIP3    H236426   4.025   0.825   1.552  0.5663 -1.5164  0.2920
12157TIP3   OH236427   7.553   7.100   3.388 -0.0695  0.1501 -0.1352
12157TIP3    H136428   7.487   7.094   3.319  1.1491  0.6291 -1.4194
12157TIP3    H236429   7.553   7.014   3.429  0.1104 -0.6285 -1.6805
12158TIP3   OH236430   5.263   7.151   5.178  0.4936 -0.3783  0.6897
12158TIP3    H136431   5.195   7.204   5.220 -1.2345 -1.2470 -0.8537
12158TIP3    H236432   5.259   7.067   5.224 -1.0611 -1.1625 -0.7438
12159TIP3   OH236433   6.825   3.125   3.197  0.0670 -0.0186  0.3350
12159TIP3    H136434   6.795   3.176   3.122  0.3385  1.0327  0.9225
12159TIP3    H236435   6.745   3.088   3.234 -0.0104 -1.1013 -0.8385
12160TIP3   OH236436   5.017   1.191   2.777 -0.1105 -0.2690  0.3092
12160TIP3    H136437   4.926   1.222   2.776 -0.5730 -1.4940 -1.5194
12160TIP3    H236438   5.010   1.096   2.771  1.2887 -0.3351 -0.8563
12161TIP3   OH236439   5.555   1.327   3.422  0.2317  0.3722  0.3101
12161TIP3    H136440   5.544   1.339   3.328 -0.5810  1.9403  0.5899
12161TIP3    H236441   5.586   1.411   3.455 -0.0554  0.0270  1.5417
12162TIP3   OH236442   7.408   0.845   1.916 -0.3167  0.3094  0.0711
12162TIP3    H136443   7.426   0.936   1.939  0.8959 -0.1980  1.3434
12162TIP3    H236444   7.422   0.797   1.998 -1.1100 -0.9955 -0.5316
12163TIP3   OH236445   1.035   3.304   1.502 -0.3917 -0.6925 -0.2482
12163TIP3    H136446   1.100   3.251   1.550  0.5652  1.2226  0.6733
12163TIP3    H236447   0.967   3.322   1.567 -0.6087 -0.6250 -0.4951
12164TIP3   OH236448   2.223   2.941   5.126 -0.3256  0.0270 -0.3514
12164TIP3    H136449   2.294   2.893   5.086 -2.6722 -3.7729 -0.4296
12164TIP3    H236450   2.234   2.926   5.220 -1.1987 -0.9796 -0.3903
12165TIP3   OH236451   1.064   6.376   1.986  0.4659  0.6754 -0.5605
12165TIP3    H136452   1.105   6.300   1.946  2.5811 -0.4495  3.2156
12165TIP3    H236453   1.134   6.441   1.991  0.4263  0.6287  1.4382
12166TIP3   OH236454   1.062   0.724   0.390 -0.1729 -0.0338  0.2028
12166TIP3    H136455   1.072   0.681   0.305  0.7263 -2.8443  1.6012
12166TIP3    H236456   0.983   0.777   0.381  0.5793  0.7361 -2.7140
12167TIP3   OH236457   0.226   0.616   4.351 -0.1667 -0.5141 -0.6333
12167TIP3    H136458   0.175   0.615   4.432  1.0801 -2.4094  0.2093
12167TIP3    H236459   0.276   0.698   4.355 -0.3891 -0.4099  0.3555
12168TIP3   OH236460   3.364   3.144   3.178 -0.0968  0.1595  0.0989
12168TIP3    H136461   3.365   3.160   3.272  0.9056 -0.4948  0.2246
12168TIP3    H236462   3.289   3.087   3.164 -2.9797  3.6918 -0.1882
12169TIP3   OH236463   6.989   5.598   2.356  0.6366  0.4473 -0.3808
12169TIP3    H136464   7.083   5.582   2.343  0.2204 -1.8969 -1.0938
12169TIP3    H236465   6.967   5.548   2.435 -0.3969 -1.0885 -1.5638
12170TIP3   OH236466   5.328   7.388   3.725  0.1155 -0.0413 -0.0972
12170TIP3    H136467   5.243   7.424   3.700 -0.7964 -1.9698  0.0384
12170TIP3    H236468   5.359   7.344   3.646  0.3785 -0.4258  0.2204
12171TIP3   OH236469   1.376   4.583   2.148 -0.0632 -0.2409 -0.1353
12171TIP3    H136470   1.357   4.500   2.190 -2.8830  0.8248  0.9300
12171TIP3    H236471   1.458   4.568   2.100 -0.4448 -3.5524  0.0517
12172TIP3   OH236472   2.700   5.502   6.499 -0.1240 -0.4101  0.3428
12172TIP3    H136473   2.738   5.431   6.446  1.5396 -0.3732  1.4060
12172TIP3    H236474   2.706   5.470   6.589  1.7024  1.4536  0.9693
12173TIP3   OH236475   3.079   0.702   2.233 -0.5972 -0.2836 -0.1420
12173TIP3    H136476   3.150   0.734   2.177 -1.3304  1.4153 -0.1529
12173TIP3    H236477   3.109   0.616   2.263  0.9932 -0.0508 -0.9697
12174TIP3   OH236478   1.755   0.111   2.547  0.1837 -0.1021 -0.2367
12174TIP3    H136479   1.749   0.185   2.608  2.1487  1.3033 -1.6021
12174TIP3    H236480   1.682   0.123   2.487  0.9505  1.2730 -0.9407
12175TIP3   OH236481   5.603   3.463   4.474  0.2800 -0.1120 -0.1356
12175TIP3    H136482   5.539   3.408   4.428  1.0664 -1.2870  0.1217
12175TIP3    H236483   5.685   3.414   4.469  0.5142 -0.0659  2.1043
12176TIP3   OH236484   7.169   4.254   3.420 -0.3123 -0.7237 -0.4994
12176TIP3    H136485   7.233   4.319   3.390 -0.9874  0.0799 -0.2362
12176TIP3    H236486   7.106   4.248   3.349 -0.6370 -0.5664 -0.2261
12177TIP3   OH236487   1.216   3.128   1.687 -0.2915 -0.0955 -0.3549
12177TIP3    H136488   1.231   3.126   1.782  0.1704 -1.1195 -0.4339
12177TIP3    H236489   1.255   3.047   1.655 -1.3357 -0.2522 -1.2954
12178TIP3   OH236490   3.567   6.428   6.431  0.4966 -0.0680 -0.0408
12178TIP3    H136491   3.587   6.338   6.406  1.1636 -0.5430  2.0073
12178TIP3    H236492   3.644   6.478   6.404  0.8912 -0.4371  0.3717
12179TIP3   OH236493   0.800   4.168   2.926 -0.0836  0.1824  0.2993
12179TIP3    H136494   0.734   4.103   2.900 -0.9473  1.2704 -0.3101
12179TIP3    H236495   0.867   4.162   2.859 -0.5592  0.4771 -0.2114
12180TIP3   OH236496   7.077   0.624   1.038  0.5809  0.1823  0.2228
12180TIP3    H136497   6.995   0.575   1.045  0.0568  0.8529 -0.9171
12180TIP3    H236498   7.099   0.620   0.945  0.2936  2.4492  0.0026
12181TIP3   OH236499   4.780   4.730   5.257  0.1458 -0.1596 -0.3802
12181TIP3    H136500   4.708   4.758   5.313  0.1713  0.4174 -0.6263
12181TIP3    H236501   4.820   4.812   5.227  1.8456 -0.4394  0.9548
12182TIP3   OH236502   1.310   6.565   1.073 -0.7208 -0.5308 -0.0021
12182TIP3    H136503   1.239   6.603   1.021 -0.0169 -0.3947 -0.8727
12182TIP3    H236504   1.390   6.597   1.032 -0.1314 -0.0623  1.4128
12183TIP3   OH236505   7.741   1.627   6.246 -0.6553 -0.5479  0.3738
12183TIP3    H136506   7.763   1.594   6.334  0.0227 -1.3877 -0.0983
12183TIP3    H236507   7.761   1.554   6.187 -0.0590  0.3776 -0.5980
12184TIP3   OH236508   7.767   3.311   2.882  0.2102  0.1232  1.0481
12184TIP3    H136509   7.689   3.299   2.828 -0.3540  0.1758  1.8297
12184TIP3    H236510   7.838   3.271   2.832 -0.5871 -1.3215  1.0246
12185TIP3   OH236511   8.016   2.085   0.274 -0.1251  0.2387  0.2976
12185TIP3    H136512   7.998   2.046   0.360  0.5226  1.2916  0.9360
12185TIP3    H236513   7.932   2.118   0.244  0.0221  1.9113  1.6001
12186TIP3   OH236514   6.805   0.791   3.876 -0.4831  0.2915 -0.6306
12186TIP3    H136515   6.723   0.819   3.836 -0.5207  0.4705 -0.4341
12186TIP3    H236516   6.852   0.745   3.807 -1.9450 -2.3231 -0.0197
12187TIP3   OH236517   7.447   3.017   2.832 -0.6621 -0.4360 -0.3386
12187TIP3    H136518   7.352   3.016   2.841 -0.7451  1.7451 -0.3418
12187TIP3    H236519   7.479   3.054   2.914 -0.0481  1.3784 -1.3384
12188TIP3   OH236520   8.060   3.854   0.414 -0.2260 -0.1199  0.1453
12188TIP3    H136521   8.100   3.857   0.501  1.0634  2.2152 -0.4365
12188TIP3    H236522   8.118   3.799   0.362 -0.1499 -0.2581  0.3767
12189TIP3   OH236523   2.772   3.565   0.983  0.2319 -0.5785 -0.0500
12189TIP3    H136524   2.812   3.643   0.945  1.9461 -1.9925 -1.3654
12189TIP3    H236525   2.830   3.493   0.957 -0.3935 -2.1271  2.4326
12190TIP3   OH236526   6.596   2.705   6.419 -0.0576  0.5638 -0.2579
12190TIP3    H136527   6.532   2.774   6.438 -0.6292 -0.1735  0.6175
12190TIP3    H236528   6.619   2.718   6.327 -0.2443  1.8370 -0.1433
12191TIP3   OH236529   6.449   5.942   1.193  0.0226  0.4973 -0.0991
12191TIP3    H136530   6.446   6.030   1.229 -1.7944  0.1616  0.6476
12191TIP3    H236531   6.533   5.907   1.222  0.1704  1.5122  0.7274
12192TIP3   OH236532   4.656   1.105   2.713  0.5457 -0.3749  0.1484
12192TIP3    H136533   4.694   1.185   2.749  1.4768 -0.1954 -1.1920
12192TIP3    H236534   4.657   1.118   2.618  0.6516 -1.9379 -0.0889
12193TIP3   OH236535   3.815   3.022   0.427 -0.2668  0.0508 -0.5168
12193TIP3    H136536   3.724   3.004   0.406 -0.4234 -0.7008  0.7105
12193TIP3    H236537   3.811   3.100   0.483 -0.3194 -0.8769  0.8124
12194TIP3   OH236538   6.353   0.279   5.878  0.2008 -0.5429 -0.2046
12194TIP3    H136539   6.445   0.274   5.851  0.9445 -0.2101  2.0485
12194TIP3    H236540   6.326   0.368   5.853  0.5383 -0.5654 -0.6701
12195TIP3   OH236541   0.348   2.974   4.199 -0.6528  0.2618  0.4117
12195TIP3    H136542   0.303   2.912   4.141  0.2338  0.3139 -0.3618
12195TIP3    H236543   0.348   2.931   4.284 -0.1782 -0.7502 -0.0766
12196TIP3   OH236544   1.204   7.014   0.621  0.4157  0.0350  0.5616
12196TIP3    H136545   1.232   7.001   0.530 -0.9474 -0.3507  0.1715
12196TIP3    H236546   1.135   7.080   0.616  1.7265  1.5546  1.5925
12197TIP3   OH236547   1.831   2.323   0.298  0.5580  0.0273 -0.0812
12197TIP3    H136548   1.827   2.295   0.389  0.6834 -0.2432 -0.1569
12197TIP3    H236549   1.920   2.300   0.270  0.3427 -0.3823 -0.4295
12198TIP3   OH236550   0.800   2.749   3.856 -0.6649 -0.2403  0.1256
12198TIP3    H136551   0.784   2.655   3.867 -1.9330  0.1770  2.2581
12198TIP3    H236552   0.867   2.770   3.921 -1.6404  0.6165  0.8951
12199TIP3   OH236553   5.040   1.819   2.637  0.1751  0.4512  0.2033
12199TIP3    H136554   5.113   1.838   2.696 -0.0377  1.4094  0.1856
12199TIP3    H236555   4.966   1.866   2.676  0.2856  2.0960 -1.4266
12200TIP3   OH236556   3.926   5.449   3.426 -1.1351  0.1926  0.3645
12200TIP3    H136557   3.851   5.449   3.486 -2.0782  0.4895 -0.7843
12200TIP3    H236558   3.916   5.530   3.376 -0.7567 -0.3982 -0.6808
12201TIP3   OH236559   2.006   6.000   5.982 -0.5885 -0.3038 -0.0327
12201TIP3    H136560   2.079   5.961   5.934  0.1114  0.2974  0.5154
12201TIP3    H236561   1.984   6.080   5.934  0.0794  0.2716  0.5872
12202TIP3   OH236562   7.613   5.253   3.248  0.1216 -0.3748 -0.5166
12202TIP3    H136563   7.640   5.324   3.306 -2.1660  1.0156 -1.0416
12202TIP3    H236564   7.587   5.297   3.167 -2.6005 -1.6173 -0.4129
12203TIP3   OH236565   4.952   2.485   3.402 -0.6226 -0.1336  0.0450
12203TIP3    H136566   4.957   2.482   3.497 -0.4679 -1.4436  0.0144
12203TIP3    H236567   5.035   2.524   3.375  0.2503 -1.6501  0.3919
12204TIP3   OH236568   5.417   1.994   0.645 -0.3064  0.8067 -0.1899
12204TIP3    H136569   5.405   1.899   0.632 -0.0912  0.8580 -0.7947
12204TIP3    H236570   5.329   2.026   0.663 -0.6356  0.7163 -1.5383
12205TIP3   OH236571   2.608   5.874   1.579 -0.3076 -0.1340  0.4537
12205TIP3    H136572   2.556   5.952   1.596 -1.3315 -0.8117  0.5366
12205TIP3    H236573   2.643   5.887   1.491 -0.3882  0.4560  0.5075
12206TIP3   OH236574   3.582   1.091   3.649  0.2419  0.0008  0.3087
12206TIP3    H136575   3.507   1.116   3.594 -0.4381  0.5483  1.4632
12206TIP3    H236576   3.608   1.172   3.693 -0.0514 -0.6746  1.7822
12207TIP3   OH236577   0.003   4.401   6.167 -0.2561 -0.1190 -0.3615
12207TIP3    H136578   0.082   4.442   6.132 -0.0664  0.2989  0.5175
12207TIP3    H236579  -0.060   4.402   6.095  0.4798 -0.2899 -1.0151
12208TIP3   OH236580   1.097   5.114   0.032  0.4171 -0.3786  0.1745
12208TIP3    H136581   1.091   5.105   0.127  0.9485  0.8567  0.3524
12208TIP3    H236582   1.187   5.142   0.016  0.0613  0.4146 -0.5911
12209TIP3   OH236583   3.795   5.495   3.702 -0.5471 -0.2156  0.6197
12209TIP3    H136584   3.760   5.491   3.790 -1.0503 -1.3846  0.3835
12209TIP3    H236585   3.773   5.583   3.671 -2.0616 -0.4380  0.9809
12210TIP3   OH236586   6.630   7.067   1.449  0.2179  0.4756 -0.2231
12210TIP3    H136587   6.608   7.038   1.538  1.1490  0.1275 -0.1042
12210TIP3    H236588   6.639   6.986   1.399 -3.2753  0.6631 -1.4180
12211TIP3   OH236589   8.006   4.766   3.480  0.3280 -0.1194  0.1147
12211TIP3    H136590   7.957   4.785   3.400  0.0360  3.0774  0.9368
12211TIP3    H236591   8.090   4.730   3.448 -0.3878 -0.4408 -1.5139
12212TIP3   OH236592   2.556   4.392   0.849 -0.4239 -0.3568  0.6520
12212TIP3    H136593   2.543   4.480   0.884 -0.8198  0.0656 -0.5311
12212TIP3    H236594   2.471   4.367   0.814  0.6484  0.6107 -3.0549
12213TIP3   OH236595   6.548   4.309   3.746  0.2323  0.1274  0.1578
12213TIP3    H136596   6.559   4.376   3.813 -2.3078 -0.7783  1.6269
12213TIP3    H236597   6.454   4.309   3.727  0.2589 -2.4541 -0.3766
12214TIP3   OH236598   3.789   3.246   0.565 -0.4793  0.2429 -0.8017
12214TIP3    H136599   3.848   3.273   0.635  0.1931  3.2398 -2.3393
12214TIP3    H236600   3.704   3.280   0.591 -1.4337 -3.0303  0.8339
12215TIP3   OH236601   2.384   3.209   2.946 -0.0378 -0.1830 -0.1163
12215TIP3    H136602   2.426   3.212   3.032  0.3772 -1.1820 -0.2725
12215TIP3    H236603   2.330   3.288   2.943 -3.1177 -1.9277  2.6388
12216TIP3   OH236604   1.386   0.871   3.612 -0.4740 -1.0712  0.6799
12216TIP3    H136605   1.383   0.965   3.631 -0.1626 -1.3229  2.0598
12216TIP3    H236606   1.391   0.866   3.517 -1.1411  0.2930  0.5549
12217TIP3   OH236607   5.717   1.790   0.357  0.3989 -0.2076  0.1526
12217TIP3    H136608   5.730   1.884   0.341  0.3223 -0.1768  0.2663
12217TIP3    H236609   5.708   1.752   0.270  0.8236 -0.1684  0.0904
12218TIP3   OH236610   5.275   0.222   6.773 -0.2956  0.4554  0.3252
12218TIP3    H136611   5.201   0.200   6.716  0.6153  0.0285 -0.7252
12218TIP3    H236612   5.341   0.155   6.754  0.1207  0.4565  1.7148
12219TIP3   OH236613   0.000   1.158   2.552 -0.3676 -0.4043 -0.6231
12219TIP3    H136614   0.024   1.227   2.614 -0.4087 -0.7997 -0.1584
12219TIP3    H236615   0.080   1.144   2.501  1.0227 -2.7666  1.9097
12220TIP3   OH236616   1.010   6.754   0.405  0.0606  0.7461  0.1112
12220TIP3    H136617   0.970   6.699   0.338  1.9122  1.2556 -1.5123
12220TIP3    H236618   1.032   6.835   0.360 -0.5469  1.9628  1.9009
12221TIP3   OH236619   3.751   4.355   2.518  0.2392 -0.5951  0.4799
12221TIP3    H136620   3.685   4.412   2.558 -0.9793 -1.7496  0.2041
12221TIP3    H236621   3.811   4.414   2.473 -1.2357  0.4626 -0.1661
12222TIP3   OH236622   7.290   6.837   4.746  0.2074 -0.7351 -0.1165
12222TIP3    H136623   7.220   6.802   4.801  1.1409 -1.2370  0.7814
12222TIP3    H236624   7.300   6.772   4.676  0.8848 -1.5251  0.6844
12223TIP3   OH236625   4.171   1.213   0.198  0.0976  0.7613 -0.1305
12223TIP3    H136626   4.081   1.201   0.167 -0.1592  0.3026  0.7667
12223TIP3    H236627   4.176   1.305   0.223 -0.1779  0.7493 -0.0308
12224TIP3   OH236628   4.291   1.915   5.277 -0.1510  0.1834  0.6464
12224TIP3    H136629   4.264   1.827   5.251  0.3313  0.4929 -1.0434
12224TIP3    H236630   4.380   1.923   5.243 -0.7978  1.9278 -0.7592
12225TIP3   OH236631   1.772   1.999   1.967 -0.1331 -0.3358  0.1501
12225TIP3    H136632   1.690   2.031   2.004  0.1604  1.4307 -0.6072
12225TIP3    H236633   1.838   2.022   2.032  0.4663  3.2813 -1.4364
12226TIP3   OH236634   7.813   1.858   2.803  0.0083  0.2493 -0.1771
12226TIP3    H136635   7.907   1.838   2.807  0.2694  1.2483 -1.0664
12226TIP3    H236636   7.772   1.789   2.856  1.4239  1.0538  2.1454
12227TIP3   OH236637   2.737   4.723   6.734  0.0784 -0.3316  0.0007
12227TIP3    H136638   2.794   4.774   6.677  0.1656 -1.1079 -0.6227
12227TIP3    H236639   2.761   4.750   6.822  2.7628 -1.9581 -0.1189
12228TIP3   OH236640   6.555   7.042   1.983 -0.2793  0.1973 -0.1529
12228TIP3    H136641   6.582   7.133   2.000 -1.1527  0.3848  0.2840
12228TIP3    H236642   6.478   7.030   2.038  0.7853 -1.3374  1.0847
12229TIP3   OH236643   0.085   6.479   6.379 -0.8712 -0.1120 -0.3530
12229TIP3    H136644   0.031   6.404   6.356 -0.4458 -0.1685 -1.1876
12229TIP3    H236645   0.025   6.540   6.422 -1.4444 -0.4589 -0.6588
12230TIP3   OH236646   6.087   2.989   5.808 -0.1338 -0.3764 -0.5012
12230TIP3    H136647   6.134   2.955   5.884  1.3483  0.0837 -1.1667
12230TIP3    H236648   6.000   3.010   5.841  1.0067  1.6064  1.5789
12231TIP3   OH236649   1.178   7.754   3.458 -0.2002 -0.0007 -0.1918
12231TIP3    H136650   1.170   7.662   3.435 -3.9227 -0.0100  0.4949
12231TIP3    H236651   1.165   7.801   3.376  0.6233 -0.0373 -0.3553
12232TIP3   OH236652   5.185   5.432   1.285 -0.0653  0.5452  0.1027
12232TIP3    H136653   5.259   5.471   1.331  0.0683  0.3628  0.0434
12232TIP3    H236654   5.138   5.382   1.352  1.1606 -1.2440 -0.3098
12233TIP3   OH236655   5.605   4.356   1.232 -0.1662 -0.4554  0.7377
12233TIP3    H136656   5.576   4.265   1.239 -0.8157 -0.4341 -1.0671
12233TIP3    H236657   5.532   4.401   1.188  0.9969  0.4663 -0.3159
12234TIP3   OH236658   6.405   6.851   0.428  0.3451 -0.0581  0.2543
12234TIP3    H136659   6.326   6.846   0.374 -0.3218  3.4228  0.7038
12234TIP3    H236660   6.375   6.825   0.516 -0.3804  1.2764  0.4320
12235TIP3   OH236661   2.887   1.552   6.315 -0.6961  0.2164 -0.0126
12235TIP3    H136662   2.941   1.552   6.235  0.1015  0.9139  0.5068
12235TIP3    H236663   2.807   1.597   6.289 -0.4238  0.4805 -0.4212
12236TIP3   OH236664   5.173   1.997   1.057 -0.1150  0.0864  0.2917
12236TIP3    H136665   5.258   1.966   1.026 -0.0162 -0.7343  1.3126
12236TIP3    H236666   5.116   1.996   0.980  1.1021  1.8483 -0.6858
12237TIP3   OH236667   2.246   1.462   4.063 -1.1361 -0.5378  0.3315
12237TIP3    H136668   2.320   1.475   4.003  0.2139  0.4594  2.1058
12237TIP3    H236669   2.277   1.395   4.124 -2.5680 -1.6891 -0.1399
12238TIP3   OH236670   1.031   7.537   4.071 -0.4512 -0.2233 -0.1811
12238TIP3    H136671   1.012   7.577   3.986 -0.2119 -0.0248 -0.1426
12238TIP3    H236672   1.044   7.444   4.051  3.3424  0.3040 -1.0124
12239TIP3   OH236673   6.199   2.534   4.288 -0.1412 -0.0228 -0.0947
12239TIP3    H136674   6.192   2.494   4.201 -1.4774 -2.3550  0.9807
12239TIP3    H236675   6.249   2.470   4.339 -2.7735 -0.6922  1.8497
12240TIP3   OH236676   6.580   5.968   1.767 -0.0061  0.3360  0.5504
12240TIP3    H136677   6.649   6.018   1.810 -2.3376  1.9958  2.6570
12240TIP3    H236678   6.604   5.877   1.781  1.1861  0.8662  2.2486
12241TIP3   OH236679   0.790   2.386   2.480 -0.3357  0.1099 -0.2583
12241TIP3    H136680   0.711   2.430   2.449  0.6382  1.2531 -1.1859
12241TIP3    H236681   0.757   2.304   2.518 -2.0655  1.0483  0.4053
12242TIP3   OH236682   5.842   7.527   1.805 -0.5048  0.2723  0.1091
12242TIP3    H136683   5.892   7.605   1.828 -1.4083  0.6037  1.0022
12242TIP3    H236684   5.907   7.466   1.770 -0.0494  2.2233 -2.8538
12243TIP3   OH236685   5.479   7.435   1.600  0.3850  0.4740  0.2843
12243TIP3    H136686   5.520   7.406   1.681  0.9563  0.4773 -0.0056
12243TIP3    H236687   5.388   7.455   1.625 -0.1312 -1.7910  0.4534
12244TIP3   OH236688   3.752   1.188   0.919  0.4648 -0.3754  0.6717
12244TIP3    H136689   3.740   1.128   0.845  1.6096 -0.1140  0.2505
12244TIP3    H236690   3.788   1.268   0.879  2.1069 -0.6097  1.6288
12245TIP3   OH236691   5.063   2.929   4.903 -0.1918 -0.2377  0.4001
12245TIP3    H136692   4.972   2.945   4.929 -0.1110 -0.3843  0.7797
12245TIP3    H236693   5.112   2.999   4.945 -0.2103  0.2191 -0.3351
12246TIP3   OH236694   5.543   1.344   1.001  0.8708 -0.2778 -0.4168
12246TIP3    H136695   5.590   1.314   1.079  0.2631  0.4013  0.2366
12246TIP3    H236696   5.579   1.431   0.985 -0.2476  0.3277  0.2011
12247TIP3   OH236697   5.769   7.158   5.213  0.1034 -0.6883 -0.5970
12247TIP3    H136698   5.718   7.086   5.176  0.5242 -0.6012 -1.3664
12247TIP3    H236699   5.799   7.124   5.298  0.4442 -1.5038 -1.0265
12248TIP3   OH236700   5.676   7.599   2.662 -0.5947  0.2150 -0.3432
12248TIP3    H136701   5.624   7.519   2.666 -0.7821  0.3785  0.9477
12248TIP3    H236702   5.644   7.646   2.586 -0.9763 -0.6068 -0.6930
12249TIP3   OH236703   1.176   1.201   3.102 -0.1979  0.1520  0.0691
12249TIP3    H136704   1.255   1.239   3.064 -0.0810 -0.2503 -0.0862
12249TIP3    H236705   1.125   1.277   3.131  0.2260  0.4124  0.1391
12250TIP3   OH236706   7.996   0.484   0.288  0.3153 -0.3722  0.3944
12250TIP3    H136707   7.922   0.428   0.265  1.0736 -1.2934  0.1285
12250TIP3    H236708   7.971   0.571   0.258 -0.7592 -0.6273  0.5271
12251TIP3   OH236709   7.749   7.041   2.388  0.1693 -0.2568  0.1694
12251TIP3    H136710   7.677   7.080   2.339 -0.3479 -0.4492  0.7704
12251TIP3    H236711   7.799   6.993   2.322 -0.6850 -0.7546 -0.1384
12252TIP3   OH236712   7.018   2.875   4.228 -0.1934 -0.1320  0.1837
12252TIP3    H136713   7.016   2.794   4.279  0.4939 -0.4464 -0.2680
12252TIP3    H236714   6.968   2.938   4.280 -0.0892 -0.6348  0.9029
12253TIP3   OH236715   7.560   3.415   6.080 -0.1617 -0.0586 -0.0252
12253TIP3    H136716   7.581   3.469   6.004  2.5992 -0.0167  0.6491
12253TIP3    H236717   7.616   3.337   6.071  1.2546  0.5351  2.4963
12254TIP3   OH236718   5.092   0.523   4.368 -0.0503  0.4119 -0.4109
12254TIP3    H136719   5.116   0.614   4.351  2.1939 -0.1893 -0.8390
12254TIP3    H236720   5.019   0.528   4.429  0.2169  2.4858 -0.2014
12255TIP3   OH236721   3.175   0.007   3.811 -0.3022  0.0650 -0.4785
12255TIP3    H136722   3.175   0.079   3.874  0.4435 -0.5523  0.2421
12255TIP3    H236723   3.185   0.050   3.726 -1.0962  0.8873 -0.1716
12256TIP3   OH236724   0.068   0.317   4.455 -0.4754 -0.0956 -0.3392
12256TIP3    H136725   0.041   0.376   4.525 -2.2073  0.0069 -1.0418
12256TIP3    H236726   0.143   0.270   4.491 -2.1606 -1.0943  2.1543
12257TIP3   OH236727   4.890   5.468   6.551  0.1494 -0.7111  0.0544
12257TIP3    H136728   4.829   5.495   6.620  0.0238 -1.1061  0.1008
12257TIP3    H236729   4.964   5.529   6.558  0.0025 -0.5678  0.3448
12258TIP3   OH236730   7.132   6.380   6.344 -0.2794  0.3001 -0.3313
12258TIP3    H136731   7.085   6.312   6.393  0.0196 -1.4349 -2.2724
12258TIP3    H236732   7.203   6.406   6.401 -0.4481 -1.0084  0.5171
12259TIP3   OH236733   2.640   1.218   0.325 -0.0984  0.1407  0.5482
12259TIP3    H136734   2.553   1.181   0.311 -0.3846  0.4955  1.3956
12259TIP3    H236735   2.624   1.305   0.360  0.5972  0.3616  0.3277
12260TIP3   OH236736   6.740   3.390   0.938 -0.2920 -0.1169 -0.2987
12260TIP3    H136737   6.698   3.451   0.999  0.5971  1.8329 -1.5361
12260TIP3    H236738   6.794   3.333   0.994 -2.7738 -1.2574  1.0958
12261TIP3   OH236739   7.739   6.435   5.442 -0.5321 -0.3718 -0.3125
12261TIP3    H136740   7.746   6.373   5.515  1.2326 -0.6683 -0.7002
12261TIP3    H236741   7.675   6.395   5.383 -1.6981 -0.3093  0.8573
12262TIP3   OH236742   4.774   3.141   0.104 -0.2756  0.0702  0.7028
12262TIP3    H136743   4.778   3.233   0.131  1.6304 -0.2920  1.8921
12262TIP3    H236744   4.730   3.142   0.019  0.7427  2.2157  0.1341
12263TIP3   OH236745   3.055   3.768   5.496  0.0837  0.2075  0.1592
12263TIP3    H136746   3.003   3.845   5.474 -1.1243 -0.5524  0.2554
12263TIP3    H236747   3.122   3.763   5.428 -0.0384  1.1352 -0.0381
12264TIP3   OH236748   5.245   4.769   2.989  0.1894 -0.5775 -0.3939
12264TIP3    H136749   5.230   4.857   3.023  2.3902 -0.6959  1.1046
12264TIP3    H236750   5.194   4.765   2.908 -0.5101  1.8169 -0.1434
12265TIP3   OH236751   7.349   4.270   2.277 -0.6482  0.3218 -0.1752
12265TIP3    H136752   7.292   4.197   2.253 -0.1525 -0.0568 -0.1977
12265TIP3    H236753   7.293   4.348   2.265 -1.4247 -0.0981  0.5991
12266TIP3   OH236754   7.886   3.081   2.660 -0.0112  0.3019 -0.1823
12266TIP3    H136755   7.949   3.151   2.673  1.5194 -1.3170  1.7606
12266TIP3    H236756   7.888   3.063   2.566  1.8219  0.8441 -0.2718
12267TIP3   OH236757   4.421   0.983   2.695 -0.2136 -0.0455 -0.2874
12267TIP3    H136758   4.507   1.019   2.717 -1.1001  1.5274  0.8071
12267TIP3    H236759   4.374   1.055   2.654 -0.8283 -1.0711 -1.4456
12268TIP3   OH236760   5.819   3.896   6.383 -0.4541 -1.0562  0.1851
12268TIP3    H136761   5.912   3.921   6.378 -1.2017  2.0107 -0.5653
12268TIP3    H236762   5.818   3.820   6.442  2.3552 -0.1993  1.5519
12269TIP3   OH236763   0.282   1.840   6.811 -0.3162  0.2487  0.3119
12269TIP3    H136764   0.366   1.864   6.772  1.3701 -1.8783  2.2814
12269TIP3    H236765   0.245   1.776   6.750 -0.7539  1.4943 -0.7686
12270TIP3   OH236766   7.419   5.767   1.035 -0.1212 -0.7650  0.3740
12270TIP3    H136767   7.443   5.773   0.943  1.7309 -0.1049  0.8471
12270TIP3    H236768   7.477   5.699   1.070  1.4134  1.0664  1.6412
12271TIP3   OH236769   8.024   6.761   2.935  0.5750 -0.4733  0.2005
12271TIP3    H136770   7.936   6.775   2.900  1.3903  1.2366 -1.3813
12271TIP3    H236771   8.012   6.703   3.010 -1.9845  0.3151  0.4835
12272TIP3   OH236772   6.947   0.291   0.849 -0.1889 -0.0841  0.1674
12272TIP3    H136773   6.900   0.357   0.901 -0.1414 -0.5233  0.7852
12272TIP3    H236774   7.005   0.248   0.912  1.2788  0.6488 -0.6324
12273TIP3   OH236775   5.878   5.336   0.046 -0.3362  0.2815 -0.0767
12273TIP3    H136776   5.866   5.325  -0.048 -1.1565  1.3314 -0.1010
12273TIP3    H236777   5.827   5.265   0.085  0.6961 -0.6868 -0.4188
12274TIP3   OH236778   5.814   3.388   2.090 -0.7018 -0.4199 -0.1753
12274TIP3    H136779   5.895   3.412   2.046 -1.4150  1.3799 -0.6054
12274TIP3    H236780   5.820   3.293   2.103  0.7053 -0.5722 -1.7060
12275TIP3   OH236781   3.264   2.618   5.776 -0.1021  0.2218  0.2356
12275TIP3    H136782   3.259   2.692   5.716 -0.6853  1.5803  1.8722
12275TIP3    H236783   3.186   2.566   5.758 -0.2144  0.5576 -0.2468
12276TIP3   OH236784   4.953   2.054   1.948 -0.4755 -0.2064 -0.8716
12276TIP3    H136785   4.977   1.982   2.006 -1.7223 -0.1255 -0.2161
12276TIP3    H236786   4.942   2.129   2.007  2.7688  1.1138 -1.7333
12277TIP3   OH236787   1.000   0.432   3.926  0.2919  0.0246 -0.0253
12277TIP3    H136788   1.093   0.428   3.950 -0.1514  1.9347  2.3195
12277TIP3    H236789   0.997   0.392   3.839  3.5019  1.0600 -0.7566
12278TIP3   OH236790   4.748   4.409   6.017  0.2559 -0.6441 -0.5002
12278TIP3    H136791   4.667   4.388   6.064 -0.8981  1.2317 -1.5221
12278TIP3    H236792   4.802   4.330   6.026 -2.3116 -2.6331 -1.1005
12279TIP3   OH236793   4.517   7.039   5.903  0.2474 -0.3686  0.5093
12279TIP3    H136794   4.504   7.055   5.810  3.3757 -0.3110 -0.0301
12279TIP3    H236795   4.610   7.058   5.918  0.1729 -1.7042  3.3626
12280TIP3   OH236796   4.405   1.606   6.440 -0.5440  0.7963 -0.0627
12280TIP3    H136797   4.374   1.687   6.399 -1.6028  1.0970  1.2629
12280TIP3    H236798   4.459   1.635   6.514 -0.8831  0.2890  0.3907
12281TIP3   OH236799   4.541   3.396   3.193 -0.4208 -1.0043 -0.7948
12281TIP3    H136800   4.510   3.421   3.106  0.0552 -0.9856 -0.9620
12281TIP3    H236801   4.506   3.308   3.206 -0.1492 -1.1697 -1.1772
12282TIP3   OH236802   3.724   3.991   0.210  0.0971  0.3601 -0.1582
12282TIP3    H136803   3.720   3.938   0.290  1.8961  0.9389  0.3504
12282TIP3    H236804   3.650   4.052   0.219  0.7080  0.9128  1.4567
12283TIP3   OH236805   0.783   3.216   4.125  0.1715  0.6566 -0.4678
12283TIP3    H136806   0.701   3.224   4.076  0.5150  0.2180 -1.1207
12283TIP3    H236807   0.842   3.169   4.067  1.1049  1.5306 -0.2693
12284TIP3   OH236808   6.607   3.709   0.319  0.3454 -0.7048  0.0785
12284TIP3    H136809   6.671   3.642   0.295 -0.0767 -0.7151 -1.0902
12284TIP3    H236810   6.652   3.792   0.304 -0.0798 -0.7035 -1.2943
12285TIP3   OH236811   6.462   1.016   4.006  0.1515  0.3876  0.2758
12285TIP3    H136812   6.504   1.056   4.082 -0.8949  0.1329  1.0113
12285TIP3    H236813   6.369   1.014   4.029 -0.2493  0.7848 -1.2355
12286TIP3   OH236814   4.120   0.641   5.555  0.6717 -0.0645  0.0808
12286TIP3    H136815   4.067   0.699   5.501  1.2121 -0.4839 -0.9260
12286TIP3    H236816   4.180   0.699   5.602  0.4926  0.2670 -0.0982
12287TIP3   OH236817   2.102   3.745   0.720  0.3040 -0.5279  0.0288
12287TIP3    H136818   2.162   3.697   0.777 -0.1269 -0.9674  0.1163
12287TIP3    H236819   2.030   3.684   0.704 -0.8044  0.4778  1.0479
12288TIP3   OH236820   6.960   7.682   5.127  0.0532  0.2294  0.7554
12288TIP3    H136821   6.989   7.741   5.057  1.7048 -0.7180  0.5981
12288TIP3    H236822   7.034   7.624   5.142 -1.8467 -2.5327  0.1909
12289TIP3   OH236823   0.087   2.176   5.330 -0.3152  0.5428  0.6434
12289TIP3    H136824   0.096   2.127   5.248 -1.8801 -0.5802  1.0921
12289TIP3    H236825   0.004   2.223   5.320 -0.6839  0.1431  1.7036
12290TIP3   OH236826   4.445   2.096   3.946  0.1759  0.7261  0.5306
12290TIP3    H136827   4.433   2.191   3.940 -0.3484  0.6323  0.0456
12290TIP3    H236828   4.483   2.072   3.861  0.2458  0.4962  0.6283
12291TIP3   OH236829   6.038   3.203   3.299 -0.2284  0.3400 -0.0533
12291TIP3    H136830   6.055   3.116   3.263 -1.3183  0.3231 -0.5738
12291TIP3    H236831   6.017   3.257   3.223 -1.8251  0.4770  0.4341
12292TIP3   OH236832   1.894   1.489   4.583 -0.1141 -0.0741 -0.1690
12292TIP3    H136833   1.833   1.438   4.638 -0.9811  0.8284 -0.2712
12292TIP3    H236834   1.975   1.491   4.634  0.0107 -1.7010 -0.2438
12293TIP3   OH236835   4.162   6.204   0.431 -0.1774 -0.0497 -0.0861
12293TIP3    H136836   4.253   6.232   0.421 -1.0181  2.0988 -2.9630
12293TIP3    H236837   4.167   6.109   0.440  2.3271 -0.0188 -0.4250
12294TIP3   OH236838   3.067   3.746   0.386  0.2444  0.4188  0.4958
12294TIP3    H136839   3.097   3.765   0.475 -1.7302  0.3308  1.2282
12294TIP3    H236840   2.979   3.782   0.383  0.1721  0.1689 -1.3632
12295TIP3   OH236841   3.651   1.137   5.849  0.6545  0.0401 -0.5430
12295TIP3    H136842   3.719   1.195   5.815 -0.4327  1.3379 -0.5895
12295TIP3    H236843   3.686   1.106   5.933  0.9855  1.3209 -0.1764
12296TIP3   OH236844   6.439   1.138   2.084 -0.3308 -0.1023  0.4223
12296TIP3    H136845   6.363   1.177   2.039  0.0834 -0.7936 -0.9221
12296TIP3    H236846   6.474   1.075   2.021  1.3929  0.2355  0.9959
12297TIP3   OH236847   8.106   5.352   4.875 -0.4589  0.1818 -0.5456
12297TIP3    H136848   8.132   5.270   4.917 -0.5298  0.6124  0.3695
12297TIP3    H236849   8.059   5.324   4.796 -1.2708 -0.6855  0.2109
12298TIP3   OH236850   5.543   2.158   0.961 -0.2171  0.3830 -0.2124
12298TIP3    H136851   5.619   2.206   0.995  1.0757 -1.1321 -0.8342
12298TIP3    H236852   5.507   2.214   0.893  1.2235  0.5279 -0.8838
12299TIP3   OH236853   7.681   1.539   4.321 -0.2587 -0.3955  0.3329
12299TIP3    H136854   7.739   1.483   4.373 -0.4861 -0.8978  0.0484
12299TIP3    H236855   7.732   1.618   4.306  0.0152 -0.4650  0.8575
12300TIP3   OH236856   0.572   2.684   5.689  0.2187  0.2576  0.0719
12300TIP3    H136857   0.563   2.633   5.769 -0.4266 -0.4943 -0.4566
12300TIP3    H236858   0.495   2.742   5.688 -1.6020 -1.9924 -1.5330
12301TIP3   OH236859   4.195   4.764   0.253 -0.3705 -0.1591  0.1109
12301TIP3    H136860   4.116   4.779   0.305 -2.1626 -0.4889 -2.3453
12301TIP3    H236861   4.202   4.669   0.247  1.0836 -0.1720  1.4629
12302TIP3   OH236862   0.175   4.496   2.560 -0.2815 -0.0432 -0.2467
12302TIP3    H136863   0.254   4.477   2.610 -1.6114 -1.6437  1.3925
12302TIP3    H236864   0.112   4.528   2.625 -0.8583  1.7887 -1.6043
12303TIP3   OH236865   7.156   3.268   6.285  0.6143  0.5504 -0.1403
12303TIP3    H136866   7.079   3.212   6.278  0.9217 -0.6087  3.4660
12303TIP3    H236867   7.128   3.352   6.251 -0.8943 -0.8860 -2.7258
12304TIP3   OH236868   2.310   7.093   3.884 -0.2802  0.0136 -0.2536
12304TIP3    H136869   2.332   7.171   3.935 -0.2628  0.3574 -0.7785
12304TIP3    H236870   2.362   7.023   3.923 -1.1357  0.0152  0.9394
12305TIP3   OH236871   8.272   2.832   4.204 -0.1066  0.3081  0.4621
12305TIP3    H136872   8.283   2.890   4.280 -0.4479 -0.0790  0.8106
12305TIP3    H236873   8.191   2.861   4.163  1.3444  2.2141 -1.2746
12306TIP3   OH236874   2.347   7.146   1.841 -0.3136  0.1226 -0.1975
12306TIP3    H136875   2.391   7.162   1.924 -0.5085  1.9040 -0.4146
12306TIP3    H236876   2.255   7.163   1.858 -0.5776 -1.0138 -0.4099
12307TIP3   OH236877   7.353   7.142   3.202  0.0812  0.2564  0.3301
12307TIP3    H136878   7.321   7.230   3.222  1.4175  1.9213 -3.8467
12307TIP3    H236879   7.275   7.095   3.171 -0.3027  0.6034  0.7535
12308TIP3   OH236880   6.031   1.582   6.278  0.3091  0.3669  0.2229
12308TIP3    H136881   5.936   1.578   6.276  0.3354 -0.4584 -1.8651
12308TIP3    H236882   6.051   1.657   6.336 -1.5409  0.0296  1.3685
12309TIP3   OH236883   3.684   6.640   6.813 -0.4524  0.3307 -0.3914
12309TIP3    H136884   3.696   6.722   6.765 -1.3473  0.8011  0.1749
12309TIP3    H236885   3.628   6.587   6.757 -1.2297  0.7543 -0.0311
12310TIP3   OH236886   6.909   0.891   0.559  0.0215  0.0779 -0.0763
12310TIP3    H136887   6.990   0.942   0.550  0.9687 -1.5988 -1.8910
12310TIP3    H236888   6.901   0.876   0.653  1.7162  0.4512  0.1655
12311TIP3   OH236889   7.021   4.845   1.058  0.6022 -0.6174  0.9299
12311TIP3    H136890   7.009   4.934   1.025  0.6126 -0.5225  1.1790
12311TIP3    H236891   7.097   4.812   1.010  0.8902 -0.3248  1.1775
12312TIP3   OH236892   7.141   5.390   4.550 -0.5345 -0.5587  0.8073
12312TIP3    H136893   7.196   5.334   4.604  2.6542  0.2751 -1.3002
12312TIP3    H236894   7.122   5.338   4.472 -3.4312 -1.0380  1.6956
12313TIP3   OH236895   3.339   1.670   4.062 -0.2420 -0.0205  0.2036
12313TIP3    H136896   3.316   1.577   4.062 -0.5858  0.0652  0.4396
12313TIP3    H236897   3.350   1.693   4.154 -2.0204  0.6246  0.3023
12314TIP3   OH236898   7.182   0.756   3.841  0.2804  0.1374  0.0336
12314TIP3    H136899   7.116   0.824   3.827  0.5237  0.8081  1.8760
12314TIP3    H236900   7.153   0.710   3.920  0.7441 -1.1694 -0.5267
12315TIP3   OH236901   2.787   0.443   4.513  0.4065 -0.1703  0.0142
12315TIP3    H136902   2.809   0.480   4.428 -0.3252 -1.1575 -0.6306
12315TIP3    H236903   2.751   0.516   4.563  0.1476  0.2592 -0.7937
12316TIP3   OH236904   4.280   2.024   1.558 -0.0980 -0.5587  0.8462
12316TIP3    H136905   4.194   1.996   1.527  0.4810 -0.0782 -1.3315
12316TIP3    H236906   4.318   1.945   1.598 -0.5052 -1.5067 -0.5798
12317TIP3   OH236907   1.165   7.479   6.428 -0.0931 -0.0049 -0.3605
12317TIP3    H136908   1.219   7.409   6.466  0.2388 -0.0723 -0.9456
12317TIP3    H236909   1.227   7.549   6.408 -0.3944  0.3764  0.0217
12318TIP3   OH236910   6.188   6.144   6.547 -0.4594  0.2763  0.5475
12318TIP3    H136911   6.270   6.158   6.501 -0.5384 -0.8613  0.0382
12318TIP3    H236912   6.133   6.217   6.520  0.1108  0.6110  0.2654
12319TIP3   OH236913   6.361   6.332   1.596  0.1411 -0.4929 -0.9243
12319TIP3    H136914   6.411   6.310   1.674  1.1253 -0.9813 -1.6731
12319TIP3    H236915   6.290   6.267   1.595 -2.0103  1.6260  1.4075
12320TIP3   OH236916   0.115   7.741   3.782 -0.5207 -0.4372  0.6124
12320TIP3    H136917   0.211   7.748   3.788 -0.2358 -1.8847 -1.2817
12320TIP3    H236918   0.085   7.829   3.762  0.4174  0.0194  1.1606
12321TIP3   OH236919   4.897   7.508   0.085  0.2980  0.5638 -0.4297
12321TIP3    H136920   4.927   7.467   0.166  0.1744  0.3471 -0.4952
12321TIP3    H236921   4.817   7.554   0.109  0.7340  1.2437 -0.2264
12322TIP3   OH236922   5.802   0.020   4.173 -0.0968 -0.3449  0.3087
12322TIP3    H136923   5.801   0.047   4.265 -0.4704 -1.2844  0.5927
12322TIP3    H236924   5.871  -0.047   4.169 -0.2541 -0.4869 -0.0389
12323TIP3   OH236925   3.659   2.442   3.521 -0.7072  0.4233  0.1118
12323TIP3    H136926   3.619   2.495   3.589  0.8357  1.6086  0.1389
12323TIP3    H236927   3.585   2.414   3.466 -1.8080  0.6153  1.4292
12324TIP3   OH236928   1.299   1.611   3.311  0.3891  0.4793  0.1387
12324TIP3    H136929   1.224   1.645   3.361 -1.0693 -0.8830 -1.0040
12324TIP3    H236930   1.312   1.523   3.346  3.2477  1.5747  2.1477
12325TIP3   OH236931   0.652   3.013   5.617  0.2599 -0.1657  0.0302
12325TIP3    H136932   0.663   3.097   5.662  0.9688  0.1688 -0.7458
12325TIP3    H236933   0.613   2.955   5.684  0.8188  0.4532  0.9186
12326TIP3   OH236934   0.648   5.146   6.660  0.2837  0.6637  0.6635
12326TIP3    H136935   0.560   5.180   6.678  0.5779  1.3454  0.8361
12326TIP3    H236936   0.634   5.081   6.591 -0.4596  0.1621  1.2675
12327TIP3   OH236937   6.368   2.662   1.081  0.0352  0.1127  0.2998
12327TIP3    H136938   6.423   2.726   1.125  1.4276 -0.9799  0.2294
12327TIP3    H236939   6.392   2.669   0.988 -0.3845  0.0433  0.1829
12328TIP3   OH236940   0.681   3.875   5.893 -0.1711  0.6016  0.3432
12328TIP3    H136941   0.756   3.932   5.910 -0.5682  0.7043  1.9952
12328TIP3    H236942   0.687   3.809   5.962 -1.4342  0.4566  0.3234
12329TIP3   OH236943   6.179   4.245   4.417  0.3060 -0.3943  0.1760
12329TIP3    H136944   6.190   4.336   4.388  0.3117 -0.5083 -0.1812
12329TIP3    H236945   6.191   4.193   4.338 -2.4187 -0.5500 -0.2380
12330TIP3   OH236946   7.953   5.089   4.369 -0.7101 -0.2951  0.6825
12330TIP3    H136947   8.010   5.065   4.295 -0.3094  0.1043  0.8564
12330TIP3    H236948   7.976   5.027   4.438 -1.2634 -0.8307  0.3959
12331TIP3   OH236949   0.773   6.866   4.314  0.4932 -0.2533 -0.3852
12331TIP3    H136950   0.750   6.773   4.312  0.5328 -0.2621 -0.4357
12331TIP3    H236951   0.762   6.891   4.406  2.0121 -0.6968 -0.0499
12332TIP3   OH236952   0.530   1.743   6.358 -0.1895 -0.1862  0.0729
12332TIP3    H136953   0.512   1.703   6.273  0.3614 -0.1343 -0.0736
12332TIP3    H236954   0.524   1.837   6.342  0.6839 -0.1464 -0.1039
12333TIP3   OH236955   4.632   2.801   6.627  0.0669  0.5653 -0.7356
12333TIP3    H136956   4.634   2.865   6.698  0.3675  0.1998 -0.4107
12333TIP3    H236957   4.722   2.798   6.596  0.4924 -1.1149  0.5344
12334TIP3   OH236958   1.944   1.846   0.300  0.1193  0.1264 -0.4470
12334TIP3    H136959   1.999   1.909   0.346  1.4266 -0.0209 -1.7268
12334TIP3    H236960   1.916   1.892   0.221 -1.0488 -0.0471 -0.1543
12335TIP3   OH236961   8.120   4.584   3.806  0.4469  0.1350  0.1646
12335TIP3    H136962   8.170   4.523   3.859  4.5745  0.1350 -3.2010
12335TIP3    H236963   8.042   4.535   3.780  1.9325 -2.4907  0.3374
12336TIP3   OH236964   4.640   0.100   1.837  0.3491  0.0633  0.5055
12336TIP3    H136965   4.605   0.187   1.818 -1.4309 -0.2820  1.8832
12336TIP3    H236966   4.729   0.116   1.868  0.4245  1.2754 -0.2699
12337TIP3   OH236967   5.027   4.341   3.298  0.3815  0.4159  0.4383
12337TIP3    H136968   5.107   4.288   3.291  0.2852  0.2202  0.7888
12337TIP3    H236969   5.054   4.428   3.268  0.8805  0.5008  1.0921
12338TIP3   OH236970   7.635   2.718   5.254 -0.5839 -0.2108 -0.1758
12338TIP3    H136971   7.643   2.630   5.217  0.5212 -0.5516  0.8190
12338TIP3    H236972   7.645   2.706   5.348  0.2987  1.0415 -0.0772
12339TIP3   OH236973   8.028   1.806   5.548 -0.0199 -0.2970  0.4541
12339TIP3    H136974   8.119   1.794   5.573  0.1054  0.8282  0.5742
12339TIP3    H236975   7.992   1.865   5.614 -0.0440  1.6407 -1.2126
12340TIP3   OH236976   4.913   0.872   6.218  0.3204 -0.5389 -0.0565
12340TIP3    H136977   4.822   0.876   6.187  0.3691 -0.0848 -0.1387
12340TIP3    H236978   4.963   0.923   6.154  0.3870  0.6089  0.8838
12341TIP3   OH236979   8.068   3.386   2.888 -0.6217 -0.1653 -0.0837
12341TIP3    H136980   8.075   3.311   2.947  0.8483  1.5270  2.0592
12341TIP3    H236981   8.127   3.452   2.926 -2.2522  2.2944 -1.5222
12342TIP3   OH236982   1.853   6.589   5.307 -0.5872  0.0831 -0.2384
12342TIP3    H136983   1.873   6.548   5.224 -0.5191  0.0832 -0.2223
12342TIP3    H236984   1.810   6.671   5.284  0.8562  0.8461 -0.3095
12343TIP3   OH236985   4.070   3.232   3.681  0.6782  0.7131 -0.5086
12343TIP3    H136986   3.983   3.230   3.640  1.0770 -2.4839 -1.5064
12343TIP3    H236987   4.128   3.259   3.610  0.5302  3.8244  0.4056
12344TIP3   OH236988   6.040   2.879   6.074  0.1098 -0.9186 -0.2684
12344TIP3    H136989   5.971   2.944   6.064  0.7584 -0.4775 -2.7577
12344TIP3    H236990   6.119   2.931   6.091 -0.0795 -1.4023  2.3700
12345TIP3   OH236991   7.539   5.218   3.646  0.4813 -0.3445  0.2209
12345TIP3    H136992   7.528   5.256   3.733 -0.1513  0.0728 -0.0312
12345TIP3    H236993   7.452   5.222   3.607  0.7716 -0.4552 -0.4588
12346TIP3   OH236994   1.752   7.285   1.605  0.5133  0.2569  0.0929
12346TIP3    H136995   1.704   7.203   1.613  0.4079  0.4324  1.7321
12346TIP3    H236996   1.716   7.327   1.527  1.1042 -1.5590 -1.2053
12347TIP3   OH236997   0.526   2.591   6.049 -0.8125  0.0584 -0.5205
12347TIP3    H136998   0.573   2.674   6.058  1.3674 -1.1977  0.5823
12347TIP3    H236999   0.463   2.592   6.122 -1.1632  0.9390 -0.8231
12348TIP3   OH237000   4.597   4.610   1.320 -0.2836 -0.3369  0.3261
12348TIP3    H137001   4.678   4.569   1.290 -0.6160 -1.6325  1.0892
12348TIP3    H237002   4.528   4.568   1.269 -0.4764  0.9749 -0.5362
12349TIP3   OH237003   7.132   7.216   2.258 -0.3330  0.2460 -0.1745
12349TIP3    H137004   7.136   7.310   2.240 -0.6400 -0.0068 -1.7291
12349TIP3    H237005   7.161   7.175   2.176 -0.7544 -1.0235  0.2864
12350TIP3   OH237006   6.530   0.849   1.581  0.6606  0.3194 -0.2353
12350TIP3    H137007   6.450   0.810   1.547  0.5832  0.4546 -0.2065
12350TIP3    H237008   6.599   0.818   1.522  0.7632 -0.7600  0.4177
12351TIP3   OH237009   1.296   0.117   1.802 -0.2443  0.1104  0.2133
12351TIP3    H137010   1.298   0.212   1.789  0.6133 -0.0870 -1.4535
12351TIP3    H237011   1.381   0.087   1.768  0.2376 -1.0937  2.3416
12352TIP3   OH237012   6.622   5.480   6.158 -0.5681  0.4471 -0.1187
12352TIP3    H137013   6.596   5.522   6.076  1.5699  1.5719 -0.2628
12352TIP3    H237014   6.715   5.459   6.147 -0.5025 -0.3904  1.6183
12353TIP3   OH237015   2.670   7.650   2.165 -0.1680 -0.5246  0.0929
12353TIP3    H137016   2.750   7.666   2.116 -0.8036  1.7650 -0.2934
12353TIP3    H237017   2.692   7.672   2.256 -0.5342  0.9100 -0.1417
12354TIP3   OH237018   1.061   5.341   6.392  0.6281  0.3259 -0.5740
12354TIP3    H137019   0.997   5.360   6.460  0.1900 -0.4083 -0.7723
12354TIP3    H237020   1.021   5.375   6.312  1.0522  1.0037 -0.5079
12355TIP3   OH237021   4.200   7.000   2.349 -0.8677 -0.3183  0.4695
12355TIP3    H137022   4.118   6.952   2.343 -0.1979 -1.3605 -0.9006
12355TIP3    H237023   4.255   6.962   2.281 -0.1951  2.2214 -0.4955
12356TIP3   OH237024   0.002   5.937   0.705 -0.0448  0.2150 -0.1432
12356TIP3    H137025   0.025   5.846   0.722  2.2919  0.7627 -0.1049
12356TIP3    H237026   0.010   5.947   0.610 -0.1741  0.4167 -0.1343
12357TIP3   OH237027   1.455   1.282   4.605  0.1489 -0.3083 -0.1309
12357TIP3    H137028   1.516   1.337   4.555 -1.6351  1.8743 -0.0832
12357TIP3    H237029   1.448   1.326   4.690 -2.1211  0.0387 -0.4449
12358TIP3   OH237030   5.239   5.575   0.193 -0.6850 -0.0179 -0.5744
12358TIP3    H137031   5.185   5.654   0.203 -1.1728 -0.2266 -1.4841
12358TIP3    H237032   5.176   5.505   0.175 -0.2573 -0.6297  0.2024
12359TIP3   OH237033   2.556   0.960   2.142 -0.3015 -0.3205 -0.1427
12359TIP3    H137034   2.647   0.974   2.116 -0.4171 -0.6402 -0.7373
12359TIP3    H237035   2.550   0.867   2.163  0.1189  0.1464  2.4205
12360TIP3   OH237036   3.264   3.202   2.208 -0.3284 -0.0753  0.6896
12360TIP3    H137037   3.209   3.130   2.178 -0.9607  0.3379  0.8468
12360TIP3    H237038   3.230   3.225   2.294 -0.5610  0.8489  0.3646
12361TIP3   OH237039   4.684   6.077   0.908 -0.7301  0.2186  0.0467
12361TIP3    H137040   4.778   6.095   0.905 -1.0836  2.1511 -0.9717
12361TIP3    H237041   4.643   6.159   0.880 -2.7517 -0.3521  1.1355
12362TIP3   OH237042   5.769   1.764   5.369 -0.3085 -0.4538  0.0010
12362TIP3    H137043   5.681   1.737   5.342 -0.0625 -0.4252 -0.8636
12362TIP3    H237044   5.818   1.682   5.378 -0.6533 -0.5352  1.3826
12363TIP3   OH237045   7.988   1.274   2.240 -0.0684  0.1408 -0.0271
12363TIP3    H137046   7.958   1.187   2.214  0.5108 -0.4789  1.2963
12363TIP3    H237047   7.912   1.315   2.281 -0.1270 -0.0545  0.0611
12364TIP3   OH237048   6.248   1.104   6.690  0.0849 -0.0284 -0.3290
12364TIP3    H137049   6.158   1.135   6.699 -0.1295 -0.9209  0.8477
12364TIP3    H237050   6.265   1.107   6.596 -1.7487 -1.4337 -0.7625
12365TIP3   OH237051   7.028   5.767   0.612  0.3548 -0.3884 -0.0270
12365TIP3    H137052   7.038   5.700   0.545  0.3224  0.2277 -0.6520
12365TIP3    H237053   6.944   5.746   0.654 -0.3736  0.1147 -1.1933
12366TIP3   OH237054   7.999   7.034   1.973  0.3208  0.1363  0.7939
12366TIP3    H137055   8.044   6.951   1.958  2.0977  0.6707  2.6355
12366TIP3    H237056   8.047   7.097   1.918  1.8437  0.6760  2.6294
12367TIP3   OH237057   4.953   1.654   3.503  0.3361 -0.2326 -0.3695
12367TIP3    H137058   4.885   1.615   3.448 -0.3843  0.6265 -0.1162
12367TIP3    H237059   4.970   1.588   3.570  0.3323 -0.7823 -0.8988
12368TIP3   OH237060   6.595   0.429   4.778 -0.6430 -0.1306  0.1039
12368TIP3    H137061   6.607   0.444   4.684  0.9360 -0.4660  0.2311
12368TIP3    H237062   6.509   0.467   4.797 -1.0949 -0.2537 -1.5088
12369TIP3   OH237063   6.660   1.509   6.045  1.0968  0.3962 -0.1311
12369TIP3    H137064   6.633   1.597   6.073  0.9787 -0.3588  2.3133
12369TIP3    H237065   6.755   1.515   6.037  0.9683  1.1015 -1.4726
12370TIP3   OH237066   6.693   5.108   2.909  0.5079 -0.4623  0.3532
12370TIP3    H137067   6.767   5.050   2.892  1.0351  0.0780  0.7769
12370TIP3    H237068   6.622   5.072   2.857  1.6062  0.1804 -1.6903
12371TIP3   OH237069   6.661   5.049   6.592  0.0248 -0.1667  0.0853
12371TIP3    H137070   6.585   5.052   6.533  0.3254  0.2208 -0.2878
12371TIP3    H237071   6.638   4.981   6.656  0.3809 -1.7841 -1.4171
12372TIP3   OH237072   0.246   5.986   5.799 -0.0224  0.6547 -0.0513
12372TIP3    H137073   0.303   5.990   5.875  1.0960 -2.3615 -0.5707
12372TIP3    H237074   0.294   6.030   5.729 -0.3730  2.0577  0.5611
12373TIP3   OH237075   5.310   0.742   3.265 -0.3569 -0.0152  0.1635
12373TIP3    H137076   5.325   0.807   3.335 -0.4278 -0.2659  0.4124
12373TIP3    H237077   5.336   0.787   3.185 -0.5336  0.3717  0.3194
12374TIP3   OH237078   3.765   4.740   4.269  0.0877 -0.0793  0.2895
12374TIP3    H137079   3.747   4.834   4.274 -1.6058 -0.1776 -2.2966
12374TIP3    H237080   3.824   4.731   4.194 -1.0088 -1.1801 -0.4828
12375TIP3   OH237081   6.155   2.048   1.707  0.0288 -0.5620 -0.4448
12375TIP3    H137082   6.148   2.096   1.624  0.0585  1.4609  0.6469
12375TIP3    H237083   6.244   2.012   1.706  0.6062  0.8005 -0.6251
12376TIP3   OH237084   6.352   4.739   2.693  0.4302 -0.4423  0.0361
12376TIP3    H137085   6.347   4.702   2.782  0.2138 -0.3434  0.0669
12376TIP3    H237086   6.360   4.663   2.636  1.0132 -0.4837  0.1707
12377TIP3   OH237087   2.891   2.635   1.621  0.0249  0.2008 -0.4550
12377TIP3    H137088   2.923   2.655   1.710  1.4954 -0.7183 -0.7427
12377TIP3    H237089   2.899   2.540   1.614  0.1500  0.2909 -1.6560
12378TIP3   OH237090   2.451   0.383   3.580 -0.0902 -0.4074 -0.2051
12378TIP3    H137091   2.476   0.463   3.534  0.6673 -0.2261  0.5007
12378TIP3    H237092   2.444   0.317   3.511 -1.9830  0.5270 -0.9706
12379TIP3   OH237093   3.239   1.920   6.455  0.4892  0.0569  0.6270
12379TIP3    H137094   3.279   1.834   6.448 -0.1277 -0.2012  0.1601
12379TIP3    H237095   3.184   1.915   6.533 -1.0518 -0.6314 -0.4425
12380TIP3   OH237096   2.438   1.723   4.701  0.1203  0.3347  0.2014
12380TIP3    H137097   2.350   1.705   4.666  0.6897 -2.2637 -0.0364
12380TIP3    H237098   2.422   1.768   4.784 -1.5178 -1.3940  0.8931
12381TIP3   OH237099   5.333   1.783   6.424  0.7426 -0.7838  0.6223
12381TIP3    H137100   5.291   1.868   6.432  0.4312 -0.9803  1.1082
12381TIP3    H237101   5.389   1.791   6.346  1.7868  0.3060  1.4558
12382TIP3   OH237102   1.183   4.209   5.000  0.2485  0.1289  0.1288
12382TIP3    H137103   1.174   4.114   4.999  1.0126  0.0497 -0.8089
12382TIP3    H237104   1.277   4.224   4.996  0.1082  0.8930 -2.7549
12383TIP3   OH237105   4.537   6.746   0.706 -0.0759 -0.0040 -0.2704
12383TIP3    H137106   4.444   6.722   0.712 -0.0614 -0.6880 -2.0181
12383TIP3    H237107   4.584   6.670   0.740 -0.1464 -0.3590 -0.9388
12384TIP3   OH237108   1.558   6.694   0.267 -0.4111  0.6272 -0.1508
12384TIP3    H137109   1.648   6.661   0.260 -0.7168 -0.3472  0.3597
12384TIP3    H237110   1.568   6.789   0.277  0.5334  0.5896 -0.6055
12385TIP3   OH237111   3.380   1.402   6.503 -0.4229 -0.4477 -0.0624
12385TIP3    H137112   3.285   1.408   6.514 -0.6020 -0.8579 -1.2210
12385TIP3    H237113   3.392   1.344   6.428  0.7883 -1.3140  0.7718
12386TIP3   OH237114   4.282   5.640   1.913  0.3424  0.1276  0.4823
12386TIP3    H137115   4.284   5.553   1.873  0.0679  0.6266 -0.6396
12386TIP3    H237116   4.360   5.643   1.968  0.5144 -0.7145  0.2955
12387TIP3   OH237117   3.619   3.176   3.774  0.1418 -0.5243 -0.2307
12387TIP3    H137118   3.530   3.143   3.760  0.3819 -0.6832 -1.4911
12387TIP3    H237119   3.607   3.268   3.796 -0.4115 -0.9183  1.2301
12388TIP3   OH237120   6.066   7.314   2.961 -0.0169 -0.0684 -0.1888
12388TIP3    H137121   6.074   7.383   3.027 -0.0679  1.0796 -1.3441
12388TIP3    H237122   5.972   7.301   2.951 -0.0337 -1.8453  1.5144
12389TIP3   OH237123   0.006   1.972   3.076 -0.0994 -0.8009  0.9937
12389TIP3    H137124   0.080   1.918   3.106  1.4834  1.2537  1.0552
12389TIP3    H237125   0.038   2.062   3.084 -1.8052  0.0821 -1.2092
12390TIP3   OH237126   7.195   5.488   5.302 -0.0445 -0.0082  0.1424
12390TIP3    H137127   7.152   5.460   5.383  0.0411 -1.6885 -0.3400
12390TIP3    H237128   7.275   5.531   5.332  0.3511 -1.2397  0.9757
12391TIP3   OH237129   3.249   4.597   0.646 -0.4530  0.0293  0.2454
12391TIP3    H137130   3.201   4.679   0.639 -1.6455 -0.6998 -0.5364
12391TIP3    H237131   3.329   4.612   0.595 -0.5768  0.7605  0.2584
12392TIP3   OH237132   7.606   0.752   4.845 -0.2691 -0.4522 -0.1970
12392TIP3    H137133   7.610   0.795   4.760  0.2894  1.8237  0.9147
12392TIP3    H237134   7.512   0.746   4.864 -0.4729 -2.1833 -1.4846
12393TIP3   OH237135   8.094   2.012   2.666  0.2458  0.0624 -0.0977
12393TIP3    H137136   8.084   2.107   2.671 -0.6670 -0.0159 -0.1690
12393TIP3    H237137   8.108   1.984   2.756  0.1194  0.2291 -0.0255
12394TIP3   OH237138   4.608   2.329   2.733 -0.9059  0.8360 -0.1895
12394TIP3    H137139   4.573   2.395   2.792 -2.6174  0.6958 -0.9863
12394TIP3    H237140   4.641   2.379   2.658 -0.8857  0.8584 -0.1659
12395TIP3   OH237141   6.949   4.145   3.264 -0.0630 -0.4709 -0.0863
12395TIP3    H137142   6.891   4.148   3.188 -0.0462 -0.8488 -0.1172
12395TIP3    H237143   6.890   4.132   3.339 -0.3438  2.4491  0.3035
12396TIP3   OH237144   3.177   1.650   2.587 -0.8642 -0.0293 -0.3965
12396TIP3    H137145   3.126   1.580   2.629  0.8747 -2.7804 -2.4884
12396TIP3    H237146   3.181   1.720   2.652 -4.5295 -0.9367  1.0280
12397TIP3   OH237147   7.276   2.879   0.027  0.4633 -0.1048  0.1395
12397TIP3    H137148   7.241   2.907   0.112 -1.9339  0.3976 -0.9298
12397TIP3    H237149   7.330   2.952  -0.003  0.0580  0.3618  0.5406
12398TIP3   OH237150   5.848   1.052   6.719  0.1804  0.0071 -0.0007
12398TIP3    H137151   5.889   1.001   6.789 -1.0284  0.7517  1.3186
12398TIP3    H237152   5.888   1.138   6.725  0.0318  0.0891 -0.1905
12399TIP3   OH237153   1.811   0.409   4.302  0.0396 -0.6914 -0.0880
12399TIP3    H137154   1.851   0.483   4.347 -0.3641 -0.5541  0.0493
12399TIP3    H237155   1.842   0.416   4.212 -0.0148 -0.3411 -0.0818
12400TIP3   OH237156   0.259   3.812   4.795 -0.7528  0.4947  0.0266
12400TIP3    H137157   0.330   3.835   4.855 -0.6041  0.1779 -0.0263
12400TIP3    H237158   0.210   3.744   4.841 -1.1663  0.8805  0.1641
12401TIP3   OH237159   2.087   3.412   0.289 -0.2101  0.3870  0.1097
12401TIP3    H137160   2.172   3.454   0.296 -0.7993  1.9615 -1.3171
12401TIP3    H237161   2.106   3.319   0.279  1.4177  0.8395 -1.4263
12402TIP3   OH237162   0.968   6.659   2.419 -0.4118  0.4520 -0.4895
12402TIP3    H137163   1.038   6.654   2.354  0.9237  0.9849  0.8419
12402TIP3    H237164   0.898   6.604   2.384  0.8207 -0.4208 -1.6782
12403TIP3   OH237165   5.357   4.611   0.066 -0.2718 -0.3365  0.6280
12403TIP3    H137166   5.400   4.692   0.092 -1.3277  0.0195  1.3429
12403TIP3    H237167   5.420   4.567   0.009  0.1609  1.1718 -0.1104
12404TIP3   OH237168   3.609   1.933   1.830 -0.2466  0.8292  1.0552
12404TIP3    H137169   3.620   2.017   1.875 -1.1811  1.5659 -0.0245
12404TIP3    H237170   3.680   1.931   1.766 -0.7198  1.1956  0.5119
12405TIP3   OH237171   1.646   6.490   6.011  0.2265  0.3363  0.4193
12405TIP3    H137172   1.633   6.398   5.988 -0.9960  0.7630 -0.6777
12405TIP3    H237173   1.636   6.537   5.928 -0.1358  1.5517  1.1363
12406TIP3   OH237174   3.129   3.035   3.043 -0.4381  0.0870  0.0221
12406TIP3    H137175   3.174   3.004   2.964  0.4501 -0.2959  0.6712
12406TIP3    H237176   3.058   2.972   3.056 -0.2149 -0.1976 -0.1195
12407TIP3   OH237177   2.485   4.679   0.845 -0.2307  0.0155 -0.3510
12407TIP3    H137178   2.464   4.769   0.870  2.3219  0.3304  1.0576
12407TIP3    H237179   2.538   4.688   0.765 -1.0415 -0.3545 -0.9423
12408TIP3   OH237180   2.563   4.432   0.372 -0.9916 -0.2503  0.2532
12408TIP3    H137181   2.590   4.352   0.327 -0.3167  0.5976 -0.9237
12408TIP3    H237182   2.468   4.429   0.371 -0.9896 -0.5191 -0.7892
12409TIP3   OH237183   1.425   0.379   3.586  0.4544  0.3064 -0.0934
12409TIP3    H137184   1.479   0.330   3.524  1.0146  0.7376  0.0388
12409TIP3    H237185   1.340   0.335   3.585  0.6571 -0.0786 -0.6826
12410TIP3   OH237186   2.060   2.761   0.194 -0.5540  0.4497 -0.4063
12410TIP3    H137187   2.074   2.736   0.102 -1.0766 -0.8936 -0.1352
12410TIP3    H237188   1.978   2.719   0.218 -0.8732  1.5304  0.4318
12411TIP3   OH237189   2.168   0.732   3.859 -0.1219  0.0252  0.0895
12411TIP3    H137190   2.138   0.809   3.811 -0.7559 -0.8301 -0.9253
12411TIP3    H237191   2.255   0.714   3.823  1.0238  1.5748  1.9276
12412TIP3   OH237192   7.704   0.234   4.873 -0.2264 -0.7727 -0.0353
12412TIP3    H137193   7.738   0.292   4.941  1.6882 -1.3103 -0.4741
12412TIP3    H237194   7.613   0.220   4.897  0.2163 -0.4054  2.0565
12413TIP3   OH237195   2.455   3.351   4.829  0.4168 -0.4785 -0.0800
12413TIP3    H137196   2.514   3.296   4.777  1.1616  0.4219 -0.2093
12413TIP3    H237197   2.372   3.304   4.828  0.7613 -1.0988 -1.0285
12414TIP3   OH237198   0.891   3.929   5.181 -0.3966  0.0625  0.5618
12414TIP3    H137199   0.875   4.001   5.120  0.3920 -0.8182 -0.7443
12414TIP3    H237200   0.986   3.914   5.175 -0.5652 -1.1364  0.7241
12415TIP3   OH237201   7.770   7.556   1.092 -0.0872 -0.8139 -0.2295
12415TIP3    H137202   7.728   7.573   1.007  0.0088 -1.5925 -0.4432
12415TIP3    H237203   7.766   7.461   1.101  0.1853 -0.7572  0.4992
12416TIP3   OH237204   4.464   7.544   3.057 -0.7780 -0.8169  0.4715
12416TIP3    H137205   4.370   7.531   3.068 -0.6768 -0.5162  1.8553
12416TIP3    H237206   4.472   7.586   2.971 -2.0656  0.7540  1.0621
12417TIP3   OH237207   5.638   7.401   5.183  0.3764  0.1932 -0.5272
12417TIP3    H137208   5.691   7.321   5.193 -0.4032 -0.1414  1.3369
12417TIP3    H237209   5.594   7.390   5.099 -0.1922 -1.6779 -0.0337
12418TIP3   OH237210   0.745   1.391   3.761  0.6595  0.6751  0.2507
12418TIP3    H137211   0.657   1.420   3.784 -0.0168  0.1028 -1.4731
12418TIP3    H237212   0.803   1.461   3.793 -0.5126  1.6108  0.3786
12419TIP3   OH237213   5.772   2.813   6.217  0.3063 -0.0062 -0.1105
12419TIP3    H137214   5.711   2.886   6.205  2.6198  2.4184  1.6334
12419TIP3    H237215   5.840   2.828   6.150  0.4045 -1.0674 -0.2601
12420TIP3   OH237216   1.686   6.745   4.882 -0.0226  0.1844 -0.2084
12420TIP3    H137217   1.755   6.811   4.890 -0.2934  0.4631 -0.1470
12420TIP3    H237218   1.651   6.756   4.794  0.6735 -0.6191 -0.5922
12421TIP3   OH237219   7.163   6.783   2.670  0.1620 -0.4206  0.1634
12421TIP3    H137220   7.147   6.852   2.606 -1.6134  0.3459  1.3992
12421TIP3    H237221   7.196   6.828   2.747  1.2591 -1.2367  0.2063
12422TIP3   OH237222   0.330   0.141   2.044 -0.0671  0.4909  0.0231
12422TIP3    H137223   0.242   0.126   2.008  0.2731 -1.8560 -0.0250
12422TIP3    H237224   0.314   0.171   2.134 -0.9870 -0.9926  0.4114
12423TIP3   OH237225   5.101   1.720   1.654  0.2213 -0.2468 -0.3538
12423TIP3    H137226   5.082   1.787   1.589 -0.0377 -0.2339 -0.2665
12423TIP3    H237227   5.017   1.702   1.696  0.6875  1.0750  1.2472
12424TIP3   OH237228   4.543   5.961   2.525  0.1206  0.3171  0.1037
12424TIP3    H137229   4.496   5.966   2.608 -1.6351  1.0359 -0.8793
12424TIP3    H237230   4.563   5.867   2.514  0.2456  0.1965  1.2381
12425TIP3   OH237231   5.365   7.250   2.769  0.8468 -0.6724 -0.0136
12425TIP3    H137232   5.344   7.240   2.862  0.1097 -0.8257 -0.1908
12425TIP3    H237233   5.386   7.161   2.740  0.0728 -0.7853 -0.2291
12426TIP3   OH237234   6.222   6.713   4.916  0.6058 -0.3678  0.2793
12426TIP3    H137235   6.139   6.704   4.963 -0.1623 -1.8793 -1.2648
12426TIP3    H237236   6.289   6.695   4.983 -0.2226  1.5785  1.7105
12427TIP3   OH237237   6.705   6.405   0.786 -0.0569  0.0680 -0.2165
12427TIP3    H137238   6.720   6.465   0.859  0.0856 -1.1203  0.7729
12427TIP3    H237239   6.716   6.318   0.824  2.0090 -0.5822 -2.0891
12428TIP3   OH237240   0.706   3.697   0.166  0.9506 -0.5726  0.3191
12428TIP3    H137241   0.668   3.624   0.116 -2.2860  0.4313  1.0444
12428TIP3    H237242   0.671   3.775   0.124  3.1468  0.5600  0.4794
12429TIP3   OH237243   2.368   7.735   2.181 -0.0387 -0.0058  0.2767
12429TIP3    H137244   2.462   7.742   2.165 -0.0584 -0.2915  0.0285
12429TIP3    H237245   2.331   7.707   2.097 -0.4009  0.5534  0.2447
12430TIP3   OH237246   0.222   6.582   4.232 -0.0760 -0.2628  0.2036
12430TIP3    H137247   0.314   6.556   4.236 -0.1441 -0.4413  0.6927
12430TIP3    H237248   0.183   6.522   4.170  0.2332  0.1140 -0.3632
12431TIP3   OH237249   6.246   5.377   5.327 -0.3914  0.5475 -0.2123
12431TIP3    H137250   6.166   5.340   5.290 -0.0286 -0.3603 -0.1273
12431TIP3    H237251   6.282   5.306   5.381 -0.0625  1.2973  0.5617
12432TIP3   OH237252   5.061   7.531   4.989  0.3856  0.2542 -0.4403
12432TIP3    H137253   5.076   7.625   4.974  2.7260  0.3506  1.7387
12432TIP3    H237254   5.106   7.488   4.916  0.3359  0.7986 -0.8010
12433TIP3   OH237255   1.231   2.918   0.149  0.2274 -0.5759 -0.2210
12433TIP3    H137256   1.263   2.871   0.072 -0.2515 -2.2157  0.5310
12433TIP3    H237257   1.193   2.850   0.204  1.2074  0.4255  1.8140
12434TIP3   OH237258   3.171   2.319   6.234  0.3285  0.2059  0.5267
12434TIP3    H137259   3.176   2.226   6.211  0.0760  0.3248 -0.0337
12434TIP3    H237260   3.116   2.322   6.312 -0.6438 -0.0111 -0.1399
12435TIP3   OH237261   0.922   1.524   3.083 -0.2264 -0.6793 -0.4113
12435TIP3    H137262   0.865   1.480   3.021 -0.8359 -0.4913  0.0055
12435TIP3    H237263   0.873   1.602   3.110 -0.2753 -1.1029  0.8104
12436TIP3   OH237264   0.913   7.517   3.523 -0.2986 -0.0724 -0.5877
12436TIP3    H137265   0.872   7.457   3.586  0.7287 -1.7563 -1.4396
12436TIP3    H237266   0.928   7.463   3.445  2.1114  0.8061 -0.8314
12437TIP3   OH237267   4.595   3.835   3.445  0.2623  0.4745 -0.4204
12437TIP3    H137268   4.522   3.854   3.387 -0.2960 -1.2950 -0.3510
12437TIP3    H237269   4.616   3.743   3.428  0.3254  0.0055  1.9168
12438TIP3   OH237270   3.589   4.092   0.595  0.5723  0.0673 -0.2757
12438TIP3    H137271   3.616   4.004   0.623  0.5914  0.7152  1.9127
12438TIP3    H237272   3.494   4.085   0.583  0.4294 -0.0278  0.8379
12439TIP3   OH237273   2.621   3.052   2.887 -0.4971  0.2914  0.0755
12439TIP3    H137274   2.544   3.101   2.914 -0.0429  0.2217  1.5657
12439TIP3    H237275   2.587   2.966   2.862 -1.1482  0.9564 -1.4410
12440TIP3   OH237276   0.910   5.636   3.130  0.2418 -0.0059  0.1233
12440TIP3    H137277   0.843   5.638   3.063 -0.4759 -1.5857  0.7525
12440TIP3    H237278   0.993   5.638   3.082 -0.2593 -0.0543 -0.7505
12441TIP3   OH237279   4.368   3.282   4.099  0.7876 -0.2106  0.1034
12441TIP3    H137280   4.281   3.311   4.073  0.4391 -0.2024  1.2031
12441TIP3    H237281   4.428   3.327   4.040  0.1092  0.7006  0.0942
12442TIP3   OH237282   6.314   1.863   3.328 -0.0330  0.0617 -0.2802
12442TIP3    H137283   6.325   1.807   3.405  0.0705  0.2752 -0.1406
12442TIP3    H237284   6.338   1.950   3.358  0.3566  0.0816 -0.6517
12443TIP3   OH237285   2.204   7.685   0.437  0.6697  0.1494  0.3850
12443TIP3    H137286   2.122   7.677   0.389 -0.7156  2.8345  2.0447
12443TIP3    H237287   2.235   7.595   0.448 -1.4482 -0.8588 -1.2238
12444TIP3   OH237288   4.317   1.991   2.864  0.0868 -0.4027  0.4202
12444TIP3    H137289   4.395   1.985   2.919  0.3163 -0.2938  0.1103
12444TIP3    H237290   4.349   2.030   2.783 -0.4994  0.7085  0.7103
12445TIP3   OH237291   1.371   0.959   1.885  0.1382  0.1571 -0.2802
12445TIP3    H137292   1.351   1.010   1.963 -0.2751 -0.1330 -0.1928
12445TIP3    H237293   1.414   0.880   1.918  0.3272  0.2196 -0.3768
12446TIP3   OH237294   5.144   7.055   4.966 -0.0612  0.4327 -0.2706
12446TIP3    H137295   5.052   7.075   4.985 -0.2344 -1.1270  0.6949
12446TIP3    H237296   5.192   7.093   5.039  0.0609  1.0304 -0.6497
12447TIP3   OH237297   3.921   7.150   0.697  0.1991  0.2840 -0.1384
12447TIP3    H137298   3.833   7.115   0.682  0.1654  0.6010 -0.6975
12447TIP3    H237299   3.906   7.238   0.731  0.2861  1.1011 -2.0800
12448TIP3   OH237300   7.712   6.782   2.502 -0.0975 -0.3448  0.4348
12448TIP3    H137301   7.800   6.748   2.518 -0.1447 -1.2370 -1.0385
12448TIP3    H237302   7.724   6.876   2.490  0.4699 -0.2771  1.3912
12449TIP3   OH237303   1.336   6.563   6.534 -0.2270 -0.0369  0.0356
12449TIP3    H137304   1.244   6.574   6.513  0.0459  1.7103 -0.4226
12449TIP3    H237305   1.337   6.522   6.620 -1.4319  0.1817  0.1669
12450TIP3   OH237306   8.274   2.047   0.693  0.3759 -0.0823  0.1986
12450TIP3    H137307   8.335   2.121   0.702  0.8782 -0.5542  0.7114
12450TIP3    H237308   8.237   2.035   0.780 -1.0729  0.7096 -0.2787
12451TIP3   OH237309   0.550   0.719   5.361 -0.1196 -0.0799  0.3267
12451TIP3    H137310   0.531   0.811   5.344 -1.1262 -0.1715  0.8961
12451TIP3    H237311   0.635   0.719   5.405  0.7958  0.4220 -1.3562
12452TIP3   OH237312   2.055   0.994   3.817 -0.0339 -0.1377  0.2221
12452TIP3    H137313   1.968   1.029   3.836  0.4512  2.9556 -2.3513
12452TIP3    H237314   2.112   1.071   3.814  2.5537 -1.9208  0.5550
12453TIP3   OH237315   3.110   4.426   1.362  0.5727  0.3744 -0.5794
12453TIP3    H137316   3.147   4.501   1.409  0.7372  1.1270 -1.8553
12453TIP3    H237317   3.050   4.386   1.425 -1.8717  3.3643 -0.7282
12454TIP3   OH237318   0.089   4.782   6.630 -0.1570 -0.0503  0.0546
12454TIP3    H137319   0.002   4.780   6.590  0.3048  0.8540 -1.0844
12454TIP3    H237320   0.093   4.705   6.686 -1.3167 -0.6628 -0.6855
12455TIP3   OH237321   2.279   2.839   5.405 -0.5494 -0.3428  0.5909
12455TIP3    H137322   2.325   2.789   5.472  1.9197  1.8399  0.6852
12455TIP3    H237323   2.246   2.916   5.450 -0.0685  0.4772 -0.4102
12456TIP3   OH237324   3.864   1.646   0.193  0.2939 -0.4175  0.5092
12456TIP3    H137325   3.787   1.663   0.139  0.5268  0.8286  0.5561
12456TIP3    H237326   3.937   1.643   0.130  0.4184 -0.0217  0.6324
12457TIP3   OH237327   1.565   0.396   0.503  0.6091  0.0013 -0.0318
12457TIP3    H137328   1.651   0.437   0.496  0.8635 -0.3548  0.8506
12457TIP3    H237329   1.570   0.343   0.582  0.4556 -2.1235 -1.3692
12458TIP3   OH237330   6.230   0.436   0.625 -0.2054  0.1386  0.0872
12458TIP3    H137331   6.254   0.487   0.702 -1.0163  1.9941 -0.8229
12458TIP3    H237332   6.282   0.475   0.554 -0.2501 -0.8429 -0.5050
12459TIP3   OH237333   4.761   1.937   3.519  0.3146  0.0517  0.2828
12459TIP3    H137334   4.795   1.848   3.511  1.5569  0.5160  0.0336
12459TIP3    H237335   4.709   1.950   3.440  0.8605 -0.1690 -0.1242
12460TIP3   OH237336   5.663   1.554   0.599  0.1332  0.4930  0.0603
12460TIP3    H137337   5.610   1.475   0.591  0.1214  0.4597  0.4217
12460TIP3    H237338   5.747   1.531   0.561  0.2068  0.2302  0.3790
12461TIP3   OH237339   7.178   4.143   5.460  0.4151  0.2965  0.0851
12461TIP3    H137340   7.241   4.074   5.477 -0.2650 -0.4738 -0.4632
12461TIP3    H237341   7.213   4.219   5.506  1.2195 -0.3835  0.6235
12462TIP3   OH237342   3.562   6.012   5.023 -0.2862  0.4293 -0.1395
12462TIP3    H137343   3.508   5.944   5.062  0.1189  1.3211  2.1154
12462TIP3    H237344   3.512   6.040   4.945 -1.0127 -1.5737 -0.4570
12463TIP3   OH237345   3.849   5.262   2.224 -0.1458 -0.3590  0.1492
12463TIP3    H137346   3.943   5.267   2.204 -0.0663 -0.4281  0.5108
12463TIP3    H237347   3.808   5.242   2.139  0.2100 -0.8261  0.0840
12464TIP3   OH237348   2.407   4.698   3.394 -0.8462 -0.1104  0.9195
12464TIP3    H137349   2.474   4.651   3.443 -1.5915 -0.5657  1.5216
12464TIP3    H237350   2.450   4.778   3.365  0.5538 -1.2980 -0.4399
12465TIP3   OH237351   0.271   4.532   4.510  0.3588  0.2477 -0.7095
12465TIP3    H137352   0.211   4.541   4.437 -0.0360  1.3827 -0.2772
12465TIP3    H237353   0.333   4.604   4.499  1.6166 -0.8573 -1.1054
12466TIP3   OH237354   4.833   0.597   4.586  0.4233  0.3699  0.2897
12466TIP3    H137355   4.791   0.564   4.506 -0.5551  1.7863  0.1889
12466TIP3    H237356   4.872   0.681   4.560  0.9291  0.3855  1.0722
12467TIP3   OH237357   5.922   3.970   6.748 -0.1557  0.3111  0.1997
12467TIP3    H137358   5.951   3.975   6.839  0.2065  0.2843  0.0896
12467TIP3    H237359   5.835   4.009   6.748  0.7027  2.3623  0.1859
12468TIP3   OH237360   3.425   6.496   2.176  0.0075  0.1273 -0.4349
12468TIP3    H137361   3.416   6.590   2.163  3.7057  0.5926 -0.7787
12468TIP3    H237362   3.519   6.482   2.186 -0.3725 -3.5828 -0.5766
12469TIP3   OH237363   4.767   4.475   2.507  0.4005 -0.0756 -0.2361
12469TIP3    H137364   4.681   4.509   2.532  1.7611  1.4307  3.0645
12469TIP3    H237365   4.794   4.530   2.433 -0.5675  0.9439  0.1408
12470TIP3   OH237366   7.402   5.996   3.796  0.8648  0.1010 -0.3432
12470TIP3    H137367   7.371   6.042   3.718 -1.8009 -1.6029 -0.4518
12470TIP3    H237368   7.350   6.032   3.867  1.2234 -0.3062  0.1289
12471TIP3   OH237369   6.242   4.750   2.132 -0.0911  0.1540  0.0822
12471TIP3    H137370   6.288   4.760   2.215 -0.1514  1.8422 -0.0629
12471TIP3    H237371   6.312   4.755   2.066 -0.1298 -0.4523 -0.0113
12472TIP3   OH237372   0.842   2.562   2.722  0.0612  0.0580  0.5936
12472TIP3    H137373   0.845   2.466   2.714  1.7177 -0.0507  2.0377
12472TIP3    H237374   0.904   2.593   2.656 -1.6090  0.2952 -0.9753
12473TIP3   OH237375   5.927   3.680   4.869 -0.0995  0.4317 -0.4794
12473TIP3    H137376   5.840   3.643   4.853  0.5588 -1.2450 -0.3488
12473TIP3    H237377   5.977   3.608   4.906  0.9787  1.7554  0.7284
12474TIP3   OH237378   2.599   2.443   3.796  0.7657  0.0599 -0.6123
12474TIP3    H137379   2.596   2.462   3.890  0.9078  1.7708 -0.9216
12474TIP3    H237380   2.530   2.378   3.782 -1.2589  1.9212  0.2315
12475TIP3   OH237381   2.612   5.728   3.373 -0.5222  0.1910  0.2868
12475TIP3    H137382   2.660   5.808   3.395  1.8267 -1.2228  0.5852
12475TIP3    H237383   2.617   5.722   3.278  0.2684 -0.1226  0.3359
12476TIP3   OH237384   1.755   2.852   1.885 -0.4609  0.4597  0.3855
12476TIP3    H137385   1.770   2.895   1.970 -0.8997 -0.2570  0.8329
12476TIP3    H237386   1.803   2.907   1.822  1.0196  0.2632  1.2775
12477TIP3   OH237387   6.290   3.631   5.595 -0.0646  0.1853  0.1710
12477TIP3    H137388   6.292   3.536   5.606  0.0139  0.1056 -0.4696
12477TIP3    H237389   6.264   3.643   5.503 -2.1459  0.7986  0.7874
12478TIP3   OH237390   6.011   3.888   1.811 -0.3393 -0.4498  0.0756
12478TIP3    H137391   6.061   3.813   1.845 -1.3727 -2.3527 -2.2810
12478TIP3    H237392   6.068   3.926   1.745 -0.3415  0.0619  0.3634
12479TIP3   OH237393   4.920   5.969   5.958 -0.4742 -0.1110 -0.0335
12479TIP3    H137394   4.884   6.011   6.036  0.9451 -0.1627  0.6791
12479TIP3    H237395   4.846   5.919   5.922 -1.9185  2.1197 -0.3287
12480TIP3   OH237396   2.104   2.936   6.659  0.2842 -0.4848  0.3060
12480TIP3    H137397   2.142   2.851   6.639  1.3553 -0.4981  2.1314
12480TIP3    H237398   2.021   2.916   6.702 -1.2876 -0.4794 -2.5401
12481TIP3   OH237399   7.372   7.380   1.900 -0.2723  0.1786 -0.5121
12481TIP3    H137400   7.296   7.394   1.844  0.0253 -0.6948 -1.1622
12481TIP3    H237401   7.336   7.357   1.985 -0.7325  1.1343 -0.4408
12482TIP3   OH237402   3.771   4.895   0.438 -0.2446  0.3270  0.4063
12482TIP3    H137403   3.806   4.893   0.527  1.3017 -0.9225 -0.1792
12482TIP3    H237404   3.695   4.953   0.443  0.1797  0.7753  2.3926
12483TIP3   OH237405   5.549   2.976   2.162 -0.2953 -0.2394 -0.2589
12483TIP3    H137406   5.482   2.924   2.207  0.0862 -0.2918  0.2671
12483TIP3    H237407   5.539   3.064   2.199  1.1311 -0.6524  1.2279
12484TIP3   OH237408   0.953   5.989   0.110  0.1293 -0.0131 -0.3548
12484TIP3    H137409   0.959   5.894   0.100  1.8787  0.1348 -1.0886
12484TIP3    H237410   1.033   6.022   0.069 -0.1453  1.7371  0.4460
12485TIP3   OH237411   4.151   6.351   5.440  0.5749  0.1519  0.2948
12485TIP3    H137412   4.124   6.294   5.512  0.6615  0.7689  0.8153
12485TIP3    H237413   4.088   6.331   5.370  0.7536 -0.7612  0.3742
12486TIP3   OH237414   6.080   3.636   4.589 -0.2056  0.5846  0.3215
12486TIP3    H137415   6.136   3.670   4.659  1.3481  0.4299 -0.8095
12486TIP3    H237416   6.101   3.543   4.584 -0.2707  0.6050 -0.3787
12487TIP3   OH237417   3.877   0.345   6.432  0.2342  0.5025  0.2094
12487TIP3    H137418   3.880   0.428   6.384 -2.9603  0.2576 -0.5927
12487TIP3    H237419   3.870   0.370   6.524  0.7702  1.0642  0.1074
12488TIP3   OH237420   5.653   6.373   3.998  0.1831  0.0781  0.5443
12488TIP3    H137421   5.719   6.370   4.067  0.1984 -0.4314  0.5153
12488TIP3    H237422   5.597   6.297   4.015 -0.9819  1.0527  1.1351
12489TIP3   OH237423   6.107   2.898   1.979 -0.2181  0.3431  0.2177
12489TIP3    H137424   6.115   2.803   1.976  1.3217  0.4574 -2.1880
12489TIP3    H237425   6.162   2.925   2.052 -0.1253 -0.5811  0.4956
12490TIP3   OH237426   4.558   4.618   3.743 -0.0124 -0.2201  0.2431
12490TIP3    H137427   4.567   4.683   3.813  4.3842 -0.7288  0.4627
12490TIP3    H237428   4.569   4.534   3.789 -1.6042 -0.8944 -0.5535
12491TIP3   OH237429   3.795   2.759   3.421  0.3403 -0.2872 -0.9329
12491TIP3    H137430   3.828   2.848   3.409  0.0312  0.2304  1.4066
12491TIP3    H237431   3.873   2.706   3.435  0.4541  0.0789 -0.0581
12492TIP3   OH237432   6.067   0.497   3.480  0.6261 -0.0500 -0.1543
12492TIP3    H137433   6.152   0.484   3.520 -1.1904 -2.4315  3.4201
12492TIP3    H237434   6.030   0.573   3.525  0.3601  0.2643 -0.8718
12493TIP3   OH237435   5.750   5.065   0.231  0.0990 -0.1351  0.1657
12493TIP3    H137436   5.718   5.137   0.178  1.9852  1.0707  0.6010
12493TIP3    H237437   5.693   5.065   0.309  0.5910  1.4547  0.5617
12494TIP3   OH237438   2.015   6.045   0.791 -0.0404  0.1581  0.3901
12494TIP3    H137439   1.941   5.997   0.828 -1.4429  1.5414 -0.5017
12494TIP3    H237440   1.990   6.137   0.799  2.1773  0.7597  1.2302
12495TIP3   OH237441   4.833   7.293   1.347 -0.2316 -0.0694 -0.7094
12495TIP3    H137442   4.798   7.381   1.365  0.9576  0.2746  0.0917
12495TIP3    H237443   4.874   7.300   1.261  1.5244  0.7379  0.1448
12496TIP3   OH237444   2.419   2.931   0.086 -0.1870 -0.0722  0.2661
12496TIP3    H137445   2.459   2.988   0.152  1.5697 -0.5135 -0.3744
12496TIP3    H237446   2.450   2.966   0.003 -1.4953 -0.1950 -0.2922
12497TIP3   OH237447   5.294   6.733   4.969 -0.0761  0.4858 -0.0080
12497TIP3    H137448   5.355   6.802   4.943  0.1033  0.3876  0.1505
12497TIP3    H237449   5.340   6.684   5.037 -0.9573  1.3857  1.2761
12498TIP3   OH237450   3.716   4.638   2.094 -0.1005 -0.1886  0.5174
12498TIP3    H137451   3.672   4.716   2.127 -0.3231 -0.1514  0.1397
12498TIP3    H237452   3.804   4.667   2.073 -0.2287 -0.0060  0.2365
12499TIP3   OH237453   5.753   6.789   6.228 -0.8004 -0.1555 -0.0058
12499TIP3    H137454   5.689   6.762   6.295 -0.8917  0.0625 -0.0035
12499TIP3    H237455   5.724   6.876   6.201  0.1149  0.4159  0.7773
12500TIP3   OH237456   7.613   1.580   1.353 -0.0120  0.0635 -0.0854
12500TIP3    H137457   7.641   1.648   1.292  0.4902 -2.0492 -2.3178
12500TIP3    H237458   7.669   1.505   1.334 -1.8361 -1.6528  0.9040
12501TIP3   OH237459   7.928   0.843   1.495 -0.1042  0.2139 -0.2405
12501TIP3    H137460   7.844   0.889   1.500 -0.4560 -0.3196 -1.0567
12501TIP3    H237461   7.963   0.848   1.584 -0.5207  1.3150 -0.1168
12502TIP3   OH237462   1.224   7.122   2.524 -0.3959  0.0672  0.2781
12502TIP3    H137463   1.176   7.178   2.463  1.7745  1.4933 -0.2078
12502TIP3    H237464   1.199   7.033   2.498 -2.3606  0.7038 -0.2305
12503TIP3   OH237465   6.804   1.013   1.628 -0.3768 -0.2585 -0.5220
12503TIP3    H137466   6.791   1.076   1.699  1.2960 -0.4416 -0.0069
12503TIP3    H237467   6.779   1.061   1.549  2.2700  1.6702 -0.3263
12504TIP3   OH237468   8.293   5.843   6.778  0.1780 -0.0302 -0.0299
12504TIP3    H137469   8.209   5.851   6.822 -0.2856 -0.3585 -0.8378
12504TIP3    H237470   8.298   5.919   6.720  0.0378 -0.4883 -0.6437
12505TIP3   OH237471   6.783   4.633   1.414  0.0900  0.1782 -0.9982
12505TIP3    H137472   6.736   4.555   1.384 -1.7880  1.0808 -0.5105
12505TIP3    H237473   6.805   4.680   1.334  1.5170 -0.9520 -1.3202
12506TIP3   OH237474   8.023   4.920   2.598 -0.2357  0.1203  0.3451
12506TIP3    H137475   7.937   4.932   2.637 -0.4143 -2.8102  1.0644
12506TIP3    H237476   8.083   4.965   2.657 -1.0201 -0.0261  1.2681
12507TIP3   OH237477   6.757   4.411   6.606 -0.8205  0.1014  0.2457
12507TIP3    H137478   6.790   4.501   6.613 -1.1790  0.2102  0.5934
12507TIP3    H237479   6.704   4.399   6.685 -1.9782  0.0910 -0.5094
12508TIP3   OH237480   0.770   7.487   6.128  0.3575  0.2445  0.0558
12508TIP3    H137481   0.850   7.433   6.125 -0.6297 -1.2859 -0.0152
12508TIP3    H237482   0.790   7.557   6.190  1.4843 -0.5865  0.6643
12509TIP3   OH237483   3.640   5.790   1.586 -0.3893  0.1208  0.1768
12509TIP3    H137484   3.567   5.731   1.602  0.7939 -0.9425  2.0022
12509TIP3    H237485   3.683   5.799   1.671  1.2336  1.2298 -0.7015
12510TIP3   OH237486   6.450   2.316   1.873 -0.0617  0.7333  0.6483
12510TIP3    H137487   6.489   2.299   1.787 -1.5426 -0.1928  0.1231
12510TIP3    H237488   6.425   2.408   1.870 -0.6958  0.5453 -0.1867
12511TIP3   OH237489   1.026   0.322   4.508  0.2695  0.9934 -0.1316
12511TIP3    H137490   1.052   0.260   4.577 -0.0139  0.9852 -0.0309
12511TIP3    H237491   0.931   0.329   4.517  0.1921  0.7254 -0.7541
12512TIP3   OH237492   2.815   4.732   1.557 -0.4191  0.6112  0.3563
12512TIP3    H137493   2.837   4.818   1.521 -0.9457  1.1115  1.2135
12512TIP3    H237494   2.881   4.717   1.625  0.7639 -0.4713 -0.9612
12513TIP3   OH237495   7.525   1.403   0.188  0.2484 -0.4794  0.2025
12513TIP3    H137496   7.510   1.360   0.104 -1.8494 -3.0734  1.7333
12513TIP3    H237497   7.460   1.472   0.192  1.5729  0.8975 -0.9928
12514TIP3   OH237498   2.009   6.939   3.901 -0.0803 -0.0974 -0.5539
12514TIP3    H137499   2.057   6.988   3.835  1.2675  2.1848  1.9113
12514TIP3    H237500   2.076   6.897   3.954 -1.0960 -1.4758 -0.2911
12515TIP3   OH237501   3.949   6.678   0.869  0.2265  0.1820 -0.2333
12515TIP3    H137502   4.017   6.663   0.935 -0.7115 -0.2971  0.6525
12515TIP3    H237503   3.976   6.759   0.825  2.2684 -0.8979 -1.0815
12516TIP3   OH237504   0.165   0.848   6.427 -0.1941 -0.1032 -0.0918
12516TIP3    H137505   0.192   0.806   6.345 -0.2723  0.5504 -0.4643
12516TIP3    H237506   0.070   0.839   6.428 -0.1025 -1.1567  0.5228
12517TIP3   OH237507   1.753   5.447   1.753 -0.6083  0.3149 -0.0972
12517TIP3    H137508   1.674   5.441   1.805  0.3336 -0.6247  1.3044
12517TIP3    H237509   1.752   5.535   1.716 -0.4662  1.6946  2.9473
12518TIP3   OH237510   0.957   5.701   6.421  0.2710 -0.1711 -0.1236
12518TIP3    H137511   1.045   5.704   6.458  0.1869  0.2619  0.0423
12518TIP3    H237512   0.944   5.788   6.383 -0.9736  0.5898  1.9073
12519TIP3   OH237513   7.079   6.471   4.355 -0.2795  0.3310  0.0338
12519TIP3    H137514   7.121   6.467   4.441  0.8908  1.7205 -0.4405
12519TIP3    H237515   7.115   6.550   4.314  0.0368 -0.8814 -2.1823
12520TIP3   OH237516   5.292   1.911   1.510 -0.3775 -0.0238 -0.1960
12520TIP3    H137517   5.293   1.980   1.577 -0.0900  0.5225 -0.7429
12520TIP3    H237518   5.202   1.911   1.477  0.1120  1.5945 -1.6731
12521TIP3   OH237519   1.140   6.244   5.406  0.3000 -0.1271  0.4128
12521TIP3    H137520   1.072   6.201   5.354 -0.4868  0.1057  1.2190
12521TIP3    H237521   1.219   6.237   5.353 -0.5123  0.2677 -0.8947
12522TIP3   OH237522   4.863   3.795   5.222  0.2670  0.0223 -0.1368
12522TIP3    H137523   4.825   3.810   5.136  0.5033 -0.0029 -0.2456
12522TIP3    H237524   4.938   3.738   5.206  0.5379  0.3251  0.0414
12523TIP3   OH237525   6.357   1.464   0.104 -0.3346  0.3591  0.4652
12523TIP3    H137526   6.383   1.421   0.023  0.4797 -1.9123  1.8094
12523TIP3    H237527   6.294   1.530   0.078 -0.5278 -0.6878 -1.9552
12524TIP3   OH237528   5.380   4.607   5.885 -0.3433 -0.0695  0.0556
12524TIP3    H137529   5.431   4.585   5.806 -2.4867 -2.7897 -0.7531
12524TIP3    H237530   5.303   4.653   5.851 -0.8729 -0.5135  0.6440
12525TIP3   OH237531   6.446   5.136   2.569 -0.0602 -0.1317  0.5350
12525TIP3    H137532   6.499   5.198   2.619  2.6798 -0.8913 -1.1655
12525TIP3    H237533   6.428   5.065   2.631  0.9695  0.1500  1.1912
12526TIP3   OH237534   6.113   5.867   1.893  0.1939  0.2828 -0.0399
12526TIP3    H137535   6.043   5.894   1.832  0.1323 -0.4549 -0.3055
12526TIP3    H237536   6.192   5.868   1.840  0.1068 -0.5681 -0.1928
12527TIP3   OH237537   3.113   3.151   0.511 -0.2671 -0.0273 -0.0728
12527TIP3    H137538   3.064   3.233   0.521 -3.6838 -2.0763  1.8485
12527TIP3    H237539   3.090   3.121   0.423 -1.0702 -0.0790  0.1419
12528TIP3   OH237540   1.225   3.531   5.685  0.3065 -0.3679  0.0536
12528TIP3    H137541   1.143   3.553   5.729  0.6189 -0.8968  0.9213
12528TIP3    H237542   1.239   3.439   5.705  1.2081 -0.2372  0.0652
12529TIP3   OH237543   6.370   4.229   6.615 -0.3716 -0.6299  0.0357
12529TIP3    H137544   6.286   4.185   6.623  0.1701 -1.4398  1.6754
12529TIP3    H237545   6.350   4.321   6.633 -1.1679 -0.5090 -1.3425
12530TIP3   OH237546   2.297   0.839   5.242 -0.1267 -0.0732 -0.5613
12530TIP3    H137547   2.365   0.805   5.300 -0.2748  1.6219  0.6969
12530TIP3    H237548   2.322   0.810   5.155  1.2460 -0.9532  0.0967
12531TIP3   OH237549   5.287   2.562   5.541 -0.3532 -0.4601 -0.2701
12531TIP3    H137550   5.251   2.474   5.547 -0.7923 -0.2998 -0.4904
12531TIP3    H237551   5.280   2.584   5.448 -1.9078  0.4825  0.0241
12532TIP3   OH237552   1.223   2.515   2.771  0.4301 -0.3137 -0.3866
12532TIP3    H137553   1.161   2.573   2.727  1.4536  1.7252  0.7019
12532TIP3    H237554   1.292   2.501   2.707 -0.6320 -1.8339 -1.2715
12533TIP3   OH237555   5.537   3.339   1.165  0.3845  0.3000  0.2343
12533TIP3    H137556   5.583   3.337   1.248  1.1502 -0.7645 -0.1843
12533TIP3    H237557   5.502   3.250   1.155  1.1330  0.1196 -1.0048
12534TIP3   OH237558   1.793   2.155   4.840  0.1467  0.2060  0.3331
12534TIP3    H137559   1.847   2.094   4.789  0.9488  1.2191 -0.0697
12534TIP3    H237560   1.843   2.237   4.839 -0.6275  0.7075  1.3569
12535TIP3   OH237561   2.266   3.998   2.014 -0.4740 -0.1893 -0.2427
12535TIP3    H137562   2.276   4.055   1.939 -0.7883  0.6044  0.3120
12535TIP3    H237563   2.174   3.972   2.014 -0.3249 -0.7329 -0.5152
12536TIP3   OH237564   1.420   7.204   4.642  0.1547 -0.4967 -0.5673
12536TIP3    H137565   1.413   7.140   4.713 -2.5795 -0.6024 -0.8149
12536TIP3    H237566   1.471   7.160   4.575  0.1654 -1.5917  0.1323
12537TIP3   OH237567   1.706   5.581   0.001  0.0150  0.5450 -0.2408
12537TIP3    H137568   1.750   5.612   0.080  0.5743  1.6066 -0.9525
12537TIP3    H237569   1.674   5.660  -0.042 -1.3330 -0.1006 -0.4891
12538TIP3   OH237570   2.596   5.439   4.918  0.1581 -0.1267 -0.7864
12538TIP3    H137571   2.546   5.411   4.995  1.0456  0.4060  0.0163
12538TIP3    H237572   2.576   5.532   4.909  1.9793  0.4452  0.3877
12539TIP3   OH237573   1.590   7.174   6.635 -0.4072 -0.6912  0.3127
12539TIP3    H137574   1.599   7.191   6.542  0.6822 -3.3669 -0.1795
12539TIP3    H237575   1.671   7.208   6.674 -0.2364 -0.7860  0.0467
12540TIP3   OH237576   0.913   0.687   3.696 -0.1636  0.1436  0.7242
12540TIP3    H137577   0.899   0.763   3.640  0.0101 -0.1851  0.2310
12540TIP3    H237578   1.008   0.682   3.708  0.3046 -2.1596 -2.3839
12541TIP3   OH237579   2.378   5.296   3.326  0.4385  0.3091 -0.0692
12541TIP3    H137580   2.309   5.293   3.260 -0.8900  0.1960  1.2828
12541TIP3    H237581   2.392   5.389   3.341  2.3197  0.4405 -2.0165
12542TIP3   OH237582   5.906   0.285   0.308 -0.4609  0.1082 -0.7725
12542TIP3    H137583   5.878   0.226   0.378  2.5948  0.4106  0.9067
12542TIP3    H237584   5.935   0.227   0.238 -0.3272 -0.3170 -0.3693
12543TIP3   OH237585   7.485   3.206   0.557 -0.4331 -0.3813  0.2691
12543TIP3    H137586   7.467   3.145   0.485 -1.1995  0.7390 -0.5192
12543TIP3    H237587   7.444   3.288   0.530  0.7586  0.5654  1.2051
12544TIP3   OH237588   3.333   6.530   3.183  0.5280 -0.1124  0.4553
12544TIP3    H137589   3.351   6.499   3.272  1.5639  2.6313  1.3387
12544TIP3    H237590   3.252   6.580   3.191 -0.6723 -1.7506 -0.7358
12545TIP3   OH237591   0.634   6.991   3.250  0.3067 -0.0601  0.2885
12545TIP3    H137592   0.701   7.060   3.254 -0.2075  0.4363  0.4031
12545TIP3    H237593   0.596   6.999   3.162  1.0512 -0.9770 -0.1402
12546TIP3   OH237594   1.387   3.846   2.960  1.2027 -0.0116 -0.3329
12546TIP3    H137595   1.431   3.834   2.876  2.3729  2.9583 -0.2636
12546TIP3    H237596   1.295   3.858   2.937  0.7562 -3.1565 -0.7362
12547TIP3   OH237597   3.627   3.777   4.185 -0.2766 -0.2101  0.6351
12547TIP3    H137598   3.572   3.716   4.234  0.0261 -0.3715  0.7785
12547TIP3    H237599   3.716   3.744   4.197 -0.2390 -0.5701 -0.4734
12548TIP3   OH237600   4.851   3.736   1.259 -0.1423 -0.2250 -0.1147
12548TIP3    H137601   4.863   3.765   1.168  0.0876  0.8281  0.2436
12548TIP3    H237602   4.908   3.660   1.267 -0.4348 -0.5513 -0.9489
12549TIP3   OH237603   4.723   1.566   3.376  0.2090 -0.7634  0.1774
12549TIP3    H137604   4.726   1.571   3.280 -0.1432 -1.3501  0.1299
12549TIP3    H237605   4.708   1.473   3.394 -0.7018 -0.5150  0.7723
12550TIP3   OH237606   0.571   0.226   4.240 -0.1258  0.6759  0.1755
12550TIP3    H137607   0.555   0.321   4.240 -1.5146  0.4715  1.4572
12550TIP3    H237608   0.613   0.210   4.155 -0.7596  2.2948 -0.5083
12551TIP3   OH237609   7.966   7.731   6.605 -0.4470 -0.1534  0.1747
12551TIP3    H137610   7.943   7.774   6.522 -0.2493  1.1602  0.7764
12551TIP3    H237611   7.896   7.755   6.665  0.3284  0.4279  0.8781
12552TIP3   OH237612   3.112   2.057   3.458  0.1785 -0.0831  0.4108
12552TIP3    H137613   3.125   2.128   3.521  1.1161  0.7818 -0.7234
12552TIP3    H237614   3.018   2.059   3.439  0.0076  0.1057  1.2290
12553TIP3   OH237615   5.491   4.915   5.825  0.1113 -0.1545  0.4102
12553TIP3    H137616   5.413   4.861   5.836 -0.3632  0.3585 -0.3594
12553TIP3    H237617   5.475   4.964   5.744 -0.2531  2.4377  1.9493
12554TIP3   OH237618   4.665   2.710   1.654 -0.1543  0.4772 -0.4122
12554TIP3    H137619   4.570   2.715   1.639 -0.2900 -0.3109  0.1146
12554TIP3    H237620   4.677   2.749   1.741  0.2004  1.9453 -1.1066
12555TIP3   OH237621   6.522   6.250   2.789  0.1754  0.0825 -0.1046
12555TIP3    H137622   6.615   6.224   2.790 -0.0688 -0.8247  0.6162
12555TIP3    H237623   6.490   6.219   2.704  0.3942 -0.1180 -0.1155
12556TIP3   OH237624   6.035   0.740   5.529 -0.3911 -0.6559 -0.4566
12556TIP3    H137625   6.128   0.758   5.537 -0.2370 -0.7560 -1.7438
12556TIP3    H237626   6.026   0.699   5.443 -1.8194  0.7284 -1.0125
12557TIP3   OH237627   2.951   3.607   3.238  0.0977  0.0620  0.2166
12557TIP3    H137628   2.870   3.651   3.210 -0.6076 -1.0158  0.4981
12557TIP3    H237629   3.015   3.629   3.171  0.0382  2.2327  0.7821
12558TIP3   OH237630   6.500   1.205   2.799 -0.5188 -0.1224 -0.2365
12558TIP3    H137631   6.554   1.126   2.805  0.3616  0.5193  0.3379
12558TIP3    H237632   6.449   1.193   2.719 -0.3562 -1.2482 -0.1869
12559TIP3   OH237633   7.637   5.289   6.299  0.1833 -0.2470 -0.4374
12559TIP3    H137634   7.724   5.269   6.266  0.4115  0.4662 -0.2629
12559TIP3    H237635   7.639   5.260   6.390 -0.0191 -0.9512 -0.6439
12560TIP3   OH237636   5.502   1.535   5.603  0.0979 -0.1539 -0.0093
12560TIP3    H137637   5.463   1.612   5.563  2.5211  1.0350 -0.2756
12560TIP3    H237638   5.490   1.548   5.697  0.7692  0.7396 -0.0357
12561TIP3   OH237639   2.437   3.396   3.833  0.7582  0.4176  0.2097
12561TIP3    H137640   2.351   3.425   3.803  0.8933  0.7144  0.1098
12561TIP3    H237641   2.481   3.476   3.862  0.5901  0.1359  1.3103
12562TIP3   OH237642   4.532   4.640   6.262 -0.3975  0.2852  0.0966
12562TIP3    H137643   4.623   4.614   6.243 -0.5486 -0.9595  0.9301
12562TIP3    H237644   4.533   4.662   6.355 -0.9759  0.1246  0.1395
12563TIP3   OH237645   4.883   2.763   5.295  0.2504  0.3945  0.7446
12563TIP3    H137646   4.871   2.748   5.388 -0.4613  0.7194  0.7065
12563TIP3    H237647   4.949   2.832   5.289  0.7350 -0.0437  0.9917
12564TIP3   OH237648   4.546   6.906   2.920 -0.1637 -0.2510  0.3753
12564TIP3    H137649   4.611   6.871   2.981 -1.2699  1.1373  2.5007
12564TIP3    H237650   4.581   6.887   2.834  1.9119 -1.5926  1.4312
12565TIP3   OH237651   3.274   2.976   4.239 -0.0515 -0.2845  0.9794
12565TIP3    H137652   3.366   2.954   4.251  0.4834  0.2081 -1.6610
12565TIP3    H237653   3.275   3.060   4.192 -1.9241  1.3950  3.6250
12566TIP3   OH237654   3.007   7.556   0.263 -0.4652 -0.2255  0.1484
12566TIP3    H137655   2.944   7.625   0.244 -0.5828 -0.2726  0.3671
12566TIP3    H237656   3.078   7.600   0.310 -1.2804 -0.5264  1.7255
12567TIP3   OH237657   6.758   0.945   5.986 -0.0346 -0.7552  0.0140
12567TIP3    H137658   6.779   0.859   6.023 -1.3493 -0.3970  1.6918
12567TIP3    H237659   6.683   0.929   5.929 -0.2010 -0.7457  0.2298
12568TIP3   OH237660   3.609   2.921   0.115 -0.7072  0.3942 -0.4304
12568TIP3    H137661   3.532   2.975   0.096 -0.0817  1.1855 -0.7431
12568TIP3    H237662   3.683   2.981   0.109 -0.1539 -0.0942  1.0495
12569TIP3   OH237663   5.148   6.475   6.082  1.0069  0.5616 -0.0509
12569TIP3    H137664   5.155   6.540   6.012 -0.2644  1.1849  0.3677
12569TIP3    H237665   5.066   6.429   6.064  0.2376  1.2713  1.4345
12570TIP3   OH237666   4.057   1.307   6.239  0.3109 -0.1912 -0.6955
12570TIP3    H137667   4.148   1.299   6.270  0.3174 -0.2660 -0.7349
12570TIP3    H237668   4.014   1.360   6.306  0.1934 -0.8101 -0.2789
12571TIP3   OH237669   3.995   6.753   1.502  0.2928 -0.5186  0.1841
12571TIP3    H137670   4.044   6.777   1.581 -1.7858  1.9031  0.8729
12571TIP3    H237671   3.965   6.664   1.518  2.5660 -1.2488  0.6738
12572TIP3   OH237672   3.410   6.805   1.609 -0.6352 -0.4629  0.0562
12572TIP3    H137673   3.347   6.734   1.624 -0.1071 -0.7140  1.1820
12572TIP3    H237674   3.369   6.860   1.542  0.6087 -3.9267 -3.9818
12573TIP3   OH237675   2.175   7.445   1.855 -0.2303  0.0032 -0.2107
12573TIP3    H137676   2.138   7.364   1.889 -1.0497 -0.3589 -1.9088
12573TIP3    H237677   2.114   7.513   1.884 -0.2462 -0.1407  0.0972
12574TIP3   OH237678   0.741   7.324   2.231  0.3119 -0.0818 -0.4457
12574TIP3    H137679   0.696   7.398   2.191  0.5003  0.6443  0.6499
12574TIP3    H237680   0.749   7.347   2.324  3.7327  0.2578 -0.6969
12575TIP3   OH237681   3.197   6.796   3.924 -0.5898  0.3560 -0.1081
12575TIP3    H137682   3.185   6.857   3.997  0.5358  1.9355 -1.1914
12575TIP3    H237683   3.121   6.812   3.868 -2.1956 -1.8288  1.2896
12576TIP3   OH237684   2.162   0.578   5.772  0.0557  0.0374  0.1588
12576TIP3    H137685   2.178   0.494   5.729 -0.5526  0.2614 -0.5381
12576TIP3    H237686   2.069   0.595   5.756 -0.0607  0.3760  1.1426
12577TIP3   OH237687   0.793   6.447   3.848 -0.6421 -0.3276  0.3031
12577TIP3    H137688   0.752   6.380   3.903 -0.7230 -2.0092 -1.6899
12577TIP3    H237689   0.819   6.516   3.910 -1.4343 -1.7394  2.3210
12578TIP3   OH237690   2.654   4.521   3.811 -0.5948 -0.1286 -0.3291
12578TIP3    H137691   2.704   4.462   3.867 -0.7661 -1.1044 -1.1823
12578TIP3    H237692   2.659   4.606   3.856 -0.4649 -0.8036  0.9931
12579TIP3   OH237693   7.260   4.277   3.061 -0.5039  0.3334 -0.0050
12579TIP3    H137694   7.267   4.193   3.107  2.0055  1.0394  1.0597
12579TIP3    H237695   7.314   4.266   2.983 -0.0347  0.9938  0.2201
12580TIP3   OH237696   3.728   7.560   5.199 -0.0254  0.2055 -0.8546
12580TIP3    H137697   3.677   7.627   5.154 -0.3617  0.9681  0.6371
12580TIP3    H237698   3.777   7.607   5.266 -1.6422 -1.1925  1.4688
12581TIP3   OH237699   6.412   0.239   2.927  0.1373 -0.6614 -0.4107
12581TIP3    H137700   6.331   0.288   2.914 -0.7381 -1.6783  0.9168
12581TIP3    H237701   6.424   0.192   2.844  0.6864  1.2854 -1.4895
12582TIP3   OH237702   4.632   1.364   3.891 -0.0220 -0.5620 -0.1271
12582TIP3    H137703   4.649   1.336   3.981  1.9242  0.2377 -0.2113
12582TIP3    H237704   4.587   1.289   3.851 -0.8878 -0.9422  1.4757
12583TIP3   OH237705   5.811   0.687   4.080 -0.1829 -0.2256 -0.0969
12583TIP3    H137706   5.721   0.714   4.062 -0.3138 -0.9786 -0.6003
12583TIP3    H237707   5.856   0.768   4.103 -0.8218  0.2608 -0.5347
12584TIP3   OH237708   5.894   5.141   0.623 -0.1150 -0.8442 -0.5633
12584TIP3    H137709   5.841   5.171   0.697  0.2437  0.4763 -0.8078
12584TIP3    H237710   5.981   5.128   0.660  0.1933  0.3284 -0.8272
12585TIP3   OH237711   4.034   1.177   5.941  0.3172  0.0565 -0.2992
12585TIP3    H137712   3.979   1.225   5.880 -0.3775  1.2843  1.2341
12585TIP3    H237713   3.986   1.178   6.023  1.5429 -0.9321  0.4772
12586TIP3   OH237714   2.329   3.724   2.311 -0.3100 -0.0365 -0.6196
12586TIP3    H137715   2.270   3.653   2.334 -1.6285  0.7919 -1.3097
12586TIP3    H237716   2.413   3.682   2.296 -0.9324 -1.3709 -0.4874
12587TIP3   OH237717   4.041   5.404   3.748  0.1200 -0.7242 -0.1270
12587TIP3    H137718   3.957   5.405   3.701  0.0687 -1.7024 -0.0717
12587TIP3    H237719   4.016   5.403   3.840  0.2193  1.9068  0.0011
12588TIP3   OH237720   4.894   1.122   3.655 -0.0856  0.1374  0.1904
12588TIP3    H137721   4.912   1.156   3.742 -0.6630  2.0567 -0.3833
12588TIP3    H237722   4.963   1.058   3.639  0.9500  0.9100  1.4288
12589TIP3   OH237723   2.413   7.702   3.909 -0.2839 -0.6395 -0.2171
12589TIP3    H137724   2.373   7.668   3.829  1.3708  0.0107 -1.3925
12589TIP3    H237725   2.507   7.691   3.895  0.0246 -1.0159  1.9069
12590TIP3   OH237726   1.078   7.268   0.860 -0.0898 -0.4601 -0.2588
12590TIP3    H137727   1.030   7.332   0.808 -0.1192 -0.5898 -0.3911
12590TIP3    H237728   1.070   7.187   0.811 -1.4888 -0.9633  0.7414
12591TIP3   OH237729   0.858   7.587   0.370 -0.0519 -0.0092  0.4503
12591TIP3    H137730   0.901   7.533   0.304 -0.6061 -0.4787  0.4644
12591TIP3    H237731   0.776   7.614   0.330 -0.5888 -0.6497  1.0919
12592TIP3   OH237732   4.197   1.111   5.343 -0.7449  0.0396 -0.3466
12592TIP3    H137733   4.122   1.156   5.305 -1.4135 -0.7223  0.0585
12592TIP3    H237734   4.172   1.095   5.434  0.3615  0.7832  0.1130
12593TIP3   OH237735   1.400   5.438   4.123 -0.3267 -0.4144  0.3080
12593TIP3    H137736   1.379   5.512   4.066  1.1901  0.5984  0.9968
12593TIP3    H237737   1.416   5.477   4.209 -0.1782 -1.6195  0.8503
12594TIP3   OH237738   3.671   6.156   6.482 -0.2408 -0.1284  0.7138
12594TIP3    H137739   3.729   6.129   6.411 -0.3380  1.0077  0.1925
12594TIP3    H237740   3.591   6.107   6.467 -0.7281  1.0566 -0.7379
12595TIP3   OH237741   6.472   6.496   0.328  0.0933  0.3166 -0.1288
12595TIP3    H137742   6.546   6.439   0.305 -0.7932 -1.2331  0.7093
12595TIP3    H237743   6.458   6.481   0.421 -1.4619  0.3525 -0.3323
12596TIP3   OH237744   5.867   6.101   0.569  0.1379  0.1924  0.1573
12596TIP3    H137745   5.816   6.021   0.583 -0.8563  0.6627 -0.6970
12596TIP3    H237746   5.864   6.146   0.653 -1.0170  0.2989  0.0698
12597TIP3   OH237747   6.632   0.950   2.905 -0.7460  0.0398  0.2422
12597TIP3    H137748   6.686   1.020   2.942 -1.3325  0.4144  0.4070
12597TIP3    H237749   6.578   0.920   2.979 -1.8479  0.7123 -0.2746
12598TIP3   OH237750   0.508   0.090   2.636 -0.0954  0.4601  0.5502
12598TIP3    H137751   0.590   0.042   2.635 -0.8343 -0.8495 -0.0393
12598TIP3    H237752   0.444   0.030   2.598 -1.3179  1.4647  0.9205
12599TIP3   OH237753   2.082   1.591   4.297  0.2588  0.4360 -0.6231
12599TIP3    H137754   1.989   1.574   4.283  0.4544 -0.0357 -1.3966
12599TIP3    H237755   2.125   1.508   4.279  0.8066  0.5588  0.0653
12600TIP3   OH237756   5.070   0.515   4.713 -0.2020  0.0269 -0.2335
12600TIP3    H137757   5.072   0.438   4.657  0.7608 -0.6851  0.7171
12600TIP3    H237758   4.987   0.558   4.694 -0.4674 -0.9047 -1.2344
12601TIP3   OH237759   7.993   6.659   4.675  0.8829  0.4030  0.1627
12601TIP3    H137760   8.040   6.742   4.670  0.0824  0.8006 -1.1422
12601TIP3    H237761   7.987   6.640   4.768 -2.0171  3.6017  0.8051
12602TIP3   OH237762   4.418   4.481   2.570 -0.3792  0.2343 -0.0244
12602TIP3    H137763   4.380   4.425   2.502 -1.4783  0.8525  0.0675
12602TIP3    H237764   4.462   4.419   2.629  1.9000 -0.2395 -2.0054
12603TIP3   OH237765   7.103   2.487   5.701 -0.4849  0.0267 -0.4216
12603TIP3    H137766   7.195   2.513   5.694 -0.3482 -0.6730 -1.4035
12603TIP3    H237767   7.063   2.557   5.753  0.2390  1.3029 -1.4861
12604TIP3   OH237768   6.324   6.729   1.773  0.0809 -0.1990 -0.0453
12604TIP3    H137769   6.310   6.788   1.847  0.2108  0.2149 -0.3517
12604TIP3    H237770   6.405   6.759   1.733 -0.6950  0.4368 -1.1833
12605TIP3   OH237771   7.102   6.774   1.964  0.2348 -0.1289  0.1707
12605TIP3    H137772   7.076   6.847   1.907  0.2752 -0.2574 -0.0141
12605TIP3    H237773   7.198   6.782   1.970  0.1815  0.1879  0.6378
12606TIP3   OH237774   4.091   5.286   2.062  0.3924 -0.3923 -0.2769
12606TIP3    H137775   4.181   5.314   2.048  0.3834 -0.4264 -0.3977
12606TIP3    H237776   4.094   5.191   2.060  0.0176 -0.4010 -2.4137
12607TIP3   OH237777   8.033   7.083   1.438 -0.0834  0.1594  0.2701
12607TIP3    H137778   7.979   7.146   1.485  0.1066  0.0255  0.6671
12607TIP3    H237779   7.998   7.084   1.348 -0.9946 -0.2149  0.6128
12608TIP3   OH237780   5.408   0.149   3.924 -0.7449 -0.3976  0.2172
12608TIP3    H137781   5.501   0.145   3.947 -0.9476 -1.2751  0.9248
12608TIP3    H237782   5.365   0.172   4.007 -1.2000 -0.3751 -0.0257
12609TIP3   OH237783   1.287   6.917   0.380 -0.4126 -0.3671 -0.2124
12609TIP3    H137784   1.213   6.956   0.334 -0.0768  0.3875 -0.1211
12609TIP3    H237785   1.364   6.947   0.333 -0.0983 -0.1067  0.4524
12610TIP3   OH237786   1.614   3.745   0.078  0.4508  0.5804 -0.1773
12610TIP3    H137787   1.659   3.690   0.013  0.3967 -0.4544  0.6302
12610TIP3    H237788   1.521   3.727   0.064  0.4169  0.7013 -0.1077
12611TIP3   OH237789   8.004   4.587   3.227  0.0491  0.2966 -0.4333
12611TIP3    H137790   8.044   4.592   3.140 -0.9080 -1.6861 -1.0408
12611TIP3    H237791   7.950   4.666   3.233  0.5699  0.7377 -1.4063
12612TIP3   OH237792   6.850   6.629   5.974  0.2791  0.0770 -0.4492
12612TIP3    H137793   6.871   6.542   5.939  1.0637  0.7509 -1.7024
12612TIP3    H237794   6.930   6.680   5.959 -0.0230  0.9111  0.6660
12613TIP3   OH237795   1.390   1.988   3.004  0.0901  0.1865 -0.3409
12613TIP3    H137796   1.414   1.911   3.055 -0.6648  0.7848  0.9765
12613TIP3    H237797   1.296   1.998   3.019  0.4997  2.5189  1.2011
12614TIP3   OH237798   6.081   2.288   0.099  0.1324  0.1334 -0.4592
12614TIP3    H137799   6.004   2.291   0.042  0.0840  0.5213 -0.3786
12614TIP3    H237800   6.067   2.211   0.154 -1.4559  1.5880  1.2893
12615TIP3   OH237801   3.180   7.771   4.960  0.3965  0.0318 -0.2940
12615TIP3    H137802   3.108   7.772   5.023  0.4993 -1.9647 -0.0940
12615TIP3    H237803   3.138   7.796   4.877 -0.0139  1.2672  0.2494
12616TIP3   OH237804   5.338   6.615   3.285 -0.4906 -0.3489  0.1828
12616TIP3    H137805   5.292   6.645   3.206 -0.0006 -0.8341 -0.2904
12616TIP3    H237806   5.270   6.573   3.337 -1.2844  1.8083  1.0198
12617TIP3   OH237807   2.387   0.132   3.400  0.0607 -0.2735  0.1325
12617TIP3    H137808   2.327   0.113   3.328 -0.0138  0.0993  0.0984
12617TIP3    H237809   2.468   0.161   3.358 -0.4936  1.4718  0.2237
12618TIP3   OH237810   3.749   3.328   3.214 -0.0216  0.0243  0.6469
12618TIP3    H137811   3.704   3.361   3.292  1.4101  1.0685  1.0676
12618TIP3    H237812   3.835   3.371   3.215  0.9325 -1.7502 -0.2412
12619TIP3   OH237813   1.902   2.523   3.925 -0.2469  0.0259  0.2196
12619TIP3    H137814   1.858   2.443   3.953  3.0476 -1.9791  0.1770
12619TIP3    H237815   1.888   2.527   3.831  0.9444 -1.5306 -0.0625
12620TIP3   OH237816   3.913   1.329   0.738  0.0974 -0.7473 -0.2000
12620TIP3    H137817   3.970   1.405   0.746 -0.4902 -0.0560 -2.1847
12620TIP3    H237818   3.932   1.294   0.651 -1.4818 -1.3405 -0.3363
12621TIP3   OH237819   7.026   7.021   1.490 -0.5975 -0.3681  0.4072
12621TIP3    H137820   6.972   7.023   1.411 -0.8865  0.0724  0.6149
12621TIP3    H237821   6.980   7.076   1.552  0.0393 -0.0725  0.6265
12622TIP3   OH237822   1.563   0.207   0.709  0.5070  0.0958  0.1885
12622TIP3    H137823   1.626   0.180   0.775  2.6425 -0.7057 -2.0230
12622TIP3    H237824   1.568   0.138   0.642  0.1493  1.9530 -1.8719
12623TIP3   OH237825   5.150   1.464   3.285  0.1695  0.1276 -0.2562
12623TIP3    H137826   5.217   1.449   3.218 -1.0902  0.0593 -1.5287
12623TIP3    H237827   5.104   1.543   3.255 -0.6086 -0.0825  0.3719
12624TIP3   OH237828   2.090   1.345   3.830  0.1497  0.1189  0.4648
12624TIP3    H137829   2.174   1.354   3.785 -0.7823  0.7822 -1.2546
12624TIP3    H237830   2.038   1.289   3.773 -0.0824 -1.6421  2.3160
12625TIP3   OH237831   0.908   2.184   5.122  0.4078 -0.4836  0.1820
12625TIP3    H137832   0.835   2.246   5.129  1.4350  0.7177  0.7796
12625TIP3    H237833   0.985   2.236   5.147  1.2351 -2.1558  1.2851
12626TIP3   OH237834   3.567   7.111   4.545  0.3277  0.4386 -0.6794
12626TIP3    H137835   3.497   7.049   4.525 -0.3030  1.1054 -0.6003
12626TIP3    H237836   3.629   7.101   4.474  0.3288 -0.4080 -0.5732
12627TIP3   OH237837   4.924   4.179   6.062  0.0392  0.4915 -0.1026
12627TIP3    H137838   4.975   4.132   5.996 -1.4115 -1.1463 -0.1217
12627TIP3    H237839   4.876   4.111   6.109  0.3295  1.7041  2.0668
12628TIP3   OH237840   7.088   2.245   3.420 -0.6270  0.0549 -0.1591
12628TIP3    H137841   7.082   2.296   3.501  2.3419 -0.6088  0.5907
12628TIP3    H237842   7.134   2.302   3.359  0.1416 -0.6655 -0.2586
12629TIP3   OH237843   3.896   7.016   1.386 -0.1958 -0.3657  0.3059
12629TIP3    H137844   3.879   6.923   1.398 -2.9049 -0.2019 -1.5612
12629TIP3    H237845   3.835   7.060   1.445 -2.3586  0.1986 -2.2054
12630TIP3   OH237846   5.624   0.737   0.094  0.4377  0.0341 -0.0873
12630TIP3    H137847   5.610   0.774   0.181 -1.2037 -1.3830  0.3031
12630TIP3    H237848   5.717   0.751   0.076  0.5845  1.2132  1.4726
12631TIP3   OH237849   3.958   1.430   3.007 -0.6249 -0.0679  0.1352
12631TIP3    H137850   4.039   1.404   3.052 -0.5634  0.2572  0.2178
12631TIP3    H237851   3.966   1.394   2.919  0.1432  0.9511 -0.2310
12632TIP3   OH237852   4.255   4.384   2.999 -0.1404 -0.4456 -0.1210
12632TIP3    H137853   4.227   4.392   3.091 -2.3504 -1.8100 -0.5957
12632TIP3    H237854   4.343   4.347   3.005  0.4276  1.0120  1.4517
12633TIP3   OH237855   2.478   4.983   3.277  0.5475  0.1952  0.4130
12633TIP3    H137856   2.384   5.002   3.271  0.2304 -1.5049 -0.8125
12633TIP3    H237857   2.520   5.068   3.265 -0.8078  0.6642 -1.5419
12634TIP3   OH237858   0.562   2.591   1.983 -0.6746 -0.3212 -0.3058
12634TIP3    H137859   0.549   2.685   1.989  1.1413 -0.0371 -0.1114
12634TIP3    H237860   0.478   2.556   1.954 -1.9961  1.1152  1.6338
12635TIP3   OH237861   5.439   3.809   2.800  0.4907  0.4045 -0.9251
12635TIP3    H137862   5.533   3.825   2.793  1.3947 -3.2604  0.5925
12635TIP3    H237863   5.413   3.858   2.878  1.2409  1.0471 -1.0600
12636TIP3   OH237864   3.637   0.698   1.488 -0.1488  0.2800  0.1412
12636TIP3    H137865   3.616   0.664   1.574 -0.8470  1.9691  0.6817
12636TIP3    H237866   3.722   0.739   1.498  0.4064 -0.7162 -0.3467
12637TIP3   OH237867   0.310   1.164   2.787  0.2454 -0.1308 -0.4830
12637TIP3    H137868   0.334   1.211   2.707 -1.1178 -0.7708 -1.3106
12637TIP3    H237869   0.229   1.206   2.815  0.4304 -0.2714  0.2637
12638TIP3   OH237870   3.268   7.740   2.402 -0.0414  0.1196  0.0872
12638TIP3    H137871   3.269   7.828   2.364 -0.5220  0.5460  1.0225
12638TIP3    H237872   3.356   7.705   2.383  0.0110  0.6277 -0.6627
12639TIP3   OH237873   5.831   4.732   2.954  0.1864  0.1490 -0.5085
12639TIP3    H137874   5.782   4.755   3.032  0.1483 -2.2524  0.2587
12639TIP3    H237875   5.895   4.803   2.944 -1.1897  1.5826  0.4261
12640TIP3   OH237876   1.167   4.087   3.000 -0.0693 -0.1875 -0.2187
12640TIP3    H137877   1.129   4.105   2.913 -1.5790 -1.5067  0.1129
12640TIP3    H237878   1.140   4.162   3.053 -1.4116 -0.5953 -0.2662
12641TIP3   OH237879   7.374   6.613   3.650 -0.8159  0.0712  0.1231
12641TIP3    H137880   7.357   6.533   3.700 -2.1151  1.2186  1.6719
12641TIP3    H237881   7.453   6.650   3.690 -0.8502  0.1132  0.1520
12642TIP3   OH237882   4.973   4.695   0.835  0.5567  0.2179  0.4991
12642TIP3    H137883   4.940   4.713   0.748  0.3059 -1.0172  0.3192
12642TIP3    H237884   5.064   4.667   0.821  0.4894 -0.0662  0.6240
12643TIP3   OH237885   1.971   0.525   5.587  0.2330 -0.6181 -0.1791
12643TIP3    H137886   2.008   0.514   5.499  0.8380 -0.2833  0.0294
12643TIP3    H237887   1.877   0.512   5.575  0.4854 -2.3486 -0.5769
12644TIP3   OH237888   7.003   3.658   3.465  0.5596  0.5223  0.3861
12644TIP3    H137889   6.947   3.592   3.505  0.8927 -0.0009  0.0060
12644TIP3    H237890   7.074   3.671   3.528  0.2007  0.9213  0.7068
12645TIP3   OH237891   0.243   3.223   0.258  0.3325 -0.1315  0.1863
12645TIP3    H137892   0.276   3.142   0.296 -1.0405 -0.3086  1.0802
12645TIP3    H237893   0.262   3.215   0.165 -1.0167 -2.1511  0.0225
12646TIP3   OH237894   0.499   6.259   3.582 -0.0947 -0.3150  0.2437
12646TIP3    H137895   0.548   6.334   3.548  1.3269 -1.6846 -0.8966
12646TIP3    H237896   0.433   6.241   3.515  2.4111 -2.7262 -1.8343
12647TIP3   OH237897   4.635   1.662   2.348 -0.0829 -0.1842  0.3230
12647TIP3    H137898   4.719   1.619   2.360 -0.2208 -0.5388  0.0227
12647TIP3    H237899   4.581   1.599   2.300 -0.8267 -0.3391  1.3154
12648TIP3   OH237900   5.365   5.462   2.769 -0.0074 -0.3353 -0.1795
12648TIP3    H137901   5.379   5.508   2.687  1.6980 -1.4220 -0.5478
12648TIP3    H237902   5.343   5.531   2.832  0.9734  0.7866 -1.0328
12649TIP3   OH237903   0.407   6.755   1.629  0.2111 -0.1443  0.0251
12649TIP3    H137904   0.428   6.751   1.536  1.3988 -1.3554  0.3110
12649TIP3    H237905   0.453   6.833   1.661  0.0299  0.1151 -0.3521
12650TIP3   OH237906   3.043   5.653   2.197 -0.1784 -0.0356 -0.2785
12650TIP3    H137907   3.130   5.612   2.203 -0.2297 -0.5617 -2.2830
12650TIP3    H237908   3.014   5.633   2.108 -1.6951  1.4731 -0.1676
12651TIP3   OH237909   7.155   7.321   0.723 -0.1729  0.0532 -0.1941
12651TIP3    H137910   7.064   7.330   0.754  0.3008  2.2391  0.7372
12651TIP3    H237911   7.155   7.363   0.637 -0.1210 -0.3186 -0.3778
12652TIP3   OH237912   2.976   3.114   1.203  0.3686 -0.4283 -0.1637
12652TIP3    H137913   2.947   3.119   1.111 -0.7598  0.0076  0.1950
12652TIP3    H237914   3.032   3.191   1.215 -1.3352  0.8257  0.1036
12653TIP3   OH237915   1.308   5.693   6.083 -0.6443  0.1030  0.0011
12653TIP3    H137916   1.328   5.783   6.109  1.6744 -0.0627 -1.0214
12653TIP3    H237917   1.305   5.645   6.166 -0.9459  0.9244  0.4864
12654TIP3   OH237918   2.989   6.136   5.190 -1.1231  0.0296 -0.1099
12654TIP3    H137919   2.961   6.095   5.108  0.1752  1.6893 -1.4864
12654TIP3    H237920   3.043   6.070   5.233 -1.5475 -0.7588 -0.7777
12655TIP3   OH237921   5.557   2.320   5.564  0.5398 -0.3852 -0.2727
12655TIP3    H137922   5.504   2.290   5.490 -0.1601 -1.4930  0.6508
12655TIP3    H237923   5.591   2.240   5.603  3.4662  0.2811 -1.1675
12656TIP3   OH237924   7.614   0.513   1.844 -0.2060  0.3287  0.0853
12656TIP3    H137925   7.580   0.428   1.816  0.0202  0.6873 -1.3684
12656TIP3    H237926   7.648   0.497   1.932 -0.2940 -1.0493 -0.1023
12657TIP3   OH237927   1.131   5.236   2.139  0.4531  0.6129 -0.5241
12657TIP3    H137928   1.205   5.176   2.150 -1.0878 -1.4227 -0.8555
12657TIP3    H237929   1.056   5.189   2.175 -0.6111  2.9211  0.4832
12658TIP3   OH237930   5.393   4.958   6.530  0.1113  0.1919  0.8467
12658TIP3    H137931   5.361   5.048   6.533  1.1187  0.7046 -1.5949
12658TIP3    H237932   5.465   4.956   6.593  0.4494  1.2618  0.5099
12659TIP3   OH237933   6.290   5.843   4.580  0.3787  0.1692  0.1622
12659TIP3    H137934   6.384   5.845   4.598  0.6943 -0.5890 -1.2578
12659TIP3    H237935   6.282   5.794   4.498 -1.3022 -0.2465  0.5343
12660TIP3   OH237936   2.973   3.027   6.557  0.3260 -0.3054 -0.2169
12660TIP3    H137937   2.993   3.114   6.522  0.1054  0.4947  1.5415
12660TIP3    H237938   3.020   2.967   6.499  1.8987  1.0847 -0.4754
12661TIP3   OH237939   3.142   0.368   1.326  0.5418 -0.1432 -0.1661
12661TIP3    H137940   3.066   0.358   1.383 -1.0887  1.2042 -1.9721
12661TIP3    H237941   3.142   0.289   1.272  0.4814 -0.1900 -0.0972
12662TIP3   OH237942   3.988   5.298   5.924 -0.0244  0.4703 -0.1009
12662TIP3    H137943   4.018   5.259   6.006  1.7514 -1.2977 -1.4747
12662TIP3    H237944   3.938   5.375   5.950 -1.2253 -1.1081  2.6810
12663TIP3   OH237945   5.574   4.807   5.505  0.1637  0.3045 -0.3504
12663TIP3    H137946   5.515   4.876   5.475 -1.3185 -0.5669  0.4197
12663TIP3    H237947   5.639   4.798   5.435 -0.3502  1.5957 -1.0270
12664TIP3   OH237948   6.958   1.377   4.206  0.6012 -0.3513 -0.8130
12664TIP3    H137949   6.889   1.432   4.170  0.8502  0.7553  0.3036
12664TIP3    H237950   7.030   1.385   4.144  0.1153 -0.6204 -1.4146
12665TIP3   OH237951   1.001   5.014   1.609 -0.3662 -0.2092 -0.4854
12665TIP3    H137952   0.956   5.044   1.688  1.7979  0.2010  0.6512
12665TIP3    H237953   1.092   5.037   1.623  0.2621 -1.1843 -2.6221
12666TIP3   OH237954   1.753   0.351   1.256  0.3768 -0.0685 -0.3737
12666TIP3    H137955   1.768   0.274   1.201  0.1143 -0.1882 -0.2800
12666TIP3    H237956   1.821   0.347   1.323  0.1397 -0.4208 -0.1511
12667TIP3   OH237957   7.677   1.167   4.038  0.2164  0.2124 -0.4725
12667TIP3    H137958   7.690   1.089   4.092 -1.1730  1.2098  1.4166
12667TIP3    H237959   7.675   1.134   3.948  2.1889 -1.5692  0.0556
12668TIP3   OH237960   0.524   1.286   5.600  0.1387 -0.7048  0.1484
12668TIP3    H137961   0.496   1.256   5.513  0.8050 -0.5904 -0.1115
12668TIP3    H237962   0.618   1.301   5.591  0.2630 -0.9268  0.9602
12669TIP3   OH237963   5.861   2.719   4.559 -0.1031  0.5658 -0.0196
12669TIP3    H137964   5.898   2.683   4.479 -0.3386  1.9585 -0.7866
12669TIP3    H237965   5.787   2.663   4.579  0.2465 -0.0812 -0.4928
12670TIP3   OH237966   0.840   7.336   3.733  0.0484  0.0951  0.8788
12670TIP3    H137967   0.812   7.389   3.808 -2.5392  0.3585 -0.1587
12670TIP3    H237968   0.771   7.270   3.725  0.0738  0.2883 -1.4525
12671TIP3   OH237969   4.000   0.398   4.122 -0.1916 -0.1266 -0.4690
12671TIP3    H137970   3.955   0.450   4.188  0.1558  0.5176 -0.7219
12671TIP3    H237971   3.982   0.307   4.145 -2.0489  0.1080 -0.8789
12672TIP3   OH237972   1.554   1.219   4.258 -0.6424  0.9531 -0.2636
12672TIP3    H137973   1.601   1.264   4.328 -0.1021 -0.1136  0.0691
12672TIP3    H237974   1.516   1.290   4.206  0.8685  1.8292 -0.2276
12673TIP3   OH237975   7.848   3.859   5.974 -0.2594 -0.0012  0.3579
12673TIP3    H137976   7.837   3.779   5.923 -1.0624  0.7541 -0.6901
12673TIP3    H237977   7.943   3.874   5.974 -0.2846  0.4255 -1.6484
12674TIP3   OH237978   5.128   0.594   5.366  0.4122 -0.3147  0.7588
12674TIP3    H137979   5.207   0.646   5.384  0.0754  0.3375  0.3876
12674TIP3    H237980   5.058   0.659   5.357  0.1302 -0.7820 -0.5232
12675TIP3   OH237981   1.365   5.568   6.355  0.1917 -0.1371 -0.3741
12675TIP3    H137982   1.292   5.602   6.405  1.2929  1.6118  0.1142
12675TIP3    H237983   1.443   5.597   6.402  1.2535 -2.4963 -0.4990
12676TIP3   OH237984   4.666   6.206   6.710  0.5444  0.1825  0.8082
12676TIP3    H137985   4.699   6.285   6.754 -0.0686  0.0130  1.5805
12676TIP3    H237986   4.738   6.180   6.652  1.2046  0.6439  1.3977
12677TIP3   OH237987   3.608   4.569   3.900  0.2283 -0.1684 -0.2412
12677TIP3    H137988   3.704   4.573   3.897  0.1891  0.9499 -0.4700
12677TIP3    H237989   3.588   4.527   3.983  0.9206  1.1393  0.6306
12678TIP3   OH237990   4.356   2.236   4.761  0.4312  0.3023  0.2711
12678TIP3    H137991   4.407   2.290   4.701 -0.6245  0.8176 -0.1871
12678TIP3    H237992   4.359   2.282   4.844 -0.3565  1.0119 -0.0850
12679TIP3   OH237993   3.141   1.324   0.273  0.6597  0.3318  0.1983
12679TIP3    H137994   3.107   1.389   0.211  1.8978 -0.3473 -1.2349
12679TIP3    H237995   3.065   1.270   0.293 -0.0128  1.2219  0.1329
12680TIP3   OH237996   7.997   6.765   5.587  0.5407 -0.1049  0.4121
12680TIP3    H137997   8.088   6.785   5.609  0.7240 -0.5960  0.1398
12680TIP3    H237998   8.004   6.710   5.508 -0.0998  2.0672 -1.2458
12681TIP3   OH237999   8.211   6.892   1.527 -0.0559 -0.2175 -0.5972
12681TIP3    H138000   8.171   6.859   1.607  0.6968  0.6838  0.1788
12681TIP3    H238001   8.150   6.958   1.495  0.1536  0.1980 -0.1552
12682TIP3   OH238002   6.436   0.060   1.330 -0.4103  0.3226  0.2107
12682TIP3    H138003   6.471   0.002   1.262  3.8330  2.6711  0.0565
12682TIP3    H238004   6.455   0.014   1.412 -3.2623 -1.3661  0.0599
12683TIP3   OH238005   7.748   0.321   6.466 -0.0798  0.6680  0.8134
12683TIP3    H138006   7.716   0.241   6.425  0.2665  1.0551 -0.2350
12683TIP3    H238007   7.737   0.306   6.560 -0.8074 -0.2641  0.5885
12684TIP3   OH238008   5.683   6.602   0.638  0.2643  0.2908 -0.1385
12684TIP3    H138009   5.731   6.675   0.677 -0.0145  0.9766 -1.0523
12684TIP3    H238010   5.592   6.614   0.668  0.4652 -0.4953  0.8534
12685TIP3   OH238011   3.329   7.374   2.654  0.1920 -0.3233 -0.9301
12685TIP3    H138012   3.398   7.309   2.666  0.1955 -0.1539  0.0109
12685TIP3    H238013   3.250   7.332   2.688  0.0707 -0.0617 -0.8864
12686TIP3   OH238014   7.281   7.662   2.541 -0.0142 -0.4834  0.0059
12686TIP3    H138015   7.307   7.752   2.563  0.2791 -0.1567 -1.5494
12686TIP3    H238016   7.186   7.664   2.538 -0.0032 -0.1875 -0.1631
12687TIP3   OH238017   0.065   4.398   2.798  0.3564  0.3081  0.0047
12687TIP3    H138018   0.111   4.385   2.881 -0.6863  0.5668  0.6421
12687TIP3    H238019  -0.015   4.346   2.807  0.7255 -0.5436 -1.2869
12688TIP3   OH238020   6.309   4.553   3.881  0.2897 -0.2304  0.4036
12688TIP3    H138021   6.400   4.541   3.905  0.6566 -0.9446 -1.1905
12688TIP3    H238022   6.271   4.605   3.952  2.1300  0.7644  0.7083
12689TIP3   OH238023   5.628   5.530   3.729 -0.1141 -0.0773  0.4913
12689TIP3    H138024   5.645   5.517   3.823  0.0430 -1.2311  0.3141
12689TIP3    H238025   5.679   5.462   3.686  2.7427  2.6041 -0.7298
12690TIP3   OH238026   2.028   0.297   2.670 -0.0062 -0.3731 -0.1304
12690TIP3    H138027   2.053   0.266   2.757  1.9134 -1.5511 -1.0213
12690TIP3    H238028   2.027   0.217   2.616 -3.1867 -0.0013 -0.8257
12691TIP3   OH238029   4.696   2.122   5.816 -0.2567 -0.7111 -0.4547
12691TIP3    H138030   4.642   2.056   5.772 -0.2106 -0.8547 -0.2988
12691TIP3    H238031   4.735   2.172   5.745 -2.1526  0.6923 -0.5926
12692TIP3   OH238032   7.337   1.408   5.022  0.0650 -0.1052 -0.1326
12692TIP3    H138033   7.259   1.447   4.982  0.8006  1.7940  0.1994
12692TIP3    H238034   7.311   1.318   5.041 -2.5538  0.8022  1.1971
12693TIP3   OH238035   8.242   4.484   0.581 -0.2212  0.1882 -0.1750
12693TIP3    H138036   8.256   4.552   0.646 -0.4722  0.5019 -0.4475
12693TIP3    H238037   8.153   4.452   0.599 -0.8105  1.1880 -1.1947
12694TIP3   OH238038   3.521   4.668   3.027 -0.0105 -0.8814 -0.5157
12694TIP3    H138039   3.585   4.677   3.098 -1.6046 -0.8591  0.9860
12694TIP3    H238040   3.574   4.662   2.948  1.8188  0.4902  0.5179
12695TIP3   OH238041   5.908   3.209   1.078 -0.2630 -0.8340  0.2096
12695TIP3    H138042   5.829   3.263   1.068 -1.0065 -2.2198 -2.2545
12695TIP3    H238043   5.970   3.245   1.015 -0.3421 -2.0506 -0.6043
12696TIP3   OH238044   1.214   5.105   1.763  0.1693 -0.1681 -0.6207
12696TIP3    H138045   1.255   5.057   1.835  2.9725  0.2250 -1.8195
12696TIP3    H238046   1.169   5.178   1.806  0.7429 -0.6004  0.7907
12697TIP3   OH238047   5.756   6.563   5.091  0.1761  0.9674  0.2946
12697TIP3    H138048   5.745   6.471   5.067  0.1436  0.3533  2.4389
12697TIP3    H238049   5.690   6.609   5.040 -1.7142 -0.5870  1.2080
12698TIP3   OH238050   4.907   4.035   1.731 -0.1110 -0.1642  0.1763
12698TIP3    H138051   4.906   4.123   1.767 -1.1426  0.1811 -0.6483
12698TIP3    H238052   4.968   4.040   1.657 -0.5349 -0.0024 -0.1697
12699TIP3   OH238053   4.412   0.587   3.196 -0.0217  0.1262 -0.4782
12699TIP3    H138054   4.426   0.562   3.287  1.0368  0.4883 -0.5247
12699TIP3    H238055   4.461   0.668   3.186 -0.2057  0.1378 -1.3422
12700TIP3   OH238056   7.512   1.402   6.124 -0.5161  0.2590 -0.5439
12700TIP3    H138057   7.588   1.361   6.164 -1.0548 -1.1022 -0.8511
12700TIP3    H238058   7.529   1.496   6.129  1.1462 -0.0162 -0.5579
12701TIP3   OH238059   6.881   4.086   5.507  0.2350  0.0026 -0.5772
12701TIP3    H138060   6.954   4.029   5.532  1.5459  1.2762 -1.3414
12701TIP3    H238061   6.884   4.089   5.412  1.0250  2.2994 -0.5452
12702TIP3   OH238062   7.778   7.532   6.332  0.2842  0.1395 -0.6043
12702TIP3    H138063   7.744   7.482   6.406  0.4911  0.9912  0.0970
12702TIP3    H238064   7.817   7.610   6.373  1.8967 -0.1661 -1.4610
12703TIP3   OH238065   3.219   6.558   0.135 -0.0180 -0.7086  0.2550
12703TIP3    H138066   3.250   6.554   0.225  0.2911  0.4275  0.2146
12703TIP3    H238067   3.295   6.532   0.082  0.3321  0.3081  0.2450
12704TIP3   OH238068   7.494   1.613   4.939 -0.5537  0.1025 -0.4746
12704TIP3    H138069   7.575   1.588   4.984 -0.4225  0.4903 -0.4893
12704TIP3    H238070   7.433   1.541   4.957 -0.3891  0.0812  0.0139
12705TIP3   OH238071   4.381   2.609   2.463  0.3561  0.3308  0.4589
12705TIP3    H138072   4.299   2.575   2.427 -0.0968  0.5059  1.2894
12705TIP3    H238073   4.394   2.558   2.543  1.1668  0.1671  0.2257
12706TIP3   OH238074   4.153   3.460   4.105  0.9345  0.4164  0.0673
12706TIP3    H138075   4.093   3.449   4.179  0.4024  0.3595 -0.3609
12706TIP3    H238076   4.111   3.412   4.033  0.9107  1.3482 -0.5605
12707TIP3   OH238077   7.444   6.283   4.398  0.3349  0.2576 -0.4432
12707TIP3    H138078   7.467   6.362   4.349  1.9339  0.2326  0.1879
12707TIP3    H238079   7.468   6.211   4.340 -2.5748  0.1495 -1.6664
12708TIP3   OH238080   2.942   7.373   6.422  0.1700 -0.2575  0.2548
12708TIP3    H138081   2.906   7.383   6.334  0.9770  0.0397 -0.0514
12708TIP3    H238082   2.868   7.345   6.476 -0.3309 -0.4222 -0.5152
12709TIP3   OH238083   8.095   6.848   0.941 -0.6340 -0.0910 -0.4061
12709TIP3    H138084   8.027   6.882   0.882  0.8582  0.6324 -1.7931
12709TIP3    H238085   8.102   6.755   0.918 -0.6410 -0.0003 -0.7813
12710TIP3   OH238086   0.735   3.574   5.723  0.0475  0.0213 -0.0329
12710TIP3    H138087   0.642   3.553   5.713  0.1435  0.1127 -1.2328
12710TIP3    H238088   0.761   3.531   5.805 -1.1016  0.2021  0.4425
12711TIP3   OH238089   0.316   2.606   3.064 -0.1396  0.3407  0.1457
12711TIP3    H138090   0.409   2.613   3.084  0.8208 -0.4931 -3.3238
12711TIP3    H238091   0.298   2.678   3.004 -0.3614 -2.2048 -3.1180
12712TIP3   OH238092   6.075   4.374   5.684  0.0918 -0.1232  0.0560
12712TIP3    H138093   6.169   4.392   5.688  0.2799 -1.2059  1.3874
12712TIP3    H238094   6.040   4.409   5.766 -0.4748 -0.6586  0.0522
12713TIP3   OH238095   7.724   2.458   6.418 -0.3714  0.7267 -0.3525
12713TIP3    H138096   7.685   2.546   6.419 -0.4510  0.6911  0.0829
12713TIP3    H238097   7.667   2.408   6.360 -0.0307  1.0871 -1.0156
12714TIP3   OH238098   1.584   1.788   5.732 -0.1995  0.9742  0.4215
12714TIP3    H138099   1.637   1.847   5.678 -0.0471  2.6256  2.2909
12714TIP3    H238100   1.634   1.706   5.734  0.7607  1.5249 -0.2902
12715TIP3   OH238101   3.748   5.055   5.845 -0.8982 -0.1283  0.0974
12715TIP3    H138102   3.754   5.149   5.826 -1.2951 -0.4655 -2.0176
12715TIP3    H238103   3.838   5.023   5.835 -0.5100  0.1959  2.1545
12716TIP3   OH238104   2.401   4.355   2.580 -0.7193 -0.1669  0.3870
12716TIP3    H138105   2.368   4.445   2.581  0.7690  0.3971  1.6849
12716TIP3    H238106   2.345   4.308   2.641 -0.7720  0.1536  0.5876
12717TIP3   OH238107   4.249   5.869   0.671 -0.6704 -0.2113  0.3429
12717TIP3    H138108   4.161   5.885   0.704 -0.8630 -2.2920  0.9603
12717TIP3    H238109   4.307   5.893   0.744 -0.7889  0.0308  0.3589
12718TIP3   OH238110   7.066   7.567   5.527  0.2419 -0.3374 -0.1737
12718TIP3    H138111   7.160   7.564   5.508  0.5781 -0.9295  1.4235
12718TIP3    H238112   7.060   7.542   5.619 -1.4127  0.7186  0.0286
12719TIP3   OH238113   2.180   2.428   0.855  0.0212 -0.6872 -0.4125
12719TIP3    H138114   2.105   2.368   0.862  0.5348 -1.2177  0.9223
12719TIP3    H238115   2.144   2.506   0.812 -1.0540 -1.3073 -0.6952
12720TIP3   OH238116   7.801   6.512   4.066 -0.0978  0.0709 -0.3712
12720TIP3    H138117   7.884   6.500   4.020 -1.1144 -1.0762 -2.0044
12720TIP3    H238118   7.818   6.585   4.126  2.2447 -0.4937 -0.2322
12721TIP3   OH238119   7.003   0.412   3.551  0.7250  0.9498  0.2591
12721TIP3    H138120   7.096   0.425   3.536  1.3105 -1.3394  1.3882
12721TIP3    H238121   6.975   0.489   3.600  2.7126  0.4613  2.3299
12722TIP3   OH238122   6.924   1.474   6.078  0.1339  0.3056  0.3765
12722TIP3    H138123   6.936   1.477   6.173  0.0145  1.2067  0.3711
12722TIP3    H238124   6.987   1.538   6.044  2.1658 -1.9417 -0.3710
12723TIP3   OH238125   3.718   6.159   4.694 -0.6235  0.0741  0.2760
12723TIP3    H138126   3.781   6.227   4.672  0.1060 -0.3440  1.0294
12723TIP3    H238127   3.771   6.086   4.724 -1.4751 -0.1917  1.1894
12724TIP3   OH238128   7.727   1.464   4.047  0.0518  0.2138  0.2731
12724TIP3    H138129   7.690   1.504   4.126  0.4666 -0.1654  0.6646
12724TIP3    H238130   7.702   1.372   4.054 -0.9250  0.3917 -0.6400
12725TIP3   OH238131   6.520   1.689   5.009 -0.1465 -0.3678  0.2036
12725TIP3    H138132   6.429   1.718   5.001 -0.4285 -1.4584 -0.8263
12725TIP3    H238133   6.521   1.632   5.086 -0.3197 -0.3056  0.2516
12726TIP3   OH238134   5.680   0.381   1.726  0.7440 -0.1816  0.1196
12726TIP3    H138135   5.693   0.397   1.819 -0.1800 -0.6705  0.3454
12726TIP3    H238136   5.666   0.468   1.688 -0.3172 -0.1008  0.6774
12727TIP3   OH238137   1.232   0.118   6.224  0.1768  0.4444 -0.1613
12727TIP3    H138138   1.140   0.092   6.230 -0.2292  1.5547 -1.1235
12727TIP3    H238139   1.247   0.132   6.130  1.0462  1.2530  0.0752
12728TIP3   OH238140   6.278   1.595   6.166  0.2680 -0.2079  0.0698
12728TIP3    H138141   6.191   1.578   6.204 -0.3991  1.2230 -0.7101
12728TIP3    H238142   6.278   1.689   6.149  1.7575 -0.2913 -0.5127
12729TIP3   OH238143   1.749   6.344   3.096 -0.4347  0.1587  0.0743
12729TIP3    H138144   1.831   6.389   3.115 -0.4295  0.6064 -0.9524
12729TIP3    H238145   1.685   6.384   3.155 -0.0952  0.3827  0.2899
12730TIP3   OH238146   1.439   4.548   6.243  0.6636 -0.1817 -0.1283
12730TIP3    H138147   1.514   4.595   6.207  1.1907 -1.0511 -0.2020
12730TIP3    H238148   1.469   4.517   6.329  1.2584 -2.5632 -1.1184
12731TIP3   OH238149   1.558   7.761   2.274  0.2928 -0.1779  0.1533
12731TIP3    H138150   1.513   7.709   2.341  0.6628 -0.2534  0.3467
12731TIP3    H238151   1.559   7.704   2.197  0.5094 -0.3804  0.3021
12732TIP3   OH238152   5.229   3.422   3.698 -0.3362  0.8345  0.3768
12732TIP3    H138153   5.325   3.431   3.692 -0.0192 -0.6822  2.1797
12732TIP3    H238154   5.212   3.332   3.670 -1.0925  0.7527  1.0772
12733TIP3   OH238155   1.329   4.393   5.253 -0.4407  0.1862 -0.0305
12733TIP3    H138156   1.400   4.363   5.310  0.0674  0.2320 -0.6304
12733TIP3    H238157   1.366   4.388   5.164 -1.0351  0.6430 -0.3070
12734TIP3   OH238158   2.012   4.548   6.150  0.4273  0.2152  0.0346
12734TIP3    H138159   2.006   4.603   6.229 -0.0258  0.9321 -0.4897
12734TIP3    H238160   2.087   4.584   6.103  1.3899 -0.9166  0.6531
12735TIP3   OH238161   4.479   0.975   3.944  0.8222  0.3728 -0.1294
12735TIP3    H138162   4.459   0.986   4.037  2.2554 -1.1209  0.3758
12735TIP3    H238163   4.573   0.993   3.937  0.7717  0.2543 -1.2598
12736TIP3   OH238164   3.418   1.881   4.743  0.1963 -0.3243  0.5101
12736TIP3    H138165   3.424   1.864   4.836  1.3651 -1.7706  0.2011
12736TIP3    H238166   3.475   1.957   4.729  2.6885 -2.0443  0.5667
12737TIP3   OH238167   5.690   7.287   2.343  0.1132 -0.4544 -0.5762
12737TIP3    H138168   5.687   7.307   2.436 -1.8889 -0.1092 -0.6662
12737TIP3    H238169   5.627   7.347   2.303  0.5757 -0.9193 -2.0870
12738TIP3   OH238170   1.907   1.455   6.302  0.2227  0.2614  0.6458
12738TIP3    H138171   1.899   1.377   6.247 -0.7083  2.0960 -2.0907
12738TIP3    H238172   1.972   1.432   6.368  1.2047 -2.2909 -1.0516
12739TIP3   OH238173   3.287   0.806   2.020 -0.5826  0.6587 -0.1440
12739TIP3    H138174   3.253   0.881   2.069 -1.5889 -0.0368  0.2646
12739TIP3    H238175   3.303   0.840   1.932  0.2781  1.6773  0.3841
12740TIP3   OH238176   6.465   2.907   2.873  0.5539  0.0959  0.3243
12740TIP3    H138177   6.485   2.814   2.858  0.0726 -0.0864  0.7800
12740TIP3    H238178   6.434   2.910   2.964 -0.1180  0.5983  0.0800
12741TIP3   OH238179   2.146   1.486   5.716  0.3139 -0.4651 -0.2718
12741TIP3    H138180   2.220   1.482   5.777  0.0597 -2.9621 -0.0395
12741TIP3    H238181   2.094   1.561   5.747  1.7709  0.2088  0.6769
12742TIP3   OH238182   2.054   4.523   3.841 -0.1231  0.1753 -0.4631
12742TIP3    H138183   1.999   4.584   3.792 -0.0203  0.0130 -0.7813
12742TIP3    H238184   2.144   4.546   3.815 -0.0110  0.6733  0.3149
12743TIP3   OH238185   5.519   4.408   6.059  0.5076 -0.5864  0.1298
12743TIP3    H138186   5.518   4.321   6.019 -0.4471 -0.7748  0.5358
12743TIP3    H238187   5.449   4.456   6.014  0.6153 -0.2273  0.3375
12744TIP3   OH238188   6.635   4.962   1.491  0.2881  0.2225  0.2097
12744TIP3    H138189   6.674   4.894   1.437  0.7019 -0.9790  1.9146
12744TIP3    H238190   6.545   4.934   1.504  0.4561 -0.0292  0.9082
12745TIP3   OH238191   4.110   3.257   5.861 -0.1820 -0.0692  0.0977
12745TIP3    H138192   4.029   3.282   5.906  0.7455  0.6331  1.4827
12745TIP3    H238193   4.100   3.291   5.772 -1.5735 -0.3731  0.1254
12746TIP3   OH238194   0.381   0.669   2.488 -0.0175  0.4856  0.5205
12746TIP3    H138195   0.293   0.687   2.520 -0.1391  0.0124  0.4487
12746TIP3    H238196   0.431   0.645   2.565  0.0761  0.8387  0.5744
12747TIP3   OH238197   4.480   5.323   0.758 -0.3513  0.0843 -0.5411
12747TIP3    H138198   4.509   5.378   0.830  1.3402 -0.9415 -0.3969
12747TIP3    H238199   4.410   5.270   0.795  0.0803  0.0025  0.1750
12748TIP3   OH238200   3.240   0.290   5.224 -0.1033 -0.0335 -0.4952
12748TIP3    H138201   3.269   0.200   5.240  2.2701  0.4375 -1.5923
12748TIP3    H238202   3.145   0.285   5.218 -0.1122 -2.2551  0.5717
12749TIP3   OH238203   4.993   3.218   5.649 -0.4777  0.0653 -0.0635
12749TIP3    H138204   5.082   3.191   5.627 -0.9968 -0.0935 -2.1740
12749TIP3    H238205   4.995   3.314   5.646 -0.2277  0.0869  0.6193
12750TIP3   OH238206   6.803   1.899   0.312  0.2131  0.4291 -0.1476
12750TIP3    H138207   6.872   1.833   0.304  0.2722  0.1892  1.8169
12750TIP3    H238208   6.762   1.881   0.396 -2.0719  0.7757 -1.1209
12751TIP3   OH238209   1.519   1.244   0.071  0.2865 -0.2471 -0.0665
12751TIP3    H138210   1.492   1.258   0.162  1.1593  0.7186  0.0649
12751TIP3    H238211   1.614   1.234   0.076  0.3930  0.2429 -0.9203
12752TIP3   OH238212   8.157   6.067   1.197 -0.7252  0.3688  0.4224
12752TIP3    H138213   8.197   5.981   1.185  0.8326  1.0457  0.5548
12752TIP3    H238214   8.185   6.118   1.121 -1.7988  0.7123  0.2387
12753TIP3   OH238215   1.611   5.626   6.500  0.0040 -0.1765  0.2773
12753TIP3    H138216   1.676   5.693   6.479 -0.0129  0.1286  1.1595
12753TIP3    H238217   1.598   5.634   6.594 -0.0026 -1.4269  0.3985
12754TIP3   OH238218   2.140   3.059   1.240  0.0391 -0.3304  0.0383
12754TIP3    H138219   2.141   2.995   1.311  0.8477 -1.3969 -0.8947
12754TIP3    H238220   2.230   3.092   1.237  0.0358 -0.3651 -0.5443
12755TIP3   OH238221   5.785   2.912   2.026  0.3862  0.3281 -0.3302
12755TIP3    H138222   5.691   2.926   2.021  0.2291  0.5729  2.0678
12755TIP3    H238223   5.795   2.829   2.073  1.2999  1.0409  0.8160
12756TIP3   OH238224   5.269   0.904   2.041 -0.4414  0.6815 -0.1171
12756TIP3    H138225   5.331   0.896   1.969 -0.0935  0.3460  0.2105
12756TIP3    H238226   5.256   0.814   2.071 -0.7475  0.7971  0.0992
12757TIP3   OH238227   7.294   3.282   0.244  0.1372  0.1681  0.0378
12757TIP3    H138228   7.311   3.205   0.299  0.3917  0.8339  0.9147
12757TIP3    H238229   7.328   3.355   0.295  1.1514  0.7249 -1.3830
12758TIP3   OH238230   3.017   7.589   1.627 -0.4113  0.1633  0.3173
12758TIP3    H138231   3.073   7.657   1.665 -0.1766  0.5132 -0.6312
12758TIP3    H238232   2.933   7.601   1.670 -1.2213  2.8715 -1.7412
12759TIP3   OH238233   7.687   4.051   0.797  0.0037 -0.3257 -0.0837
12759TIP3    H138234   7.730   4.065   0.713 -1.2167 -2.5008 -1.1555
12759TIP3    H238235   7.743   3.990   0.844 -0.7770 -1.4771 -0.6018
12760TIP3   OH238236   5.886   0.606   0.300  0.0638 -0.4219 -0.1596
12760TIP3    H138237   5.873   0.636   0.210  3.4185  1.2688 -0.2705
12760TIP3    H238238   5.930   0.521   0.291  0.3338 -0.2857 -0.1608
12761TIP3   OH238239   5.976   1.410   6.049  0.7912 -0.3069  0.1158
12761TIP3    H138240   5.984   1.460   6.131  0.6039  0.9401 -0.6062
12761TIP3    H238241   6.015   1.466   5.982  0.7837 -1.2374 -0.6924
12762TIP3   OH238242   2.118   5.420   6.295 -0.4473  0.2259  0.2491
12762TIP3    H138243   2.050   5.428   6.362 -1.2446 -0.4034 -0.4563
12762TIP3    H238244   2.069   5.413   6.213  0.4906  0.2141 -0.3149
12763TIP3   OH238245   4.911   5.290   1.605 -0.5467 -0.0864  0.5301
12763TIP3    H138246   4.938   5.298   1.514  0.0996  0.7683  0.7786
12763TIP3    H238247   4.888   5.198   1.615  0.8874 -0.5548 -0.1004
12764TIP3   OH238248   4.404   6.402   5.510  0.6291 -0.5633 -0.1043
12764TIP3    H138249   4.316   6.387   5.474  1.0592 -2.0291 -0.5810
12764TIP3    H238250   4.388   6.434   5.599 -0.3949 -2.1177  0.3059
12765TIP3   OH238251   5.947   6.940   4.540 -0.4906  0.1337  0.3823
12765TIP3    H138252   5.975   6.878   4.608 -1.2212 -0.7101 -0.0712
12765TIP3    H238253   5.925   7.019   4.588  1.1446  0.3089  0.9107
12766TIP3   OH238254   4.599   3.139   2.548  0.1039  0.3619  0.2084
12766TIP3    H138255   4.536   3.077   2.585 -2.2192  1.3418 -1.8053
12766TIP3    H238256   4.650   3.086   2.485 -2.3543  0.4678 -2.0448
12767TIP3   OH238257   3.408   4.303   0.417  0.4984  0.0348  0.2218
12767TIP3    H138258   3.464   4.243   0.465  0.0569 -0.3051  0.3229
12767TIP3    H238259   3.327   4.307   0.469 -0.4803 -1.3297 -1.1166
12768TIP3   OH238260   3.057   1.303   2.933  0.1260 -0.5971 -0.1845
12768TIP3    H138261   3.085   1.279   3.022  0.5799  2.0381  0.4580
12768TIP3    H238262   3.139   1.321   2.887 -0.1797 -0.3691 -0.6434
12769TIP3   OH238263   2.261   5.585   4.173  0.2676 -0.0444 -0.0532
12769TIP3    H138264   2.244   5.676   4.197 -0.3319 -0.1463 -0.0638
12769TIP3    H238265   2.174   5.549   4.153  0.5164 -0.5703 -0.2104
12770TIP3   OH238266   6.913   3.889   3.003 -0.6016  0.2864  0.2107
12770TIP3    H138267   6.818   3.889   2.999 -0.7396  2.5860  1.7269
12770TIP3    H238268   6.934   3.867   3.094  0.5542 -3.7041 -0.8052
12771TIP3   OH238269   3.039   1.685   5.611 -0.0463  0.3563 -0.1586
12771TIP3    H138270   3.081   1.640   5.684 -1.4250 -0.0212  0.4341
12771TIP3    H238271   2.976   1.745   5.652 -1.7116 -0.7122 -1.0155
12772TIP3   OH238272   5.535   1.732   2.732  0.0647  0.0492  0.3935
12772TIP3    H138273   5.526   1.637   2.740  1.6560 -0.3570 -1.9605
12772TIP3    H238274   5.629   1.748   2.735 -0.1632  1.5426  0.4060
12773TIP3   OH238275   4.872   2.449   0.461  0.7402  0.0715 -0.0910
12773TIP3    H138276   4.926   2.476   0.387 -0.4445  0.2726 -0.9197
12773TIP3    H238277   4.810   2.386   0.423  1.1848 -1.1196  1.0817
12774TIP3   OH238278   5.566   7.326   1.834 -0.1607 -0.3395  0.6955
12774TIP3    H138279   5.521   7.391   1.887 -0.6269 -0.2461  0.1887
12774TIP3    H238280   5.601   7.263   1.898 -1.2933 -0.5994  1.0868
12775TIP3   OH238281   5.506   0.284   0.853  0.1889  0.1754  0.1935
12775TIP3    H138282   5.527   0.369   0.815  0.1368  0.4023  0.6621
12775TIP3    H238283   5.495   0.301   0.947 -0.3174 -0.2551  0.2220
12776TIP3   OH238284   3.612   3.084   3.138 -0.0045  0.1891  0.5254
12776TIP3    H138285   3.526   3.125   3.144 -0.1428 -0.3459  3.3462
12776TIP3    H238286   3.670   3.142   3.186  1.0958  0.1372 -0.6823
12777TIP3   OH238287   3.344   5.250   0.498  0.7254 -0.0406  0.0289
12777TIP3    H138288   3.438   5.267   0.503  0.5244  1.7027 -1.2760
12777TIP3    H238289   3.307   5.299   0.571  0.7641 -0.1027  0.0899
12778TIP3   OH238290   8.272   3.918   1.614  0.1573  0.7289  0.4145
12778TIP3    H138291   8.282   3.849   1.549  1.6134 -0.9997  2.3266
12778TIP3    H238292   8.283   4.000   1.565  1.0010 -0.4818 -1.5212
12779TIP3   OH238293   5.426   4.899   2.041  0.0804 -0.0535  0.2810
12779TIP3    H138294   5.425   4.860   2.128  1.2822  1.4313  1.0274
12779TIP3    H238295   5.334   4.907   2.017 -0.3026  0.0423  1.6871
12780TIP3   OH238296   5.895   1.460   5.408  0.2448  0.7149 -0.3058
12780TIP3    H138297   5.964   1.395   5.425 -1.1015 -1.0717 -1.3777
12780TIP3    H238298   5.848   1.466   5.491 -1.0322 -1.5038 -0.7768
12781TIP3   OH238299   2.938   3.095   3.402 -0.1967  0.7810  0.1054
12781TIP3    H138300   3.013   3.039   3.385 -0.2613  0.6400  0.2758
12781TIP3    H238301   2.971   3.184   3.392  0.2558  0.7478  1.2055
12782TIP3   OH238302   7.642   4.775   5.736  0.6092 -0.4537  0.0497
12782TIP3    H138303   7.641   4.679   5.745  0.2055 -0.4075  0.5480
12782TIP3    H238304   7.602   4.791   5.651  0.2190 -0.7101  0.1787
12783TIP3   OH238305   7.011   7.010   4.578  0.0463 -0.1680  0.0579
12783TIP3    H138306   7.001   6.915   4.569 -1.5609 -0.2107  1.6922
12783TIP3    H238307   6.929   7.046   4.544 -0.7287  0.3643  2.2865
12784TIP3   OH238308   6.677   1.685   6.376 -0.2216  0.0284 -0.3101
12784TIP3    H138309   6.629   1.768   6.369 -0.6279 -0.1994 -0.2812
12784TIP3    H238310   6.613   1.619   6.350  0.2774 -0.2279 -0.9250
12785TIP3   OH238311   6.279   3.016   6.136  0.3865  0.2472 -0.1824
12785TIP3    H138312   6.375   3.015   6.134  0.3852  0.5870 -0.8041
12785TIP3    H238313   6.256   3.102   6.170  0.3060  0.5910 -1.0701
12786TIP3   OH238314   0.314   0.290   5.825 -0.7190  0.1389  0.2360
12786TIP3    H138315   0.356   0.268   5.908 -2.3551 -0.5219  0.9410
12786TIP3    H238316   0.342   0.222   5.765  0.2814  0.4774  0.3067
12787TIP3   OH238317   3.615   6.934   5.830  0.3451  0.7001  0.1954
12787TIP3    H138318   3.690   6.884   5.863  0.9976  1.2166 -0.4683
12787TIP3    H238319   3.637   6.951   5.738 -1.0744 -0.0694 -0.3227
12788TIP3   OH238320   4.047   1.563   0.762  0.2931 -0.0513 -0.0175
12788TIP3    H138321   4.135   1.600   0.759  0.7334 -1.1071 -1.2600
12788TIP3    H238322   4.014   1.585   0.849  1.2759  1.4826 -0.0056
12789TIP3   OH238323   7.444   0.155   0.573 -0.4597  0.1366  0.3620
12789TIP3    H138324   7.424   0.084   0.513 -2.0510  1.1944 -0.4308
12789TIP3    H238325   7.488   0.221   0.520  1.1247 -0.2562  1.1177
12790TIP3   OH238326   3.439   6.897   5.038 -0.2857 -0.0031 -1.0553
12790TIP3    H138327   3.404   6.981   5.008 -2.1961  0.0290  1.0117
12790TIP3    H238328   3.382   6.832   4.997 -0.2236 -0.1738 -0.8681
12791TIP3   OH238329   3.259   3.828   2.188 -0.2409  0.3414 -0.1472
12791TIP3    H138330   3.276   3.892   2.119  1.0097  0.7807  0.5416
12791TIP3    H238331   3.345   3.796   2.213 -0.7495 -0.5472  0.5307
12792TIP3   OH238332   2.374   4.570   3.876  0.2625 -0.6903 -0.2207
12792TIP3    H138333   2.410   4.617   3.801 -1.0613  2.5093  0.9420
12792TIP3    H238334   2.446   4.564   3.939  0.7894 -1.4476 -0.8769
12793TIP3   OH238335   8.128   1.964   0.009  0.2558  0.5322  0.1715
12793TIP3    H138336   8.145   1.998   0.096  0.5897 -2.5097  1.4270
12793TIP3    H238337   8.101   1.873   0.023  0.9230 -0.2733 -2.9117
12794TIP3   OH238338   3.419   4.473   0.028  0.1671  0.5147  0.5761
12794TIP3    H138339   3.399   4.563   0.003  0.5355  0.7417  1.0703
12794TIP3    H238340   3.333   4.434   0.048 -0.0300  0.6267 -0.0440
12795TIP3   OH238341   7.073   4.206   0.749 -1.0813  0.6237 -0.1225
12795TIP3    H138342   7.035   4.222   0.836 -3.2834  0.2589 -0.9531
12795TIP3    H238343   7.070   4.111   0.738 -0.3912  0.6312 -0.4262
12796TIP3   OH238344   2.559   7.789   6.682  0.2121  0.1135 -0.1382
12796TIP3    H138345   2.526   7.793   6.772 -1.3314  0.4993 -0.7061
12796TIP3    H238346   2.494   7.739   6.634  0.4275  0.9117 -1.3059
12797TIP3   OH238347   1.780   6.286   4.879  0.9203 -0.9735 -1.0416
12797TIP3    H138348   1.703   6.313   4.829  0.3147  0.1607  0.4145
12797TIP3    H238349   1.745   6.263   4.965  2.0143 -2.1804 -0.9025
12798TIP3   OH238350   4.716   3.374   2.694 -0.1810  0.4550 -0.3000
12798TIP3    H138351   4.801   3.347   2.728 -0.3798 -0.1671 -0.2867
12798TIP3    H238352   4.694   3.308   2.628 -1.2297 -0.1251  0.5874
12799TIP3   OH238353   7.155   4.804   6.552  0.6017  0.1875 -0.2287
12799TIP3    H138354   7.129   4.807   6.644 -1.1639 -1.7611 -0.5996
12799TIP3    H238355   7.127   4.888   6.516  1.0302  0.8420  0.9238
12800TIP3   OH238356   5.760   1.637   6.340  0.3082 -0.2488  0.0341
12800TIP3    H138357   5.670   1.607   6.324 -0.1737  0.1416  1.7791
12800TIP3    H238358   5.753   1.733   6.339  0.6249 -0.2184  0.4702
12801TIP3   OH238359   8.066   7.591   0.400  0.0658 -0.1886 -0.4483
12801TIP3    H138360   7.976   7.601   0.369  0.3998  0.1189 -1.3771
12801TIP3    H238361   8.117   7.649   0.343  0.5220  1.8451  1.8358
12802TIP3   OH238362   0.447   4.585   6.111  0.2212 -0.0432  0.0429
12802TIP3    H138363   0.355   4.608   6.101  0.3636  0.4627 -0.1352
12802TIP3    H238364   0.464   4.522   6.041 -0.3771 -1.3530  1.0331
12803TIP3   OH238365   7.634   0.706   1.659 -0.0207  0.0175 -0.2392
12803TIP3    H138366   7.603   0.657   1.583 -1.7202  0.2414  0.2743
12803TIP3    H238367   7.608   0.654   1.734 -0.0368  0.7209  0.2479
12804TIP3   OH238368   0.988   6.279   5.761  0.3753  0.0145 -0.2006
12804TIP3    H138369   0.974   6.335   5.838 -0.1421  0.8751 -0.8958
12804TIP3    H238370   1.081   6.288   5.741  0.3835  0.2891 -0.0420
12805TIP3   OH238371   3.827   2.856   2.731 -0.1829 -0.2122 -0.3095
12805TIP3    H138372   3.766   2.929   2.721 -0.8374 -0.9525 -1.8714
12805TIP3    H238373   3.797   2.810   2.810  0.5392  1.4349  1.0039
12806TIP3   OH238374   1.033   3.116   0.714 -0.6371 -0.3109 -0.0098
12806TIP3    H138375   1.062   3.178   0.781  1.1972 -2.2153  1.0553
12806TIP3    H238376   1.007   3.038   0.763  1.6139 -2.1073 -1.4999
12807TIP3   OH238377   4.435   7.384   3.871 -0.3563  0.1680 -0.6463
12807TIP3    H138378   4.436   7.304   3.820 -3.7409 -0.3753 -0.0856
12807TIP3    H238379   4.423   7.355   3.961  0.5136  1.2752 -0.1414
12808TIP3   OH238380   0.188   7.636   5.612  0.0168 -0.2082  0.3214
12808TIP3    H138381   0.170   7.666   5.701 -0.9477  1.0525 -0.2730
12808TIP3    H238382   0.101   7.623   5.573  0.4267 -0.8419 -0.4170
12809TIP3   OH238383   2.725   7.628   0.368  0.8014  0.0734 -0.0338
12809TIP3    H138384   2.643   7.678   0.364  0.5376 -0.2846  0.7677
12809TIP3    H238385   2.716   7.574   0.446  0.9580 -1.4635 -1.0409
12810TIP3   OH238386   1.119   4.407   2.129  0.5289  0.1610 -0.0296
12810TIP3    H138387   1.141   4.478   2.068 -0.8993 -0.1961 -1.0100
12810TIP3    H238388   1.027   4.420   2.150  1.0472  0.4397  2.3554
12811TIP3   OH238389   1.002   1.045   6.017 -0.6177  0.5909 -0.2191
12811TIP3    H138390   1.029   1.046   6.109 -0.8063 -0.0296 -0.1546
12811TIP3    H238391   0.974   1.135   6.000 -1.3596  0.5255  0.5647
12812TIP3   OH238392   0.676   3.196   0.705 -0.5540 -0.4233 -0.2436
12812TIP3    H138393   0.701   3.283   0.737  0.8225 -0.4499 -1.1807
12812TIP3    H238394   0.715   3.190   0.618 -1.1043 -1.7700 -0.4196
12813TIP3   OH238395   5.849   2.671   0.593 -0.2107  0.6669 -0.4934
12813TIP3    H138396   5.877   2.762   0.587  0.5679  0.4110 -1.0870
12813TIP3    H238397   5.874   2.633   0.509 -0.6665 -0.0580 -0.3149
12814TIP3   OH238398   5.169   1.552   2.028  0.5074 -0.1195  0.3477
12814TIP3    H138399   5.199   1.628   1.977 -0.0190  0.8266  1.3893
12814TIP3    H238400   5.231   1.483   2.007  3.0896  1.5555  1.9213
12815TIP3   OH238401   7.254   0.007   3.971  0.1325  0.0438  0.0257
12815TIP3    H138402   7.168  -0.002   4.012 -0.0185  2.3174  0.3534
12815TIP3    H238403   7.245   0.082   3.912  1.8223  0.2261 -0.0522
12816TIP3   OH238404   7.219   5.273   2.341  0.2267 -0.0732 -0.0391
12816TIP3    H138405   7.159   5.198   2.348 -1.2929  0.9706 -1.0960
12816TIP3    H238406   7.201   5.325   2.419  0.9079 -0.5339  0.4329
12817TIP3   OH238407   0.370   2.787   3.597 -0.3342  0.0264  0.6463
12817TIP3    H138408   0.296   2.818   3.545  0.0957 -0.5314 -0.3399
12817TIP3    H238409   0.340   2.704   3.634 -0.4384  0.1340  0.8026
12818TIP3   OH238410   5.192   2.989   2.147  0.7153  0.4162  0.1276
12818TIP3    H138411   5.126   3.045   2.188 -0.5039  0.0317 -1.2010
12818TIP3    H238412   5.269   2.996   2.203  0.0604  2.1344  0.8572
12819TIP3   OH238413   2.050   3.380   5.940 -0.0683 -0.1335  0.3429
12819TIP3    H138414   1.991   3.395   6.014  0.1123  1.2569  0.2188
12819TIP3    H238415   2.105   3.307   5.968  0.1826  0.5479  1.7046
12820TIP3   OH238416   4.422   0.567   5.733  0.2275 -0.0631  0.7509
12820TIP3    H138417   4.353   0.532   5.789  0.7122 -1.4211  0.5419
12820TIP3    H238418   4.384   0.646   5.694 -2.1403 -1.9851 -1.2099
12821TIP3   OH238419   0.526   7.078   6.524 -0.4018 -0.0399  0.2727
12821TIP3    H138420   0.441   7.036   6.512 -0.2623 -0.2857  0.1245
12821TIP3    H238421   0.516   7.165   6.486 -0.1502 -0.5841 -1.0940
12822TIP3   OH238422   5.312   2.580   6.262 -0.2858  0.1605  0.2755
12822TIP3    H138423   5.289   2.500   6.310  0.6906 -0.6410 -0.5465
12822TIP3    H238424   5.400   2.603   6.293 -0.0276  0.1609 -0.4339
12823TIP3   OH238425   4.737   6.667   6.143 -0.1232 -0.4999 -0.1746
12823TIP3    H138426   4.781   6.648   6.060 -1.6576 -0.0239 -1.1312
12823TIP3    H238427   4.719   6.761   6.140 -0.3523 -0.5145  0.6206
12824TIP3   OH238428   4.429   6.783   1.775  0.6018 -0.5834 -0.4293
12824TIP3    H138429   4.440   6.874   1.746 -1.2274 -0.5051 -0.9766
12824TIP3    H238430   4.517   6.745   1.767  1.5435  1.2879  0.4436
12825TIP3   OH238431   8.304   1.738   3.658  0.2123 -0.1306 -0.1091
12825TIP3    H138432   8.240   1.668   3.670 -0.3891  0.0547 -1.9205
12825TIP3    H238433   8.252   1.819   3.662  0.5351  0.0894 -0.3027
12826TIP3   OH238434   2.101   0.658   0.757  0.2365 -0.0812  0.2822
12826TIP3    H138435   2.137   0.671   0.844  1.4458 -0.3274 -0.1695
12826TIP3    H238436   2.006   0.670   0.768  0.4972  1.0926  1.3881
12827TIP3   OH238437   6.805   0.073   2.646 -0.1964  0.2975  0.3370
12827TIP3    H138438   6.862   0.001   2.673  0.0265  0.5985  0.6718
12827TIP3    H238439   6.722   0.055   2.692  0.5144  1.4033  2.1691
12828TIP3   OH238440   2.578   7.226   1.153 -0.4396  0.4477 -0.3613
12828TIP3    H138441   2.592   7.282   1.230  2.2525 -0.4622 -0.0500
12828TIP3    H238442   2.503   7.171   1.176 -1.2932  1.9127  0.5148
12829TIP3   OH238443   2.459   1.478   3.885 -0.2950  0.0665 -0.2912
12829TIP3    H138444   2.527   1.419   3.917  0.9185  0.2270 -2.3958
12829TIP3    H238445   2.431   1.440   3.803 -0.9315  1.3591 -0.6951
12830TIP3   OH238446   0.676   5.782   6.240 -0.4165 -0.1944 -0.1305
12830TIP3    H138447   0.749   5.829   6.282 -1.0388  1.1159 -0.4840
12830TIP3    H238448   0.707   5.691   6.235  0.3763 -0.0621  1.5631
12831TIP3   OH238449   7.988   2.293   2.057  0.9515  0.3148  0.1879
12831TIP3    H138450   7.985   2.387   2.074  0.2383  0.1779  0.9038
12831TIP3    H238451   7.907   2.259   2.096 -1.0990 -0.0183 -3.8762
12832TIP3   OH238452   5.364   5.246   6.544 -0.3358  0.1876 -0.0597
12832TIP3    H138453   5.334   5.285   6.626  1.0326 -0.9052  1.0160
12832TIP3    H238454   5.442   5.296   6.521  0.1799 -0.4941  0.1661
12833TIP3   OH238455   5.621   7.119   4.728  0.4614 -0.0721 -0.3747
12833TIP3    H138456   5.620   7.187   4.660  0.1301  0.7456  0.4171
12833TIP3    H238457   5.683   7.151   4.793 -0.1422 -0.2296  0.2948
12834TIP3   OH238458   5.411   2.730   5.054  0.1918 -0.0991  0.1279
12834TIP3    H138459   5.461   2.788   5.112  0.2428  0.1810 -0.1936
12834TIP3    H238460   5.472   2.658   5.035 -0.7496 -1.6934  2.6790
12835TIP3   OH238461   2.871   1.945   3.297  0.1576  0.2338  0.2906
12835TIP3    H138462   2.940   1.893   3.257  0.4701  0.8737 -0.0165
12835TIP3    H238463   2.791   1.897   3.279  0.6877 -1.6157  2.4238
12836TIP3   OH238464   3.490   1.061   4.558 -0.7370  0.1512 -0.1781
12836TIP3    H138465   3.507   1.146   4.599 -1.3102  0.5601 -0.7718
12836TIP3    H238466   3.463   1.004   4.631  1.8672 -0.1948  0.5991
12837TIP3   OH238467   7.490   2.960   1.776  0.2961  0.6294 -0.4809
12837TIP3    H138468   7.434   3.016   1.830  0.8904  0.1868  0.6303
12837TIP3    H238469   7.460   2.976   1.687  0.7767  3.0998 -0.2653
12838TIP3   OH238470   3.125   2.754   4.769 -0.3468 -0.4191  0.1041
12838TIP3    H138471   3.210   2.773   4.728 -2.1183  0.1590 -3.7520
12838TIP3    H238472   3.120   2.658   4.769 -0.3185 -0.4469 -1.3005
12839TIP3   OH238473   4.640   0.061   5.318  0.3496 -0.3438 -0.0959
12839TIP3    H138474   4.571   0.121   5.291 -1.1569 -1.9647 -0.0348
12839TIP3    H238475   4.642  -0.006   5.250  0.3148 -1.5080  1.0035
12840TIP3   OH238476   7.305   1.412   5.370  0.1284 -0.5458 -0.6574
12840TIP3    H138477   7.307   1.319   5.347 -0.2572 -0.3835 -1.3901
12840TIP3    H238478   7.306   1.414   5.465 -1.7404 -1.3601 -0.5782
12841TIP3   OH238479   0.352   2.593   6.267  0.1952  0.0744  0.3313
12841TIP3    H138480   0.302   2.512   6.281  1.1399 -0.9387 -1.7313
12841TIP3    H238481   0.289   2.663   6.285 -0.9982 -1.1034  0.9940
12842TIP3   OH238482   5.522   3.040   6.269  0.4645  0.0992  0.9855
12842TIP3    H138483   5.464   2.965   6.258  0.0313  0.5499  0.0374
12842TIP3    H238484   5.476   3.098   6.330 -0.6031  0.9155 -0.5254
12843TIP3   OH238485   3.772   3.713   6.337  0.1685  0.5699  0.4509
12843TIP3    H138486   3.730   3.784   6.386 -0.3261 -0.0728  0.9821
12843TIP3    H238487   3.831   3.672   6.400  0.0066  0.1381  0.3206
12844TIP3   OH238488   1.780   3.359   5.198 -0.1835 -0.1590 -0.0479
12844TIP3    H138489   1.828   3.329   5.121  0.4252  1.0711 -0.1517
12844TIP3    H238490   1.839   3.343   5.272 -0.9044 -1.6801  0.2528
12845TIP3   OH238491   7.761   2.715   2.665  0.3384 -0.2064  0.4274
12845TIP3    H138492   7.813   2.638   2.685  1.1672  0.5867  1.4279
12845TIP3    H238493   7.714   2.734   2.746  1.1629  1.0934  0.6301
12846TIP3   OH238494   3.746   4.078   3.909 -0.0284  0.2412  0.3458
12846TIP3    H138495   3.761   4.147   3.844 -1.6533 -0.5072 -0.9151
12846TIP3    H238496   3.657   4.094   3.940 -0.1238 -0.7917  0.6382
12847TIP3   OH238497   6.643   3.917   2.965 -0.0392  0.0580 -0.5222
12847TIP3    H138498   6.583   3.961   2.905  0.1670  0.5413 -0.3796
12847TIP3    H238499   6.652   3.829   2.929 -0.6109  0.0683 -0.7024
12848TIP3   OH238500   3.770   6.051   6.251 -0.1286  0.7443  0.0546
12848TIP3    H138501   3.711   6.051   6.176  0.5833  1.6426 -0.5323
12848TIP3    H238502   3.809   5.964   6.251 -2.4189 -0.3563  1.2707
12849TIP3   OH238503   2.402   6.048   6.658  0.4546 -0.4009  0.6548
12849TIP3    H138504   2.473   6.001   6.702  0.1636  0.0156  1.5909
12849TIP3    H238505   2.373   5.988   6.589  1.5376 -0.6797  0.4246
12850TIP3   OH238506   3.241   3.560   1.134  0.5903  0.0581  0.3765
12850TIP3    H138507   3.332   3.586   1.144  0.9328 -0.8355 -0.2065
12850TIP3    H238508   3.195   3.640   1.108  0.8590  0.9222  2.4082
12851TIP3   OH238509   3.707   6.353   0.356  0.0937  0.3081  0.1492
12851TIP3    H138510   3.650   6.299   0.411  2.1437 -2.4905 -0.2668
12851TIP3    H238511   3.793   6.349   0.398  1.0812  0.4148 -1.7516
12852TIP3   OH238512   1.954   5.231   5.166  0.2451 -0.3378  0.6511
12852TIP3    H138513   2.018   5.225   5.237  0.2736 -0.0794  0.6469
12852TIP3    H238514   1.871   5.208   5.206  0.3328 -0.6368  0.6664
12853TIP3   OH238515   6.483   4.957   3.067  0.4078  0.3186  0.3705
12853TIP3    H138516   6.459   4.982   3.157  1.8429  2.1878  0.3070
12853TIP3    H238517   6.578   4.947   3.070  0.3678 -0.4996 -0.7586
12854TIP3   OH238518   1.889   2.330   0.846 -0.9905  0.1654  0.1240
12854TIP3    H138519   1.841   2.370   0.919 -0.8077 -0.1192  0.3991
12854TIP3    H238520   1.896   2.238   0.870 -1.5776 -0.0757 -0.6065
12855TIP3   OH238521   8.009   6.013   0.591 -0.3646 -0.2609 -0.4390
12855TIP3    H138522   8.094   6.053   0.575  0.3008  0.0574  3.1989
12855TIP3    H238523   8.024   5.919   0.578  0.3933 -0.1580 -0.3340
12856TIP3   OH238524   5.754   6.653   5.816  0.6612  0.0518  0.4699
12856TIP3    H138525   5.739   6.623   5.905  2.2752 -1.5493  0.2601
12856TIP3    H238526   5.830   6.603   5.786 -1.6761 -1.9230 -2.9126
12857TIP3   OH238527   3.082   7.587   6.584  0.1928 -0.0150 -0.1117
12857TIP3    H138528   3.012   7.540   6.539  1.0510 -0.7089 -0.7455
12857TIP3    H238529   3.160   7.569   6.533  0.8360  0.7843  0.5628
12858TIP3   OH238530   5.860   5.953   2.347  0.2082  0.3167  0.0858
12858TIP3    H138531   5.831   5.923   2.434 -0.2013  1.5603  0.4015
12858TIP3    H238532   5.827   5.887   2.287  0.7216 -0.7079  0.8996
12859TIP3   OH238533   4.914   4.031   1.383  0.6523  0.1089 -0.6436
12859TIP3    H138534   4.971   4.073   1.318  1.8649 -1.8603 -0.9267
12859TIP3    H238535   4.898   3.943   1.348 -2.2350  0.4093 -0.3265
12860TIP3   OH238536   3.721   2.169   3.812  0.1531  0.0338  0.2026
12860TIP3    H138537   3.783   2.221   3.863 -0.2493 -0.3587  1.0928
12860TIP3    H238538   3.763   2.161   3.726  0.0919  2.1036 -0.0885
12861TIP3   OH238539   7.894   1.139   4.623 -0.1743  0.1178  0.1287
12861TIP3    H138540   7.867   1.091   4.701 -0.6387 -0.7865 -0.5664
12861TIP3    H238541   7.862   1.086   4.550  1.7921 -0.0009 -0.7208
12862TIP3   OH238542   2.550   5.264   6.057 -0.0190  0.0009  0.7355
12862TIP3    H138543   2.471   5.315   6.073 -0.7135 -0.6636 -0.4838
12862TIP3    H238544   2.519   5.175   6.044  0.7931 -0.0858 -0.8704
12863TIP3   OH238545   7.095   3.899   5.260  0.5515 -0.5546 -0.5212
12863TIP3    H138546   7.189   3.907   5.242  0.9277 -1.1723  0.9883
12863TIP3    H238547   7.091   3.873   5.352 -1.1395  0.8644 -0.1321
12864TIP3   OH238548   5.053   2.033   5.517 -0.3437 -0.3132  0.4958
12864TIP3    H138549   5.037   1.939   5.527 -1.4329 -0.1248  0.5806
12864TIP3    H238550   4.996   2.059   5.445  0.9757  0.0313 -0.4603
12865TIP3   OH238551   3.961   2.287   0.945  0.4108  0.4156 -0.1651
12865TIP3    H138552   4.032   2.275   0.882  1.1445  1.3265  0.4403
12865TIP3    H238553   3.905   2.354   0.906  0.1864  0.0899 -0.4008
12866TIP3   OH238554   2.286   3.154   3.922 -0.0887  0.9627  0.1634
12866TIP3    H138555   2.353   3.216   3.950  0.1406  1.1110 -0.6914
12866TIP3    H238556   2.273   3.173   3.829  0.1118 -0.3738 -0.1606
12867TIP3   OH238557   5.072   1.832   3.345  0.8879 -0.6299  0.1108
12867TIP3    H138558   5.062   1.766   3.414 -0.9935  2.2462  2.8049
12867TIP3    H238559   4.987   1.836   3.303  1.0456 -0.0549 -0.1590
12868TIP3   OH238560   5.944   3.122   2.066 -0.0227  0.2156 -0.3213
12868TIP3    H138561   6.031   3.095   2.098  0.1792 -0.5740 -1.5008
12868TIP3    H238562   5.898   3.040   2.050 -0.5620  0.6189 -0.8599
12869TIP3   OH238563   4.244   7.483   1.957  0.3182  0.1423  0.2764
12869TIP3    H138564   4.236   7.409   1.898 -0.1381  1.7506 -1.8133
12869TIP3    H238565   4.338   7.493   1.971  0.4065 -0.4776  0.1352
12870TIP3   OH238566   2.808   4.373   3.082 -0.4168 -0.2630 -0.1567
12870TIP3    H138567   2.736   4.329   3.038  0.2378 -1.4482 -0.0889
12870TIP3    H238568   2.768   4.449   3.125 -1.3538 -0.0495 -1.3473
12871TIP3   OH238569   2.637   6.670   3.837 -0.9283 -0.4180 -0.5952
12871TIP3    H138570   2.645   6.593   3.893  1.1110  2.1555  3.1063
12871TIP3    H238571   2.724   6.682   3.799 -1.3276 -0.1228 -1.4505
12872TIP3   OH238572   1.969   1.334   0.973 -0.4308  0.2634 -0.1006
12872TIP3    H138573   1.888   1.348   1.023  0.5582  2.1478  1.1238
12872TIP3    H238574   2.038   1.336   1.039  0.5683 -3.0077 -0.8945
12873TIP3   OH238575   5.358   4.473   5.526 -0.3074  0.1618  0.7468
12873TIP3    H138576   5.320   4.428   5.601  1.2100  1.1313  2.1945
12873TIP3    H238577   5.425   4.413   5.494 -1.0106 -0.2867  0.0846
12874TIP3   OH238578   3.365   6.641   4.070 -0.1610  0.7505 -0.2277
12874TIP3    H138579   3.280   6.681   4.052  0.5613  2.3005 -0.3219
12874TIP3    H238580   3.404   6.695   4.139  1.1512  0.6422 -0.8423
12875TIP3   OH238581   1.748   5.987   5.454 -0.7204  0.0835  0.4486
12875TIP3    H138582   1.815   6.029   5.399  0.1708 -0.2671  1.2391
12875TIP3    H238583   1.749   6.037   5.535 -2.0066  0.5723  0.1932
12876TIP3   OH238584   7.450   0.624   3.358 -0.1217 -0.6077 -0.0390
12876TIP3    H138585   7.534   0.644   3.317 -0.5435  1.2084 -0.0961
12876TIP3    H238586   7.434   0.532   3.336  2.2287 -1.2748  0.7020
12877TIP3   OH238587   6.320   3.751   5.335 -0.3226  0.3878 -0.3157
12877TIP3    H138588   6.310   3.789   5.247 -0.2446  1.1631 -0.0046
12877TIP3    H238589   6.342   3.826   5.390  0.3271 -0.2078  0.2470
12878TIP3   OH238590   1.147   0.971   5.730  0.4229  0.1924  0.1843
12878TIP3    H138591   1.213   0.908   5.699 -1.2725 -1.3445 -0.5047
12878TIP3    H238592   1.198   1.048   5.755  2.5796 -1.2847  0.7027
12879TIP3   OH238593   0.912   7.633   3.825 -0.7710  0.4297 -0.3638
12879TIP3    H138594   0.829   7.678   3.836 -0.0781  1.5664  0.5753
12879TIP3    H238595   0.943   7.659   3.738 -0.3994  1.8118  0.1470
12880TIP3   OH238596   7.347   2.054   1.715 -0.0395  0.0400 -0.3006
12880TIP3    H138597   7.368   1.970   1.756 -2.1624 -0.9006 -1.0006
12880TIP3    H238598   7.363   2.040   1.621  0.9139  0.8736 -0.2743
12881TIP3   OH238599   2.753   5.107   6.402 -0.5024 -0.3765 -0.1647
12881TIP3    H138600   2.778   5.020   6.435 -0.9510 -0.4849 -0.1100
12881TIP3    H238601   2.699   5.145   6.471  2.4194  1.3486  1.3536
12882TIP3   OH238602   3.573   5.190   1.747 -0.9095  0.0957  0.0693
12882TIP3    H138603   3.545   5.281   1.754  0.2320  0.4418  0.4327
12882TIP3    H238604   3.585   5.176   1.653 -0.1212  0.6491  0.0725
12883TIP3   OH238605   8.019   2.796   5.323  1.0392  0.6020 -0.5734
12883TIP3    H138606   8.039   2.860   5.255 -2.3265  1.3568 -1.0323
12883TIP3    H238607   8.010   2.713   5.276 -0.9870  1.0690 -1.1010
12884TIP3   OH238608   1.118   5.315   1.880  0.6546  0.5124 -0.1426
12884TIP3    H138609   1.095   5.303   1.972 -1.3486  1.3579 -0.4882
12884TIP3    H238610   1.171   5.394   1.879  1.6167 -0.1087  0.3920
12885TIP3   OH238611   7.862   4.460   2.151  0.4483 -0.6652  0.1640
12885TIP3    H138612   7.924   4.451   2.223 -0.7632  0.0222  1.3468
12885TIP3    H238613   7.777   4.437   2.189 -0.3223  0.3043 -0.8769
12886TIP3   OH238614   3.187   1.751   4.703 -0.2812 -0.2215  0.4852
12886TIP3    H138615   3.200   1.744   4.798  1.4226 -1.4761  0.2013
12886TIP3    H238616   3.271   1.779   4.669  0.3767 -3.5200 -0.9816
12887TIP3   OH238617   6.694   2.766   4.060  0.0626 -0.2023  0.0177
12887TIP3    H138618   6.735   2.803   3.982  0.8352  0.8729  0.8852
12887TIP3    H238619   6.762   2.772   4.127 -0.7891 -0.5079  0.9343
12888TIP3   OH238620   3.175   3.875   5.230  0.0231  0.5027  0.5054
12888TIP3    H138621   3.244   3.825   5.185  1.9984  2.8309  0.7278
12888TIP3    H238622   3.117   3.903   5.159 -0.4306 -0.9991  0.2400
12889TIP3   OH238623   4.233   2.532   4.172  0.2466  0.4617  0.3827
12889TIP3    H138624   4.314   2.511   4.219  0.5089 -0.9823 -0.6495
12889TIP3    H238625   4.258   2.530   4.080 -0.5022  2.1716  0.0915
12890TIP3   OH238626   6.095   1.465   1.177  0.4387  0.8402  0.0587
12890TIP3    H138627   6.069   1.477   1.268  0.4384  0.1156  0.1624
12890TIP3    H238628   6.169   1.404   1.181  1.8850  2.4768 -0.2663
12891TIP3   OH238629   0.434   0.875   6.402  0.0085  0.4273  0.0078
12891TIP3    H138630   0.339   0.867   6.401  0.0639 -0.3160  0.1097
12891TIP3    H238631   0.450   0.970   6.399 -0.7243  0.5501 -0.4146
12892TIP3   OH238632   5.211   0.350   5.733  0.5273  0.7484 -0.4067
12892TIP3    H138633   5.150   0.306   5.793  1.6959 -1.8867 -1.0008
12892TIP3    H238634   5.213   0.441   5.764 -2.0269  0.4575  0.9403
12893TIP3   OH238635   1.866   3.821   2.390  0.0615  0.3088  0.2229
12893TIP3    H138636   1.902   3.856   2.309  0.6230  0.9779  0.7482
12893TIP3    H238637   1.883   3.727   2.386  0.4949  0.4068 -0.2261
12894TIP3   OH238638   0.838   4.907   5.903  0.0286 -0.5957 -0.0912
12894TIP3    H138639   0.830   5.002   5.911 -1.4352 -0.2498 -3.5142
12894TIP3    H238640   0.773   4.872   5.965  0.7034  0.5778  1.3306
12895TIP3   OH238641   5.690   1.392   3.662 -0.6621  0.4922  0.2150
12895TIP3    H138642   5.664   1.463   3.603  0.1195  0.5319 -0.1034
12895TIP3    H238643   5.761   1.347   3.615  0.0949  0.6361  1.1845
12896TIP3   OH238644   4.597   5.184   3.812 -0.6777 -0.5635  0.1032
12896TIP3    H138645   4.667   5.126   3.783 -1.6399 -1.2187 -1.0401
12896TIP3    H238646   4.526   5.168   3.750 -1.2648  1.2841  0.2346
12897TIP3   OH238647   1.087   2.936   1.396 -0.2790  0.3102 -0.3548
12897TIP3    H138648   1.172   2.898   1.373  0.4958 -0.5390  3.3529
12897TIP3    H238649   1.025   2.863   1.385  0.0993 -0.1254  0.3220
12898TIP3   OH238650   4.453   2.378   3.980 -0.1349 -0.3182 -0.4670
12898TIP3    H138651   4.526   2.415   3.929  0.4894 -1.4450 -0.4132
12898TIP3    H238652   4.469   2.408   4.069 -1.3586  1.8624 -0.8893
12899TIP3   OH238653   8.042   5.460   1.871  0.2791 -0.2451  0.4253
12899TIP3    H138654   8.109   5.525   1.891  0.3884  0.1883 -1.1851
12899TIP3    H238655   8.089   5.376   1.876  0.7562 -0.0044  0.1422
12900TIP3   OH238656   4.756   4.751   3.201 -0.3738  0.6104  0.0917
12900TIP3    H138657   4.812   4.827   3.211  0.1275  0.0686  1.7580
12900TIP3    H238658   4.733   4.726   3.291 -0.5276 -1.1839 -0.4040
12901TIP3   OH238659   7.337   2.663   4.077 -0.2162  0.7067 -0.1323
12901TIP3    H138660   7.341   2.575   4.113  1.5746  2.3083  4.2822
12901TIP3    H238661   7.243   2.683   4.072 -0.6125 -1.0401 -0.1902
12902TIP3   OH238662   0.743   5.000   0.258  0.0689 -0.2145 -0.2854
12902TIP3    H138663   0.696   4.964   0.333  0.0883 -3.8334 -1.8255
12902TIP3    H238664   0.677   5.007   0.190  0.7338 -0.3232 -0.9509
12903TIP3   OH238665   5.954   5.788   5.514 -0.0045 -0.8669  0.2201
12903TIP3    H138666   6.025   5.847   5.488  0.0565 -1.7312 -1.8113
12903TIP3    H238667   5.910   5.767   5.432 -0.4762 -3.0429  0.9691
12904TIP3   OH238668   2.401   4.600   5.572 -0.3152  0.1373 -0.6809
12904TIP3    H138669   2.391   4.685   5.614 -1.2554  0.4351 -1.4555
12904TIP3    H238670   2.471   4.612   5.508  1.7392 -0.5586  1.3255
12905TIP3   OH238671   7.730   6.481   3.476 -0.1490  0.1571 -0.4590
12905TIP3    H138672   7.704   6.573   3.476 -0.8543 -0.0376 -0.6345
12905TIP3    H238673   7.812   6.480   3.426 -0.4575  0.6096 -0.9966
12906TIP3   OH238674   5.435   5.776   5.502  0.0900 -0.2111 -0.0674
12906TIP3    H138675   5.366   5.727   5.457 -0.0949 -2.6339  2.5853
12906TIP3    H238676   5.392   5.812   5.579  1.2543  0.4331  0.3039
12907TIP3   OH238677   5.511   3.476   3.637 -0.3153 -0.2074 -0.4124
12907TIP3    H138678   5.583   3.464   3.699 -0.6565  0.4441  0.1177
12907TIP3    H238679   5.531   3.560   3.594  0.6387 -1.2819 -2.1735
12908TIP3   OH238680   2.267   2.166   0.035 -0.2211  0.7616  0.5168
12908TIP3    H138681   2.357   2.191   0.017  0.7835 -1.7796  1.5602
12908TIP3    H238682   2.243   2.109  -0.039 -1.3679  2.2133 -0.2764
12909TIP3   OH238683   7.845   0.439   0.813 -0.7433 -0.0070 -0.1641
12909TIP3    H138684   7.893   0.389   0.747  0.7213 -0.0471  0.8870
12909TIP3    H238685   7.908   0.503   0.845 -1.9776  1.2080 -0.0457
12910TIP3   OH238686   0.353   1.006   3.373 -0.2021 -0.3820 -0.0876
12910TIP3    H138687   0.391   1.077   3.424  0.0092 -1.1788  0.9175
12910TIP3    H238688   0.428   0.955   3.343 -0.3674 -0.4023 -0.4735
12911TIP3   OH238689   8.106   3.663   4.565 -0.0485 -0.0926 -0.7629
12911TIP3    H138690   8.062   3.579   4.578 -1.3634  0.5696 -0.8594
12911TIP3    H238691   8.084   3.688   4.476 -2.6358  2.0117  0.3461
12912TIP3   OH238692   4.840   2.140   2.540  0.2594 -0.7091 -0.0868
12912TIP3    H138693   4.924   2.094   2.539 -0.2231 -1.6227 -1.5779
12912TIP3    H238694   4.807   2.127   2.629  0.4752 -2.7012 -0.2465
12913TIP3   OH238695   5.302   1.120   4.561 -0.4425  0.2962 -0.1708
12913TIP3    H138696   5.333   1.058   4.627 -1.2727 -0.3303 -0.3463
12913TIP3    H238697   5.215   1.146   4.591  0.8063  3.3182  1.1987
12914TIP3   OH238698   0.478   6.405   2.991  0.2600 -0.3472  0.2453
12914TIP3    H138699   0.420   6.479   3.009  0.5807 -0.4270  1.7452
12914TIP3    H238700   0.444   6.366   2.910  0.0968  1.4297 -0.5862
12915TIP3   OH238701   2.678   4.212   2.895 -0.2670  0.2627 -0.3688
12915TIP3    H138702   2.708   4.217   2.804  0.2869  0.1921 -0.1885
12915TIP3    H238703   2.604   4.272   2.899  0.3406  1.0409 -0.6148
12916TIP3   OH238704   4.877   5.905   2.947 -0.3920  0.0261 -0.4861
12916TIP3    H138705   4.802   5.876   2.894  0.0865 -0.5315 -0.8812
12916TIP3    H238706   4.863   5.865   3.032  0.3604 -1.6190 -1.0832
12917TIP3   OH238707   3.165   0.134   6.183 -0.2133 -0.3655  0.0917
12917TIP3    H138708   3.168   0.193   6.258 -0.1983 -0.0555 -0.1517
12917TIP3    H238709   3.111   0.179   6.118 -1.2852 -1.1736  0.3796
12918TIP3   OH238710   5.433   0.934   5.388 -0.3408 -0.2240  0.0742
12918TIP3    H138711   5.352   0.945   5.338  0.0188 -0.8623 -0.6864
12918TIP3    H238712   5.421   0.851   5.435 -0.4894  0.1401  0.6866
12919TIP3   OH238713   0.219   0.086   4.545 -0.3151 -0.4908  0.2458
12919TIP3    H138714   0.226   0.067   4.638  0.6762 -0.4975  0.1855
12919TIP3    H238715   0.245   0.004   4.502  0.5836 -0.0741 -0.0275
12920TIP3   OH238716   1.428   3.448   6.429 -0.0617 -0.1186  0.1181
12920TIP3    H138717   1.398   3.504   6.357 -0.2171 -0.9689 -0.4910
12920TIP3    H238718   1.508   3.491   6.461  0.2020  0.0831 -0.7882
12921TIP3   OH238719   7.570   1.198   2.945 -0.0222  0.1915  0.0830
12921TIP3    H138720   7.657   1.158   2.944 -0.8084 -1.7235  1.5070
12921TIP3    H238721   7.536   1.180   3.033 -2.7851 -1.3940 -1.1619
12922TIP3   OH238722   3.522   6.016   6.077  0.5688  0.4507 -0.3229
12922TIP3    H138723   3.551   6.104   6.100  0.1566  0.5477 -0.1668
12922TIP3    H238724   3.435   6.008   6.117  0.4383  0.1171 -0.6650
12923TIP3   OH238725   0.655   1.766   4.344 -0.5819  0.4000 -0.5588
12923TIP3    H138726   0.592   1.703   4.310  0.4047 -1.0647  0.2000
12923TIP3    H238727   0.661   1.834   4.277  0.6284 -1.9057 -2.9537
12924TIP3   OH238728   5.714   7.760   5.989 -0.2657  0.1101 -0.2774
12924TIP3    H138729   5.800   7.764   5.947  0.5199  0.7173  1.2882
12924TIP3    H238730   5.712   7.674   6.031 -0.3737  0.1355 -0.2295
12925TIP3   OH238731   5.913   2.136   4.004 -0.0769 -0.0650  0.5751
12925TIP3    H138732   5.924   2.190   3.926 -0.1866 -0.6448  0.1578
12925TIP3    H238733   5.991   2.155   4.056 -0.2727  0.7499  0.5947
12926TIP3   OH238734   3.201   0.798   6.145 -1.0459  0.0631 -0.1737
12926TIP3    H138735   3.233   0.728   6.201 -0.9480 -1.5315 -2.1232
12926TIP3    H238736   3.111   0.773   6.124 -0.9204  0.3417 -1.1242
12927TIP3   OH238737   5.189   6.675   0.591  0.0229 -0.0478  0.3708
12927TIP3    H138738   5.204   6.633   0.507 -0.6969  1.0226 -0.3257
12927TIP3    H238739   5.096   6.700   0.589  0.3637  1.3350  0.8288
12928TIP3   OH238740   6.564   0.529   3.213  0.3159 -0.2090 -0.3164
12928TIP3    H138741   6.640   0.541   3.271 -1.2206 -0.9508  1.9716
12928TIP3    H238742   6.586   0.450   3.162  1.2721 -0.1286 -0.0615
12929TIP3   OH238743   5.546   3.989   6.430 -0.3098 -0.3339 -0.4854
12929TIP3    H138744   5.640   3.977   6.426  0.1893  2.6810  0.0696
12929TIP3    H238745   5.533   4.054   6.499 -2.7025  0.0670 -1.2187
12930TIP3   OH238746   0.482   0.876   2.329  0.0673  0.0834  0.2098
12930TIP3    H138747   0.450   0.804   2.384 -1.8444  0.0287 -0.8732
12930TIP3    H238748   0.518   0.832   2.251 -0.3349  0.2551 -0.0761
12931TIP3   OH238749   4.117   3.225   5.039 -0.7162 -0.3500 -0.1790
12931TIP3    H138750   4.210   3.206   5.049 -0.4680  0.9273  0.1519
12931TIP3    H238751   4.082   3.222   5.128 -0.6263  0.8408 -0.0847
12932TIP3   OH238752   0.271   1.077   0.188  0.0366 -0.2329 -0.6624
12932TIP3    H138753   0.197   1.096   0.245  1.2048  0.5402  0.6360
12932TIP3    H238754   0.348   1.082   0.244  1.0368 -2.1143 -1.7300
12933TIP3   OH238755   1.040   6.926   1.453  0.6363  0.0057  0.5496
12933TIP3    H138756   1.060   6.905   1.361  0.1005 -0.1598  0.4672
12933TIP3    H238757   1.007   7.016   1.449 -0.9701 -0.5674  0.3463
12934TIP3   OH238758   6.683   7.033   5.049  0.2317 -0.5383  0.5238
12934TIP3    H138759   6.633   7.110   5.021 -1.1221 -0.9693  1.6232
12934TIP3    H238760   6.742   7.016   4.976 -0.6699  0.4904 -0.5059
12935TIP3   OH238761   1.037   4.210   0.911 -0.0535  0.4244  0.0672
12935TIP3    H138762   0.976   4.268   0.866 -1.8081  0.1955  2.0193
12935TIP3    H238763   1.117   4.262   0.919 -0.4581  1.3045 -1.1821
12936TIP3   OH238764   1.302   3.523   2.787 -0.6267 -0.4369  0.3514
12936TIP3    H138765   1.266   3.590   2.729 -1.2844  0.4987  1.7914
12936TIP3    H238766   1.384   3.496   2.745 -1.4849 -0.4243 -1.4339
12937TIP3   OH238767   7.910   5.920   2.118 -0.4683 -0.2365  0.2589
12937TIP3    H138768   7.899   6.015   2.111 -2.5675 -0.4760 -0.2934
12937TIP3    H238769   7.893   5.887   2.030  0.1576 -1.1602  0.4650
12938TIP3   OH238770   3.156   3.807   1.198  0.4758 -0.2774 -0.1315
12938TIP3    H138771   3.207   3.841   1.272 -0.3481 -0.6039  0.5904
12938TIP3    H238772   3.072   3.852   1.203  0.4246 -0.2634 -0.9086
12939TIP3   OH238773   6.503   4.025   1.207  0.5880 -0.1043  0.1953
12939TIP3    H138774   6.511   4.025   1.111  2.2556 -0.5752  0.3025
12939TIP3    H238775   6.411   4.043   1.223 -0.3311 -2.6331 -1.5519
12940TIP3   OH238776   0.730   4.277   5.780  0.5611  0.0709 -0.2106
12940TIP3    H138777   0.664   4.328   5.826 -0.2252  0.8576 -2.0909
12940TIP3    H238778   0.768   4.221   5.847 -0.5170  1.1235  1.3604
12941TIP3   OH238779   7.423   1.010   2.238 -0.3234  0.8302  0.0256
12941TIP3    H138780   7.474   1.089   2.217  0.4141  0.4873  0.4826
12941TIP3    H238781   7.341   1.043   2.274  0.6117  1.4100  1.7346
12942TIP3   OH238782   5.631   6.697   3.330 -1.0319 -0.0482 -0.2785
12942TIP3    H138783   5.553   6.655   3.295 -0.4407  0.3062 -2.1034
12942TIP3    H238784   5.690   6.624   3.350 -1.3416 -0.2483 -0.0867
12943TIP3   OH238785   1.871   5.196   5.979  0.7312 -0.2189  0.4594
12943TIP3    H138786   1.944   5.248   6.013  1.3517 -0.5851 -0.2886
12943TIP3    H238787   1.815   5.260   5.934  1.2216 -0.1125 -0.0083
12944TIP3   OH238788   1.019   5.719   2.705  0.5472  0.1867  0.1024
12944TIP3    H138789   1.046   5.696   2.794 -0.7108 -2.1205 -0.0130
12944TIP3    H238790   0.991   5.635   2.667 -1.0838  1.4666 -1.6928
12945TIP3   OH238791   3.176   5.150   3.485 -0.3675  0.0667 -0.4396
12945TIP3    H138792   3.267   5.158   3.458  0.0405 -0.5613  0.6890
12945TIP3    H238793   3.164   5.057   3.504 -0.8343  0.3371  0.7186
12946TIP3   OH238794   3.998   4.111   4.049 -0.9485 -0.1503  0.6400
12946TIP3    H138795   3.977   4.113   4.143 -2.9317 -0.1145  0.2269
12946TIP3    H238796   3.914   4.100   4.006  0.0168 -0.8519 -1.1362
12947TIP3   OH238797   7.087   1.490   1.787 -0.3119  0.3519 -0.1169
12947TIP3    H138798   7.048   1.525   1.706 -0.4352 -0.6655 -0.5160
12947TIP3    H238799   7.077   1.561   1.851 -1.3379  0.7225 -0.6564
12948TIP3   OH238800   8.004   1.403   4.734 -1.1018  0.7499  0.0402
12948TIP3    H138801   8.056   1.481   4.718 -0.6709  1.0770  2.6623
12948TIP3    H238802   8.066   1.338   4.765 -1.5726 -0.4799 -1.4357
12949TIP3   OH238803   0.751   3.461   0.681 -0.4261  0.1840 -0.0063
12949TIP3    H138804   0.696   3.533   0.648 -0.0623  0.6292  0.3379
12949TIP3    H238805   0.772   3.486   0.771  1.0909  0.4835 -0.4106
12950TIP3   OH238806   3.616   2.227   0.564 -0.0576 -0.0791  0.1320
12950TIP3    H138807   3.569   2.286   0.623 -1.4420  0.5051 -1.4549
12950TIP3    H238808   3.616   2.143   0.610 -0.2012  0.5754  1.3800
12951TIP3   OH238809   1.775   6.513   6.248 -0.4626 -0.3087 -0.5478
12951TIP3    H138810   1.691   6.504   6.294 -0.3050  0.4250 -0.1071
12951TIP3    H238811   1.752   6.502   6.156 -1.4869  2.3863 -0.6986
12952TIP3   OH238812   1.270   4.866   2.740  0.0170  0.1695  0.1191
12952TIP3    H138813   1.326   4.789   2.741  0.1171  0.1774 -1.7816
12952TIP3    H238814   1.287   4.909   2.824 -0.1002 -1.8695  1.2594
12953TIP3   OH238815   8.229   6.265   4.801  0.3283 -0.3281 -0.1049
12953TIP3    H138816   8.250   6.254   4.893  0.0310 -0.2311 -0.0251
12953TIP3    H238817   8.134   6.272   4.798  0.3495 -0.1056 -0.3937
12954TIP3   OH238818   8.106   0.779   0.570  0.4480 -0.0164 -0.1454
12954TIP3    H138819   8.171   0.848   0.568 -0.0751  0.4989  0.3476
12954TIP3    H238820   8.156   0.698   0.558  1.4899  0.1601  2.4364
12955TIP3   OH238821   4.597   3.537   4.208  0.1372 -0.3907 -0.1674
12955TIP3    H138822   4.507   3.561   4.228 -0.0606 -0.8598 -0.4884
12955TIP3    H238823   4.593   3.497   4.121  0.9015  1.1457 -0.9514
12956TIP3   OH238824   2.705   1.483   5.732  0.0115 -0.2117  0.1323
12956TIP3    H138825   2.776   1.544   5.749  0.2304 -0.5273  0.3816
12956TIP3    H238826   2.673   1.460   5.820 -0.1358 -0.3719  0.0365
12957TIP3   OH238827   4.312   6.748   3.730 -0.1837 -0.1128 -0.0821
12957TIP3    H138828   4.230   6.737   3.778  0.2078 -0.7430  0.4457
12957TIP3    H238829   4.364   6.806   3.786  0.3867 -1.0830  0.4120
12958TIP3   OH238830   0.978   3.396   5.556  0.0077 -0.0731 -0.1706
12958TIP3    H138831   0.900   3.448   5.575 -1.1389 -1.6584 -0.4039
12958TIP3    H238832   1.028   3.397   5.638 -0.4964  0.5040  0.1401
12959TIP3   OH238833   4.200   7.137   5.018  0.0453  0.2317 -0.1326
12959TIP3    H138834   4.284   7.100   4.993  0.4316  1.4750 -0.7680
12959TIP3    H238835   4.139   7.063   5.016  1.0225 -0.5880 -0.1236
12960TIP3   OH238836   3.954   2.541   0.260  0.1107 -0.3520  0.1816
12960TIP3    H138837   3.926   2.616   0.312 -2.4419 -1.6215  0.7707
12960TIP3    H238838   4.050   2.543   0.266  0.1145  2.5552  0.5239
12961TIP3   OH238839   6.497   5.150   2.004  0.4627  0.3317 -0.3518
12961TIP3    H138840   6.420   5.159   2.059 -1.2074 -0.0033 -2.4839
12961TIP3    H238841   6.499   5.230   1.952  2.3895  0.9568  0.5965
12962TIP3   OH238842   6.842   2.980   1.214  0.0895 -0.6437  0.0035
12962TIP3    H138843   6.874   3.001   1.302 -0.7452 -0.9548  0.3932
12962TIP3    H238844   6.824   2.886   1.217  0.6896 -0.7994 -0.7184
12963TIP3   OH238845   1.922   7.040   5.127  0.6042 -0.1801 -0.3602
12963TIP3    H138846   1.892   7.092   5.202  2.2357 -0.0794  0.2567
12963TIP3    H238847   1.965   6.964   5.166  0.6734 -0.5884 -1.2164
12964TIP3   OH238848   3.098   6.777   4.205  0.2019 -0.1679 -0.0032
12964TIP3    H138849   3.082   6.871   4.200  0.5717 -0.0873  0.3041
12964TIP3    H238850   3.013   6.737   4.185  0.6560  0.1729 -3.0116
12965TIP3   OH238851   5.456   2.599   1.714  0.5630  0.2175 -0.5283
12965TIP3    H138852   5.431   2.514   1.749 -0.3567  0.5732 -0.2934
12965TIP3    H238853   5.411   2.662   1.770  1.1856  0.8564 -0.7396
12966TIP3   OH238854   6.402   5.998   5.260  0.0813 -0.0996 -0.9128
12966TIP3    H138855   6.473   6.062   5.262  0.3279 -0.3365  1.7696
12966TIP3    H238856   6.383   5.986   5.167  0.2557  3.5606 -1.5651
12967TIP3   OH238857   7.432   5.010   3.107  0.0400 -0.3282  0.3454
12967TIP3    H138858   7.445   4.918   3.129 -0.1924 -0.3978  0.2005
12967TIP3    H238859   7.440   5.057   3.190  0.3049 -0.4629  0.3954
12968TIP3   OH238860   1.710   0.827   5.726  0.0114 -0.7714 -0.7627
12968TIP3    H138861   1.711   0.742   5.769 -0.2397 -1.3103 -1.7666
12968TIP3    H238862   1.617   0.843   5.707 -0.3673  1.2032  2.1363
12969TIP3   OH238863   1.918   1.637   5.531 -0.8356 -0.5937  0.8787
12969TIP3    H138864   1.900   1.545   5.512 -0.7082 -0.3307 -0.5891
12969TIP3    H238865   1.923   1.641   5.627  0.3387 -2.3453  0.9416
12970TIP3   OH238866   2.260   5.533   5.839  0.2930  0.0354 -0.1830
12970TIP3    H138867   2.220   5.620   5.844  0.3261 -0.0204  1.3560
12970TIP3    H238868   2.189   5.475   5.810 -0.4020  0.1667  1.2218
12971TIP3   OH238869   8.171   1.504   4.148  0.0447 -0.2659 -0.3442
12971TIP3    H138870   8.092   1.482   4.099  0.5411  0.0871 -1.3326
12971TIP3    H238871   8.237   1.442   4.117  0.8425  1.0860 -1.4743
12972TIP3   OH238872   4.446   5.945   6.530  0.4581 -0.0861 -0.0683
12972TIP3    H138873   4.456   6.035   6.500 -0.3206 -0.3017 -1.0288
12972TIP3    H238874   4.356   5.922   6.506 -0.1707 -0.3435  2.3217
12973TIP3   OH238875   5.001   1.973   1.498  0.8412 -0.5591 -0.4110
12973TIP3    H138876   4.907   1.991   1.505  1.2322  1.8650 -0.7718
12973TIP3    H238877   5.035   2.041   1.440  3.0768 -0.5026  0.8560
12974TIP3   OH238878   7.574   1.532   3.229  0.4089  0.2561 -0.2295
12974TIP3    H138879   7.486   1.543   3.194  0.3356  0.3346 -0.0187
12974TIP3    H238880   7.563   1.480   3.308  0.5257  0.4556 -0.0789
12975TIP3   OH238881   0.083   6.197   1.946  0.2968  0.3774 -0.5275
12975TIP3    H138882   0.012   6.198   1.882  0.6253 -0.6994 -0.9355
12975TIP3    H238883   0.062   6.268   2.007 -0.6453  0.6508 -1.1487
12976TIP3   OH238884   2.573   2.453   4.707 -0.4791  0.2502 -0.2826
12976TIP3    H138885   2.659   2.483   4.678 -0.2869 -1.3185 -1.4306
12976TIP3    H238886   2.590   2.406   4.788 -0.5214  1.4513  0.4494
12977TIP3   OH238887   0.231   2.400   6.554  0.1137  0.4033 -0.3460
12977TIP3    H138888   0.144   2.427   6.526  0.3172 -0.0667 -1.4689
12977TIP3    H238889   0.258   2.466   6.618 -0.3232  1.5670 -1.3483
12978TIP3   OH238890   7.848   5.545   4.823 -0.1086  0.4868  0.6652
12978TIP3    H138891   7.822   5.501   4.904 -0.6165 -0.3966  0.0333
12978TIP3    H238892   7.828   5.482   4.754 -1.0239  1.7680 -0.2810
12979TIP3   OH238893   5.718   4.512   1.404 -0.3599 -0.3574 -0.4799
12979TIP3    H138894   5.687   4.451   1.337  0.0151 -2.5937  1.2633
12979TIP3    H238895   5.669   4.490   1.482 -0.6642  2.0793  0.0988
12980TIP3   OH238896   7.707   4.655   2.741 -0.0744  0.1886 -0.4659
12980TIP3    H138897   7.621   4.631   2.776  0.0788  1.4840  0.8774
12980TIP3    H238898   7.766   4.647   2.816  0.8513  0.0513 -1.1943
12981TIP3   OH238899   7.261   4.523   2.348  0.1524 -0.2429 -0.2663
12981TIP3    H138900   7.321   4.560   2.413  0.2371  1.2419 -1.1432
12981TIP3    H238901   7.207   4.597   2.320 -0.4358 -1.0295 -1.2931
12982TIP3   OH238902   4.554   1.818   4.759  0.0307  0.1378 -0.0298
12982TIP3    H138903   4.602   1.755   4.812 -0.0910 -0.1230 -0.2287
12982TIP3    H238904   4.619   1.853   4.699 -0.1882 -0.8098 -0.8501
12983TIP3   OH238905   4.946   1.180   1.424  0.2069  0.6971  0.2739
12983TIP3    H138906   4.872   1.240   1.414  0.3426  1.1599  1.8505
12983TIP3    H238907   5.013   1.215   1.365  0.4288  2.3727  1.4424
12984TIP3   OH238908   0.876   0.433   4.884 -0.0701 -0.1413  0.1976
12984TIP3    H138909   0.829   0.454   4.965 -1.5802  0.0233 -0.6793
12984TIP3    H238910   0.810   0.395   4.827  1.4313 -2.2608 -0.2386
12985TIP3   OH238911   1.473   4.725   5.391 -0.6758 -0.0262  1.1643
12985TIP3    H138912   1.380   4.715   5.372 -0.7667  1.0885  0.9152
12985TIP3    H238913   1.481   4.708   5.484 -1.2559  0.5583  1.3313
12986TIP3   OH238914   5.527   7.394   5.451 -0.1136  0.3051  0.9602
12986TIP3    H138915   5.550   7.483   5.480  1.7507 -0.0297  0.6351
12986TIP3    H238916   5.537   7.397   5.355  0.7061 -0.4448  1.0157
12987TIP3   OH238917   8.044   5.602   2.559 -0.1359  0.4532  0.0669
12987TIP3    H138918   7.970   5.626   2.504  0.2849  1.0432 -0.2605
12987TIP3    H238919   8.012   5.613   2.649 -0.7236 -0.1993 -0.0609
12988TIP3   OH238920   2.510   6.164   5.978 -0.3011  0.4953  0.1099
12988TIP3    H138921   2.575   6.130   5.916 -0.3905  1.8795 -0.7936
12988TIP3    H238922   2.439   6.196   5.923 -0.1316  2.2841  0.8405
12989TIP3   OH238923   3.841   6.321   1.305  0.0491  0.1650 -0.1145
12989TIP3    H138924   3.827   6.227   1.292  0.2640  0.1138  0.0174
12989TIP3    H238925   3.925   6.327   1.350  0.1611  0.4335 -0.3489
12990TIP3   OH238926   5.903   2.699   2.752 -0.0892 -0.5971 -0.0162
12990TIP3    H138927   5.954   2.701   2.671  0.5992  0.9312  0.4013
12990TIP3    H238928   5.833   2.762   2.738 -0.9758 -1.5714 -0.0253
12991TIP3   OH238929   3.631   0.922   1.245 -0.2271 -0.2461  0.2767
12991TIP3    H138930   3.586   0.839   1.262  2.4810 -1.5036  1.9990
12991TIP3    H238931   3.598   0.981   1.312  1.2965 -1.4698  2.2177
12992TIP3   OH238932   7.954   4.527   0.238 -0.1662 -0.3963  0.7400
12992TIP3    H138933   7.973   4.458   0.175 -0.0221 -0.3408  0.7225
12992TIP3    H238934   8.009   4.601   0.211 -0.8232 -0.0469  0.3588
12993TIP3   OH238935   7.374   0.143   0.291  0.2625 -0.1656 -0.4523
12993TIP3    H138936   7.380   0.238   0.302  0.4516 -0.2839  0.6030
12993TIP3    H238937   7.308   0.131   0.222 -0.3201  0.7134 -0.0741
12994TIP3   OH238938   3.165   6.343   0.806  0.1643  0.3175  0.0639
12994TIP3    H138939   3.171   6.263   0.754  0.1355 -1.3513  2.4476
12994TIP3    H238940   3.088   6.330   0.861  0.9070  1.3751  1.4200
12995TIP3   OH238941   0.464   2.954   4.501 -0.5671 -0.2917 -0.6192
12995TIP3    H138942   0.472   3.046   4.523 -2.0918  0.0284 -1.2683
12995TIP3    H238943   0.530   2.939   4.433  1.8438 -0.4877  1.5971
12996TIP3   OH238944   8.268   7.375   3.409 -0.1459  0.3242 -0.0594
12996TIP3    H138945   8.231   7.399   3.494  1.7966  0.5373  0.7879
12996TIP3    H238946   8.360   7.355   3.428  0.7984  2.0191 -2.3518
12997TIP3   OH238947   2.954   6.179   1.400  0.0104 -0.8197 -0.4008
12997TIP3    H138948   3.023   6.128   1.358  0.7301 -0.5416  0.4278
12997TIP3    H238949   2.999   6.236   1.462 -0.7335  1.0100 -1.4297
12998TIP3   OH238950   5.661   3.996   2.091  0.2523 -0.0871 -0.3493
12998TIP3    H138951   5.580   4.046   2.101  1.8484  2.3550  1.4110
12998TIP3    H238952   5.715   4.049   2.033  1.4681 -0.4605  0.3986
12999TIP3   OH238953   7.981   1.577   5.007  0.1048 -0.3722 -0.0725
12999TIP3    H138954   8.022   1.603   5.090 -0.5679 -0.5619  0.3265
12999TIP3    H238955   8.031   1.500   4.979  0.7692  0.0971 -0.1921
13000TIP3   OH238956   2.340   3.122   4.347 -0.3515  0.0043  0.1261
13000TIP3    H138957   2.366   3.030   4.343 -2.7821 -0.8026  1.2482
13000TIP3    H238958   2.299   3.138   4.262 -1.8833 -0.6462  0.7042
13001TIP3   OH238959   7.993   5.062   1.636  0.5672  0.3354  0.4831
13001TIP3    H138960   7.925   5.064   1.704  0.4465  0.8348  0.3506
13001TIP3    H238961   8.025   4.972   1.637 -0.1984  0.0577  0.4488
13002TIP3   OH238962   4.818   7.647   6.724 -0.2146  0.0210  0.3104
13002TIP3    H138963   4.756   7.575   6.720  0.7093 -0.7716 -0.0615
13002TIP3    H238964   4.857   7.650   6.637  0.3424  0.4408  0.5668
13003TIP3   OH238965   7.998   0.227   2.700 -0.5573  0.0680  0.6177
13003TIP3    H138966   7.902   0.237   2.698 -0.3862  2.1187 -0.6344
13003TIP3    H238967   8.027   0.291   2.764 -0.0293 -1.0434  1.5181
13004TIP3   OH238968   2.424   7.579   5.037 -0.8262  0.2120  0.3403
13004TIP3    H138969   2.498   7.639   5.044 -0.4741 -0.2525  0.6419
13004TIP3    H238970   2.347   7.633   5.056 -0.4429  0.3903  1.4536
13005TIP3   OH238971   6.123   0.848   0.399  0.8080 -0.1193  0.3592
13005TIP3    H138972   6.178   0.793   0.344  0.8877 -1.7176  1.9624
13005TIP3    H238973   6.062   0.788   0.440  0.2353  1.1305  1.4079
13006TIP3   OH238974   2.802   7.255   4.838  0.4744 -0.3587  0.2966
13006TIP3    H138975   2.810   7.175   4.890  2.9370  0.4666  1.3064
13006TIP3    H238976   2.881   7.305   4.858 -0.2682  1.6646 -1.4716
13007TIP3   OH238977   5.810   4.794   5.078 -0.4837 -0.4850  0.0738
13007TIP3    H138978   5.903   4.787   5.098 -0.8744 -1.0274  1.9225
13007TIP3    H238979   5.795   4.726   5.012  0.5327  0.0540 -0.7404
13008TIP3   OH238980   4.470   2.318   5.492  0.0534  0.0372  0.3410
13008TIP3    H138981   4.475   2.222   5.499 -1.1483 -0.2144 -1.5457
13008TIP3    H238982   4.526   2.340   5.418  0.2304  0.7958  0.6932
13009TIP3   OH238983   6.961   3.796   0.957 -0.4851  0.1028  0.6322
13009TIP3    H138984   6.883   3.842   0.927  0.1512  0.3060 -0.8355
13009TIP3    H238985   6.935   3.752   1.038 -2.8865 -1.9950 -1.1252
13010TIP3   OH238986   1.204   0.166   4.676  0.2306 -0.3605  0.0506
13010TIP3    H138987   1.295   0.194   4.664  0.6647 -1.5663  0.3822
13010TIP3    H238988   1.167   0.229   4.737  1.4733 -1.0354  1.5692
13011TIP3   OH238989   6.955   6.441   2.985  0.3961  0.6220  0.1777
13011TIP3    H138990   6.934   6.520   3.033  0.9941  0.5681  0.5379
13011TIP3    H238991   7.035   6.462   2.937  0.3786  0.3436  0.0185
13012TIP3   OH238992   3.773   5.721   4.192  0.2100  0.4381 -0.1163
13012TIP3    H138993   3.678   5.731   4.194  0.2896  1.1522  0.5610
13012TIP3    H238994   3.807   5.811   4.192  0.8780  0.1911 -0.4936
13013TIP3   OH238995   6.160   3.742   4.082 -0.1758  0.6316 -0.0336
13013TIP3    H138996   6.127   3.656   4.107 -1.6991  1.0790 -0.3787
13013TIP3    H238997   6.249   3.745   4.117  1.1430 -2.2631 -2.6274
13014TIP3   OH238998   8.057   1.861   3.621 -0.1521  0.5425  0.0622
13014TIP3    H138999   7.989   1.825   3.564  0.7463  0.4668 -0.9910
13014TIP3    H239000   8.119   1.902   3.561  1.3422 -0.4087  0.9189
13015TIP3   OH239001   4.238   4.542   6.233 -0.3198 -0.3306 -0.4211
13015TIP3    H139002   4.319   4.593   6.223 -1.2351  0.9100 -1.8817
13015TIP3    H239003   4.246   4.471   6.169 -0.1522 -0.5239 -0.1849
13016TIP3   OH239004   2.073   1.888   4.986 -0.8107 -0.1321 -0.0625
13016TIP3    H139005   2.108   1.963   4.937  3.2473 -0.2495  2.2127
13016TIP3    H239006   1.989   1.919   5.020 -1.4242  1.6659 -2.8286
13017TIP3   OH239007   5.288   0.679   3.711 -0.1945  0.0092  0.1292
13017TIP3    H139008   5.317   0.589   3.697  0.8746  0.0007  2.0182
13017TIP3    H239009   5.368   0.725   3.739 -0.9559  1.2738  0.2946
13018TIP3   OH239010   3.329   1.389   4.456  0.4614  0.5117  0.0586
13018TIP3    H139011   3.365   1.325   4.394 -0.8100  2.3684 -2.8352
13018TIP3    H239012   3.405   1.438   4.487  1.0475  0.2394 -0.9084
13019TIP3   OH239013   1.119   4.138   1.973  0.9438 -0.1200 -0.5489
13019TIP3    H139014   1.111   4.055   2.020  0.3335 -0.4568 -1.2312
13019TIP3    H239015   1.104   4.205   2.039 -0.9313 -0.6054 -0.4403
13020TIP3   OH239016   2.319   6.434   3.961  0.3579 -0.2222  0.3620
13020TIP3    H139017   2.333   6.347   3.998 -1.2539 -0.0610  1.4946
13020TIP3    H239018   2.236   6.463   4.000  0.7896  1.7648 -0.0941
13021TIP3   OH239019   4.212   7.747   6.175  0.6513  0.0099 -0.1753
13021TIP3    H139020   4.270   7.731   6.101  0.1329  1.2961 -0.9123
13021TIP3    H239021   4.126   7.718   6.145  0.1963  1.6762 -0.5847
13022TIP3   OH239022   5.847   5.909   2.620 -0.2721  0.2449 -0.3922
13022TIP3    H139023   5.829   5.946   2.707  1.3288 -0.9772  0.5236
13022TIP3    H239024   5.940   5.887   2.623 -0.3716 -0.5337 -2.1593
13023TIP3   OH239025   3.709   5.791   4.565  0.0081  0.4995 -0.0977
13023TIP3    H139026   3.712   5.710   4.514 -1.0054 -0.5088  1.3682
13023TIP3    H239027   3.621   5.825   4.550  0.2432  1.0616 -0.2573
13024TIP3   OH239028   2.462   5.486   0.547  0.1478 -0.1529 -0.4292
13024TIP3    H139029   2.397   5.427   0.509 -0.8243 -0.2782  1.3264
13024TIP3    H239030   2.546   5.454   0.515 -0.6093 -0.1148 -2.5919
13025TIP3   OH239031   2.492   2.896   4.286 -0.0437 -0.0177 -0.0265
13025TIP3    H139032   2.548   2.953   4.234  1.1678 -0.9831  0.1804
13025TIP3    H239033   2.553   2.843   4.338 -1.1431 -1.1060  0.1982
13026TIP3   OH239034   4.339   2.508   2.707  0.2461  0.1406  0.0473
13026TIP3    H139035   4.260   2.455   2.713 -0.2458  0.8880  0.2712
13026TIP3    H239036   4.315   2.592   2.745  0.2495  1.3960 -2.5391
13027TIP3   OH239037   1.320   5.944   6.642 -0.0216  0.2355 -0.0325
13027TIP3    H139038   1.413   5.961   6.634 -0.0821 -0.3569 -2.8177
13027TIP3    H239039   1.281   6.030   6.660  1.1253  0.2196  3.1492
13028TIP3   OH239040   7.193   1.787   6.319  0.4783  0.1129  0.3305
13028TIP3    H139041   7.225   1.697   6.320  2.1218  0.6696  0.4572
13028TIP3    H239042   7.099   1.779   6.334  0.7596 -1.5032  1.4794
13029TIP3   OH239043   4.219   3.519   0.971 -0.2115  0.7195  0.0629
13029TIP3    H139044   4.287   3.554   0.913 -1.9368  1.3145 -1.6861
13029TIP3    H239045   4.257   3.437   1.005  0.7091  0.0673 -2.3025
13030TIP3   OH239046   2.280   0.970   2.037 -0.4159 -0.1510 -0.4956
13030TIP3    H139047   2.259   0.919   2.115  1.1990 -1.3731 -0.7915
13030TIP3    H239048   2.314   1.053   2.071 -0.2480 -0.4571  0.0927
13031TIP3   OH239049   4.878   2.790   6.530  0.6027  0.4183  0.2104
13031TIP3    H139050   4.899   2.828   6.445 -3.7850  0.1772 -1.2167
13031TIP3    H239051   4.930   2.710   6.534  1.6909  0.9580 -1.7506
13032TIP3   OH239052   5.441   6.345   0.820 -0.0205 -0.1489  1.0366
13032TIP3    H139053   5.478   6.374   0.903  0.4563  2.0147  0.1275
13032TIP3    H239054   5.449   6.249   0.822  1.2134 -0.0513  2.8740
13033TIP3   OH239055   1.529   3.981   5.160  0.0804  0.1639 -0.4205
13033TIP3    H139056   1.613   3.953   5.124  0.6592  1.6229 -0.2902
13033TIP3    H239057   1.527   3.944   5.248  0.4973 -0.0509 -0.5004
13034TIP3   OH239058   6.278   2.077   3.554  0.2544  0.3853  0.0394
13034TIP3    H139059   6.328   2.154   3.582 -1.2325  1.6294 -0.6031
13034TIP3    H239060   6.229   2.050   3.632  0.0592  0.6741  0.0174
13035TIP3   OH239061   3.293   0.245   3.685  0.1148  0.4195  0.0846
13035TIP3    H139062   3.338   0.322   3.650 -1.8204  1.3782 -0.4658
13035TIP3    H239063   3.351   0.172   3.666  0.4733  1.2858 -2.5062
13036TIP3   OH239064   1.804   0.945   3.513  0.1018 -0.0463  0.4562
13036TIP3    H139065   1.762   0.991   3.440 -0.0501 -1.0021 -0.0787
13036TIP3    H239066   1.844   0.867   3.473 -0.8841 -1.1578  1.5313
13037TIP3   OH239067   4.522   3.116   1.946  0.4192  0.3243 -0.3226
13037TIP3    H139068   4.430   3.092   1.953  0.0299  1.1427 -2.0823
13037TIP3    H239069   4.532   3.146   1.856  2.2914  0.7764 -0.0033
13038TIP3   OH239070   2.189   5.552   2.610 -0.6548  0.3238  0.5293
13038TIP3    H139071   2.226   5.593   2.688 -1.3461 -0.1581  1.1159
13038TIP3    H239072   2.181   5.460   2.633  2.1826 -0.4853 -1.2450
13039TIP3   OH239073   6.734   3.682   6.725  0.2856 -0.5917  0.1937
13039TIP3    H139074   6.666   3.659   6.662  0.3653  0.6959 -0.3873
13039TIP3    H239075   6.708   3.769   6.757  0.6880 -0.8685  1.3367
13040TIP3   OH239076   4.035   4.636   1.760  0.0655  0.1144 -0.4006
13040TIP3    H139077   4.001   4.705   1.704  1.3159  0.1577 -1.1407
13040TIP3    H239078   3.986   4.557   1.734 -1.6374  0.7358  0.7093
13041TIP3   OH239079   8.261   4.530   4.614  0.1454  0.2360  0.1037
13041TIP3    H139080   8.307   4.611   4.634  0.5375  0.2035 -0.6257
13041TIP3    H239081   8.329   4.463   4.613 -0.2133 -0.1518  0.9525
13042TIP3   OH239082   7.533   3.704   0.433 -0.2165  0.5993  0.5394
13042TIP3    H139083   7.528   3.697   0.337 -0.5046 -1.0203  0.6374
13042TIP3    H239084   7.626   3.710   0.452 -0.0612 -0.4987  0.2036
13043TIP3   OH239085   4.728   0.746   2.671 -0.2106  0.4596 -0.5664
13043TIP3    H139086   4.665   0.683   2.707  0.3803 -0.5167 -1.2031
13043TIP3    H239087   4.783   0.694   2.613  1.1670  1.3040 -0.0622
13044TIP3   OH239088   0.549   1.828   3.434  0.1849  0.3511 -0.3488
13044TIP3    H139089   0.490   1.858   3.364 -0.3906  0.4039  0.1525
13044TIP3    H239090   0.524   1.737   3.450 -0.0197  0.4903  0.1309
13045TIP3   OH239091   2.807   2.924   2.067 -0.3888  0.3496  0.0885
13045TIP3    H139092   2.832   2.885   2.151  0.9601  0.8830 -0.0512
13045TIP3    H239093   2.736   2.868   2.035 -0.7840  0.0177  1.4804
13046TIP3   OH239094   6.071   5.230   5.138  0.1962 -0.1718 -0.4226
13046TIP3    H139095   5.982   5.263   5.143 -1.1870 -3.3991 -0.8883
13046TIP3    H239096   6.073   5.158   5.202  1.9059 -1.2225 -1.5689
13047TIP3   OH239097   1.763   4.246   5.068  0.0411 -0.1769 -0.3421
13047TIP3    H139098   1.778   4.152   5.057  0.4349 -0.0306 -1.1451
13047TIP3    H239099   1.674   4.252   5.101 -0.3415 -0.7986 -1.2145
13048TIP3   OH239100   1.197   1.939   5.074 -0.1205 -0.4032  0.3594
13048TIP3    H139101   1.269   1.977   5.023 -0.5548 -0.6262 -0.4469
13048TIP3    H239102   1.193   1.992   5.154  0.9339 -0.3957  0.4152
13049TIP3   OH239103   1.164   0.309   3.440 -0.2575  0.0641 -0.1510
13049TIP3    H139104   1.097   0.354   3.491 -1.6586 -0.3729 -1.5385
13049TIP3    H239105   1.169   0.359   3.358  1.1518  0.0969 -0.0777
13050TIP3   OH239106   5.838   5.566   2.693 -0.3508  0.1996  0.2448
13050TIP3    H139107   5.917   5.561   2.747  0.0050  0.0955 -0.2843
13050TIP3    H239108   5.851   5.501   2.624 -0.9817  0.0511  0.2554
13051TIP3   OH239109   2.069   5.422   0.155 -0.1142 -0.2217  0.1913
13051TIP3    H139110   2.011   5.487   0.195 -1.4722 -1.0248 -0.3905
13051TIP3    H239111   2.055   5.433   0.061  0.8254 -0.3259  0.0332
13052TIP3   OH239112   2.157   7.052   4.547 -0.0904  0.4097 -0.1325
13052TIP3    H139113   2.108   7.047   4.630 -0.2087  0.5639 -0.1927
13052TIP3    H239114   2.245   7.081   4.574  0.0598 -0.1589  0.0085
13053TIP3   OH239115   3.807   3.742   4.503 -0.3156  0.0229 -0.0024
13053TIP3    H139116   3.742   3.812   4.499 -0.0044  0.3068 -0.1709
13053TIP3    H239117   3.764   3.667   4.462  0.0575  0.6860 -1.6965
13054TIP3   OH239118   0.288   7.561   4.819  0.0227  0.1183 -0.1794
13054TIP3    H139119   0.317   7.618   4.889  1.8839 -2.2779  1.1441
13054TIP3    H239120   0.257   7.482   4.863 -0.3929 -0.8104 -1.9994
13055TIP3   OH239121   6.963   5.758   6.363  0.3865  0.3140 -0.2240
13055TIP3    H139122   7.015   5.812   6.303  0.0999 -0.8895 -1.6112
13055TIP3    H239123   6.882   5.741   6.316  0.0598 -0.4790  0.5991
13056TIP3   OH239124   0.545   7.474   4.018 -0.2062  0.3057  0.2287
13056TIP3    H139125   0.519   7.499   4.107 -0.1221  0.6949  0.1484
13056TIP3    H239126   0.575   7.556   3.979  1.1276 -0.1087  0.3158
13057TIP3   OH239127   0.782   5.732   1.754  0.2193  0.3586 -0.2046
13057TIP3    H139128   0.715   5.664   1.752  1.0304 -0.4617 -1.7109
13057TIP3    H239129   0.771   5.775   1.839 -0.3394 -1.6361  0.7887
13058TIP3   OH239130   1.026   1.363   1.480  0.0911  0.1595 -0.4291
13058TIP3    H139131   1.042   1.279   1.437  0.2464  0.2337 -0.5167
13058TIP3    H239132   0.934   1.381   1.465 -0.0172 -0.1497 -0.1415
13059TIP3   OH239133   6.118   7.125   5.233  0.2245  0.1370  0.7927
13059TIP3    H139134   6.213   7.136   5.225  0.1664  0.6283  0.7242
13059TIP3    H239135   6.099   7.153   5.322 -0.0020  1.1462  0.4351
13060TIP3   OH239136   2.738   3.121   5.719  0.2117 -0.6200  0.4229
13060TIP3    H139137   2.715   3.188   5.655  0.2343 -1.8954 -0.9875
13060TIP3    H239138   2.657   3.074   5.735  1.0472 -3.5376 -2.6689
13061TIP3   OH239139   4.399   4.825   3.561 -0.5579 -0.1283  0.3656
13061TIP3    H139140   4.466   4.893   3.552 -0.9676  0.3352  0.7615
13061TIP3    H239141   4.449   4.745   3.579 -0.0769  0.0766 -0.0183
13062TIP3   OH239142   8.042   3.448   2.100 -0.3602 -0.0843 -0.2029
13062TIP3    H139143   8.064   3.520   2.158  0.9153 -1.3362  0.9524
13062TIP3    H239144   8.061   3.369   2.151  1.2898 -1.2603 -2.4461
13063TIP3   OH239145   5.833   6.780   1.406  0.7675  0.1869  0.5761
13063TIP3    H139146   5.762   6.775   1.341  0.9823  1.1993  0.2331
13063TIP3    H239147   5.913   6.788   1.353  1.2047 -1.4818  0.9540
13064TIP3   OH239148   3.581   4.573   1.828 -0.4145 -0.2281 -0.1555
13064TIP3    H139149   3.608   4.576   1.920 -0.6036 -0.0198 -0.1054
13064TIP3    H239150   3.511   4.638   1.821  0.5921  0.8342 -0.7735
13065TIP3   OH239151   2.032   7.326   1.586  0.4097 -0.0571  0.1276
13065TIP3    H139152   1.942   7.338   1.555  0.4244  1.0548  0.4917
13065TIP3    H239153   2.042   7.390   1.656  1.5763  0.0244 -0.1024
13066TIP3   OH239154   8.172   6.312   0.717  0.4426 -0.1076 -0.1304
13066TIP3    H139155   8.262   6.331   0.691 -0.0041  2.2790 -0.1563
13066TIP3    H239156   8.175   6.223   0.752  2.5863 -0.4665 -1.0845
13067TIP3   OH239157   0.281   6.849   6.341  0.1397 -0.0954  0.2009
13067TIP3    H139158   0.286   6.756   6.362 -0.2319 -0.4720 -1.2677
13067TIP3    H239159   0.370   6.873   6.316  0.0887 -0.2250 -0.1016
13068TIP3   OH239160   6.160   3.051   2.719  0.1143  0.1945 -0.1823
13068TIP3    H139161   6.138   2.963   2.752  1.2971 -0.1914 -0.3602
13068TIP3    H239162   6.182   3.101   2.797  1.7645 -0.3793 -0.2442
13069TIP3   OH239163   0.507   0.358   5.459 -0.2291 -0.7464  0.2693
13069TIP3    H139164   0.466   0.437   5.494 -2.8313 -1.5097 -0.8419
13069TIP3    H239165   0.434   0.301   5.434  1.5339 -2.5477 -1.1630
13070TIP3   OH239166   7.711   5.506   0.801 -0.4170  0.0730 -0.3157
13070TIP3    H139167   7.762   5.498   0.882  0.8294 -0.8090 -1.1391
13070TIP3    H239168   7.622   5.480   0.825  0.0148 -0.5032  0.6911
13071TIP3   OH239169   5.532   0.437   3.872 -0.2575 -0.1723  0.3810
13071TIP3    H139170   5.504   0.350   3.902 -0.3290  0.5638  2.6236
13071TIP3    H239171   5.475   0.498   3.919  2.2417  1.2173  1.8073
13072TIP3   OH239172   3.913   0.773   2.902 -0.0767 -0.2853 -0.1947
13072TIP3    H139173   3.856   0.784   2.978  0.9616  2.5286  0.3066
13072TIP3    H239174   3.854   0.781   2.827 -0.6791  0.3181  0.3221
13073TIP3   OH239175   0.188   1.114   1.183 -0.1445 -0.6156  0.5759
13073TIP3    H139176   0.253   1.049   1.213 -0.5436 -0.9308  0.7691
13073TIP3    H239177   0.181   1.175   1.256  0.8570  0.1370  0.0651
13074TIP3   OH239178   5.057   3.790   5.432 -0.1724  0.1928 -0.3257
13074TIP3    H139179   5.049   3.738   5.352 -0.2654  1.0956 -0.9246
13074TIP3    H239180   4.992   3.860   5.422  1.8328  2.1077 -0.9206
13075TIP3   OH239181   5.538   5.037   6.281  0.2885  0.6144 -0.0815
13075TIP3    H139182   5.484   4.961   6.306 -1.9535  2.3488  0.6511
13075TIP3    H239183   5.563   5.076   6.365 -0.6755  2.0471 -0.4371
13076TIP3   OH239184   6.295   0.624   5.144 -0.2307  0.0636 -0.1080
13076TIP3    H139185   6.254   0.708   5.161  0.4279  0.2345  0.6623
13076TIP3    H239186   6.240   0.560   5.189 -1.3287 -0.0675 -1.5510
13077TIP3   OH239187   8.085   0.189   4.489 -0.0868  0.0042 -0.2002
13077TIP3    H139188   8.021   0.156   4.426 -0.9879  2.7735 -0.8762
13077TIP3    H239189   8.043   0.176   4.574 -1.4519  1.4303 -0.6129
13078TIP3   OH239190   1.762   6.810   0.967  0.4168  0.4385  0.0007
13078TIP3    H139191   1.792   6.900   0.978  0.6118  0.0315  3.9843
13078TIP3    H239192   1.817   6.758   1.025 -1.8131 -1.7582  0.3478
13079TIP3   OH239193   0.496   0.184   3.357  0.3590  0.5299 -0.2957
13079TIP3    H139194   0.451   0.111   3.314 -0.5232  1.6906 -1.4389
13079TIP3    H239195   0.487   0.167   3.450 -1.2383 -0.0110 -0.5208
13080TIP3   OH239196   3.541   4.960   2.386  0.2733  0.2122 -0.2589
13080TIP3    H139197   3.497   4.898   2.444  0.6808 -0.0067 -0.1801
13080TIP3    H239198   3.621   4.915   2.359  1.3122  1.2720  0.9620
13081TIP3   OH239199   2.127   4.485   4.505  0.1142 -0.5511  0.4482
13081TIP3    H139200   2.121   4.424   4.579  0.0857  0.3155  1.1681
13081TIP3    H239201   2.103   4.431   4.429 -2.1089 -0.9322  1.3222
13082TIP3   OH239202   1.565   2.253   5.181  0.2697  0.2272  0.3479
13082TIP3    H139203   1.584   2.173   5.131  2.3064 -0.5304  2.1596
13082TIP3    H239204   1.472   2.267   5.168  0.5905  0.0484 -3.4887
13083TIP3   OH239205   3.425   3.739   0.810  0.1970 -0.7424 -0.6788
13083TIP3    H139206   3.352   3.799   0.827  1.9195  1.8776 -1.9066
13083TIP3    H239207   3.437   3.691   0.892  0.8981  3.1245  1.7292
13084TIP3   OH239208   4.413   4.497   5.691  0.1468  0.3944  0.1583
13084TIP3    H139209   4.479   4.442   5.650 -0.5891  0.2406 -0.8548
13084TIP3    H239210   4.363   4.438   5.747  0.4587  0.3915  0.4402
13085TIP3   OH239211   5.030   0.649   2.059 -0.3730 -0.3222 -0.0378
13085TIP3    H139212   4.943   0.627   2.023 -0.1461 -0.9273 -0.2231
13085TIP3    H239213   5.070   0.704   1.991  0.4967 -2.3779 -1.2927
13086TIP3   OH239214   6.296   7.369   1.478 -0.0670 -0.1436 -0.5279
13086TIP3    H139215   6.277   7.300   1.542 -1.4217  1.0803  0.4271
13086TIP3    H239216   6.372   7.335   1.429  0.3130 -1.5896  0.9702
13087TIP3   OH239217   8.079   6.474   1.012 -0.0169  0.3871 -0.0794
13087TIP3    H139218   8.042   6.407   1.069  0.0389 -1.4655 -2.1035
13087TIP3    H239219   8.002   6.519   0.975 -0.0729  0.7678  0.4858
13088TIP3   OH239220   3.081   1.503   6.138 -0.1082  0.1638 -0.5370
13088TIP3    H139221   3.158   1.560   6.137 -0.1914  0.2787 -1.0176
13088TIP3    H239222   3.114   1.417   6.113 -0.0349  0.0759 -0.1329
13089TIP3   OH239223   4.353   5.840   6.188  0.4741  0.1736  0.5475
13089TIP3    H139224   4.423   5.905   6.179 -0.2151  0.8213 -0.2092
13089TIP3    H239225   4.400   5.756   6.191  1.3139  0.6291  0.5505
13090TIP3   OH239226   5.494   1.343   0.579  0.3501  0.0925  0.6138
13090TIP3    H139227   5.484   1.307   0.491  0.6145 -1.3813  1.1584
13090TIP3    H239228   5.404   1.360   0.608  0.3271  2.9323 -0.8118
13091TIP3   OH239229   4.546   3.671   1.198  0.4164 -0.3305 -0.7511
13091TIP3    H139230   4.626   3.706   1.237 -0.4451 -0.3062  1.0480
13091TIP3    H239231   4.559   3.576   1.198  1.3515 -0.2686 -2.5899
13092TIP3   OH239232   0.923   1.056   1.795  0.0740  0.3107  0.0259
13092TIP3    H139233   0.898   0.990   1.860  1.4774 -0.5562 -0.2872
13092TIP3    H239234   0.994   1.104   1.837  0.9984 -0.2601 -0.8537
13093TIP3   OH239235   6.111   6.189   4.965 -0.1296 -0.4250  0.2455
13093TIP3    H139236   6.098   6.120   5.031  0.6322 -0.4237  0.4007
13093TIP3    H239237   6.174   6.248   5.005 -0.5335  0.1931 -0.0252
13094TIP3   OH239238   0.847   0.037   6.740 -0.1601  0.2925 -0.3809
13094TIP3    H139239   0.822   0.124   6.709  0.3845  0.5347 -0.1639
13094TIP3    H239240   0.873   0.051   6.831 -0.6169 -0.2002 -0.1751
13095TIP3   OH239241   4.688   2.330   6.531 -0.0764  0.4843 -0.0277
13095TIP3    H139242   4.779   2.326   6.561  0.2921  0.3003 -1.1364
13095TIP3    H239243   4.650   2.401   6.582  0.8368  0.9235  0.0716
13096TIP3   OH239244   1.005   5.813   5.350 -0.0620 -0.5552  0.0724
13096TIP3    H139245   1.015   5.743   5.286  0.1869  0.2648 -0.8266
13096TIP3    H239246   1.069   5.879   5.323 -1.1511  0.5623  0.1257
13097TIP3   OH239247   4.248   6.191   0.829  0.1023 -0.4826  0.0201
13097TIP3    H139248   4.165   6.190   0.876  0.7418 -0.4904  1.1771
13097TIP3    H239249   4.259   6.103   0.795 -0.7747 -0.2508 -0.8968
13098TIP3   OH239250   8.231   3.498   3.454  0.7145  0.5030 -0.2884
13098TIP3    H139251   8.173   3.485   3.379 -0.4027  1.5033  0.3629
13098TIP3    H239252   8.184   3.559   3.511  3.3055  3.1632 -0.7390
13099TIP3   OH239253   3.261   2.348   0.892  0.5168  0.0418 -0.1024
13099TIP3    H139254   3.208   2.393   0.957  1.5319 -0.7760  1.3606
13099TIP3    H239255   3.257   2.256   0.919  0.3179 -0.4299 -1.6815
13100TIP3   OH239256   4.776   3.063   5.618 -0.1921  0.2633  0.3475
13100TIP3    H139257   4.708   3.127   5.600 -1.5710 -1.1855  0.1798
13100TIP3    H239258   4.856   3.115   5.624 -0.6458  1.7015 -3.1318
13101TIP3   OH239259   7.795   5.600   2.951 -0.2292  0.7926  0.3744
13101TIP3    H139260   7.870   5.652   2.923  0.3878  0.0750  0.6886
13101TIP3    H239261   7.825   5.553   3.029 -0.8855  0.2263  0.2966
13102TIP3   OH239262   7.127   0.098   4.426 -0.6341  0.3941  0.2585
13102TIP3    H139263   7.214   0.060   4.436 -0.1405  1.5235  0.4447
13102TIP3    H239264   7.070   0.041   4.476 -0.1683 -0.9051 -0.6356
13103TIP3   OH239265   5.890   4.982   3.860 -0.5225  0.2412 -0.3740
13103TIP3    H139266   5.831   4.915   3.896 -0.2468  0.5124  0.5945
13103TIP3    H239267   5.841   5.018   3.785 -0.7004 -0.9916 -0.8832
13104TIP3   OH239268   4.330   3.086   0.672  0.0768  0.1536 -0.5627
13104TIP3    H139269   4.373   3.003   0.650  1.0709  0.9281 -1.6548
13104TIP3    H239270   4.349   3.100   0.764  0.5956 -0.4348 -0.5765
13105TIP3   OH239271   2.805   6.146   4.984  0.2188 -0.1937  0.6443
13105TIP3    H139272   2.814   6.134   4.889  0.6033  0.8300  0.5345
13105TIP3    H239273   2.734   6.087   5.009 -0.0941 -0.2542 -0.3374
13106TIP3   OH239274   6.387   3.838   3.231 -0.7725 -0.4674  0.1781
13106TIP3    H139275   6.301   3.879   3.237 -0.4859  0.7950 -2.8061
13106TIP3    H239276   6.437   3.895   3.173  0.9983 -2.9213 -0.8706
13107TIP3   OH239277   0.029   3.390   5.541 -0.1720 -0.2271 -0.1227
13107TIP3    H139278   0.044   3.335   5.464 -2.2144  0.3104 -0.9819
13107TIP3    H239279  -0.051   3.355   5.580  0.5100 -0.1303  1.4668
13108TIP3   OH239280   5.836   1.180   6.133  0.0775 -0.0860 -0.0844
13108TIP3    H139281   5.887   1.233   6.073  1.8510 -2.3134 -0.6739
13108TIP3    H239282   5.776   1.242   6.175  2.7806  2.5964  0.1811
13109TIP3   OH239283   7.783   1.867   5.781  0.0000 -0.0006  0.0361
13109TIP3    H139284   7.741   1.833   5.860 -0.2640 -0.4767 -0.3048
13109TIP3    H239285   7.871   1.893   5.809 -0.5718  1.2136  0.8068
13110TIP3   OH239286   5.442   2.143   0.297 -0.3203  0.1007 -0.2110
13110TIP3    H139287   5.453   2.049   0.287 -1.3707 -0.0895  0.2573
13110TIP3    H239288   5.502   2.168   0.367 -1.3593 -0.5568  0.9602
13111TIP3   OH239289   4.807   3.947   6.118  0.5149 -0.2992  0.1498
13111TIP3    H139290   4.731   3.952   6.060  1.4874  0.2807 -1.1265
13111TIP3    H239291   4.827   3.853   6.122  0.9975 -0.2859 -1.2632
13112TIP3   OH239292   3.228   3.012   6.075  0.0187 -0.0509  0.0895
13112TIP3    H139293   3.251   2.974   5.991 -2.6291 -0.2867 -0.6339
13112TIP3    H239294   3.238   3.107   6.062 -1.3019 -0.0120 -0.8707
13113TIP3   OH239295   6.081   2.307   3.555 -0.1799  0.0735  0.4550
13113TIP3    H139296   6.172   2.337   3.546 -0.5097  0.8331 -0.5576
13113TIP3    H239297   6.070   2.244   3.484 -0.6431  0.5129  0.1310
13114TIP3   OH239298   3.265   3.536   0.686 -0.1358 -0.3123 -0.3407
13114TIP3    H139299   3.326   3.588   0.738 -0.2773 -2.7226  2.4426
13114TIP3    H239300   3.318   3.503   0.613  1.9685 -2.0379  1.7921
13115TIP3   OH239301   5.448   1.816   6.179 -0.4027  0.4424 -0.0236
13115TIP3    H139302   5.514   1.792   6.115 -0.0233  0.9645  0.1632
13115TIP3    H239303   5.422   1.905   6.154 -1.2528  0.1313 -0.2782
13116TIP3   OH239304   7.238   6.942   6.081 -0.2895  0.2050  0.4805
13116TIP3    H139305   7.243   7.028   6.040  2.2486  0.6565  1.5668
13116TIP3    H239306   7.326   6.905   6.072 -0.7778 -1.4322  1.7861
13117TIP3   OH239307   4.406   7.161   2.424 -0.1766  0.1795  0.4321
13117TIP3    H139308   4.399   7.242   2.373  0.4859  0.0680  0.1634
13117TIP3    H239309   4.339   7.104   2.386 -0.5352  0.5369  0.5137
13118TIP3   OH239310   0.677   1.572   4.794 -0.0841  0.4082  0.2957
13118TIP3    H139311   0.662   1.480   4.769 -2.5767  0.8358 -0.0434
13118TIP3    H239312   0.725   1.566   4.877  1.9033 -1.1212 -0.8818
13119TIP3   OH239313   1.392   3.606   0.690 -0.0490  0.2287  0.3269
13119TIP3    H139314   1.356   3.517   0.692  1.6561 -0.4990  1.2787
13119TIP3    H239315   1.475   3.597   0.644  0.1724  1.3138  0.4937
13120TIP3   OH239316   2.155   2.373   5.868  0.6876  0.5191  0.6688
13120TIP3    H139317   2.205   2.381   5.786 -0.3554 -1.4991 -0.2198
13120TIP3    H239318   2.211   2.321   5.925 -0.8518 -3.1989 -0.9033
13121TIP3   OH239319   7.411   4.136   5.006 -0.2306  0.0999  0.0004
13121TIP3    H139320   7.363   4.131   4.924  0.0162 -0.2296 -0.1258
13121TIP3    H239321   7.458   4.052   5.012 -0.0959  0.1995  0.3804
13122TIP3   OH239322   8.008   0.233   6.578  0.1435 -0.3634  0.1190
13122TIP3    H139323   7.924   0.199   6.609  1.0558 -0.7770  2.3417
13122TIP3    H239324   8.001   0.328   6.591  0.2309 -0.4574  0.9121
13123TIP3   OH239325   2.406   2.276   3.636 -0.1470  0.4092  0.1157
13123TIP3    H139326   2.424   2.345   3.573 -0.2176 -1.2312 -1.7851
13123TIP3    H239327   2.312   2.259   3.628  0.1775 -1.1778 -0.8848
13124TIP3   OH239328   2.695   0.896   6.082  0.5887 -0.1215 -0.1949
13124TIP3    H139329   2.735   0.880   6.167  0.8826  1.8657  0.0924
13124TIP3    H239330   2.604   0.865   6.092  0.2736  1.1503  1.2508
13125TIP3   OH239331   8.010   4.160   2.154  0.1171  0.2637  0.3897
13125TIP3    H139332   8.024   4.253   2.169 -1.1496  0.4206  0.7499
13125TIP3    H239333   7.973   4.155   2.066 -0.4561  0.1752  0.6309
13126TIP3   OH239334   1.921   0.712   3.384  0.2995 -0.0933 -0.2018
13126TIP3    H139335   1.897   0.648   3.318  0.8636 -2.8823  2.0787
13126TIP3    H239336   2.015   0.699   3.397  1.2153  3.5663 -1.8964
13127TIP3   OH239337   0.501   0.121   2.902 -0.2483 -0.0211  0.2744
13127TIP3    H139338   0.570   0.054   2.906  0.8286  1.0886  1.0229
13127TIP3    H239339   0.432   0.081   2.850  1.4339 -0.7724 -1.5112
13128TIP3   OH239340   4.660   6.828   1.160 -0.2312 -0.1672  0.4319
13128TIP3    H139341   4.675   6.914   1.198 -0.5011  0.7686 -1.4633
13128TIP3    H239342   4.741   6.779   1.178  0.2346  0.7335  0.8246
13129TIP3   OH239343   0.065   7.258   4.633 -0.5892 -0.4894 -0.1864
13129TIP3    H139344   0.052   7.313   4.711 -2.1100 -2.0486  0.7413
13129TIP3    H239345   0.046   7.169   4.664 -0.2330 -1.2789 -2.1217
13130TIP3   OH239346   6.724   0.193   5.196  0.3265  0.4594 -0.2437
13130TIP3    H139347   6.668   0.240   5.134 -1.4283 -0.5494  0.4801
13130TIP3    H239348   6.725   0.247   5.275 -0.8033 -0.1603  0.2164
13131TIP3   OH239349   1.402   1.325   5.865  0.0628 -0.0981 -0.9614
13131TIP3    H139350   1.494   1.341   5.846  0.2614 -1.4882 -1.3136
13131TIP3    H239351   1.384   1.241   5.824 -1.0075 -0.4830  0.2236
13132TIP3   OH239352   6.276   1.961   4.546 -0.4077 -0.4032 -0.0844
13132TIP3    H139353   6.223   1.882   4.561 -1.0298  0.1813  0.9662
13132TIP3    H239354   6.350   1.951   4.606 -1.5830  0.7621  1.6484
13133TIP3   OH239355   4.403   5.198   2.541  0.6471 -0.6452 -0.2760
13133TIP3    H139356   4.327   5.242   2.501  0.0715 -1.2679  0.1035
13133TIP3    H239357   4.418   5.122   2.485 -0.0780 -1.4498  0.5868
13134TIP3   OH239358   6.281   2.274   5.355  0.5340  0.6471 -0.1158
13134TIP3    H139359   6.244   2.223   5.427  1.0508  2.0550  1.1930
13134TIP3    H239360   6.261   2.365   5.377 -0.6410  1.0634 -2.5296
13135TIP3   OH239361   5.928   4.880   2.600 -0.9416  0.0086  0.3171
13135TIP3    H139362   5.848   4.844   2.561 -0.8891 -2.6630  2.3639
13135TIP3    H239363   5.903   4.969   2.627 -2.5261  0.0151 -0.9978
13136TIP3   OH239364   5.251   1.411   0.971 -0.2020 -0.2679 -0.1846
13136TIP3    H139365   5.248   1.500   1.008  0.8017 -0.6268  0.7992
13136TIP3    H239366   5.344   1.392   0.961 -0.4151 -0.5493 -2.0939
13137TIP3   OH239367   2.879   0.015   5.855  0.2120  0.1701 -0.0671
13137TIP3    H139368   2.787   0.015   5.880  0.5227  1.4657  1.2747
13137TIP3    H239369   2.926  -0.005   5.936  1.1506  0.9820 -0.3847
13138TIP3   OH239370   0.518   3.083   4.824  0.0917 -0.3949 -0.0559
13138TIP3    H139371   0.551   3.134   4.898  1.4733 -2.7814  1.0764
13138TIP3    H239372   0.573   3.111   4.750  4.2299 -3.3197  1.5067
13139TIP3   OH239373   0.518   6.612   0.414  0.0863 -0.5165 -0.6957
13139TIP3    H139374   0.482   6.637   0.499  0.7550 -0.0632 -0.5355
13139TIP3    H239375   0.442   6.605   0.357 -0.1526  2.2478 -0.8361
13140TIP3   OH239376   6.419   2.718   6.015 -0.1359  0.0969 -0.3841
13140TIP3    H139377   6.341   2.697   5.963 -0.8226 -1.7284  1.2577
13140TIP3    H239378   6.398   2.800   6.059 -0.1808  0.8169 -1.6972
13141TIP3   OH239379   4.686   3.920   0.767  0.0410 -0.2934 -0.1827
13141TIP3    H139380   4.597   3.919   0.732 -0.5329  0.4673  1.1796
13141TIP3    H239381   4.715   4.011   0.755 -0.2327  0.0286  1.3964
13142TIP3   OH239382   0.058   3.357   6.689  0.3695  0.2660  0.2727
13142TIP3    H139383   0.028   3.426   6.749  0.0947  2.2117 -1.9596
13142TIP3    H239384  -0.021   3.306   6.671 -0.5633  2.1925 -1.5207
13143TIP3   OH239385   6.027   6.736   4.097 -0.3411  0.1914 -0.4554
13143TIP3    H139386   6.044   6.733   4.003 -1.9449  0.4015 -0.7626
13143TIP3    H239387   5.999   6.825   4.115  2.2756  0.8869  0.6927
13144TIP3   OH239388   6.086   1.971   0.920  0.3113 -0.3283  0.3216
13144TIP3    H139389   6.073   1.876   0.919 -1.5117 -0.1209 -0.6392
13144TIP3    H239390   6.005   2.005   0.958  0.3666  0.8829 -0.5847
13145TIP3   OH239391   6.106   3.521   4.308 -0.8121  0.1758  0.1538
13145TIP3    H139392   6.025   3.556   4.345  0.0037  2.1880  0.1691
13145TIP3    H239393   6.172   3.538   4.375  0.1162  1.0754 -0.9509
13146TIP3   OH239394   1.013   0.984   3.021 -0.2326 -0.2245 -0.4849
13146TIP3    H139395   1.038   0.967   2.930  0.8809 -3.3587  0.2610
13146TIP3    H239396   1.082   1.042   3.054  0.9650 -1.3195 -0.9536
13147TIP3   OH239397   6.924   2.305   4.424 -0.0702 -0.0880 -0.0678
13147TIP3    H139398   6.847   2.276   4.472 -0.1265 -1.5959 -1.0123
13147TIP3    H239399   6.995   2.303   4.488 -0.2797 -1.3943  0.1350
13148TIP3   OH239400   5.635   3.369   6.475  0.0722  0.1854 -0.1482
13148TIP3    H139401   5.656   3.352   6.566 -1.5856 -1.5393 -0.0184
13148TIP3    H239402   5.543   3.395   6.476  0.4877  1.8841 -1.1999
13149TIP3   OH239403   5.316   1.607   4.496 -0.4513 -0.4821 -0.2581
13149TIP3    H139404   5.337   1.549   4.423 -0.7171 -1.3577  0.3466
13149TIP3    H239405   5.319   1.550   4.573  0.9959  0.6706  0.5745
13150TIP3   OH239406   6.388   7.255   4.815 -0.5503 -0.3495  0.6830
13150TIP3    H139407   6.440   7.199   4.757 -0.7379 -0.0914  0.2644
13150TIP3    H239408   6.318   7.290   4.759  0.3713  1.4307  0.5798
13151TIP3   OH239409   3.649   7.220   1.892 -0.2521  0.3875 -0.3643
13151TIP3    H139410   3.733   7.198   1.932 -0.5328  1.1354  0.6886
13151TIP3    H239411   3.611   7.136   1.867 -0.0330 -0.1204  0.9119
13152TIP3   OH239412   0.919   3.325   3.376 -0.4780 -0.4075 -0.2599
13152TIP3    H139413   0.904   3.306   3.284 -1.1746 -1.2416  0.0143
13152TIP3    H239414   0.852   3.274   3.423 -1.6923  1.8444  0.5849
13153TIP3   OH239415   7.266   2.739   2.346  0.0402  0.5777  0.3419
13153TIP3    H139416   7.326   2.741   2.420  0.4957  1.5158 -0.0417
13153TIP3    H239417   7.231   2.650   2.346  4.5360 -1.5125 -1.9183
13154TIP3   OH239418   1.807   2.651   4.905 -0.0035  0.0875  0.1012
13154TIP3    H139419   1.884   2.664   4.851 -0.7631 -2.3733 -1.7756
13154TIP3    H239420   1.824   2.570   4.954 -0.8344  0.2402  0.6745
13155TIP3   OH239421   7.268   0.693   4.610  0.0536  0.0448 -0.3269
13155TIP3    H139422   7.180   0.661   4.590 -0.0406 -0.5377  0.9288
13155TIP3    H239423   7.271   0.781   4.573 -0.9717 -0.0063 -0.5624
13156TIP3   OH239424   1.176   5.337   1.126  0.0577  0.7454  0.1763
13156TIP3    H139425   1.174   5.332   1.030  2.2877 -0.5560  0.1423
13156TIP3    H239426   1.092   5.298   1.154  0.2452 -0.7707 -1.2202
13157TIP3   OH239427   4.580   7.122   1.330 -0.0479  0.6904 -0.8747
13157TIP3    H139428   4.673   7.143   1.325 -0.1782  1.3537 -0.7039
13157TIP3    H239429   4.538   7.205   1.354 -0.3705 -0.2184  2.1012
13158TIP3   OH239430   2.144   6.883   5.222 -0.1128 -0.5874 -0.5429
13158TIP3    H139431   2.167   6.896   5.130  2.3049  2.2270  0.3062
13158TIP3    H239432   2.227   6.887   5.268 -1.2966 -1.5939  1.8568
13159TIP3   OH239433   7.998   7.556   5.248  0.1880 -0.1679 -0.0161
13159TIP3    H139434   8.027   7.598   5.167 -0.0521  0.6103  0.2845
13159TIP3    H239435   7.962   7.472   5.220 -1.2257  0.6963 -0.9152
13160TIP3   OH239436   5.881   4.104   5.279  0.0779  0.2210 -0.2870
13160TIP3    H139437   5.946   4.037   5.302 -0.2834  0.6513  2.2714
13160TIP3    H239438   5.927   4.187   5.290 -0.2370  0.4586 -0.7645
13161TIP3   OH239439   2.217   6.602   4.453 -0.0552  0.2525  0.5533
13161TIP3    H139440   2.281   6.642   4.511  2.4364  0.1064 -1.8587
13161TIP3    H239441   2.211   6.511   4.482  2.1753 -0.1691 -0.1003
13162TIP3   OH239442   0.941   0.434   1.797 -0.7360 -1.0816  0.1818
13162TIP3    H139443   0.911   0.346   1.819  2.2208 -2.2197  0.1433
13162TIP3    H239444   0.974   0.427   1.708  3.4315 -1.2141  1.5217
13163TIP3   OH239445   6.018   2.062   6.105 -0.3019  0.3125  0.0322
13163TIP3    H139446   5.961   2.134   6.133 -3.2503 -1.0677 -1.8863
13163TIP3    H239447   6.032   2.078   6.011  1.0199 -0.3839  0.0826
13164TIP3   OH239448   8.275   2.815   3.711 -0.1751 -0.4206 -0.3009
13164TIP3    H139449   8.303   2.790   3.623 -0.5009 -0.4090 -0.4087
13164TIP3    H239450   8.226   2.739   3.743  0.2107 -0.5494 -0.0066
13165TIP3   OH239451   5.421   5.793   0.275  0.0855  0.6615  0.0373
13165TIP3    H139452   5.370   5.806   0.196 -0.2650  0.1763  0.1805
13165TIP3    H239453   5.412   5.700   0.295  3.7171 -0.2858 -1.8122
13166TIP3   OH239454   2.425   4.797   0.181 -0.6486  0.3219 -0.0278
13166TIP3    H139455   2.488   4.859   0.141  0.2103 -1.0167 -0.8352
13166TIP3    H239456   2.459   4.711   0.157 -0.1508 -0.6235  3.4883
13167TIP3   OH239457   4.990   5.536   4.172  0.4890 -0.1275  0.1606
13167TIP3    H139458   5.053   5.534   4.244 -1.2504  0.5246  1.7634
13167TIP3    H239459   5.018   5.464   4.115  1.9069 -0.6910  1.4890
13168TIP3   OH239460   7.709   6.117   5.883 -0.0219 -0.0476  0.5412
13168TIP3    H139461   7.786   6.062   5.901 -0.4897 -0.7840  0.3475
13168TIP3    H239462   7.642   6.055   5.854 -0.1622  0.7828 -1.0031
13169TIP3   OH239463   6.197   5.164   6.315  0.4351  0.1501 -0.0265
13169TIP3    H139464   6.208   5.191   6.224 -0.0361  0.0551 -0.1157
13169TIP3    H239465   6.151   5.238   6.356 -1.6816 -0.8486 -0.4820
13170TIP3   OH239466   8.066   5.877   1.656 -0.2949  0.0561 -0.7184
13170TIP3    H139467   8.065   5.968   1.628  1.3301 -0.2391 -1.8627
13170TIP3    H239468   8.042   5.827   1.578  1.6906 -0.6347 -0.9332
13171TIP3   OH239469   7.165   5.963   4.117  0.3623 -0.0634  0.3248
13171TIP3    H139470   7.140   5.871   4.116  0.6504 -0.1424 -0.9162
13171TIP3    H239471   7.107   6.003   4.182 -1.6815 -0.5927 -1.0902
13172TIP3   OH239472   0.952   6.184   3.006  0.1662 -0.4023 -0.4944
13172TIP3    H139473   0.966   6.092   2.984  0.2964 -0.7015  0.7404
13172TIP3    H239474   0.869   6.206   2.964 -0.4052 -1.3993  0.0742
13173TIP3   OH239475   4.373   3.874   1.269  0.7148 -0.2611  0.1341
13173TIP3    H139476   4.398   3.966   1.265  0.9267 -0.2872  0.7057
13173TIP3    H239477   4.442   3.828   1.222  0.0158 -0.0312 -1.1543
13174TIP3   OH239478   6.071   3.482   3.826  0.0557  0.0137  0.0886
13174TIP3    H139479   5.989   3.527   3.850  0.0551 -0.7784  1.6989
13174TIP3    H239480   6.140   3.545   3.848 -0.0763  0.3193 -0.3687
13175TIP3   OH239481   4.582   0.777   1.958 -0.0454 -0.2743 -0.6429
13175TIP3    H139482   4.587   0.873   1.967 -2.0597 -0.3192  1.9361
13175TIP3    H239483   4.509   0.752   2.013 -0.5642 -3.2086 -2.4723
13176TIP3   OH239484   6.681   1.505   6.650  0.0843 -0.0934 -0.1566
13176TIP3    H139485   6.586   1.488   6.653 -0.1231  0.9070 -0.7623
13176TIP3    H239486   6.702   1.510   6.557 -0.2049  4.4250 -0.1772
13177TIP3   OH239487   6.604   6.795   2.528 -0.4578  0.2543  0.3058
13177TIP3    H139488   6.643   6.711   2.554  0.6474  0.9328  0.8941
13177TIP3    H239489   6.562   6.827   2.607  1.8670  1.7444  1.0431
13178TIP3   OH239490   4.585   6.921   1.541  0.2586 -0.1351 -0.0469
13178TIP3    H139491   4.585   7.003   1.491  0.0785 -1.6321 -2.6438
13178TIP3    H239492   4.527   6.863   1.493  0.6090 -1.9316  1.5786
13179TIP3   OH239493   0.770   5.400   4.540 -0.2238  0.3453 -0.6656
13179TIP3    H139494   0.759   5.319   4.590 -1.5191  0.5964 -0.5039
13179TIP3    H239495   0.754   5.375   4.449  2.3703 -0.1608 -1.0762
13180TIP3   OH239496   0.265   3.542   6.421  0.4017  0.0816  0.1814
13180TIP3    H139497   0.307   3.456   6.417  1.5883  0.6265  0.4906
13180TIP3    H239498   0.240   3.561   6.331 -2.0088 -1.5749  0.4046
13181TIP3   OH239499   4.574   4.334   4.215  0.1648  0.0055  0.2276
13181TIP3    H139500   4.579   4.256   4.271  0.1524 -0.2767 -0.1612
13181TIP3    H239501   4.564   4.407   4.277  3.1107  0.0567  0.7809
13182TIP3   OH239502   6.039   1.794   1.867 -0.4812  0.1095  0.5292
13182TIP3    H139503   6.025   1.745   1.786 -0.1620  1.8833 -0.6656
13182TIP3    H239504   5.961   1.777   1.919 -2.2069  1.3523 -1.4838
13183TIP3   OH239505   1.194   1.537   0.532  0.1234  0.2720  0.0735
13183TIP3    H139506   1.144   1.594   0.590  0.3007  1.6844 -1.1164
13183TIP3    H239507   1.242   1.596   0.475  2.7715 -1.0389  0.8100
13184TIP3   OH239508   3.243   6.669   4.400  0.4175 -0.2569 -0.2081
13184TIP3    H139509   3.183   6.674   4.325  1.2445  0.5357 -0.8335
13184TIP3    H239510   3.277   6.758   4.409 -0.7073  0.0030  2.0055
13185TIP3   OH239511   7.877   7.235   1.589 -0.6313  0.0762  0.2943
13185TIP3    H139512   7.881   7.323   1.551 -0.0655  0.1096  0.4296
13185TIP3    H239513   7.903   7.247   1.680  0.6688 -0.4092  0.0059
13186TIP3   OH239514   7.323   0.655   1.172 -0.2132  0.0080 -0.4801
13186TIP3    H139515   7.237   0.616   1.156  0.1848 -0.8672 -0.5448
13186TIP3    H239516   7.304   0.733   1.225 -1.0441 -0.1723 -0.4953
13187TIP3   OH239517   3.981   1.307   4.215  0.7360  0.1570 -0.1780
13187TIP3    H139518   3.972   1.308   4.311  3.1910  0.3678  0.1377
13187TIP3    H239519   3.909   1.362   4.184 -1.6574 -1.9192  1.3054
13188TIP3   OH239520   6.569   7.114   0.454  0.0712  0.5707 -0.1060
13188TIP3    H139521   6.665   7.116   0.458  0.1869  1.9405 -2.1800
13188TIP3    H239522   6.549   7.043   0.393 -0.2840 -0.1426  0.8245
13189TIP3   OH239523   4.208   6.688   0.364  0.0442  0.4318  0.3307
13189TIP3    H139524   4.191   6.650   0.450  1.0657  1.2406  0.9063
13189TIP3    H239525   4.196   6.616   0.303  2.4999 -1.0080  1.4393
13190TIP3   OH239526   4.393   5.076   1.708  0.1732  0.6494 -0.1216
13190TIP3    H139527   4.379   5.054   1.616 -0.9469  1.5068 -0.1676
13190TIP3    H239528   4.306   5.079   1.746  0.5800  0.9385  0.8225
13191TIP3   OH239529   1.362   4.312   3.960  0.1398  0.3666  0.2134
13191TIP3    H139530   1.390   4.247   3.897 -1.3469 -0.6104  0.5105
13191TIP3    H239531   1.429   4.310   4.028  0.7220  0.0098 -0.3591
13192TIP3   OH239532   3.293   5.285   6.703  0.2787 -0.5294 -0.2059
13192TIP3    H139533   3.223   5.305   6.764 -0.1005 -1.2672 -0.3864
13192TIP3    H239534   3.372   5.323   6.743 -0.0481 -0.5876  0.4996
13193TIP3   OH239535   0.020   2.162   4.248 -0.3371 -0.3299  0.4509
13193TIP3    H139536   0.058   2.091   4.195 -1.5074 -0.9393  0.3974
13193TIP3    H239537   0.077   2.168   4.324 -0.0142 -1.0929  0.2815
13194TIP3   OH239538   1.902   1.554   3.643  0.0531  0.5240  0.0928
13194TIP3    H139539   1.938   1.528   3.728  0.9281 -2.5969 -1.0582
13194TIP3    H239540   1.808   1.539   3.652  0.2331 -0.6329  0.3173
13195TIP3   OH239541   6.628   6.855   0.797  0.4778  0.3714 -0.3256
13195TIP3    H139542   6.616   6.776   0.850  1.0096  0.3109 -0.2811
13195TIP3    H239543   6.590   6.926   0.849 -0.5308  0.0618 -0.6265
13196TIP3   OH239544   1.187   2.948   5.431 -0.0496  0.2454 -0.3507
13196TIP3    H139545   1.176   3.008   5.358  0.1938 -0.1049 -0.6845
13196TIP3    H239546   1.122   2.975   5.495 -0.0463  0.7623 -0.5621
13197TIP3   OH239547   4.758   4.552   1.946  0.4901  0.0338 -0.3230
13197TIP3    H139548   4.686   4.561   1.883  0.9060 -1.2157 -1.0342
13197TIP3    H239549   4.830   4.602   1.908  0.1010  1.0437  0.2435
13198TIP3   OH239550   6.361   0.122   0.654 -0.2587  0.5185 -0.2519
13198TIP3    H139551   6.378   0.210   0.689 -1.3309  0.0828  1.4787
13198TIP3    H239552   6.435   0.106   0.595  1.0762  1.7691  0.9738
13199TIP3   OH239553   3.350   3.255   5.945  0.5070 -0.3448  0.2282
13199TIP3    H139554   3.377   3.343   5.920  1.6156 -0.4568  0.9422
13199TIP3    H239555   3.320   3.215   5.863 -0.0442  0.6980 -0.0936
13200TIP3   OH239556   1.298   0.492   4.442 -0.0053  0.3150 -0.5056
13200TIP3    H139557   1.338   0.570   4.403 -1.3795  0.0265 -2.6349
13200TIP3    H239558   1.365   0.459   4.502  2.9264  0.0173 -3.6312
13201TIP3   OH239559   3.815   4.591   1.108 -0.2664  0.2071 -0.4513
13201TIP3    H139560   3.903   4.623   1.090  0.3327 -0.7237  0.7052
13201TIP3    H239561   3.773   4.586   1.022  1.2224 -0.5292 -1.1722
13202TIP3   OH239562   4.142   6.430   0.254  0.3065 -0.4650  0.2907
13202TIP3    H139563   4.235   6.447   0.239  0.0236  1.4610  0.4216
13202TIP3    H239564   4.140   6.343   0.292  2.0632 -0.5671  0.2587
13203TIP3   OH239565   5.199   2.215   4.032  0.1256 -0.0468 -0.0834
13203TIP3    H139566   5.210   2.170   3.948  0.4688 -0.4308  0.1674
13203TIP3    H239567   5.172   2.147   4.093 -2.3800  0.5964 -0.3531
13204TIP3   OH239568   2.912   4.350   2.020  0.0496 -0.6745 -0.1170
13204TIP3    H139569   2.821   4.372   1.999  0.2267 -1.6526 -2.1736
13204TIP3    H239570   2.905   4.276   2.081 -0.5480 -0.8197 -0.3507
13205TIP3   OH239571   1.588   6.528   6.733 -0.2803  0.2711 -0.7579
13205TIP3    H139572   1.588   6.476   6.653 -0.4611 -0.7975 -0.0803
13205TIP3    H239573   1.656   6.594   6.718 -2.0061  1.7437 -2.8006
13206TIP3   OH239574   7.175   0.668   6.602 -0.2324  0.8952  0.8812
13206TIP3    H139575   7.168   0.698   6.693  0.0729 -0.7888  1.5036
13206TIP3    H239576   7.247   0.720   6.565  0.7283  0.4801  2.1067
13207TIP3   OH239577   5.980   4.611   1.418  0.5089 -0.8963 -0.3935
13207TIP3    H139578   5.901   4.568   1.387  0.4951 -0.6232 -0.7366
13207TIP3    H239579   6.023   4.545   1.473 -1.5180 -0.0586  2.4262
13208TIP3   OH239580   6.635   2.571   6.150  0.2807 -0.0144  0.0648
13208TIP3    H139581   6.557   2.612   6.112  0.3197 -0.8993 -1.0197
13208TIP3    H239582   6.602   2.504   6.209  0.1664 -1.2591 -1.3444
13209TIP3   OH239583   6.864   1.543   2.824  0.0931 -0.4324 -0.3345
13209TIP3    H139584   6.812   1.474   2.866 -0.2624 -0.6546 -1.1162
13209TIP3    H239585   6.918   1.496   2.760 -0.0424 -0.0005 -0.7687
13210TIP3   OH239586   6.406   6.153   6.357  0.2991 -0.1957  0.6593
13210TIP3    H139587   6.417   6.233   6.306 -2.1600 -0.6825 -0.7809
13210TIP3    H239588   6.481   6.098   6.331 -0.3872 -0.0736 -1.8215
13211TIP3   OH239589   5.223   2.358   1.790 -0.1440 -0.1928  0.3874
13211TIP3    H139590   5.150   2.321   1.839 -0.9491  0.7479 -0.0687
13211TIP3    H239591   5.185   2.387   1.708  0.3129  2.0617  0.8973
13212TIP3   OH239592   4.623   5.986   2.029  0.4692 -0.2502  0.2932
13212TIP3    H139593   4.551   6.049   2.018 -0.2470 -0.9546  0.8335
13212TIP3    H239594   4.656   6.003   2.117  1.8288  0.9235 -0.4005
13213TIP3   OH239595   7.018   0.925   6.255  0.3111 -0.0401  0.0458
13213TIP3    H139596   6.928   0.931   6.288  0.4035  1.0246  0.1298
13213TIP3    H239597   7.070   0.976   6.317  0.9838 -0.6553  0.0016
13214TIP3   OH239598   7.870   1.407   6.110 -0.2077  0.3921  0.0858
13214TIP3    H139599   7.833   1.337   6.163 -0.4143 -0.2287 -0.8393
13214TIP3    H239600   7.941   1.365   6.061 -1.3963  0.3513 -1.7323
13215TIP3   OH239601   5.180   4.155   5.100 -0.0752  0.2326 -0.5252
13215TIP3    H139602   5.097   4.177   5.142 -0.9986 -2.1564 -0.9452
13215TIP3    H239603   5.154   4.115   5.016  1.6303  2.4257 -2.2357
13216TIP3   OH239604   6.068   2.284   1.529 -0.5024 -0.4166 -0.4045
13216TIP3    H139605   6.007   2.308   1.599  1.5615  0.6673  1.1792
13216TIP3    H239606   6.066   2.358   1.469  0.9647  0.8406  0.9711
13217TIP3   OH239607   2.351   0.421   1.186  0.3331 -0.4181 -0.2126
13217TIP3    H139608   2.358   0.371   1.104 -0.5237  0.1832 -0.6734
13217TIP3    H239609   2.261   0.407   1.215  0.7829 -1.0458  0.9154
13218TIP3   OH239610   8.188   5.267   0.272 -0.3094  0.2212 -0.2796
13218TIP3    H139611   8.265   5.241   0.323  0.9263  1.1500 -1.6194
13218TIP3    H239612   8.215   5.260   0.181 -1.8815  0.4223 -0.8014
13219TIP3   OH239613   2.843   4.714   4.753  0.0233  0.5277  0.3415
13219TIP3    H139614   2.862   4.621   4.751 -0.6041  0.3973 -1.1919
13219TIP3    H239615   2.786   4.727   4.828 -0.8252 -0.5342 -0.0961
13220TIP3   OH239616   3.487   0.087   0.326 -0.2706  0.3889 -0.2734
13220TIP3    H139617   3.449   0.133   0.251 -0.1841  0.9801  0.0435
13220TIP3    H239618   3.515   0.002   0.290 -1.3438  0.1763 -0.6310
13221TIP3   OH239619   2.462   1.308   3.398  0.5956  0.3801 -0.4296
13221TIP3    H139620   2.423   1.330   3.313 -1.6991 -0.6478  0.2723
13221TIP3    H239621   2.488   1.217   3.389  0.6239  0.3605 -0.1311
13222TIP3   OH239622   1.895   3.954   1.941 -0.0484 -0.1876 -0.5605
13222TIP3    H139623   1.817   3.993   1.982  0.0178  0.4252 -0.9949
13222TIP3    H239624   1.924   3.887   2.003  0.4717  1.1902  0.7395
13223TIP3   OH239625   1.710   7.831   4.357 -0.1415 -0.4455  0.5034
13223TIP3    H139626   1.741   7.740   4.351  0.0837 -0.3738  0.5570
13223TIP3    H239627   1.649   7.840   4.284  0.7794 -0.2802 -0.2724
13224TIP3   OH239628   6.087   2.763   3.209 -0.5725 -0.1706 -0.3042
13224TIP3    H139629   6.070   2.827   3.139  0.1320  2.0448  1.4371
13224TIP3    H239630   6.004   2.716   3.219 -1.2184  0.6624 -1.4521
13225TIP3   OH239631   5.220   5.973   6.443  0.7901  0.5836  0.2728
13225TIP3    H139632   5.199   6.055   6.398  1.8336  0.4595 -0.4895
13225TIP3    H239633   5.234   5.910   6.372  2.4839  0.3838  0.7287
13226TIP3   OH239634   0.349   0.741   1.776  0.0759 -0.3806 -0.2529
13226TIP3    H139635   0.286   0.811   1.788  0.7602  0.1100  0.5844
13226TIP3    H239636   0.433   0.785   1.765  0.2403 -1.0041 -1.7928
13227TIP3   OH239637   1.701   4.236   1.270 -0.2103  0.4541 -0.7873
13227TIP3    H139638   1.623   4.212   1.220 -0.7246  1.1495 -0.3434
13227TIP3    H239639   1.730   4.155   1.310  1.1362 -0.4771 -3.4146
13228TIP3   OH239640   3.058   1.477   4.505  0.1605 -0.7394 -0.4682
13228TIP3    H139641   3.129   1.433   4.460 -1.7154 -0.2348 -4.4416
13228TIP3    H239642   3.050   1.561   4.460 -1.0233  0.5555  1.9386
13229TIP3   OH239643   6.408   7.569   4.543  0.0976  0.4708  0.1230
13229TIP3    H139644   6.376   7.625   4.472  0.3060  0.3012 -0.1081
13229TIP3    H239645   6.365   7.485   4.527  1.9878 -0.2976 -1.2362
13230TIP3   OH239646   1.067   5.401   4.447  0.3661 -0.3022  0.2862
13230TIP3    H139647   1.088   5.330   4.387  1.5992  0.2728  0.0215
13230TIP3    H239648   0.974   5.388   4.467  0.0912 -0.8763 -1.2314
13231TIP3   OH239649   2.892   5.098   6.761 -0.5975 -0.0576  0.0510
13231TIP3    H139650   2.962   5.049   6.804  0.3249  0.9872 -0.1923
13231TIP3    H239651   2.829   5.032   6.734  2.0272 -1.6090 -3.0424
13232TIP3   OH239652   5.196   7.055   0.343  0.4886  0.4860  0.6159
13232TIP3    H139653   5.165   7.145   0.336 -0.2490  0.1410 -1.1865
13232TIP3    H239654   5.182   7.032   0.435 -2.6152  1.1008  0.4137
13233TIP3   OH239655   0.452   1.958   2.845  0.0851 -0.1770 -0.0638
13233TIP3    H139656   0.394   1.915   2.782  0.0715 -0.4738  0.1525
13233TIP3    H239657   0.480   2.039   2.800 -0.8600  0.2065  0.0148
13234TIP3   OH239658   6.132   2.429   2.273 -0.3237  0.6170  0.0641
13234TIP3    H139659   6.126   2.460   2.182 -0.7900  0.2069 -0.0470
13234TIP3    H239660   6.058   2.471   2.317  0.8079  2.1042  0.6545
13235TIP3   OH239661   0.159   4.917   3.379  0.8773 -0.7183  0.1400
13235TIP3    H139662   0.228   4.855   3.354 -0.3636 -2.9090  1.7951
13235TIP3    H239663   0.078   4.874   3.353  0.0198  1.0597 -0.2605
13236TIP3   OH239664   4.430   6.862   6.360 -0.3028  0.2543 -0.0170
13236TIP3    H139665   4.517   6.865   6.400  0.7551  2.1472 -2.2461
13236TIP3    H239666   4.405   6.954   6.349 -1.3371 -0.1970 -1.9024
13237TIP3   OH239667   4.299   3.310   4.386  0.1985  0.3520 -0.1735
13237TIP3    H139668   4.215   3.355   4.384  0.3439  0.6525  0.2347
13237TIP3    H239669   4.304   3.263   4.303 -0.5559 -0.0089 -0.0163
13238TIP3   OH239670   5.218   5.345   0.438  0.2157 -0.5490 -0.2007
13238TIP3    H139671   5.136   5.385   0.409  1.1360  1.4826 -0.1056
13238TIP3    H239672   5.190   5.266   0.485 -1.5597 -0.9800 -1.8425
13239TIP3   OH239673   5.295   0.023   1.657 -0.0881 -0.1131  0.0311
13239TIP3    H139674   5.363   0.090   1.657 -0.1382 -0.0570  0.5478
13239TIP3    H239675   5.245   0.040   1.736  0.0118 -0.8715  0.2678
13240TIP3   OH239676   2.720   3.041   4.209  0.3313 -0.1207 -0.5668
13240TIP3    H139677   2.785   3.061   4.142  0.5044 -2.0889 -1.0297
13240TIP3    H239678   2.670   3.122   4.218  2.3944  1.2455 -0.6679
13241TIP3   OH239679   8.189   0.326   5.157 -0.2341 -0.2746  0.0177
13241TIP3    H139680   8.155   0.415   5.167 -1.8020 -1.0243  2.4356
13241TIP3    H239681   8.272   0.327   5.205 -0.5212 -0.2222  0.5255
13242TIP3   OH239682   6.840   6.329   5.299  0.5231  0.1099  0.1771
13242TIP3    H139683   6.801   6.256   5.250 -2.5612  0.9512  1.1773
13242TIP3    H239684   6.813   6.314   5.390  1.6926  1.3772  0.7678
13243TIP3   OH239685   1.190   6.559   4.744  0.6495 -0.7165  0.3959
13243TIP3    H139686   1.243   6.499   4.691  0.8120 -1.9582  1.9157
13243TIP3    H239687   1.252   6.622   4.779  0.8373 -1.0906  0.7276
13244TIP3   OH239688   1.038   6.282   2.258 -0.5873  0.0869 -0.4428
13244TIP3    H139689   1.007   6.330   2.181 -1.7851 -1.8719 -1.2635
13244TIP3    H239690   1.040   6.190   2.230  1.5044 -0.4139  1.0819
13245TIP3   OH239691   5.473   0.909   4.676  0.1566  0.5686  0.1470
13245TIP3    H139692   5.500   0.901   4.767  0.5356  1.5654  0.1226
13245TIP3    H239693   5.552   0.891   4.625 -0.0533  0.0157 -0.0016
13246TIP3   OH239694   4.825   1.374   1.581 -0.3128  0.0548 -0.1924
13246TIP3    H139695   4.907   1.379   1.630  0.6540  1.5248 -1.8535
13246TIP3    H239696   4.828   1.448   1.521 -2.2701 -0.6370 -1.2502
13247TIP3   OH239697   3.421   6.658   2.959  0.1012  0.1037  0.2281
13247TIP3    H139698   3.393   6.623   3.043  0.9697 -1.8569 -0.2296
13247TIP3    H239699   3.345   6.706   2.926 -0.4513  0.3772  1.8236
13248TIP3   OH239700   4.113   5.901   1.239 -0.2853 -0.1073 -0.4061
13248TIP3    H139701   4.207   5.893   1.255 -0.0785 -0.6136 -1.7195
13248TIP3    H239702   4.076   5.927   1.323  1.1272  0.9108 -0.0620
13249TIP3   OH239703   1.551   5.268   3.408 -0.4688  0.3017 -0.3302
13249TIP3    H139704   1.477   5.235   3.460 -0.8735  0.6897 -0.6496
13249TIP3    H239705   1.539   5.363   3.407 -0.2395  0.3275 -0.7953
13250TIP3   OH239706   1.168   6.215   1.766 -0.0211 -0.2971 -0.2921
13250TIP3    H139707   1.085   6.227   1.719 -0.0445 -2.9832 -1.1278
13250TIP3    H239708   1.233   6.257   1.710 -0.6612  1.0108 -0.1026
13251TIP3   OH239709   7.440   5.004   2.440 -0.8049  0.6645 -0.1385
13251TIP3    H139710   7.429   5.093   2.475  0.0636  0.8641 -0.3444
13251TIP3    H239711   7.500   4.961   2.500 -1.6465  0.0207  0.2660
13252TIP3   OH239712   4.283   2.173   5.062 -0.2245  0.2693  0.5229
13252TIP3    H139713   4.342   2.098   5.053 -0.6683 -0.0057 -0.1476
13252TIP3    H239714   4.341   2.248   5.072  0.2639  0.0723 -0.6806
13253TIP3   OH239715   3.330   6.277   1.162  1.0300 -0.5889 -0.3072
13253TIP3    H139716   3.315   6.362   1.203  1.7514  0.3024 -1.8039
13253TIP3    H239717   3.268   6.218   1.205  1.4266  0.3752  1.7021
13254TIP3   OH239718   7.588   7.308   6.389  0.3541  0.1542  0.0866
13254TIP3    H139719   7.587   7.341   6.299  3.1826  0.2017 -0.0204
13254TIP3    H239720   7.602   7.214   6.380 -0.3143  0.0092  0.4885
13255TIP3   OH239721   3.643   0.875   3.450 -0.4156  0.3652 -0.1214
13255TIP3    H139722   3.701   0.927   3.395  0.3754 -0.9308 -0.5745
13255TIP3    H239723   3.618   0.933   3.522  2.1673  0.7190  0.5747
13256TIP3   OH239724   0.341   3.880   6.432 -0.1101  0.0158  0.4615
13256TIP3    H139725   0.285   3.958   6.438  1.1773  1.0050  0.1511
13256TIP3    H239726   0.323   3.844   6.345 -0.8073 -0.1110  0.6541
13257TIP3   OH239727   6.277   3.427   1.113 -0.3486 -0.5449  0.7216
13257TIP3    H139728   6.304   3.485   1.184 -2.3657  1.6900 -0.2122
13257TIP3    H239729   6.225   3.482   1.055  0.0784 -2.6160 -1.8199
13258TIP3   OH239730   0.627   4.239   6.750  0.0354 -0.2117 -0.6611
13258TIP3    H139731   0.682   4.182   6.804  1.2163  2.8934  1.7231
13258TIP3    H239732   0.539   4.203   6.758  0.3687 -0.5988  2.4622
13259TIP3   OH239733   2.874   3.388   1.684 -0.4630 -0.2234 -0.4098
13259TIP3    H139734   2.869   3.327   1.610 -1.3895 -0.8973  0.1879
13259TIP3    H239735   2.937   3.348   1.744  1.4388  1.0588 -1.4539
13260TIP3   OH239736   4.804   4.522   6.321  0.2647  1.0750 -0.0662
13260TIP3    H139737   4.835   4.558   6.404  1.2741  0.1040  0.0105
13260TIP3    H239738   4.870   4.457   6.297  1.3443  2.9917 -2.8558
13261TIP3   OH239739   5.351   6.854   1.892  0.4346 -0.1538 -0.5828
13261TIP3    H139740   5.286   6.923   1.906  0.2594 -0.6363  1.3395
13261TIP3    H239741   5.381   6.867   1.802 -0.7768  1.3928 -0.8151
13262TIP3   OH239742   2.432   5.173   3.977 -0.0819  0.1383  0.0456
13262TIP3    H139743   2.477   5.242   3.929 -2.3050  0.4168 -1.8021
13262TIP3    H239744   2.454   5.093   3.930 -0.2810  0.0723  0.0641
13263TIP3   OH239745   7.008   2.464   2.186  0.7315  0.3136 -0.3507
13263TIP3    H139746   7.084   2.408   2.171 -0.6167 -2.3762  2.0137
13263TIP3    H239747   7.045   2.552   2.197  3.5662 -0.9228  0.9307
13264TIP3   OH239748   7.066   2.698   4.008 -0.3809  0.6006  0.2880
13264TIP3    H139749   7.032   2.765   4.068  3.3160  3.9418 -0.8486
13264TIP3    H239750   7.037   2.727   3.922 -0.2370 -0.3150 -0.0692
13265TIP3   OH239751   1.486   3.088   6.356 -0.7373  0.2066  0.2909
13265TIP3    H139752   1.542   3.149   6.308 -0.5053 -0.3477 -0.1606
13265TIP3    H239753   1.546   3.041   6.414 -0.8000 -0.0897  0.1177
13266TIP3   OH239754   2.789   0.138   1.880  0.1870 -0.2668  0.5849
13266TIP3    H139755   2.710   0.190   1.863  0.6506 -0.2748 -1.9014
13266TIP3    H239756   2.825   0.118   1.793  2.6637 -0.7047  1.6151
13267TIP3   OH239757   6.015   1.795   4.648  0.2089  0.3755  0.4156
13267TIP3    H139758   6.040   1.744   4.571 -0.3873  1.2242 -0.3602
13267TIP3    H239759   6.039   1.740   4.722 -0.4711 -1.0543 -0.3942
13268TIP3   OH239760   4.663   0.311   6.757 -0.0459  0.5301 -0.1738
13268TIP3    H139761   4.628   0.265   6.681  1.1027  1.0459 -1.0418
13268TIP3    H239762   4.590   0.362   6.790 -0.3366  0.9813 -1.4647
13269TIP3   OH239763   4.838   7.020   4.288  0.5122 -0.5366 -0.5396
13269TIP3    H139764   4.922   7.064   4.286  1.1597 -1.7345 -0.4904
13269TIP3    H239765   4.833   6.980   4.375  0.2062 -1.0343 -0.7773
13270TIP3   OH239766   6.414   2.049   1.930  0.3832 -0.6258  0.0895
13270TIP3    H139767   6.417   2.033   2.024 -0.6905 -1.4907 -0.0003
13270TIP3    H239768   6.407   2.144   1.922 -0.1050 -0.5825  0.9140
13271TIP3   OH239769   3.949   3.279   2.423  0.0302 -0.3031  0.6763
13271TIP3    H139770   3.877   3.234   2.467 -1.1227 -0.9283 -1.6834
13271TIP3    H239771   3.911   3.312   2.342  1.0700  4.1015  1.6882
13272TIP3   OH239772   0.841   4.426   5.373 -0.0542 -0.0972 -0.0110
13272TIP3    H139773   0.905   4.385   5.314 -0.2418 -0.6185  0.1382
13272TIP3    H239774   0.874   4.407   5.461  0.3514  0.8853  0.0600
13273TIP3   OH239775   8.214   4.683   5.867 -0.4053 -0.2694 -0.5497
13273TIP3    H139776   8.303   4.708   5.890 -0.2650 -1.3292  0.1557
13273TIP3    H239777   8.162   4.762   5.880  0.3835  0.2855 -0.7183
13274TIP3   OH239778   4.433   1.957   6.713 -0.2960 -0.5756  0.0314
13274TIP3    H139779   4.441   1.918   6.626  0.5308  0.3490 -0.3243
13274TIP3    H239780   4.356   2.014   6.707 -0.1558 -0.4042 -0.1323
13275TIP3   OH239781   2.351   6.451   3.076  0.6627  0.1388 -0.2550
13275TIP3    H139782   2.280   6.414   3.128  0.3140  1.9121  0.5976
13275TIP3    H239783   2.331   6.545   3.070  1.9146  0.3659 -1.6493
13276TIP3   OH239784   0.886   4.465   5.652  0.0298  0.1479 -0.1698
13276TIP3    H139785   0.830   4.395   5.686 -0.1129 -0.3752 -1.3907
13276TIP3    H239786   0.975   4.439   5.674 -0.0568 -0.2123 -0.2404
13277TIP3   OH239787   6.393   2.333   0.131 -0.1495 -0.4386  0.1652
13277TIP3    H139788   6.471   2.307   0.082 -0.0051 -1.4554  0.8973
13277TIP3    H239789   6.394   2.277   0.209 -1.0046  0.3198  0.7439
13278TIP3   OH239790   0.963   1.566   3.829  0.3061  0.0193 -0.1364
13278TIP3    H139791   1.006   1.647   3.856  0.5670 -0.0181 -0.4280
13278TIP3    H239792   1.022   1.529   3.763 -0.2314  0.0282 -0.6293
13279TIP3   OH239793   1.888   5.608   5.131  0.1184 -0.4048  0.5621
13279TIP3    H139794   1.975   5.593   5.093 -0.3236 -0.0873 -0.6186
13279TIP3    H239795   1.827   5.574   5.065 -0.6720 -0.1525  1.1462
13280TIP3   OH239796   4.843   4.103   0.203  0.5599 -0.1407 -0.1717
13280TIP3    H139797   4.929   4.137   0.177 -0.3935  1.2083 -1.8200
13280TIP3    H239798   4.808   4.170   0.261  0.4050 -0.4234  0.0604
13281TIP3   OH239799   0.084   7.105   1.330 -0.5180  0.5319 -0.1115
13281TIP3    H139800   0.043   7.028   1.369 -0.6313  0.0888 -1.0776
13281TIP3    H239801   0.157   7.125   1.389  0.7791 -1.5581 -0.8789
13282TIP3   OH239802   6.997   5.084   0.149 -0.5511  0.6978 -0.3029
13282TIP3    H139803   6.979   5.031   0.072 -0.4916 -0.4315  0.4256
13282TIP3    H239804   7.093   5.094   0.150 -0.4820  0.0764  0.0085
13283TIP3   OH239805   2.604   1.464   0.472 -0.1578 -0.3695 -0.4834
13283TIP3    H139806   2.535   1.442   0.534  0.1979  1.2730  0.5844
13283TIP3    H239807   2.663   1.522   0.522  0.0413  1.1694 -2.3871
13284TIP3   OH239808   2.918   2.119   3.984 -0.3529 -0.3044 -0.5144
13284TIP3    H139809   2.849   2.167   4.028  0.1253  0.5568 -0.6832
13284TIP3    H239810   2.879   2.034   3.963 -0.9008 -0.3514  0.6382
13285TIP3   OH239811   0.504   6.536   4.237 -0.4184 -0.0998 -0.2034
13285TIP3    H139812   0.579   6.591   4.259  0.5241 -0.8516 -1.3619
13285TIP3    H239813   0.521   6.453   4.283 -1.5662  0.3681  1.1225
13286TIP3   OH239814   6.818   2.191   0.625 -0.0190 -0.0816 -0.3636
13286TIP3    H139815   6.908   2.199   0.593 -0.0388  1.1494 -0.1449
13286TIP3    H239816   6.765   2.189   0.545  0.2420 -1.9252 -0.5439
13287TIP3   OH239817   5.442   3.924   4.957 -0.5926 -0.0314 -0.1259
13287TIP3    H139818   5.451   4.004   5.010 -1.0451  0.3035 -0.5502
13287TIP3    H239819   5.525   3.916   4.911 -0.5715  0.2368 -0.1352
13288TIP3   OH239820   6.974   1.896   1.464  0.4734  0.2587 -0.2184
13288TIP3    H139821   6.985   1.991   1.458  2.4638  0.3026  2.2666
13288TIP3    H239822   6.947   1.881   1.555 -0.8560 -1.5238 -0.8444
13289TIP3   OH239823   0.982   5.923   6.668  0.1272 -0.0742 -0.0768
13289TIP3    H139824   0.988   5.902   6.574  1.3409 -1.0781  0.1933
13289TIP3    H239825   0.894   5.958   6.679  0.1615  0.6648 -1.7099
13290TIP3   OH239826   5.530   1.794   3.241 -0.1109 -0.3272 -0.0028
13290TIP3    H139827   5.616   1.762   3.216 -0.4470 -1.5127  0.2553
13290TIP3    H239828   5.496   1.838   3.163  0.5665 -0.1978 -0.2249
13291TIP3   OH239829   2.691   0.718   4.548  0.0047 -0.2269  0.1499
13291TIP3    H139830   2.772   0.743   4.504 -0.0878 -1.6097 -0.8803
13291TIP3    H239831   2.630   0.697   4.476 -0.8584 -0.4312  0.9217
13292TIP3   OH239832   1.067   2.840   3.054 -0.2897 -0.0459 -0.0223
13292TIP3    H139833   1.082   2.917   3.109 -0.4584  1.1442 -1.5514
13292TIP3    H239834   1.004   2.787   3.102  0.5288  0.3030  1.4932
13293TIP3   OH239835   3.604   1.285   6.653  0.1866 -0.7792  0.9079
13293TIP3    H139836   3.525   1.334   6.627 -0.1193 -1.7705 -0.1236
13293TIP3    H239837   3.572   1.219   6.714  0.0117 -1.8421 -0.2872
13294TIP3   OH239838   4.956   1.827   6.059 -0.4229  0.3373  0.0645
13294TIP3    H139839   4.971   1.741   6.022 -2.1623 -0.8434  1.9200
13294TIP3    H239840   4.936   1.883   5.983 -0.5407 -1.1798 -1.0634
13295TIP3   OH239841   3.811   2.474   0.818 -0.5465 -0.0616 -0.0708
13295TIP3    H139842   3.778   2.469   0.729  1.2393  0.4712 -0.7893
13295TIP3    H239843   3.738   2.510   0.869 -1.3388  0.2985 -1.4341
13296TIP3   OH239844   3.086   6.395   1.076  0.0531  0.5024  0.6989
13296TIP3    H139845   3.172   6.365   1.046 -0.1268  0.1377  0.5420
13296TIP3    H239846   3.095   6.490   1.082 -0.4804  0.8863 -2.5442
13297TIP3   OH239847   3.895   3.139   1.036 -0.1635  0.3099  0.0758
13297TIP3    H139848   3.952   3.080   1.085  0.4695  0.7887 -0.0700
13297TIP3    H239849   3.918   3.124   0.944  1.0322  1.7895  0.1023
13298TIP3   OH239850   2.879   2.636   6.693 -0.1998  0.3368 -0.1873
13298TIP3    H139851   2.969   2.669   6.694  0.2544 -0.8320 -0.3642
13298TIP3    H239852   2.857   2.623   6.786 -0.2663  0.8263 -0.1338
13299TIP3   OH239853   0.247   1.163   5.297 -0.2469 -0.1893 -0.0767
13299TIP3    H139854   0.167   1.136   5.252 -0.6864 -0.6313  0.9595
13299TIP3    H239855   0.230   1.253   5.325 -1.6376 -1.2698  2.8738
13300TIP3   OH239856   5.997   0.664   6.684 -0.2758 -0.0485 -0.2479
13300TIP3    H139857   5.961   0.653   6.596 -0.3444  1.8072 -0.5042
13300TIP3    H239858   6.037   0.580   6.705  0.9182 -0.1480 -2.6054
13301TIP3   OH239859   0.819   2.026   1.607  0.0332  0.0150 -0.1000
13301TIP3    H139860   0.857   2.071   1.683 -1.3877  1.4152 -0.1716
13301TIP3    H239861   0.818   2.092   1.538 -0.5995 -0.6276 -0.7148
13302TIP3   OH239862   2.683   7.397   5.397 -0.4649  0.0633  0.2516
13302TIP3    H139863   2.604   7.449   5.410  0.0213  0.9368 -0.2316
13302TIP3    H239864   2.699   7.401   5.303 -1.1879 -2.1298 -0.0252
13303TIP3   OH239865   3.913   6.526   5.195  0.0473 -0.1732  0.1839
13303TIP3    H139866   3.862   6.598   5.229 -0.7766 -0.4441 -0.4360
13303TIP3    H239867   3.923   6.545   5.101  1.1035 -0.1169  0.2895
13304TIP3   OH239868   8.265   4.127   1.440 -0.7250 -0.1641 -0.4811
13304TIP3    H139869   8.305   4.191   1.499 -0.6309  0.5911 -1.3451
13304TIP3    H239870   8.322   4.125   1.363 -0.3564 -1.7929 -0.2052
13305TIP3   OH239871   7.902   2.188   4.894 -0.2445 -0.3254  0.2608
13305TIP3    H139872   7.877   2.096   4.903 -0.3636 -0.4788 -1.3080
13305TIP3    H239873   7.929   2.196   4.802  0.5372  1.0250  0.5815
13306TIP3   OH239874   5.875   7.428   5.430 -0.2272  0.3273 -0.4074
13306TIP3    H139875   5.858   7.479   5.350  0.3917  0.0526 -0.7187
13306TIP3    H239876   5.920   7.489   5.488 -2.2356  1.0936  0.4618
13307TIP3   OH239877   0.350   1.454   1.574 -0.3906 -0.1826  0.1429
13307TIP3    H139878   0.429   1.506   1.587  0.2868 -1.0529 -0.3766
13307TIP3    H239879   0.347   1.395   1.649 -0.9857  0.3774  0.5685
13308TIP3   OH239880   3.741   3.668   1.509 -0.4587 -0.3001 -0.4216
13308TIP3    H139881   3.741   3.739   1.444 -1.0961  0.6154  0.5409
13308TIP3    H239882   3.790   3.597   1.467 -0.4894  0.4132 -1.7313
13309TIP3   OH239883   2.409   1.265   6.278  0.1792  0.1745 -0.1189
13309TIP3    H139884   2.356   1.212   6.219  0.9946 -0.0144 -0.6934
13309TIP3    H239885   2.413   1.214   6.359  0.6682 -0.4898 -0.5516
13310TIP3   OH239886   6.705   1.414   1.675 -0.3557  0.4384 -0.4111
13310TIP3    H139887   6.726   1.502   1.707  1.6650 -0.1629  0.0336
13310TIP3    H239888   6.784   1.387   1.628 -2.4125  0.4563 -4.2550
13311TIP3   OH239889   5.754   7.748   1.435  0.1257  0.3239 -0.0899
13311TIP3    H139890   5.706   7.710   1.509 -2.0250  0.0816 -1.5409
13311TIP3    H239891   5.716   7.835   1.424  0.0021  0.1402 -1.2492
13312TIP3   OH239892   6.574   2.343   5.871 -0.1952 -0.4988  0.0521
13312TIP3    H139893   6.614   2.418   5.826  1.3462 -0.4665  1.3932
13312TIP3    H239894   6.481   2.364   5.873  0.2853  1.8520  1.1528
13313TIP3   OH239895   1.497   3.618   3.722 -0.1344 -0.0302 -0.4217
13313TIP3    H139896   1.474   3.702   3.762 -1.0914  0.2608 -1.5386
13313TIP3    H239897   1.493   3.634   3.628 -0.3364 -1.3380 -0.6505
13314TIP3   OH239898   2.464   4.046   1.384 -0.4860  0.8984  0.1299
13314TIP3    H139899   2.432   3.993   1.458 -0.9409  0.8265 -0.1131
13314TIP3    H239900   2.455   3.988   1.308  0.5132  0.7742  0.0953
13315TIP3   OH239901   3.343   7.300   6.596  0.0557  0.1108  0.6096
13315TIP3    H139902   3.422   7.254   6.567  0.7371  0.8196  1.2629
13315TIP3    H239903   3.271   7.251   6.557  0.8557  0.0940 -0.9356
13316TIP3   OH239904   2.452   4.971   5.052  0.0999  0.0093  0.3508
13316TIP3    H139905   2.464   4.892   5.105  0.0589 -0.5822 -0.4990
13316TIP3    H239906   2.382   5.019   5.096  1.3486  0.4808  1.8988
13317TIP3   OH239907   4.993   0.305   4.561  0.4087 -0.0352 -0.0360
13317TIP3    H139908   4.976   0.271   4.474 -0.1504 -2.4662  0.9606
13317TIP3    H239909   5.029   0.231   4.610  0.6555  1.2434  1.8310
13318TIP3   OH239910   2.147   6.750   4.970 -0.5423  0.6218 -0.2021
13318TIP3    H139911   2.081   6.685   4.946 -0.4940  0.7519 -0.7000
13318TIP3    H239912   2.198   6.708   5.039 -0.1136 -0.1080 -0.9481
13319TIP3   OH239913   2.575   4.590   2.469 -1.1487  0.1418 -0.4262
13319TIP3    H139914   2.564   4.508   2.517 -0.1505  0.9092  1.2291
13319TIP3    H239915   2.506   4.647   2.505 -0.3903  0.7269  0.1261
13320TIP3   OH239916   7.566   6.720   3.106  0.0653  0.1489  0.1645
13320TIP3    H139917   7.648   6.736   3.152 -0.3877 -0.2618  1.1539
13320TIP3    H239918   7.549   6.626   3.120  0.3971 -0.2149 -1.6626
13321TIP3   OH239919   3.592   1.023   1.940  0.1544 -0.1650  0.3795
13321TIP3    H139920   3.499   1.029   1.921  0.2485  0.7573  0.1438
13321TIP3    H239921   3.626   1.111   1.922  1.5097 -1.0490 -1.9157
13322TIP3   OH239922   5.194   5.821   3.477  0.4986  0.0081  0.1752
13322TIP3    H139923   5.282   5.787   3.492  1.0270  1.2824  0.1785
13322TIP3    H239924   5.169   5.785   3.392  1.6185  0.7092 -0.4889
13323TIP3   OH239925   3.126   6.708   3.421  0.0924 -0.4970  0.5713
13323TIP3    H139926   3.149   6.763   3.346 -0.0994  0.2657  1.0643
13323TIP3    H239927   3.128   6.618   3.386 -0.5962 -0.1167 -0.5066
13324TIP3   OH239928   2.544   7.673   3.331 -0.6511 -0.3478 -0.7385
13324TIP3    H139929   2.493   7.753   3.316  0.3684  0.7605  1.2710
13324TIP3    H239930   2.493   7.625   3.396 -0.6896 -0.7936 -1.0945
13325TIP3   OH239931   7.415   1.675   4.091  0.3093 -0.1434  0.2730
13325TIP3    H139932   7.444   1.757   4.130 -0.1589 -0.3287  1.0227
13325TIP3    H239933   7.442   1.681   3.999  3.0518 -0.4701  0.9800
13326TIP3   OH239934   4.591   0.722   4.419 -0.0835  0.0154  0.0998
13326TIP3    H139935   4.638   0.673   4.351 -1.2298  0.4315 -1.0460
13326TIP3    H239936   4.506   0.678   4.425 -0.1643  0.2681  0.9575
13327TIP3   OH239937   2.382   0.629   2.689  0.5379  0.2657  0.1566
13327TIP3    H139938   2.449   0.561   2.685  2.0833  1.5371  2.0511
13327TIP3    H239939   2.348   0.637   2.600  1.2803 -1.9882 -0.3711
13328TIP3   OH239940   5.742   1.595   3.216  0.0533  0.3158 -0.0615
13328TIP3    H139941   5.827   1.551   3.219  0.2389  0.7223  1.3809
13328TIP3    H239942   5.681   1.529   3.183  1.0357  0.2531 -1.8626
13329TIP3   OH239943   2.263   6.162   3.547  0.2280 -0.0545 -0.7060
13329TIP3    H139944   2.309   6.183   3.628  0.0831  0.6990 -0.8128
13329TIP3    H239945   2.245   6.068   3.553 -1.2614  0.2824  0.9165
13330TIP3   OH239946   7.782   6.879   5.448  0.1477 -0.1171 -0.3966
13330TIP3    H139947   7.706   6.832   5.415  0.1530 -0.6627  0.3576
13330TIP3    H239948   7.833   6.813   5.494  1.1858  0.1898 -1.0535
13331TIP3   OH239949   7.270   6.660   4.040 -0.0357 -0.0001 -0.1048
13331TIP3    H139950   7.312   6.726   3.984 -0.2706  0.4435  0.2315
13331TIP3    H239951   7.216   6.711   4.101  0.0191 -0.4887  0.3617
13332TIP3   OH239952   2.327   0.906   4.707  0.1070  0.5621 -0.1748
13332TIP3    H139953   2.333   0.845   4.634  2.0810  0.8782 -0.3395
13332TIP3    H239954   2.409   0.956   4.703  0.5144  0.2549  2.5192
13333TIP3   OH239955   1.915   2.462   5.120  0.3886 -0.4218 -0.5167
13333TIP3    H139956   1.998   2.506   5.106  0.9224 -1.3238 -0.2909
13333TIP3    H239957   1.939   2.379   5.163 -0.7861  0.2823  1.6216
13334TIP3   OH239958   4.989   0.632   2.833 -0.1936 -0.2172 -0.3770
13334TIP3    H139959   4.942   0.659   2.913  1.7721  1.0316  0.4358
13334TIP3    H239960   4.923   0.586   2.782 -1.3573 -1.7961  2.2969
13335TIP3   OH239961   4.878   6.160   3.032  0.0468 -0.2195 -0.0923
13335TIP3    H139962   4.783   6.155   3.049  0.0385 -0.4301 -0.2021
13335TIP3    H239963   4.901   6.073   3.000  0.6190 -0.7802  1.7050
13336TIP3   OH239964   2.575   5.756   3.705  0.1622 -0.0914  0.3293
13336TIP3    H139965   2.504   5.726   3.762  0.4366  1.7844  1.7676
13336TIP3    H239966   2.536   5.825   3.651  0.3699 -0.5482 -0.4158
13337TIP3   OH239967   3.447   2.894   5.003  0.8950 -0.5542 -0.3082
13337TIP3    H139968   3.379   2.961   5.000 -0.2857 -1.6663  0.5762
13337TIP3    H239969   3.446   2.854   4.916  0.6126 -0.3798 -0.3872
13338TIP3   OH239970   6.209   1.660   1.514 -0.0499 -0.1544 -0.0362
13338TIP3    H139971   6.207   1.740   1.461  1.9329 -0.7149 -1.0425
13338TIP3    H239972   6.291   1.667   1.564 -0.5682 -0.8926  0.9418
13339TIP3   OH239973   7.382   0.656   5.151  0.2734  0.2202 -0.2961
13339TIP3    H139974   7.346   0.647   5.062  0.6743  1.2799 -0.5818
13339TIP3    H239975   7.334   0.591   5.203 -0.0736 -0.3103 -1.2538
13340TIP3   OH239976   0.223   4.040   2.902  0.1109  0.0302 -0.2268
13340TIP3    H139977   0.151   4.074   2.849 -1.4674 -2.4138  0.1478
13340TIP3    H239978   0.274   3.986   2.842 -0.2673 -0.7997  0.1787
13341TIP3   OH239979   5.157   4.481   4.343  0.0029 -0.2011  0.9055
13341TIP3    H139980   5.216   4.525   4.404 -0.1789  0.3972  0.6529
13341TIP3    H239981   5.117   4.412   4.396  1.7106 -1.3213  0.8044
13342TIP3   OH239982   4.036   7.143   3.082  0.1432 -0.8482 -0.1093
13342TIP3    H139983   4.012   7.107   2.997 -2.0207 -0.0360  0.0920
13342TIP3    H239984   4.049   7.067   3.139 -0.3698 -1.3646 -0.6774
13343TIP3   OH239985   0.842   6.985   5.439 -0.3639 -0.1607 -0.0507
13343TIP3    H139986   0.913   6.960   5.497 -0.8385  2.8681  2.0657
13343TIP3    H239987   0.877   6.969   5.351  1.6213 -1.8147  0.9297
13344TIP3   OH239988   7.063   3.270   1.573 -0.2456  0.0554 -0.0358
13344TIP3    H139989   7.094   3.182   1.594 -0.5327  0.2136  1.1245
13344TIP3    H239990   7.121   3.299   1.503 -0.5435 -1.2793 -0.8712
13345TIP3   OH239991   0.900   2.607   6.699 -0.1195  0.1042 -0.8460
13345TIP3    H139992   0.953   2.644   6.770 -1.1167 -0.2310  0.1097
13345TIP3    H239993   0.964   2.569   6.639  0.7756  0.7605 -0.3383
13346TIP3   OH239994   2.074   2.367   6.644 -0.3665 -0.4095  0.1087
13346TIP3    H139995   2.087   2.461   6.627 -0.3229 -0.2548  0.9443
13346TIP3    H239996   2.037   2.364   6.732 -0.3369 -1.1885  0.0999
13347TIP3   OH239997   4.633   2.677   0.346  0.5154 -0.2558 -0.0222
13347TIP3    H139998   4.690   2.628   0.286 -0.4209 -0.7229 -0.5438
13347TIP3    H239999   4.604   2.752   0.295  0.3239 -0.2479  0.1009
13348TIP3   OH240000   7.421   4.764   3.201 -0.2538 -0.2402 -0.0332
13348TIP3    H140001   7.365   4.690   3.176  0.2357 -0.5480 -0.2506
13348TIP3    H240002   7.390   4.789   3.288 -2.3247  1.1764 -1.1042
13349TIP3   OH240003   5.481   0.658   4.862  0.1700  0.2087  0.2295
13349TIP3    H140004   5.410   0.595   4.875 -1.3057  1.4953 -1.1498
13349TIP3    H240005   5.458   0.732   4.917  0.5514  0.5585 -0.0730
13350TIP3   OH240006   6.630   5.417   5.076 -0.0072 -0.2725 -0.0593
13350TIP3    H140007   6.645   5.376   4.991  1.4764 -1.5813  0.7689
13350TIP3    H240008   6.655   5.350   5.139  1.7697  1.6517  1.4013
13351TIP3   OH240009   8.122   4.181   0.295  0.1399 -0.0719  0.1577
13351TIP3    H140010   8.106   4.091   0.321 -0.1276 -0.5011 -1.3736
13351TIP3    H240011   8.102   4.183   0.201  1.2107  1.3167 -0.0803
13352TIP3   OH240012   0.046   1.949   4.575 -0.4536  0.1117  0.7030
13352TIP3    H140013   0.125   1.921   4.622  0.8275 -1.5967 -2.2332
13352TIP3    H240014   0.058   2.043   4.561  0.1452  0.2211  1.8176
13353TIP3   OH240015   0.063   5.922   1.733  0.3241 -0.2023 -0.1932
13353TIP3    H140016   0.123   5.956   1.667 -0.7617  3.3972  0.4594
13353TIP3    H240017  -0.024   5.946   1.702 -0.4375 -1.0733  1.1414
13354TIP3   OH240018   1.852   2.498   3.643 -0.4155 -0.0947 -0.5711
13354TIP3    H140019   1.781   2.442   3.612 -0.0165 -1.7044  1.2212
13354TIP3    H240020   1.831   2.585   3.610 -1.8350 -1.0131 -2.2293
13355TIP3   OH240021   2.886   7.019   0.427  0.6557  0.2637  0.5105
13355TIP3    H140022   2.879   6.954   0.357  0.0346 -1.0732  1.7884
13355TIP3    H240023   2.846   7.098   0.389  0.8258 -0.2591 -0.8265
13356TIP3   OH240024   3.501   1.675   2.835 -0.0962  0.5449 -0.1608
13356TIP3    H140025   3.544   1.685   2.920  0.5802  0.0515 -0.4329
13356TIP3    H240026   3.491   1.764   2.802  1.3998  0.6464 -0.4064
13357TIP3   OH240027   5.996   7.556   6.200 -0.0620  0.2328 -0.1339
13357TIP3    H140028   6.020   7.520   6.115 -0.3089  0.0390 -0.1214
13357TIP3    H240029   5.963   7.643   6.181  1.3200  0.7994 -0.0852
13358TIP3   OH240030   3.435   1.683   6.449 -0.4055  0.4770  0.1308
13358TIP3    H140031   3.465   1.705   6.537 -0.4829 -0.2756  0.3510
13358TIP3    H240032   3.456   1.590   6.439  2.0137  1.1022 -1.6097
13359TIP3   OH240033   2.391   3.583   1.796 -0.0660  0.1262 -0.3339
13359TIP3    H140034   2.369   3.519   1.729  0.1952  0.1995 -0.4896
13359TIP3    H240035   2.476   3.556   1.829  0.0194  0.3586 -0.3596
13360TIP3   OH240036   2.906   4.466   3.572  0.6464  0.6450 -0.1378
13360TIP3    H140037   2.902   4.417   3.490  0.3905 -0.1516  0.3310
13360TIP3    H240038   2.933   4.400   3.637 -1.0445  0.7889  0.7685
13361TIP3   OH240039   7.890   2.725   0.527 -0.7892  0.6496 -0.0430
13361TIP3    H140040   7.795   2.726   0.540 -0.8748  1.3688 -0.6846
13361TIP3    H240041   7.912   2.632   0.518 -1.4433  0.4874 -0.0190
13362TIP3   OH240042   7.476   6.419   4.652 -0.2484 -0.6009 -0.4135
13362TIP3    H140043   7.496   6.359   4.580  0.5073 -1.4549  0.4769
13362TIP3    H240044   7.550   6.478   4.655 -0.7723  0.1054 -0.9865
13363TIP3   OH240045   3.405   5.506   0.982 -0.5462 -0.5368 -0.1735
13363TIP3    H140046   3.444   5.418   0.981 -0.3273 -0.4617  0.8138
13363TIP3    H240047   3.355   5.509   1.064 -1.6169 -0.1900 -0.8279
13364TIP3   OH240048   3.621   5.062   2.841  0.1027  0.0579  0.4598
13364TIP3    H140049   3.614   5.122   2.768 -1.2008  0.4786  0.9047
13364TIP3    H240050   3.692   5.002   2.817  0.4887  0.9172 -0.5941
13365TIP3   OH240051   7.269   6.170   3.962  0.1354 -0.4964 -0.0961
13365TIP3    H140052   7.223   6.094   3.996 -1.0415  0.0804 -0.3498
13365TIP3    H240053   7.276   6.230   4.036 -0.5560 -0.1140 -0.3290
13366TIP3   OH240054   6.069   6.811   1.572 -0.3670  0.6175 -0.2231
13366TIP3    H140055   5.976   6.813   1.553 -0.2369  0.2642 -0.9238
13366TIP3    H240056   6.101   6.899   1.551 -0.2788  0.3203 -1.4115
13367TIP3   OH240057   0.974   3.864   4.122  0.3998  0.4322  0.0855
13367TIP3    H140058   0.907   3.922   4.158  0.0196  0.1826 -0.2143
13367TIP3    H240059   0.979   3.887   4.030 -0.4428 -0.6422 -0.2600
13368TIP3   OH240060   5.511   7.405   6.695 -0.1757  0.2536  0.0780
13368TIP3    H140061   5.545   7.342   6.759 -0.4082 -0.0396 -0.0902
13368TIP3    H240062   5.581   7.470   6.687  1.1127 -1.2467 -1.5476
13369TIP3   OH240063   4.240   0.392   3.919 -0.1127  0.1283 -0.1949
13369TIP3    H140064   4.234   0.469   3.861 -1.4265 -0.7016 -1.2337
13369TIP3    H240065   4.171   0.407   3.984 -0.2426 -0.0683 -0.2860
13370TIP3   OH240066   6.435   5.581   6.775 -0.5884  0.2999 -0.2316
13370TIP3    H140067   6.372   5.646   6.804 -0.3258  0.4532 -0.0038
13370TIP3    H240068   6.457   5.607   6.685 -0.5586  0.4652 -0.1755
13371TIP3   OH240069   0.845   6.378   4.178  0.0680 -0.1928 -0.6330
13371TIP3    H140070   0.940   6.366   4.167  0.3290  0.1854  0.9693
13371TIP3    H240071   0.834   6.472   4.192 -0.1463 -0.5585  2.2104
13372TIP3   OH240072   3.398   2.393   6.024 -0.1725 -0.0697 -0.5728
13372TIP3    H140073   3.344   2.396   6.102  0.2653  0.0190 -0.2700
13372TIP3    H240074   3.459   2.466   6.034  0.0983 -0.2544 -0.8399
13373TIP3   OH240075   2.366   6.415   4.991  0.1269 -0.1232  0.2570
13373TIP3    H140076   2.411   6.337   5.022  0.9996 -0.0688 -0.8423
13373TIP3    H240077   2.429   6.460   4.935 -1.3378 -0.1523 -1.5059
13374TIP3   OH240078   6.138   0.967   4.863 -0.3659 -0.2964  0.1655
13374TIP3    H140079   6.195   1.044   4.856 -2.3116  1.2084 -0.0599
13374TIP3    H240080   6.107   0.968   4.954  0.0050 -1.1488  0.3106
13375TIP3   OH240081   2.461   1.567   5.558 -0.0241 -0.0493 -0.2360
13375TIP3    H140082   2.495   1.653   5.580 -1.0271  0.1480  0.6274
13375TIP3    H240083   2.379   1.585   5.511 -0.9861 -0.5169  1.2057
13376TIP3   OH240084   5.885   1.150   3.784 -0.0065 -0.1391  0.0660
13376TIP3    H140085   5.974   1.115   3.789 -0.5358 -1.6331 -0.3880
13376TIP3    H240086   5.897   1.242   3.760  1.3860 -0.6785 -1.5102
13377TIP3   OH240087   4.897   2.383   6.234 -0.2319  0.0194  0.3811
13377TIP3    H140088   4.898   2.292   6.262  0.7500  0.6831  2.7181
13377TIP3    H240089   4.844   2.383   6.154  1.3358 -2.8749 -0.7910
13378TIP3   OH240090   3.438   0.496   3.321 -0.1477 -0.2799 -0.0576
13378TIP3    H140091   3.444   0.577   3.270  0.9280 -1.6103 -2.2033
13378TIP3    H240092   3.348   0.494   3.354 -1.0662  0.4400 -2.3629
13379TIP3   OH240093   5.584   6.836   2.950 -0.0112 -0.1621 -0.3040
13379TIP3    H140094   5.569   6.749   2.912 -0.4801 -1.0257  1.6854
13379TIP3    H240095   5.497   6.876   2.953  0.0581 -0.0066 -0.3794
13380TIP3   OH240096   4.860   7.473   2.132  0.3504  0.6273 -0.1577
13380TIP3    H140097   4.875   7.537   2.202  0.8291  1.0110 -0.6002
13380TIP3    H240098   4.888   7.390   2.169  0.7682  0.8573  0.0507
13381TIP3   OH240099   8.047   1.695   0.080 -0.0071 -0.1245 -0.3062
13381TIP3    H140100   7.991   1.662   0.150  1.0298  0.8013  1.0074
13381TIP3    H240101   8.135   1.663   0.101  0.3412  0.2292 -1.1404
13382TIP3   OH240102   7.487   3.967   6.191  0.3729 -0.5132 -0.4643
13382TIP3    H140103   7.394   3.948   6.200 -0.0010  0.9234 -1.1408
13382TIP3    H240104   7.497   3.997   6.101  1.3265  0.2957 -0.1070
13383TIP3   OH240105   7.324   2.819   1.304  0.1638 -0.1412 -0.3545
13383TIP3    H140106   7.251   2.827   1.365 -0.3481 -0.2386 -0.9506
13383TIP3    H240107   7.380   2.752   1.343 -0.9630 -1.3828 -0.7717
13384TIP3   OH240108   0.565   6.311   3.239 -0.0106  0.3475  0.0993
13384TIP3    H140109   0.566   6.330   3.145  1.4468  0.7921  0.1640
13384TIP3    H240110   0.650   6.269   3.256 -1.0696 -1.5800  0.8867
13385TIP3   OH240111   0.979   0.426   3.588  0.3880  0.3084 -0.6751
13385TIP3    H140112   0.923   0.358   3.625 -1.0652  0.3567 -2.6256
13385TIP3    H240113   0.936   0.508   3.613 -0.1286  0.3634 -1.7176
13386TIP3   OH240114   6.802   5.427   5.393 -0.2395 -0.4051 -0.2828
13386TIP3    H140115   6.821   5.457   5.304  0.8647  0.7739  0.3205
13386TIP3    H240116   6.740   5.356   5.381  0.6131 -0.9134 -2.0589
13387TIP3   OH240117   5.347   5.502   4.916  0.0587  0.7040 -0.5024
13387TIP3    H140118   5.427   5.470   4.957  0.5709  0.5908 -1.5648
13387TIP3    H240119   5.351   5.597   4.924 -0.9559  0.6123  1.7194
13388TIP3   OH240120   3.199   4.431   0.905 -0.2104 -0.6101 -0.1494
13388TIP3    H140121   3.233   4.422   0.816  0.5370 -1.3264  0.2038
13388TIP3    H240122   3.105   4.444   0.893  0.1466  1.6726 -1.1568
13389TIP3   OH240123   1.341   3.531   3.076 -0.4273 -0.3792 -0.3648
13389TIP3    H140124   1.322   3.502   2.987  0.0479  0.9269 -0.9180
13389TIP3    H240125   1.270   3.591   3.097  0.0593  0.1812 -0.3013
13390TIP3   OH240126   7.898   0.823   6.692  0.6277 -0.2489  0.6446
13390TIP3    H140127   7.930   0.886   6.757 -0.7781  0.5908  0.5792
13390TIP3    H240128   7.974   0.803   6.638  1.3210  0.6860  1.2470
13391TIP3   OH240129   3.542   0.182   2.650 -0.0324 -0.2723 -0.3244
13391TIP3    H140130   3.559   0.254   2.589  1.2099  1.7700  2.2436
13391TIP3    H240131   3.447   0.180   2.658 -0.0940  1.6742  0.1042
13392TIP3   OH240132   5.245   2.358   2.963 -0.5131  0.7172 -0.3878
13392TIP3    H140133   5.327   2.350   2.915 -0.6085  1.5053 -0.7069
13392TIP3    H240134   5.240   2.451   2.986 -0.8524  0.4987  0.4663
13393TIP3   OH240135   1.412   5.848   0.044 -0.5957 -0.0184 -0.0746
13393TIP3    H140136   1.385   5.931   0.084 -0.8216  0.8855 -2.0118
13393TIP3    H240137   1.349   5.784   0.078 -0.8120  0.6989  0.9443
13394TIP3   OH240138   5.572   7.102   0.107  0.3004  0.1329 -0.2646
13394TIP3    H140139   5.547   7.193   0.124  0.1200  0.1333 -0.5273
13394TIP3    H240140   5.555   7.090   0.013  0.0427 -0.2609 -0.1671
13395TIP3   OH240141   7.676   2.924   5.555  0.2453 -0.4315  0.6476
13395TIP3    H140142   7.770   2.940   5.552  0.4411 -1.0486  2.4910
13395TIP3    H240143   7.666   2.832   5.531  0.1600 -0.5095  0.9847
13396TIP3   OH240144   6.023   2.265   1.982  0.3336  0.1347  0.0568
13396TIP3    H140145   6.101   2.251   1.928 -0.7801  0.1943 -1.6545
13396TIP3    H240146   6.022   2.359   1.998  0.4354  0.1848 -0.2168
13397TIP3   OH240147   0.016   2.844   0.971  0.1473 -0.6357 -0.7300
13397TIP3    H140148   0.087   2.877   0.915  0.1037 -0.6435 -0.7905
13397TIP3    H240149   0.053   2.766   1.013 -0.2295 -1.3675 -1.7165
13398TIP3   OH240150   4.230   1.711   1.369  0.2755  0.1036 -0.0009
13398TIP3    H140151   4.236   1.806   1.365 -0.0452  0.1034 -0.7596
13398TIP3    H240152   4.289   1.680   1.300  0.1537 -0.2296  0.0426
13399TIP3   OH240153   8.269   4.579   5.095  0.3608  0.6746 -0.1860
13399TIP3    H140154   8.325   4.541   5.163  0.4423 -1.8117 -1.5159
13399TIP3    H240155   8.211   4.507   5.070 -1.6900  2.4182 -0.6870
13400TIP3   OH240156   4.112   4.271   2.770 -0.2485 -0.1790 -0.6122
13400TIP3    H140157   4.114   4.312   2.856  0.8268  1.1709 -1.2392
13400TIP3    H240158   4.080   4.340   2.712 -0.9541 -1.0676 -1.3132
13401TIP3   OH240159   6.003   0.925   6.457 -0.0689 -0.4400 -0.1433
13401TIP3    H140160   5.916   0.903   6.424  0.0614 -0.6759 -0.3225
13401TIP3    H240161   5.991   0.931   6.552 -0.1426 -1.0871 -0.1100
13402TIP3   OH240162   4.370   4.926   0.390 -0.1738  0.5374  0.0662
13402TIP3    H140163   4.459   4.935   0.423 -0.0477  1.7051 -0.5785
13402TIP3    H240164   4.378   4.872   0.311 -0.1960 -0.3128  0.6292
13403TIP3   OH240165   0.619   6.780   5.526  0.2126 -0.5977 -0.9251
13403TIP3    H140166   0.681   6.852   5.519  1.4648 -1.2235  1.9888
13403TIP3    H240167   0.646   6.718   5.459  3.6311 -1.3634  0.9614
13404TIP3   OH240168   6.001   6.317   6.470 -0.3172 -0.2638  0.3234
13404TIP3    H140169   6.005   6.362   6.386  0.5596  0.3954  0.6912
13404TIP3    H240170   5.957   6.380   6.528  0.7509  0.0778  0.7982
13405TIP3   OH240171   0.865   5.867   5.988 -0.7457  0.3018  0.1687
13405TIP3    H140172   0.871   5.777   6.018  0.5417 -1.0401 -3.6496
13405TIP3    H240173   0.772   5.888   5.994 -1.1741 -1.5138  0.4177
13406TIP3   OH240174   2.888   0.831   4.120 -0.3419  0.1118 -0.0487
13406TIP3    H140175   2.969   0.881   4.117 -1.0266  1.2429 -1.3236
13406TIP3    H240176   2.835   0.868   4.048  0.3725 -4.6728 -3.5308
13407TIP3   OH240177   1.617   3.004   1.169  0.3164  0.5209 -0.2314
13407TIP3    H140178   1.656   2.917   1.170 -0.7225  0.0311  0.8973
13407TIP3    H240179   1.683   3.061   1.207  0.4665 -0.0435  0.3711
13408TIP3   OH240180   5.756   1.164   3.008 -0.0337  0.0340 -0.0482
13408TIP3    H140181   5.826   1.138   2.948 -0.3070 -0.6176 -0.0815
13408TIP3    H240182   5.803   1.197   3.086  0.3442  1.8202 -0.9647
13409TIP3   OH240183   3.461   3.039   6.546 -0.1291 -0.3252 -0.2532
13409TIP3    H140184   3.420   3.115   6.587  0.7965 -0.7997  1.6784
13409TIP3    H240185   3.460   2.972   6.614  1.2990 -1.2344 -1.0788
13410TIP3   OH240186   2.353   3.584   4.929 -0.0840 -0.3174 -0.4649
13410TIP3    H140187   2.375   3.551   5.017 -1.4906 -0.3766 -0.1121
13410TIP3    H240188   2.359   3.507   4.873 -1.6936 -0.8818  0.0647
13411TIP3   OH240189   4.467   3.659   5.115 -0.1230 -0.3278 -0.7085
13411TIP3    H140190   4.513   3.649   5.198 -0.5198  0.9769 -0.3016
13411TIP3    H240191   4.407   3.585   5.111 -0.9326  0.2045  0.7417
13412TIP3   OH240192   3.832   3.577   5.668 -0.5527  0.3859 -0.2884
13412TIP3    H140193   3.761   3.516   5.649 -0.0024 -0.6485  0.8909
13412TIP3    H240194   3.900   3.524   5.709  0.5388  1.5259 -0.5472
13413TIP3   OH240195   7.388   3.047   1.121 -0.5489 -0.5162  0.3839
13413TIP3    H140196   7.475   3.068   1.156 -0.1963  0.4699 -1.0007
13413TIP3    H240197   7.358   2.972   1.173  1.2111 -1.0067  0.7454
13414TIP3   OH240198   2.524   3.133   2.475  0.3974  0.0582 -0.0520
13414TIP3    H140199   2.536   3.200   2.408 -0.0011  2.0704  1.7561
13414TIP3    H240200   2.568   3.056   2.440  0.5151  1.1058 -2.4351
13415TIP3   OH240201   7.189   3.916   6.710 -0.0940 -0.1652 -0.8282
13415TIP3    H140202   7.109   3.926   6.659  0.2127  1.0135 -1.1260
13415TIP3    H240203   7.163   3.865   6.787 -0.9206 -0.5710 -1.3651
13416TIP3   OH240204   1.734   5.258   4.085  0.1972  0.1770 -0.1182
13416TIP3    H140205   1.653   5.239   4.039 -0.3342  2.4655 -0.2529
13416TIP3    H240206   1.710   5.255   4.178  0.3252 -0.5221 -0.0989
13417TIP3   OH240207   5.794   5.959   3.199  0.2636  0.0020  0.0536
13417TIP3    H140208   5.700   5.945   3.198  0.2848 -0.1326 -0.0735
13417TIP3    H240209   5.831   5.874   3.223  0.3528  0.0487  0.0828
13418TIP3   OH240210   3.490   4.629   6.421 -0.1077 -0.0950  0.2486
13418TIP3    H140211   3.486   4.533   6.417  0.2818 -0.0872 -0.4255
13418TIP3    H240212   3.557   4.653   6.357 -0.5231  0.6601  0.0864
13419TIP3   OH240213   2.854   1.937   0.351  0.4805 -0.7575  0.0449
13419TIP3    H140214   2.858   2.023   0.394 -0.0067 -0.2310 -0.9405
13419TIP3    H240215   2.925   1.887   0.392  1.8770  0.6753 -0.5354
13420TIP3   OH240216   1.075   4.985   2.272  0.4114 -0.1065  0.2474
13420TIP3    H140217   1.104   5.003   2.361  1.1107 -1.5143  0.3239
13420TIP3    H240218   1.112   4.899   2.251 -1.1705 -0.5770 -0.7820
13421TIP3   OH240219   0.386   6.300   2.778 -0.4783 -0.0587 -0.0102
13421TIP3    H140220   0.314   6.267   2.723  0.2361 -0.6559 -0.5992
13421TIP3    H240221   0.456   6.321   2.716  0.0345  0.0507  0.5991
13422TIP3   OH240222   4.087   0.335   1.577 -0.2701  0.3136  0.0158
13422TIP3    H140223   3.997   0.363   1.589  0.1315  0.8090  2.2224
13422TIP3    H240224   4.092   0.249   1.617  0.6295  1.0737  1.6228
13423TIP3   OH240225   4.651   4.146   3.774  0.0971 -0.1901  0.0947
13423TIP3    H140226   4.561   4.158   3.742 -0.0068 -0.1121  0.4124
13423TIP3    H240227   4.640   4.115   3.864  0.3829 -0.8179 -0.0811
13424TIP3   OH240228   3.869   1.763   2.003 -0.0518  0.0374 -0.4848
13424TIP3    H140229   3.924   1.831   1.965  2.0226  0.5709  3.0757
13424TIP3    H240230   3.817   1.808   2.069  0.7058 -1.6054  1.3293
13425TIP3   OH240231   3.627   2.568   4.081  0.3038 -0.1672 -0.3965
13425TIP3    H140232   3.582   2.545   3.999  1.4188 -0.6889 -0.8835
13425TIP3    H240233   3.563   2.621   4.129 -0.9043 -1.0616 -0.9635
13426TIP3   OH240234   7.537   3.450   4.430 -0.0294  0.2478  0.7704
13426TIP3    H140235   7.491   3.442   4.347 -1.0084  1.8769  1.1091
13426TIP3    H240236   7.629   3.463   4.407 -0.2388  0.3030 -0.0332
13427TIP3   OH240237   7.236   7.743   5.814 -0.3424 -0.0768 -0.0070
13427TIP3    H140238   7.242   7.790   5.730 -1.2298 -0.7984 -0.4893
13427TIP3    H240239   7.248   7.651   5.791 -1.9699 -0.4362  0.4405
13428TIP3   OH240240   1.154   1.166   1.914  0.0415  0.1510  0.1842
13428TIP3    H140241   1.192   1.248   1.882  0.7521  0.4539  1.6723
13428TIP3    H240242   1.180   1.163   2.006 -0.7389 -1.3176  0.3835
13429TIP3   OH240243   5.212   4.220   5.367  0.1503 -0.1501 -0.3883
13429TIP3    H140244   5.243   4.186   5.283  0.4124 -0.5456 -0.1341
13429TIP3    H240245   5.232   4.151   5.430  0.0640  0.1943  0.0226
13430TIP3   OH240246   7.007   7.683   2.570  0.2892  0.5633  0.2181
13430TIP3    H140247   6.949   7.747   2.528  1.0738  1.6206  0.7049
13430TIP3    H240248   6.987   7.691   2.663 -1.6074 -1.9219  0.1622
13431TIP3   OH240249   1.538   7.710   4.543  0.2322 -0.0250 -0.6721
13431TIP3    H140250   1.584   7.778   4.492 -0.4500  0.3183 -0.8505
13431TIP3    H240251   1.606   7.648   4.568  1.2716  1.7865  1.2759
13432TIP3   OH240252   2.417   0.110   2.427  0.7137 -0.6676 -0.1796
13432TIP3    H140253   2.424   0.122   2.522  0.8122 -0.7443 -0.1767
13432TIP3    H240254   2.499   0.066   2.403  0.2591 -1.5305 -0.1569
13433TIP3   OH240255   2.860   7.754   2.371 -0.3929  0.7555  0.0191
13433TIP3    H140256   2.949   7.789   2.365  0.4719 -1.1505  0.7803
13433TIP3    H240257   2.844   7.746   2.465  0.1417 -2.3468 -0.0587
13434TIP3   OH240258   8.107   3.665   5.680 -0.9015 -0.1920  0.4584
13434TIP3    H140259   8.156   3.642   5.601 -0.3216 -1.6073  1.2009
13434TIP3    H240260   8.157   3.738   5.718 -1.2127  0.5288 -0.4899
13435TIP3   OH240261   4.628   6.737   5.868  0.4201  0.2472 -0.8398
13435TIP3    H140262   4.550   6.742   5.923  0.1729 -0.6011 -1.1029
13435TIP3    H240263   4.637   6.644   5.847  2.5514  0.0506  0.6761
13436TIP3   OH240264   5.234   0.018   2.413  0.2377  0.0427 -0.4678
13436TIP3    H140265   5.183   0.082   2.363  0.6000  0.7767  0.0681
13436TIP3    H240266   5.195  -0.067   2.391 -0.8629  0.5283 -0.4876
13437TIP3   OH240267   0.076   5.232   2.357  0.3034  0.7543 -0.0244
13437TIP3    H140268   0.064   5.306   2.298  0.5702  0.4940 -0.4040
13437TIP3    H240269   0.001   5.236   2.416  0.7194  1.7964  0.4601
13438TIP3   OH240270   6.740   4.661   1.674  0.9445 -0.1210  0.2585
13438TIP3    H140271   6.754   4.649   1.580 -4.1885  0.9200 -0.9676
13438TIP3    H240272   6.733   4.572   1.709  0.4238 -0.5436 -0.8842
13439TIP3   OH240273   1.073   3.597   4.995 -0.0087 -0.6880  0.1490
13439TIP3    H140274   1.145   3.566   4.939  3.1556  2.0316  2.3072
13439TIP3    H240275   1.117   3.634   5.072 -3.6066  3.0050  0.7608
13440TIP3   OH240276   0.473   4.871   2.925  0.1237  0.0245  0.2327
13440TIP3    H140277   0.566   4.850   2.930 -0.0759 -0.6213  2.0571
13440TIP3    H240278   0.444   4.835   2.842  1.5668  0.5870 -0.5532
13441TIP3   OH240279   7.672   3.260   4.614 -0.2213 -0.7692  0.0520
13441TIP3    H140280   7.718   3.340   4.639  2.8152 -2.0985 -0.8320
13441TIP3    H240281   7.623   3.284   4.535  0.7655  0.2105 -0.2878
13442TIP3   OH240282   0.543   4.386   6.300 -0.4224  1.1384  0.4663
13442TIP3    H140283   0.578   4.307   6.259 -1.2655  0.3380  1.2348
13442TIP3    H240284   0.549   4.453   6.232  0.3249  0.4306 -0.1979
13443TIP3   OH240285   0.309   1.187   4.220 -0.2531 -0.5686 -0.0470
13443TIP3    H140286   0.390   1.143   4.196  0.7358  1.5775 -0.9737
13443TIP3    H240287   0.317   1.204   4.313  2.5809  3.4738 -0.7727
13444TIP3   OH240288   1.421   7.654   6.133  0.4399 -0.5488 -0.0209
13444TIP3    H140289   1.503   7.624   6.094 -0.4430 -0.0793 -2.3820
13444TIP3    H240290   1.374   7.696   6.061 -1.8224 -0.6530  1.3029
13445TIP3   OH240291   3.900   5.922   6.697 -0.0100 -0.4403  0.0393
13445TIP3    H140292   3.941   5.837   6.683  2.9042  1.1177 -2.0017
13445TIP3    H240293   3.972   5.985   6.690 -1.8666  2.1996  2.3899
13446TIP3   OH240294   4.583   6.241   4.112 -0.1740  0.4538 -0.1230
13446TIP3    H140295   4.646   6.208   4.048 -0.4882 -1.4651  0.4828
13446TIP3    H240296   4.634   6.299   4.169  0.0493  2.4193 -2.1919
13447TIP3   OH240297   6.297   3.811   1.091 -0.4958  0.1853 -0.3106
13447TIP3    H140298   6.319   3.759   1.169 -0.2257 -0.2300 -0.6638
13447TIP3    H240299   6.268   3.746   1.027 -2.1246  0.6480 -0.0874
13448TIP3   OH240300   0.285   4.528   5.389 -0.2202  0.0068  0.0318
13448TIP3    H140301   0.264   4.606   5.337  1.0907 -0.4742 -1.3089
13448TIP3    H240302   0.381   4.523   5.386 -0.3213 -2.2871 -0.9157
13449TIP3   OH240303   5.044   7.353   1.633  0.1983  0.2788 -0.3216
13449TIP3    H140304   4.988   7.378   1.559 -1.0706 -1.0406  0.1495
13449TIP3    H240305   5.083   7.435   1.662 -1.5946  1.2882 -0.6138
13450TIP3   OH240306   6.287   2.745   4.478  0.1038  0.4258  0.0659
13450TIP3    H140307   6.297   2.833   4.512 -0.5811  0.2862  0.6611
13450TIP3    H240308   6.290   2.755   4.383 -0.5981  1.1749  0.1170
13451TIP3   OH240309   7.743   4.543   4.319 -0.2362  0.2224 -0.6286
13451TIP3    H140310   7.685   4.615   4.298 -0.9222 -0.4282 -1.0245
13451TIP3    H240311   7.766   4.504   4.235  0.1027 -0.0420 -0.4193
13452TIP3   OH240312   1.251   5.876   4.718 -0.1355  0.6044  0.1581
13452TIP3    H140313   1.173   5.832   4.753  0.3963  0.0502  0.6727
13452TIP3    H240314   1.319   5.809   4.719 -0.1616  0.4645 -2.2655
13453TIP3   OH240315   2.661   0.042   4.995  0.4847  0.4158  0.4051
13453TIP3    H140316   2.613  -0.029   4.952  2.3242 -1.5391  1.4097
13453TIP3    H240317   2.653   0.116   4.935 -1.6928 -0.5317 -0.5863
13454TIP3   OH240318   0.207   2.798   4.027  0.3109  0.5434 -0.1238
13454TIP3    H140319   0.116   2.801   4.059 -0.0235  1.0356 -1.0938
13454TIP3    H240320   0.215   2.711   3.987 -0.6240  1.4877 -2.5150
13455TIP3   OH240321   7.202   4.837   5.594  0.0365 -0.3609 -0.6585
13455TIP3    H140322   7.245   4.853   5.678  0.0094  1.2493 -0.9282
13455TIP3    H240323   7.111   4.864   5.608 -0.0552 -0.4410 -1.0990
13456TIP3   OH240324   0.536   1.091   0.305  0.3177 -0.0835  0.0826
13456TIP3    H140325   0.570   1.085   0.394  0.1926 -1.7547  0.0562
13456TIP3    H240326   0.590   1.029   0.255 -0.7435 -0.4725 -0.6105
13457TIP3   OH240327   5.770   7.168   2.937  0.3622  0.1896  0.2173
13457TIP3    H140328   5.747   7.201   2.850  0.5521 -1.2834 -0.4112
13457TIP3    H240329   5.691   7.182   2.989 -0.0725  0.2419 -0.4413
13458TIP3   OH240330   7.291   0.924   0.832 -0.0242 -0.1964  0.2284
13458TIP3    H140331   7.326   0.842   0.797 -1.1758 -0.6977  0.2211
13458TIP3    H240332   7.238   0.897   0.907 -1.4953  0.4084 -0.5697
13459TIP3   OH240333   2.526   1.003   5.152 -0.4178 -0.3646 -0.0430
13459TIP3    H140334   2.472   1.075   5.120 -0.8735 -0.5622  0.2832
13459TIP3    H240335   2.479   0.924   5.127  0.7666 -0.6198 -1.6723
13460TIP3   OH240336   5.352   0.400   3.555 -0.2866  0.1051  0.0928
13460TIP3    H140337   5.346   0.438   3.468  1.9727 -1.4046 -0.8108
13460TIP3    H240338   5.266   0.362   3.571 -0.4553 -0.4853 -1.9462
13461TIP3   OH240339   7.619   0.053   2.349  0.3966  0.1165 -0.1321
13461TIP3    H140340   7.536   0.096   2.367  1.3304  1.9894 -0.0298
13461TIP3    H240341   7.616   0.035   2.255 -0.3077 -0.2623 -0.0425
13462TIP3   OH240342   6.218   4.335   1.951 -0.0997 -0.0895  0.6067
13462TIP3    H140343   6.126   4.355   1.932  0.4571  1.3042 -0.8168
13462TIP3    H240344   6.229   4.359   2.043 -0.4656  2.5969  0.0245
13463TIP3   OH240345   4.790   1.738   6.263  0.0363 -0.2677 -0.1764
13463TIP3    H140346   4.853   1.738   6.192  0.1832 -1.5743 -0.0691
13463TIP3    H240347   4.718   1.683   6.231 -0.7091  0.5968 -0.0096
13464TIP3   OH240348   3.618   7.256   0.834  0.2038  0.4061  0.7635
13464TIP3    H140349   3.533   7.297   0.849  0.8182  1.4106  1.7140
13464TIP3    H240350   3.665   7.318   0.777  0.6437  0.3535  1.0599
13465TIP3   OH240351   1.414   0.120   5.024  0.2358  0.5229 -0.2018
13465TIP3    H140352   1.432   0.194   5.082  1.6565 -0.1117  0.2045
13465TIP3    H240353   1.319   0.109   5.028  0.0496  2.0530  0.0514
13466TIP3   OH240354   3.590   7.115   4.804  0.1074 -0.0318 -0.4612
13466TIP3    H140355   3.512   7.165   4.826  0.4384 -0.1403  1.0746
13466TIP3    H240356   3.598   7.124   4.709 -1.2507  0.7235 -0.5352
13467TIP3   OH240357   3.237   1.276   2.590  0.1281  0.3560  0.2767
13467TIP3    H140358   3.230   1.348   2.652 -0.1306  0.2228  0.4034
13467TIP3    H240359   3.248   1.198   2.646  0.5333  0.3113  0.1404
13468TIP3   OH240360   4.162   6.598   1.044 -0.1872  0.1537 -0.3781
13468TIP3    H140361   4.186   6.513   1.081 -1.2665 -0.2211 -0.5004
13468TIP3    H240362   4.246   6.640   1.026  0.3731 -0.3236  0.9476
13469TIP3   OH240363   2.095   5.284   3.245  0.0677 -0.7999  0.1885
13469TIP3    H140364   2.087   5.358   3.185 -0.2959  0.1671  1.3955
13469TIP3    H240365   2.044   5.309   3.321  0.2595 -2.1387  0.7872
13470TIP3   OH240366   4.715   6.294   6.305 -0.8253  0.0525 -0.1491
13470TIP3    H140367   4.702   6.388   6.314  0.6896  0.2477  0.3959
13470TIP3    H240368   4.715   6.260   6.394  0.4016 -0.1659 -0.2082
13471TIP3   OH240369   0.222   4.643   5.809 -0.3303 -0.4811  0.4902
13471TIP3    H140370   0.191   4.567   5.760 -1.1078 -0.4279  0.8866
13471TIP3    H240371   0.297   4.675   5.759  1.0148 -2.4427  1.1304
13472TIP3   OH240372   7.745   7.042   2.673  1.0290 -0.6637 -0.0628
13472TIP3    H140373   7.737   7.103   2.746 -0.0929 -0.7627 -0.0819
13472TIP3    H240374   7.836   7.051   2.643  0.8979  0.9769 -0.0535
13473TIP3   OH240375   6.437   5.562   5.244  0.3960 -0.2414 -0.3281
13473TIP3    H140376   6.388   5.483   5.268  1.0470 -1.4617 -2.7387
13473TIP3    H240377   6.514   5.529   5.198  1.8775  1.7616  0.6086
13474TIP3   OH240378   3.470   7.553   3.874  0.1660 -0.1101 -0.0740
13474TIP3    H140379   3.522   7.550   3.793 -0.1238 -3.9779 -0.3146
13474TIP3    H240380   3.535   7.569   3.943  0.9311 -0.0500 -0.7866
13475TIP3   OH240381   2.948   1.016   6.372 -0.3149  0.1522 -0.4337
13475TIP3    H140382   3.037   0.999   6.342 -0.7208 -0.0034 -1.6209
13475TIP3    H240383   2.925   1.100   6.333 -0.9508 -0.1827 -0.8123
13476TIP3   OH240384   3.126   1.471   5.782 -0.1487 -0.1568  0.4526
13476TIP3    H140385   3.077   1.390   5.792  0.8680 -0.9007 -0.3716
13476TIP3    H240386   3.180   1.475   5.861 -2.5305  1.4587  2.1482
13477TIP3   OH240387   1.487   5.706   2.951  0.4504  0.5200  0.3830
13477TIP3    H140388   1.408   5.754   2.929  0.9681  0.8027 -0.9230
13477TIP3    H240389   1.524   5.679   2.867  1.6847  0.3112  0.9684
13478TIP3   OH240390   1.977   5.057   2.035 -0.2817 -0.7024  0.2737
13478TIP3    H140391   2.020   5.028   1.955 -1.6178 -0.7126 -0.4745
13478TIP3    H240392   1.918   5.128   2.006 -0.4229 -0.3707  1.3233
13479TIP3   OH240393   1.118   1.133   5.403  0.1454  0.2570  0.0370
13479TIP3    H140394   1.174   1.056   5.413 -2.5933 -1.9279 -0.1226
13479TIP3    H240395   1.083   1.125   5.314 -0.4811  1.4710  0.1608
13480TIP3   OH240396   0.379   3.828   3.287  0.3369  0.0948 -0.2236
13480TIP3    H140397   0.357   3.780   3.367  1.4319 -1.2993 -0.7236
13480TIP3    H240398   0.439   3.897   3.317  2.4799 -1.7234 -0.0461
13481TIP3   OH240399   8.258   3.335   2.469 -0.2015  0.1140  0.6978
13481TIP3    H140400   8.309   3.284   2.532 -1.6262 -0.5374  1.3760
13481TIP3    H240401   8.310   3.414   2.454  1.6209 -1.0974  0.3223
13482TIP3   OH240402   3.568   7.273   2.160 -0.0649 -0.0564  0.9643
13482TIP3    H140403   3.545   7.366   2.150  4.7742  1.3475 -0.0924
13482TIP3    H240404   3.608   7.250   2.076 -1.1923 -3.2264  1.1752
13483TIP3   OH240405   6.398   1.082   3.030 -0.1592  0.4272  0.6692
13483TIP3    H140406   6.446   1.075   3.112  0.0993  0.4546  0.5213
13483TIP3    H240407   6.424   1.166   2.994  0.8873 -0.2209 -0.1590
13484TIP3   OH240408   0.114   5.574   5.480  0.4315  0.1236 -0.3281
13484TIP3    H140409   0.149   5.658   5.508  0.6446 -0.3781  0.9989
13484TIP3    H240410   0.027   5.569   5.521 -0.0293  0.1345 -1.2664
13485TIP3   OH240411   6.310   0.133   5.227  0.0074  0.1300 -0.4668
13485TIP3    H140412   6.356   0.181   5.295  0.8369 -2.0061  0.5971
13485TIP3    H240413   6.228   0.105   5.269  0.4384 -1.0406 -0.3646
13486TIP3   OH240414   1.949   4.576   5.568 -0.1826 -0.0960 -0.0854
13486TIP3    H140415   1.991   4.661   5.559  0.7448 -0.5632 -0.2393
13486TIP3    H240416   1.869   4.583   5.515 -2.3098  2.0243  3.0466
13487TIP3   OH240417   4.225   4.938   2.549  0.5425 -0.1146  0.3531
13487TIP3    H140418   4.275   4.878   2.493  0.7123 -1.7233  2.1291
13487TIP3    H240419   4.214   5.017   2.495  0.5791 -1.5892 -1.9667
13488TIP3   OH240420   2.320   7.832   1.059  0.0437 -0.0596 -0.7720
13488TIP3    H140421   2.253   7.843   1.127  1.1951  0.8002  0.2530
13488TIP3    H240422   2.310   7.741   1.030  0.3053 -0.8206  1.3889
13489TIP3   OH240423   4.062   4.361   0.333 -0.4418 -0.4568 -0.1738
13489TIP3    H140424   4.077   4.282   0.281 -0.8380 -0.3225 -0.4955
13489TIP3    H240425   4.150   4.395   0.349 -0.3231 -0.2617 -1.1389
13490TIP3   OH240426   2.756   6.579   3.271  0.1108  0.4227 -0.0203
13490TIP3    H140427   2.706   6.646   3.317 -1.7643 -0.9781  0.0861
13490TIP3    H240428   2.785   6.621   3.190 -0.8187  1.4386  0.1585
13491TIP3   OH240429   0.070   2.726   3.173 -0.3174  0.3168 -0.0561
13491TIP3    H140430   0.038   2.688   3.091 -0.7940  0.4911  0.0491
13491TIP3    H240431   0.164   2.706   3.173 -0.2013  0.8227 -0.9173
13492TIP3   OH240432   4.423   3.037   4.198 -0.2586 -0.5211  0.0211
13492TIP3    H140433   4.509   3.072   4.222  0.6620 -1.7610 -1.3362
13492TIP3    H240434   4.385   3.105   4.142  0.2717 -0.4079 -0.2092
13493TIP3   OH240435   5.700   4.768   2.492 -0.2471 -0.2787  0.6757
13493TIP3    H140436   5.629   4.825   2.462  1.2476  1.3670  0.1142
13493TIP3    H240437   5.658   4.709   2.554 -2.2298  0.2090 -0.1175
13494TIP3   OH240438   1.733   4.625   4.300  0.1299 -0.3069 -0.1628
13494TIP3    H140439   1.732   4.578   4.217 -0.0517  1.2323 -1.0725
13494TIP3    H240440   1.796   4.696   4.287 -0.0712  0.1041  0.9416
13495TIP3   OH240441   0.171   1.343   0.340  0.1773 -0.3497  0.3687
13495TIP3    H140442   0.162   1.430   0.378  0.2856 -0.3496  0.3958
13495TIP3    H240443   0.161   1.283   0.414 -0.9720 -0.4036  0.1766
13496TIP3   OH240444   0.722   2.343   4.402  0.1440 -0.5114 -0.2188
13496TIP3    H140445   0.758   2.255   4.393 -1.5642 -1.1418 -1.4079
13496TIP3    H240446   0.630   2.334   4.378 -0.1182  1.5774 -0.1856
13497TIP3   OH240447   4.975   6.869   0.434  0.5357  0.0324  0.1016
13497TIP3    H140448   5.065   6.889   0.408  0.3919  0.3323 -0.1698
13497TIP3    H240449   4.951   6.939   0.496  0.7972 -0.5499  0.8773
13498TIP3   OH240450   6.922   3.782   4.100  0.4268 -0.5045  0.1196
13498TIP3    H140451   6.926   3.877   4.103 -2.3222 -0.1456 -2.6611
13498TIP3    H240452   6.993   3.756   4.042 -1.1165  0.3094 -2.2783
13499TIP3   OH240453   2.538   7.591   1.045 -1.0968  0.2002  0.3743
13499TIP3    H140454   2.515   7.557   1.132 -2.4606 -0.6155 -0.2770
13499TIP3    H240455   2.454   7.607   1.003 -0.4501 -0.0303 -1.0519
13500TIP3   OH240456   6.492   5.803   3.398  0.2829 -0.1431  0.3866
13500TIP3    H140457   6.534   5.870   3.452 -0.2509 -1.1249  2.1106
13500TIP3    H240458   6.465   5.736   3.461  0.5541 -1.8472 -1.2448
13501TIP3   OH240459   1.667   2.500   5.206  0.3823  0.3192 -0.4351
13501TIP3    H140460   1.753   2.493   5.165 -0.0257 -3.2567 -1.0116
13501TIP3    H240461   1.627   2.414   5.194 -2.0927  0.8739  2.4886
13502TIP3   OH240462   4.044   0.980   3.494  0.1395 -0.1187  0.0391
13502TIP3    H140463   4.085   0.894   3.482 -1.7413 -1.4335  2.2549
13502TIP3    H240464   4.115   1.035   3.527  1.9564 -0.0556 -3.5057
13503TIP3   OH240465   4.627   2.998   3.969 -0.4044  0.4006  0.0358
13503TIP3    H140466   4.632   3.084   3.928 -1.3418  0.3947 -0.1155
13503TIP3    H240467   4.694   3.000   4.037 -0.5397  1.3136  0.1530
13504TIP3   OH240468   3.580   7.765   5.425  0.5625  0.0138 -0.0638
13504TIP3    H140469   3.583   7.805   5.339  0.9665  1.3431  0.5471
13504TIP3    H240470   3.503   7.708   5.422 -0.0012  0.7985 -0.9709
13505TIP3   OH240471   3.795   2.410   2.617  0.4066 -0.3243 -0.6052
13505TIP3    H140472   3.829   2.333   2.573  0.2288 -0.0875 -1.1621
13505TIP3    H240473   3.716   2.434   2.568 -0.4379 -0.7137  0.5128
13506TIP3   OH240474   7.445   1.721   5.250 -0.6895  0.1789 -0.0797
13506TIP3    H140475   7.540   1.709   5.256 -0.6775  0.7340  1.1517
13506TIP3    H240476   7.409   1.633   5.258 -0.2756 -0.1408 -1.3633
13507TIP3   OH240477   5.134   3.408   2.803  0.3381 -0.6145  0.0187
13507TIP3    H140478   5.151   3.451   2.719 -0.4382 -0.4469 -0.0579
13507TIP3    H240479   5.045   3.434   2.826  0.3700 -1.0492  0.6634
13508TIP3   OH240480   4.017   5.700   3.007 -0.2923  0.3632  0.2529
13508TIP3    H140481   3.968   5.623   2.978 -0.6906  1.0134 -0.8706
13508TIP3    H240482   3.974   5.727   3.088 -0.4159 -0.3446  0.4288
13509TIP3   OH240483   3.080   1.701   2.072  0.3264  0.1367  0.1800
13509TIP3    H140484   3.037   1.786   2.061 -1.4485 -0.6092  0.9260
13509TIP3    H240485   3.113   1.679   1.985 -0.8100  0.7804 -0.4355
13510TIP3   OH240486   3.422   7.604   0.290 -0.3205 -0.9133  0.4133
13510TIP3    H140487   3.467   7.552   0.224  1.0062  1.3031 -0.5193
13510TIP3    H240488   3.380   7.675   0.242 -1.2238 -0.4989  1.7340
13511TIP3   OH240489   7.528   7.385   1.330  0.3860  0.6857 -0.3062
13511TIP3    H140490   7.569   7.299   1.317 -1.3989 -0.3501  0.4834
13511TIP3    H240491   7.584   7.428   1.394  0.5226 -0.5035  0.4171
13512TIP3   OH240492   3.907   7.585   2.884 -0.1858 -0.3065 -0.1470
13512TIP3    H140493   3.985   7.548   2.844 -0.1915 -0.0432 -0.4021
13512TIP3    H240494   3.876   7.517   2.944  1.3759  0.3357  1.4902
13513TIP3   OH240495   5.536   6.096   6.272  0.4138 -0.5251 -0.4077
13513TIP3    H140496   5.526   6.141   6.356  0.1680  1.5287 -1.4551
13513TIP3    H240497   5.480   6.145   6.212  0.9201 -1.6524 -1.8673
13514TIP3   OH240498   4.203   1.089   1.424  0.1591  0.5064 -0.6366
13514TIP3    H140499   4.183   1.143   1.500 -0.9248  0.7103 -1.0487
13514TIP3    H240500   4.154   1.008   1.437  0.6232  0.2049 -0.7258
13515TIP3   OH240501   5.726   4.508   5.452  0.5765 -0.4749 -0.5521
13515TIP3    H140502   5.753   4.449   5.522  0.3918 -0.3467 -0.3743
13515TIP3    H240503   5.725   4.595   5.491 -1.2102 -0.6034 -0.2209
13516TIP3   OH240504   2.642   7.534   4.589  0.2772  0.8527 -0.0639
13516TIP3    H140505   2.574   7.469   4.607  1.5172 -0.3866  0.3043
13516TIP3    H240506   2.601   7.596   4.529 -0.8987 -0.3294 -0.5224
13517TIP3   OH240507   2.533   3.964   4.750  0.2870 -0.5199 -0.3398
13517TIP3    H140508   2.562   3.873   4.754  1.6442 -0.1825 -1.5267
13517TIP3    H240509   2.495   3.981   4.836 -0.4119 -2.3290 -0.2391
13518TIP3   OH240510   7.172   0.119   6.752  0.6049  0.1852 -0.8241
13518TIP3    H140511   7.265   0.097   6.747  0.3159 -1.8828  1.1551
13518TIP3    H240512   7.127   0.037   6.736 -0.8530  0.8923 -0.5434
13519TIP3   OH240513   4.230   0.964   5.868 -0.5978  0.4108 -0.1814
13519TIP3    H140514   4.319   0.998   5.878 -0.7254  0.9042 -0.7080
13519TIP3    H240515   4.173   1.034   5.898 -0.8392  0.4220 -0.6509
13520TIP3   OH240516   5.086   1.465   3.908 -0.1912 -0.1692  0.1496
13520TIP3    H140517   5.143   1.540   3.927  0.4405 -1.0105  1.7628
13520TIP3    H240518   5.026   1.460   3.982 -1.1970 -0.3967 -0.6543
13521TIP3   OH240519   8.245   2.653   1.876 -0.0881  1.1928  0.1711
13521TIP3    H140520   8.213   2.680   1.962 -1.0202 -1.5119  0.7607
13521TIP3    H240521   8.221   2.725   1.818  0.0662  2.8431  2.0354
13522TIP3   OH240522   7.734   5.880   4.224 -0.1191 -0.4357  0.2495
13522TIP3    H140523   7.702   5.804   4.175 -0.5916 -0.0983  0.0171
13522TIP3    H240524   7.691   5.955   4.181  1.0511  0.0416 -0.1145
13523TIP3   OH240525   6.548   0.596   2.035  0.0673  0.2177  0.2774
13523TIP3    H140526   6.468   0.591   1.983  1.4594 -0.3902 -1.9803
13523TIP3    H240527   6.607   0.532   1.993  1.8572  0.9338  1.5972
13524TIP3   OH240528   2.956   0.930   0.161 -0.6097 -0.0975 -0.0771
13524TIP3    H140529   2.985   0.844   0.191 -0.1655 -0.5899 -1.7711
13524TIP3    H240530   2.867   0.915   0.129 -1.2939  0.5386  1.4556
13525TIP3   OH240531   6.494   5.025   0.814  0.4701  0.3325  0.7102
13525TIP3    H140532   6.447   5.027   0.731  2.2378  0.3815 -0.3367
13525TIP3    H240533   6.428   5.047   0.880 -0.4954  2.5780 -0.8952
13526TIP3   OH240534   3.477   7.787   1.641 -0.1585 -0.1316  0.3559
13526TIP3    H140535   3.445   7.761   1.727  1.9137 -0.7769  0.9919
13526TIP3    H240536   3.470   7.707   1.588  0.4872 -0.3202  0.5428
13527TIP3   OH240537   3.023   4.790   0.200 -0.0495 -0.7563 -0.0256
13527TIP3    H140538   3.117   4.786   0.183 -0.1304 -0.2342 -0.6499
13527TIP3    H240539   2.986   4.829   0.121 -0.7887 -0.9189  0.2299
13528TIP3   OH240540   7.556   1.707   4.674  0.4852  0.1418  0.2911
13528TIP3    H140541   7.522   1.669   4.756  0.8186 -0.7848  0.0128
13528TIP3    H240542   7.487   1.692   4.610  1.0682 -1.0735 -0.0955
13529TIP3   OH240543   7.805   4.390   3.283 -0.0428 -0.3503  0.5101
13529TIP3    H140544   7.787   4.341   3.203 -1.3919 -0.4875  0.8844
13529TIP3    H240545   7.871   4.455   3.257 -0.3714 -0.4746 -0.6764
13530TIP3   OH240546   6.151   6.203   2.802  0.2359  0.0034 -0.0020
13530TIP3    H140547   6.090   6.264   2.845  0.7230  0.4494  0.0703
13530TIP3    H240548   6.114   6.190   2.715 -0.3113 -0.2444  0.2574
13531TIP3   OH240549   7.116   5.241   3.416 -0.0236 -0.2696 -0.4355
13531TIP3    H140550   7.077   5.307   3.358  0.3048 -0.1752 -0.5532
13531TIP3    H240551   7.048   5.223   3.481  0.1481  0.7469  0.0550
13532TIP3   OH240552   2.628   2.721   2.640 -0.1703 -0.2604  0.1220
13532TIP3    H140553   2.575   2.760   2.709 -0.3261 -2.2067  1.1881
13532TIP3    H240554   2.634   2.628   2.664  2.5430 -0.3985 -0.6849
13533TIP3   OH240555   1.705   5.036   6.791 -0.4563  0.1241 -0.0153
13533TIP3    H140556   1.627   5.092   6.786 -0.4638  0.0317 -1.3494
13533TIP3    H240557   1.692   4.971   6.722  1.1954  0.6346 -0.8632
13534TIP3   OH240558   2.631   6.609   0.195  0.1826 -0.6846 -0.6888
13534TIP3    H140559   2.684   6.537   0.158  0.0981 -1.6959  1.0474
13534TIP3    H240560   2.640   6.599   0.290 -1.6830  0.2263 -0.3765
13535TIP3   OH240561   2.553   2.708   3.943 -0.4729 -0.6185  0.4673
13535TIP3    H140562   2.607   2.710   4.022 -2.1154 -1.1321  1.6464
13535TIP3    H240563   2.479   2.652   3.965 -1.8497  0.5803 -0.8501
13536TIP3   OH240564   1.745   7.193   0.399 -0.0743 -0.0027  0.0657
13536TIP3    H140565   1.693   7.262   0.358 -0.5286 -0.3766 -0.0058
13536TIP3    H240566   1.724   7.199   0.492  0.3737  0.3600  0.1445
13537TIP3   OH240567   0.746   4.016   0.792 -0.4233 -0.0891 -0.2821
13537TIP3    H140568   0.736   4.013   0.697 -1.2750  0.1812 -0.2150
13537TIP3    H240569   0.839   3.998   0.807 -0.2426  0.0300 -1.1700
13538TIP3   OH240570   7.920   4.523   6.107 -0.0746 -0.3589  0.2422
13538TIP3    H140571   7.880   4.509   6.193  0.0893  2.2244  0.8223
13538TIP3    H240572   7.874   4.599   6.071  0.9977 -0.3646 -1.2089
13539TIP3   OH240573   8.197   6.729   1.303  0.4085  0.7940 -0.7726
13539TIP3    H140574   8.280   6.766   1.272  1.3941  0.1978  1.0064
13539TIP3    H240575   8.166   6.790   1.369 -0.7568  1.1609 -1.6265
13540TIP3   OH240576   5.919   2.600   4.304  0.6097 -0.5246 -0.4308
13540TIP3    H140577   6.013   2.613   4.294  0.5852 -1.7109 -3.2904
13540TIP3    H240578   5.906   2.507   4.285 -1.2450 -0.0783 -1.6547
13541TIP3   OH240579   3.579   6.439   1.272 -0.6191  0.0050  0.4992
13541TIP3    H140580   3.654   6.390   1.306 -0.5788 -0.2796  0.0216
13541TIP3    H240581   3.508   6.375   1.271 -0.5523 -0.0669 -0.1760
13542TIP3   OH240582   4.895   5.818   1.118  0.4416 -0.3791 -0.2763
13542TIP3    H140583   4.816   5.870   1.133  0.7319  0.3378 -1.1427
13542TIP3    H240584   4.863   5.731   1.097 -0.1481 -0.0191 -0.9161
13543TIP3   OH240585   2.932   1.886   6.179 -0.1443 -0.1594  0.3055
13543TIP3    H140586   2.873   1.814   6.204 -0.7354  0.3802  0.4849
13543TIP3    H240587   2.966   1.861   6.094  1.5011 -1.7999  1.3575
13544TIP3   OH240588   5.784   4.207   4.224 -0.6935  0.4583 -0.1443
13544TIP3    H140589   5.834   4.129   4.247 -1.7897 -0.0797  0.4888
13544TIP3    H240590   5.764   4.248   4.308  0.3049  1.7317 -0.4882
13545TIP3   OH240591   1.925   7.696   6.320 -0.5329  0.0157 -0.1767
13545TIP3    H140592   1.940   7.604   6.301  1.0673  0.0363  0.8245
13545TIP3    H240593   1.992   7.742   6.270 -1.1134  0.6380 -0.4053
13546TIP3   OH240594   6.739   4.246   5.965  0.1850  0.0197 -0.7092
13546TIP3    H140595   6.812   4.195   6.000  0.3316 -2.1995 -3.8695
13546TIP3    H240596   6.663   4.217   6.014  0.6471 -1.5354 -0.8700
13547TIP3   OH240597   3.993   4.347   6.311 -0.1490 -0.4803 -0.1218
13547TIP3    H140598   3.917   4.345   6.252  0.0537 -0.1317 -0.4054
13547TIP3    H240599   4.045   4.270   6.287  0.5821  0.3391 -1.3043
13548TIP3   OH240600   0.444   7.588   0.922  0.0939  0.2470  0.1366
13548TIP3    H140601   0.379   7.607   0.989 -2.0916 -4.1758 -0.3519
13548TIP3    H240602   0.414   7.637   0.845 -1.7152 -0.3618  0.4144
13549TIP3   OH240603   1.765   7.854   0.248 -0.1127  0.6840 -0.1999
13549TIP3    H140604   1.823   7.804   0.191 -0.4646 -0.0129  0.0424
13549TIP3    H240605   1.681   7.806   0.245  0.2153 -0.1103  1.8754
13550TIP3   OH240606   3.989   6.050   2.167 -0.0367 -0.4713 -0.3955
13550TIP3    H140607   4.025   5.966   2.195  0.0817 -0.4444 -0.4685
13550TIP3    H240608   3.953   6.088   2.247 -0.1762 -0.6323 -0.3789
13551TIP3   OH240609   2.286   2.722   5.919  0.1750 -0.2319  0.2458
13551TIP3    H140610   2.207   2.716   5.974  1.0952 -1.0004  1.5325
13551TIP3    H240611   2.264   2.787   5.853 -2.0377 -1.3953 -0.2646
13552TIP3   OH240612   2.958   3.963   3.043 -0.1714  0.1419  0.4977
13552TIP3    H140613   2.887   3.903   3.064 -0.8315  0.7021 -0.0465
13552TIP3    H240614   2.998   3.985   3.127 -0.7278 -0.0804  0.8221
13553TIP3   OH240615   6.038   6.385   0.539  0.3909  0.1142 -0.3972
13553TIP3    H140616   6.095   6.310   0.558  0.3020  0.0291 -0.4602
13553TIP3    H240617   6.002   6.366   0.452  0.9574  0.5993 -0.7410
13554TIP3   OH240618   3.733   2.779   1.825 -0.1841 -0.1447 -0.2187
13554TIP3    H140619   3.653   2.792   1.876 -0.0265  1.7072 -0.3802
13554TIP3    H240620   3.705   2.725   1.750 -1.2112  0.1990 -0.1022
13555TIP3   OH240621   7.872   6.651   0.550 -0.2656 -0.2456 -0.1073
13555TIP3    H140622   7.777   6.658   0.547 -0.4035 -1.7116  0.1300
13555TIP3    H240623   7.890   6.557   0.548  1.2883 -0.0090 -3.0529
13556TIP3   OH240624   6.775   0.840   4.252 -0.0009  0.4102 -0.5525
13556TIP3    H140625   6.739   0.863   4.338  1.6233 -2.0856  0.9244
13556TIP3    H240626   6.698   0.823   4.198 -1.0790 -0.2225  1.0941
13557TIP3   OH240627   4.002   1.966   6.731  0.2198  0.2109 -0.2142
13557TIP3    H140628   3.912   1.947   6.708  0.1237  0.1274  0.2161
13557TIP3    H240629   4.019   1.911   6.808  0.2310  1.1733  0.4807
13558TIP3   OH240630   7.596   2.624   4.030  0.1232  0.0868  0.0501
13558TIP3    H140631   7.669   2.673   4.066  0.4110 -0.7252  0.6106
13558TIP3    H240632   7.518   2.666   4.066  0.3738 -0.0125  0.7195
13559TIP3   OH240633   6.880   6.745   0.785  0.7706 -0.2583 -0.1561
13559TIP3    H140634   6.895   6.700   0.868 -0.0077  1.2145  0.8249
13559TIP3    H240635   6.801   6.797   0.800  0.8873  0.4009 -1.6719
13560TIP3   OH240636   1.780   0.199   3.435  0.1495 -0.3485  0.6326
13560TIP3    H140637   1.748   0.242   3.514 -0.3977  1.0468 -0.3170
13560TIP3    H240638   1.710   0.140   3.409 -0.6725  0.8984 -0.0744
13561TIP3   OH240639   5.529   7.393   2.612  0.3203 -0.0164  0.2496
13561TIP3    H140640   5.461   7.355   2.669  0.5593 -1.3464 -0.3047
13561TIP3    H240641   5.483   7.462   2.564 -0.3555 -0.1325  0.7044
13562TIP3   OH240642   4.802   3.874   4.974  0.5493  0.5431  0.1668
13562TIP3    H140643   4.878   3.865   4.916 -0.6431 -1.6660 -1.1983
13562TIP3    H240644   4.791   3.969   4.984  0.9932  1.0581 -3.0240
13563TIP3   OH240645   4.125   6.450   5.870  0.0338 -0.3899  0.2804
13563TIP3    H140646   4.089   6.417   5.787  1.3084  0.6981 -0.7475
13563TIP3    H240647   4.130   6.545   5.858  1.8548 -0.3743  0.9169
13564TIP3   OH240648   1.512   6.368   0.253  0.4921 -0.1675  0.8035
13564TIP3    H140649   1.504   6.462   0.240  2.3016  0.0030  0.6463
13564TIP3    H240650   1.563   6.338   0.178  1.0733 -1.0509  1.5280
13565TIP3   OH240651   7.428   3.034   0.338 -0.3545  0.0383 -0.3915
13565TIP3    H140652   7.337   3.009   0.353  0.4750 -1.5035  3.5878
13565TIP3    H240653   7.473   2.952   0.322  0.6223  0.4995 -0.1062
13566TIP3   OH240654   4.853   5.536   0.987 -0.4816 -0.8121  0.1469
13566TIP3    H140655   4.805   5.461   1.021 -0.7940 -1.0057 -0.7041
13566TIP3    H240656   4.811   5.556   0.903 -2.4699  2.2177  1.6719
13567TIP3   OH240657   1.244   6.027   0.703 -0.1792 -0.0022 -0.3168
13567TIP3    H140658   1.166   6.016   0.758 -0.3116  0.9724 -0.3068
13567TIP3    H240659   1.312   6.058   0.764 -0.9767  3.6177 -1.0480
13568TIP3   OH240660   5.312   4.619   4.532 -0.1716  0.0162 -0.1055
13568TIP3    H140661   5.320   4.668   4.451 -0.2518  0.3725  0.1002
13568TIP3    H240662   5.342   4.679   4.600 -0.7109 -0.0514  0.1987
13569TIP3   OH240663   6.759   4.861   3.564  0.1458  0.3956  0.0880
13569TIP3    H140664   6.685   4.802   3.576  0.9827 -1.0049 -1.1223
13569TIP3    H240665   6.723   4.936   3.517 -1.0500  1.1763  2.1231
13570TIP3   OH240666   4.036   6.573   1.933  0.2963 -0.6277 -0.0834
13570TIP3    H140667   3.977   6.629   1.984  0.4073 -0.6902  0.1157
13570TIP3    H240668   4.021   6.485   1.967  1.6703 -0.4448  1.1264
13571TIP3   OH240669   3.950   0.997   2.510  0.1570 -0.4267 -0.1262
13571TIP3    H140670   3.998   0.921   2.478  1.3481 -0.0097  0.5942
13571TIP3    H240671   3.986   1.070   2.459  1.0026  0.0212  1.0603
13572TIP3   OH240672   7.290   6.048   2.770 -0.1530 -0.0354  0.4359
13572TIP3    H140673   7.276   5.968   2.822 -1.2657  0.0506  0.3008
13572TIP3    H240674   7.307   6.016   2.681 -2.7030 -0.1526 -0.1007
13573TIP3   OH240675   8.088   3.000   0.029 -0.4456 -0.3324 -0.0695
13573TIP3    H140676   8.046   3.037   0.107  1.4658  0.0686  0.8121
13573TIP3    H240677   8.174   3.040   0.026 -0.6212  0.0083 -2.6980
13574TIP3   OH240678   4.824   2.793   5.560 -0.4802  0.0833 -0.0443
13574TIP3    H140679   4.770   2.772   5.636  0.7144  2.3098  1.5335
13574TIP3    H240680   4.812   2.887   5.546  0.9084  0.1209 -1.3064
13575TIP3   OH240681   5.693   0.401   0.143  0.1763 -0.3539 -0.4633
13575TIP3    H140682   5.764   0.375   0.202  0.6037 -0.4830 -1.0240
13575TIP3    H240683   5.641   0.322   0.132 -2.0365  0.5274  2.5922
13576TIP3   OH240684   5.070   7.641   0.320  0.0633 -0.1090  0.0273
13576TIP3    H140685   4.976   7.658   0.327  0.3611  1.4246  0.7370
13576TIP3    H240686   5.078   7.546   0.332 -1.4642 -0.4029 -0.9866
13577TIP3   OH240687   3.570   3.535   2.399  0.0385  0.1313 -0.2064
13577TIP3    H140688   3.588   3.597   2.470  1.4079 -1.3215  0.7518
13577TIP3    H240689   3.544   3.591   2.325  0.0166  1.7589  0.9823
13578TIP3   OH240690   2.452   5.509   1.970  0.8666  0.5336  0.4948
13578TIP3    H140691   2.442   5.416   1.989  1.6533  0.7353  2.0591
13578TIP3    H240692   2.517   5.539   2.033  1.2036  1.9875 -0.4980
13579TIP3   OH240693   2.715   1.696   0.651 -0.3782  0.0326 -0.6253
13579TIP3    H140694   2.717   1.792   0.654 -0.0790 -0.0045  1.0135
13579TIP3    H240695   2.806   1.669   0.658 -0.4970 -0.3826 -0.6446
13580TIP3   OH240696   7.661   4.326   2.777  0.2793  0.0672 -0.2304
13580TIP3    H140697   7.723   4.297   2.844  1.0892  1.9536 -0.0774
13580TIP3    H240698   7.575   4.301   2.811  0.8025 -0.5572  0.6744
13581TIP3   OH240699   0.935   4.376   3.728  0.3782 -0.1952  0.3021
13581TIP3    H140700   0.969   4.297   3.687  0.4373 -0.3820  0.7044
13581TIP3    H240701   0.897   4.346   3.811 -1.3395 -0.0859 -0.4113
13582TIP3   OH240702   2.917   6.735   1.448 -0.3284 -0.6542  0.1896
13582TIP3    H140703   2.942   6.786   1.371 -0.1599 -0.4904  0.3499
13582TIP3    H240704   2.866   6.662   1.413 -0.7718 -0.2456 -0.0235
13583TIP3   OH240705   4.061   4.707   3.352 -0.4528 -0.3506  0.0393
13583TIP3    H140706   4.043   4.757   3.272  0.2303 -1.3012 -0.7225
13583TIP3    H240707   4.102   4.770   3.411 -0.3165  0.1816 -0.6135
13584TIP3   OH240708   6.538   6.354   4.428  0.6293 -0.4302 -0.2068
13584TIP3    H140709   6.515   6.263   4.409 -0.9921  0.1704 -1.3531
13584TIP3    H240710   6.612   6.373   4.371 -0.6920 -0.2912 -1.9288
13585TIP3   OH240711   7.777   7.517   0.337 -0.2684  0.1480  0.1475
13585TIP3    H140712   7.717   7.590   0.358 -1.2692 -0.4206 -0.6578
13585TIP3    H240713   7.725   7.439   0.355 -1.1247 -0.4250 -3.9413
13586TIP3   OH240714   6.498   2.446   5.596 -0.6180  0.3169  0.3370
13586TIP3    H140715   6.450   2.521   5.559  1.5200  1.5485 -0.1096
13586TIP3    H240716   6.571   2.432   5.535 -0.7786 -1.9414  0.6110
13587TIP3   OH240717   1.562   2.874   2.364 -0.1835 -0.0828 -0.7060
13587TIP3    H140718   1.479   2.841   2.330 -0.4656 -0.4954  0.3380
13587TIP3    H240719   1.569   2.835   2.451  0.8773  0.3330 -0.5941
13588TIP3   OH240720   2.616   6.968   5.581 -0.0589  0.2008  0.0484
13588TIP3    H140721   2.684   6.908   5.610 -0.7092 -0.9500 -0.7336
13588TIP3    H240722   2.662   7.027   5.520  0.8257  1.2595  1.6711
13589TIP3   OH240723   6.780   7.570   1.018  0.3932 -0.3042  0.0246
13589TIP3    H140724   6.699   7.595   1.062 -0.2206  0.0171 -1.2336
13589TIP3    H240725   6.845   7.633   1.049 -0.3171  0.6871 -0.4407
13590TIP3   OH240726   0.863   4.309   2.283  0.3731 -0.7166 -0.0407
13590TIP3    H140727   0.883   4.243   2.348  0.0366 -1.4771 -0.6966
13590TIP3    H240728   0.825   4.382   2.333  1.1404 -0.8346  0.7294
13591TIP3   OH240729   5.710   0.057   6.482  0.1452 -0.2023  0.9485
13591TIP3    H140730   5.772  -0.010   6.512 -0.4554 -0.6004  1.3133
13591TIP3    H240731   5.742   0.138   6.522 -0.0917 -0.5627  1.8989
13592TIP3   OH240732   4.958   0.810   5.417 -0.1597  0.2225 -0.2909
13592TIP3    H140733   4.941   0.888   5.365 -1.4799 -0.4805 -0.9562
13592TIP3    H240734   4.873   0.769   5.428  0.2268 -0.1180  1.7127
13593TIP3   OH240735   5.767   0.054   1.477  0.6354 -0.4347  0.4856
13593TIP3    H140736   5.805  -0.028   1.444  1.0443 -0.2710  0.5480
13593TIP3    H240737   5.821   0.077   1.553 -0.8391 -1.2841  1.8679
13594TIP3   OH240738   8.134   2.419   5.605 -0.1919 -0.5632  0.2574
13594TIP3    H140739   8.193   2.379   5.668  2.1975  1.4471 -0.5599
13594TIP3    H240740   8.129   2.356   5.533  2.0577 -0.2561 -0.2311
13595TIP3   OH240741   4.425   1.131   4.434 -0.0720  0.5901 -0.0395
13595TIP3    H140742   4.368   1.095   4.502 -0.5527 -2.5401 -1.8888
13595TIP3    H240743   4.512   1.132   4.474 -0.8224  2.1491  1.6870
13596TIP3   OH240744   4.670   6.893   3.388  0.0870  0.4339 -0.2645
13596TIP3    H140745   4.653   6.957   3.318 -0.0895  2.4221  1.4771
13596TIP3    H240746   4.585   6.853   3.405 -0.3361  1.4631  0.1661
13597TIP3   OH240747   7.132   2.974   0.230 -0.7965  0.1876 -0.0932
13597TIP3    H140748   7.145   2.995   0.322  0.6716  0.9226 -0.4329
13597TIP3    H240749   7.041   2.944   0.224 -1.0156  0.4666  1.5188
13598TIP3   OH240750   0.166   7.022   1.074  0.4567  0.1995  0.5975
13598TIP3    H140751   0.112   7.080   1.127  1.7506  1.4387  0.6333
13598TIP3    H240752   0.151   6.935   1.110 -0.9447  0.6023  1.0509
13599TIP3   OH240753   0.137   5.201   6.408 -0.0522  0.2600 -0.1394
13599TIP3    H140754   0.138   5.156   6.492  0.2488  1.5984  0.5946
13599TIP3    H240755   0.094   5.285   6.425  1.6124  1.3201 -0.8936
13600TIP3   OH240756   6.688   3.523   3.981 -0.1202 -0.1456 -0.2362
13600TIP3    H140757   6.779   3.551   3.991 -0.7858  1.4905  2.0579
13600TIP3    H240758   6.659   3.565   3.900  0.9929 -0.2724 -0.7251
13601TIP3   OH240759   0.252   5.265   2.576 -0.0608  0.1951 -0.0970
13601TIP3    H140760   0.184   5.242   2.513 -2.1327  0.9423  1.7213
13601TIP3    H240761   0.266   5.185   2.626  0.3165  0.0832 -0.3759
13602TIP3   OH240762   6.395   0.348   3.601  0.0294 -0.1332 -0.3477
13602TIP3    H140763   6.413   0.407   3.528  1.4876 -0.6302 -0.4137
13602TIP3    H240764   6.313   0.305   3.578 -0.2436  0.7186 -1.0242
13603TIP3   OH240765   6.860   7.173   2.373  0.0547 -0.3386 -0.3927
13603TIP3    H140766   6.944   7.192   2.331  0.4091  0.8321  0.7558
13603TIP3    H240767   6.860   7.078   2.384  1.8842 -0.2582  0.8144
13604TIP3   OH240768   6.750   5.295   6.613 -0.3397  0.0579 -0.2853
13604TIP3    H140769   6.682   5.344   6.565 -0.2876 -0.8945 -1.3986
13604TIP3    H240770   6.711   5.209   6.626  0.5416 -0.4008 -0.6574
13605TIP3   OH240771   8.005   0.194   3.070  0.0033  0.1502 -0.2071
13605TIP3    H140772   8.049   0.171   3.152  0.5672  1.1276 -0.2199
13605TIP3    H240773   7.912   0.194   3.093  0.1748  0.8270  0.5653
13606TIP3   OH240774   6.353   3.597   0.273  0.1404  0.0951  0.3798
13606TIP3    H140775   6.443   3.608   0.306  0.6287 -0.0342 -0.8507
13606TIP3    H240776   6.360   3.616   0.180 -1.0246 -0.4371  0.1757
13607TIP3   OH240777   7.331   7.165   3.568 -0.0280  0.3374  0.4653
13607TIP3    H140778   7.411   7.208   3.599  0.7642  0.8883 -2.0917
13607TIP3    H240779   7.343   7.073   3.590  1.2596  0.4411  0.2886
13608TIP3   OH240780   1.849   1.071   5.729  0.0124 -0.6379  0.1874
13608TIP3    H140781   1.776   1.016   5.701 -0.7194  0.3084  0.1528
13608TIP3    H240782   1.903   1.083   5.651  0.2414 -1.3843  0.2256
13609TIP3   OH240783  -0.008   4.157   5.560 -0.1909  0.4264  0.0171
13609TIP3    H140784   0.049   4.117   5.495 -0.3959  0.4143 -0.1585
13609TIP3    H240785   0.015   4.250   5.559 -0.6119  0.5293 -0.5125
13610TIP3   OH240786   2.180   7.760   4.960  0.6671 -0.0073  0.0122
13610TIP3    H140787   2.141   7.844   4.986 -0.1322 -0.8648  1.7048
13610TIP3    H240788   2.115   7.722   4.900  0.6952  0.2337 -0.1786
13611TIP3   OH240789   6.590   3.627   3.762  0.7070  0.0223 -0.2509
13611TIP3    H140790   6.632   3.710   3.743  2.5231 -0.9078 -0.4867
13611TIP3    H240791   6.554   3.598   3.679 -2.5558  1.8768  0.3574
13612TIP3   OH240792   2.411   2.581   2.001  0.2096  0.1234 -0.0595
13612TIP3    H140793   2.337   2.566   2.059  0.0444 -0.3857 -0.4009
13612TIP3    H240794   2.481   2.527   2.037  0.4819  0.7420  0.3691
13613TIP3   OH240795   2.660   0.034   6.560  0.7962  0.2191 -0.0126
13613TIP3    H140796   2.597  -0.033   6.588  2.0043 -0.8983  0.1068
13613TIP3    H240797   2.625   0.066   6.476  0.3302 -0.7299 -0.1943
13614TIP3   OH240798   1.621   4.296   4.111 -0.2480 -0.3726  0.0724
13614TIP3    H140799   1.701   4.332   4.071 -1.3294 -0.1227 -2.0419
13614TIP3    H240800   1.646   4.208   4.138  0.9557 -0.0244  0.1951
13615TIP3   OH240801   4.096   5.172   1.778 -0.4433 -0.4676  0.1027
13615TIP3    H140802   4.008   5.209   1.781 -0.9533 -1.5149 -1.0350
13615TIP3    H240803   4.091   5.103   1.712  1.2063 -0.6266  0.0977
13616TIP3   OH240804   3.711   5.392   6.282  0.4673  0.1668 -0.3287
13616TIP3    H140805   3.618   5.408   6.298  0.7150  1.2756  0.0468
13616TIP3    H240806   3.712   5.309   6.234 -0.6241 -0.5879  0.8709
13617TIP3   OH240807   4.744   7.017   3.885 -0.1347 -0.2833  0.1355
13617TIP3    H140808   4.780   6.985   3.802 -1.2598  0.4041 -0.6375
13617TIP3    H240809   4.806   7.084   3.913 -0.9492  1.1940 -1.4020
13618TIP3   OH240810   8.172   2.206   3.541 -0.3548 -0.6802 -0.3134
13618TIP3    H140811   8.188   2.252   3.459 -0.2116 -0.0091  0.0809
13618TIP3    H240812   8.091   2.244   3.575 -0.0123 -0.4134  0.2218
13619TIP3   OH240813  -0.005   2.477   3.759 -0.2900  0.6797  0.0603
13619TIP3    H140814   0.045   2.441   3.832 -0.2581  1.9589  0.6909
13619TIP3    H240815   0.017   2.421   3.685  3.1640  1.9029 -0.0389
13620TIP3   OH240816   4.319   6.647   4.054 -0.4021  0.1556  0.5774
13620TIP3    H140817   4.397   6.701   4.039  0.2017 -0.6863  0.5997
13620TIP3    H240818   4.342   6.593   4.130 -0.8271 -0.4102  0.3144
13621TIP3   OH240819   6.405   5.918   4.992 -0.4457  0.0272  0.4182
13621TIP3    H140820   6.315   5.885   4.992 -1.3907  2.2513 -1.9653
13621TIP3    H240821   6.458   5.845   4.960 -1.9286 -0.3092 -1.4309
13622TIP3   OH240822   0.281   5.586   6.003 -0.4016  0.9923 -0.2609
13622TIP3    H140823   0.273   5.496   6.033 -1.3988  1.3518  0.6177
13622TIP3    H240824   0.235   5.588   5.919  1.8859  0.1180 -1.6253
13623TIP3   OH240825   7.481   2.350   2.357  0.5302  0.5223  0.2459
13623TIP3    H140826   7.393   2.345   2.320  0.8489  2.0006 -0.8278
13623TIP3    H240827   7.527   2.276   2.317  0.1010  0.4517 -0.1392
13624TIP3   OH240828   3.671   0.632   0.496  0.4598 -0.0308 -0.0677
13624TIP3    H140829   3.689   0.726   0.496  1.4547 -0.2054 -0.1887
13624TIP3    H240830   3.683   0.605   0.587  1.7152 -0.2951 -0.2896
13625TIP3   OH240831   0.710   0.204   0.041  0.3816 -0.2536  0.0475
13625TIP3    H140832   0.645   0.134   0.052  1.0024 -0.7671  0.5725
13625TIP3    H240833   0.754   0.182  -0.041  0.6891 -0.5841  0.2962
13626TIP3   OH240834   5.264   7.180   1.638  0.0602  0.3709  0.7675
13626TIP3    H140835   5.313   7.186   1.555 -1.8242 -0.4559 -0.4775
13626TIP3    H240836   5.215   7.263   1.643  2.0886  1.5625  2.4261
13627TIP3   OH240837   0.928   2.733   4.574 -0.2258  0.2714  0.4005
13627TIP3    H140838   0.988   2.759   4.644  2.3452  1.7150 -2.1711
13627TIP3    H240839   0.951   2.642   4.555  0.9386  0.6829 -0.2764
13628TIP3   OH240840   1.240   4.415   6.451  0.1010 -0.6141 -0.3317
13628TIP3    H140841   1.329   4.443   6.471  0.1328 -1.9669  1.7387
13628TIP3    H240842   1.187   4.450   6.522 -1.2572  0.8958 -1.9650
13629TIP3   OH240843   2.561   2.573   2.321 -0.1509 -0.1080 -0.3035
13629TIP3    H140844   2.479   2.600   2.363  0.2798 -0.3131  0.7091
13629TIP3    H240845   2.543   2.484   2.289 -0.2127 -0.3052  0.2629
13630TIP3   OH240846   0.523   4.453   3.311  0.1009 -0.4739 -0.6836
13630TIP3    H140847   0.559   4.425   3.226  0.2373  0.1700 -0.8420
13630TIP3    H240848   0.486   4.373   3.348  1.8631 -1.2411 -0.4309
13631TIP3   OH240849   1.593   6.433   3.915 -0.0661 -0.0561  0.0384
13631TIP3    H140850   1.670   6.430   3.973 -0.2088  1.0667  0.3033
13631TIP3    H240851   1.518   6.430   3.974 -0.3020 -2.8900 -0.2883
13632TIP3   OH240852   0.617   4.928   0.527  0.1601 -0.2660 -0.1589
13632TIP3    H140853   0.559   4.858   0.496  1.5611 -0.9942 -1.2302
13632TIP3    H240854   0.608   4.925   0.623 -2.3816  0.3934 -0.2962
13633TIP3   OH240855   5.730   6.255   2.953  0.2777 -0.0622  0.4203
13633TIP3    H140856   5.745   6.312   3.028 -1.4753  1.7422 -0.5014
13633TIP3    H240857   5.767   6.302   2.878  0.7404 -1.1722 -0.0772
13634TIP3   OH240858   3.944   1.749   0.602  1.0065 -0.0439  0.2026
13634TIP3    H140859   3.985   1.694   0.669  1.7481 -0.4743 -0.5917
13634TIP3    H240860   3.858   1.710   0.588  0.2147  0.9299  1.9582
13635TIP3   OH240861   2.426   7.675   5.955 -0.3718  0.9155 -0.5548
13635TIP3    H140862   2.353   7.688   5.895 -1.8290 -3.6828 -0.1264
13635TIP3    H240863   2.389   7.693   6.042 -0.5238  0.1969 -0.4677
13636TIP3   OH240864   8.187   5.796   3.762 -0.2580 -0.0966 -0.4278
13636TIP3    H140865   8.111   5.788   3.704 -1.2892 -1.0507  0.9809
13636TIP3    H240866   8.176   5.882   3.804  0.2659  0.4142 -1.3220
13637TIP3   OH240867   5.698   3.640   6.431 -0.9057 -0.5353  0.6792
13637TIP3    H140868   5.624   3.671   6.484 -0.4321 -1.4859  1.9498
13637TIP3    H240869   5.723   3.557   6.471  1.2134  0.0235  0.6322
13638TIP3   OH240870   1.077   3.578   1.488 -0.1676  0.7995 -0.3432
13638TIP3    H140871   1.121   3.577   1.573 -3.2919  3.8661  1.5728
13638TIP3    H240872   1.054   3.486   1.471  1.5063 -0.0172  1.5337
13639TIP3   OH240873   5.869   6.302   0.323  0.2166  0.5162  0.2766
13639TIP3    H140874   5.806   6.371   0.343  0.5807  1.0987 -0.5326
13639TIP3    H240875   5.842   6.228   0.377 -0.8188  0.9428  0.3554
13640TIP3   OH240876   0.529   7.323   3.404  0.1272  0.0972 -0.8813
13640TIP3    H140877   0.522   7.401   3.460 -0.7475 -1.0795  0.7188
13640TIP3    H240878   0.570   7.355   3.324  1.7683  1.7897  0.5585
13641TIP3   OH240879   8.289   1.042   5.426  0.3569 -0.1646  0.2876
13641TIP3    H140880   8.310   1.024   5.334  1.6200 -0.7743  0.6694
13641TIP3    H240881   8.198   1.017   5.435  0.3691 -0.6044 -0.6762
13642TIP3   OH240882   1.918   1.001   2.282  0.3039  0.0430  0.2638
13642TIP3    H140883   2.012   0.986   2.269  0.0057 -1.3502 -0.4293
13642TIP3    H240884   1.876   0.962   2.205 -0.7936  1.5500  0.0683
13643TIP3   OH240885   5.139   4.243   6.735 -0.0535 -0.5833  0.1509
13643TIP3    H140886   5.076   4.288   6.680 -0.1251  0.4114  1.0096
13643TIP3    H240887   5.117   4.150   6.727 -0.5562 -0.3862 -0.8537
13644TIP3   OH240888   2.054   5.311   4.892  0.2112 -0.2802  0.0106
13644TIP3    H140889   2.137   5.268   4.871  0.2603  0.2767 -0.9566
13644TIP3    H240890   2.031   5.276   4.978  1.7350 -0.0159  0.5578
13645TIP3   OH240891   2.217   0.494   2.892  0.5613 -0.3847 -0.8662
13645TIP3    H140892   2.176   0.412   2.919  2.7981 -1.2911  0.0136
13645TIP3    H240893   2.230   0.485   2.798  0.1545 -0.7204 -0.8922
13646TIP3   OH240894   4.470   2.821   4.360 -0.1850  0.6940 -0.4917
13646TIP3    H140895   4.459   2.884   4.290 -2.1811  0.1137 -0.7724
13646TIP3    H240896   4.384   2.816   4.402  0.2114 -1.0224  0.2169
13647TIP3   OH240897   3.887   2.550   4.659  0.3009 -0.1759 -0.7516
13647TIP3    H140898   3.870   2.591   4.574  0.5311 -0.7084 -1.0654
13647TIP3    H240899   3.979   2.523   4.654  0.1308 -0.8020 -0.5960
13648TIP3   OH240900   4.255   3.066   3.010  0.5206  0.4419 -0.0268
13648TIP3    H140901   4.173   3.018   3.025  0.5940 -0.3164 -1.8034
13648TIP3    H240902   4.229   3.145   2.963  0.9440 -1.0447 -3.0192
13649TIP3   OH240903   8.096   4.115   4.141 -0.6531 -0.2637  0.1506
13649TIP3    H140904   8.006   4.102   4.111 -0.9637  1.3467  0.2903
13649TIP3    H240905   8.116   4.036   4.191 -3.1821  0.6589  2.9193
13650TIP3   OH240906   3.839   5.414   0.492 -0.2339 -0.5005 -0.5463
13650TIP3    H140907   3.927   5.391   0.523  0.2480 -2.3541 -2.9643
13650TIP3    H240908   3.852   5.440   0.401 -2.1093 -0.1727 -0.7440
13651TIP3   OH240909   0.326   3.425   1.144 -0.4360 -0.0311 -0.2284
13651TIP3    H140910   0.339   3.503   1.197 -1.5163 -0.0376  0.0801
13651TIP3    H240911   0.408   3.413   1.096  0.1954  0.5452  0.6919
13652TIP3   OH240912   7.611   1.037   5.728 -0.8191 -0.8657 -0.3507
13652TIP3    H140913   7.640   1.104   5.790 -1.3605 -0.8323 -0.1282
13652TIP3    H240914   7.542   0.989   5.775  0.4043 -2.4056 -0.0084
13653TIP3   OH240915   0.947   6.149   1.417  0.0242  0.0131 -0.4778
13653TIP3    H140916   0.907   6.143   1.503  3.9422 -1.8876  1.5234
13653TIP3    H240917   0.922   6.235   1.384 -1.4589  0.9249  2.6505
13654TIP3   OH240918   4.384   4.237   5.212 -0.7518 -0.9698 -0.0704
13654TIP3    H140919   4.324   4.294   5.260 -0.3889 -0.1096 -0.6159
13654TIP3    H240920   4.411   4.171   5.276  0.3846  0.6360  1.1910
13655TIP3   OH240921   3.910   1.546   5.598 -0.1444 -0.6332  0.1080
13655TIP3    H140922   3.823   1.558   5.559 -0.3742  0.3356  0.8605
13655TIP3    H240923   3.961   1.621   5.567  0.0813 -0.6054  0.5307
13656TIP3   OH240924   7.848   2.619   3.643 -0.5041  0.4016 -0.2206
13656TIP3    H140925   7.887   2.558   3.705 -1.4695 -0.7418 -0.6844
13656TIP3    H240926   7.829   2.566   3.565 -2.1020  1.0740 -0.3473
13657TIP3   OH240927   4.080   1.100   6.682 -0.1923 -0.4698  0.1775
13657TIP3    H140928   4.036   1.175   6.641  1.1395 -0.4113 -1.2191
13657TIP3    H240929   4.030   1.024   6.652 -0.7393 -0.2414  0.5002
13658TIP3   OH240930   2.978   6.564   6.404 -0.3510  0.0684 -0.0910
13658TIP3    H140931   2.980   6.509   6.326 -1.7317 -0.6111  0.3308
13658TIP3    H240932   3.071   6.574   6.428  0.0618 -0.0976 -1.5264
13659TIP3   OH240933   6.768   0.827   5.190  0.2430 -0.1443  0.1708
13659TIP3    H140934   6.767   0.820   5.286 -0.2388 -2.0885  0.0640
13659TIP3    H240935   6.776   0.921   5.173 -0.5714  0.3306  2.1157
13660TIP3   OH240936   5.365   0.361   6.517  0.0545  0.3395  0.3722
13660TIP3    H140937   5.395   0.344   6.607 -0.4126  1.4947  0.7622
13660TIP3    H240938   5.407   0.293   6.465 -0.3841 -0.9269  1.5931
13661TIP3   OH240939   1.994   7.799   2.555 -0.2882 -0.3606  0.3795
13661TIP3    H140940   1.947   7.850   2.621 -1.2649 -0.1211 -0.4769
13661TIP3    H240941   1.943   7.810   2.475  0.1699 -1.6644 -0.1286
13662TIP3   OH240942   7.232   7.037   4.342 -0.2497  0.4974 -0.2319
13662TIP3    H140943   7.268   7.126   4.336  0.0248  0.4828  0.9318
13662TIP3    H240944   7.162   7.044   4.407  1.1745 -0.5379  1.5248
13663TIP3   OH240945   6.133   5.091   5.590 -0.0285 -0.0181 -0.2936
13663TIP3    H140946   6.063   5.095   5.526  0.2621  1.4714 -0.5468
13663TIP3    H240947   6.101   5.143   5.664  0.8393  0.7651 -0.4546
13664TIP3   OH240948   4.692   6.861   6.424 -0.1006 -0.2945  0.0186
13664TIP3    H140949   4.674   6.873   6.331  0.8776 -1.0950 -0.2972
13664TIP3    H240950   4.784   6.887   6.434 -0.4021  0.4814  0.9079
13665TIP3   OH240951   1.060   5.259   5.592  0.2125 -0.1397  0.2405
13665TIP3    H140952   1.074   5.169   5.622 -3.1467 -0.5019  1.0959
13665TIP3    H240953   1.063   5.312   5.672 -0.8496  0.0406  0.1744
13666TIP3   OH240954   3.369   2.061   1.514 -0.3015  0.0820 -0.3122
13666TIP3    H140955   3.453   2.062   1.469 -0.8976 -0.1103 -1.4553
13666TIP3    H240956   3.369   1.980   1.564 -0.3202 -0.5532 -1.3232
13667TIP3   OH240957   3.705   4.732   3.228 -0.1182  0.1201 -0.4232
13667TIP3    H140958   3.797   4.705   3.220  0.1387  0.5342  0.9173
13667TIP3    H240959   3.701   4.818   3.187 -0.0653 -0.2146 -1.1321
13668TIP3   OH240960   0.771   0.241   3.038 -0.3787  0.5228 -0.0651
13668TIP3    H140961   0.720   0.161   3.025  1.7508 -0.7073 -1.4946
13668TIP3    H240962   0.801   0.236   3.129  1.8994 -1.7826 -0.8194
13669TIP3   OH240963   2.584   2.890   2.363 -0.0115  0.2562 -0.2402
13669TIP3    H140964   2.604   2.808   2.408  1.9239  0.6591 -0.2507
13669TIP3    H240965   2.584   2.867   2.270 -2.0036 -0.1878 -0.1605
13670TIP3   OH240966   5.001   5.275   3.106  0.3562  0.0045 -0.2048
13670TIP3    H140967   4.918   5.237   3.078 -0.1770  0.1621  1.0836
13670TIP3    H240968   5.035   5.319   3.028 -0.2258 -0.9929 -1.0406
13671TIP3   OH240969   3.131   3.949   2.647  0.0477  0.3288  0.4577
13671TIP3    H140970   3.044   3.975   2.678  0.2905 -0.3843  1.7991
13671TIP3    H240971   3.192   3.992   2.707  0.5927  0.1392  0.0507
13672TIP3   OH240972   5.785   2.156   2.470 -0.4787  0.2775 -0.4072
13672TIP3    H140973   5.834   2.149   2.388 -0.5797 -1.0694 -0.3796
13672TIP3    H240974   5.758   2.066   2.489 -1.1436  0.6921  0.6884
13673TIP3   OH240975   5.654   5.355   3.045  0.1815  0.1174 -0.3766
13673TIP3    H140976   5.640   5.440   3.004 -2.7081 -0.5392 -1.0029
13673TIP3    H240977   5.566   5.324   3.065  0.9763 -3.3422 -1.5325
13674TIP3   OH240978   3.140   1.912   6.696  0.0552  0.3270  0.1675
13674TIP3    H140979   3.220   1.948   6.734 -0.0854  0.3605  0.4315
13674TIP3    H240980   3.119   1.836   6.751 -0.8651  1.1306  0.9569
13675TIP3   OH240981   4.399   2.419   4.994  0.2171 -0.1875  0.1349
13675TIP3    H140982   4.459   2.485   4.960  0.4413  1.0388  2.6672
13675TIP3    H240983   4.359   2.460   5.071 -1.1066 -2.3221  0.6859
13676TIP3   OH240984   4.284   5.136   1.155  0.9403 -0.1049 -0.6802
13676TIP3    H140985   4.306   5.059   1.207  2.5590  2.2727  2.5077
13676TIP3    H240986   4.214   5.178   1.204  1.6569  1.6062 -1.0718
13677TIP3   OH240987   3.926   5.771   5.529  0.3189  0.1731 -0.2621
13677TIP3    H140988   3.872   5.844   5.500  0.8635  0.1795 -1.3114
13677TIP3    H240989   3.926   5.710   5.455 -0.7908 -1.3046  0.8743
13678TIP3   OH240990   4.098   1.877   5.584  0.2398 -0.0591  0.4250
13678TIP3    H140991   4.060   1.843   5.503  0.8984  1.5184 -0.5789
13678TIP3    H240992   4.145   1.802   5.621  1.4266 -0.3762 -1.5798
13679TIP3   OH240993   3.094   4.187   5.578  0.2875 -0.3561 -0.2524
13679TIP3    H140994   3.141   4.185   5.661 -1.4540  0.5469  0.7988
13679TIP3    H240995   3.101   4.278   5.549 -1.7759  0.1045  0.5489
13680TIP3   OH240996   6.283   1.771   0.200 -0.0249  0.0374  0.5452
13680TIP3    H140997   6.206   1.817   0.234  0.6314  1.5256  0.1094
13680TIP3    H240998   6.355   1.799   0.257  0.6224  0.5767 -0.5080
13681TIP3   OH240999   4.501   7.791   5.482  0.3859  0.6414  0.0265
13681TIP3    H141000   4.566   7.776   5.414  0.7945  1.1812  0.2852
13681TIP3    H241001   4.518   7.723   5.547  1.4678  1.4607  0.6442
13682TIP3   OH241002   0.509   4.056   6.023 -0.4658 -0.1087 -0.7935
13682TIP3    H141003   0.567   3.986   5.994  0.1443  0.2633 -0.4886
13682TIP3    H241004   0.566   4.133   6.029 -0.4501 -0.2560  1.8437
13683TIP3   OH241005   4.085   5.382   1.552  0.3445 -0.4546 -0.2488
13683TIP3    H141006   4.161   5.402   1.606 -0.5083 -0.3518  0.9443
13683TIP3    H241007   4.020   5.348   1.613 -0.5076 -0.7423 -1.2784
13684TIP3   OH241008   2.132   0.868   3.184  0.2139  0.4673 -0.1262
13684TIP3    H141009   2.178   0.908   3.110 -0.5045  0.5295 -0.5387
13684TIP3    H241010   2.157   0.776   3.180  0.6922  0.5912 -0.0572
13685TIP3   OH241011   5.698   7.696   4.177  0.9119  0.0283  0.4380
13685TIP3    H141012   5.748   7.765   4.132  0.9188 -0.8585 -0.9744
13685TIP3    H241013   5.610   7.704   4.141  0.0380  1.3649  2.6678
13686TIP3   OH241014   3.222   4.592   2.812  0.4940  0.2510  0.1661
13686TIP3    H141015   3.142   4.644   2.804 -0.2697 -0.5773  1.8935
13686TIP3    H241016   3.290   4.657   2.831  0.2807  0.9700 -1.3760
13687TIP3   OH241017   6.342   6.360   5.322 -0.1903  0.1547  0.2488
13687TIP3    H141018   6.369   6.401   5.404 -1.3772 -1.0582  1.2969
13687TIP3    H241019   6.316   6.271   5.346 -1.1167 -0.0625 -1.3463
13688TIP3   OH241020   4.565   3.617   0.051 -0.3273  0.1392 -0.3955
13688TIP3    H141021   4.617   3.696   0.063 -1.3131  1.0238 -1.7324
13688TIP3    H241022   4.572   3.596  -0.042 -2.5123  0.4371 -0.6910
13689TIP3   OH241023   1.105   6.788   4.007 -0.0358  0.2751  0.9714
13689TIP3    H141024   1.188   6.756   3.973  0.0836  0.5796  0.9704
13689TIP3    H241025   1.052   6.805   3.929  0.1434  0.7221  0.9446
13690TIP3   OH241026   1.477   0.317   4.602 -0.2869 -0.9134  0.0593
13690TIP3    H141027   1.484   0.374   4.679  0.2089 -1.7214  0.6329
13690TIP3    H241028   1.562   0.324   4.559 -1.2622  1.2825 -1.7327
13691TIP3   OH241029   5.129   5.425   0.994  0.0709 -0.2160 -0.2913
13691TIP3    H141030   5.044   5.466   1.013  0.2925 -0.4131  1.2469
13691TIP3    H241031   5.165   5.403   1.080  0.0974 -3.3931 -0.9913
13692TIP3   OH241032   8.215   1.337   1.365  0.1102 -0.1749  0.3373
13692TIP3    H141033   8.310   1.335   1.355 -0.0887 -1.7846 -2.2098
13692TIP3    H241034   8.189   1.418   1.321  0.1578 -1.3093 -1.9387
13693TIP3   OH241035   1.797   7.474   3.401  0.2644  0.1281  0.1885
13693TIP3    H141036   1.716   7.508   3.440  0.1042 -0.8678  0.7539
13693TIP3    H241037   1.798   7.382   3.424  0.5233 -0.3520 -1.5894
13694TIP3   OH241038   3.270   5.648   0.647  0.4298  0.7201  0.2295
13694TIP3    H141039   3.237   5.617   0.563  0.1262 -0.5524  0.8048
13694TIP3    H241040   3.191   5.672   0.696  0.4539 -0.5310  0.9101
13695TIP3   OH241041   6.320   5.885   1.707  0.5024 -0.0214 -0.0182
13695TIP3    H141042   6.316   5.871   1.613  0.6660 -0.9963  0.1156
13695TIP3    H241043   6.396   5.942   1.719  0.9644 -0.5475 -0.4041
13696TIP3   OH241044   5.708   6.918   1.689 -0.1596  0.5032 -0.0811
13696TIP3    H141045   5.614   6.918   1.671  0.1067  1.3084 -1.6905
13696TIP3    H241046   5.739   6.838   1.646 -0.2019 -0.1530  1.0893
13697TIP3   OH241047   1.917   6.761   6.054 -0.0636  0.0463 -0.0680
13697TIP3    H141048   1.898   6.677   6.095  0.9805  0.2172  0.8239
13697TIP3    H241049   1.999   6.746   6.007 -0.5789  0.2110 -1.0473
13698TIP3   OH241050   4.583   4.579   0.356 -0.4592  0.1369  0.2311
13698TIP3    H141051   4.539   4.540   0.431  0.2264 -3.8299 -1.1756
13698TIP3    H241052   4.655   4.630   0.394  0.1138 -2.0424  2.2946
13699TIP3   OH241053   6.823   5.911   1.957 -0.2631  0.0571  0.3830
13699TIP3    H141054   6.878   5.861   2.018  2.1224  1.3764 -0.5695
13699TIP3    H241055   6.782   5.844   1.902  1.5721 -0.9524  0.1681
13700TIP3   OH241056   6.308   1.332   4.092  0.3727  0.3169 -0.5260
13700TIP3    H141057   6.345   1.273   4.159  0.4924 -0.9618 -1.6740
13700TIP3    H241058   6.328   1.420   4.124  0.4557 -0.2553  1.1019
13701TIP3   OH241059   5.570   2.087   3.329 -0.0163 -0.1199  0.2035
13701TIP3    H141060   5.640   2.112   3.268 -0.0919 -0.9243 -0.2167
13701TIP3    H241061   5.537   2.004   3.295 -0.6495 -0.1363  0.8499
13702TIP3   OH241062   0.371   7.072   4.960  0.4455  0.3090  0.5243
13702TIP3    H141063   0.322   7.003   4.915  1.7113 -0.1497 -0.1839
13702TIP3    H241064   0.435   7.102   4.896  0.1564  1.9148  0.9452
13703TIP3   OH241065   5.252   2.905   2.589  0.2822 -0.1515 -0.3207
13703TIP3    H141066   5.214   2.964   2.654  0.9674 -1.0557  0.9362
13703TIP3    H241067   5.328   2.866   2.632 -0.9444 -3.0611 -0.5350
13704TIP3   OH241068   3.356   2.959   5.842  0.2773 -0.1126 -0.0278
13704TIP3    H141069   3.300   2.965   5.765  1.3359 -2.5006 -1.0621
13704TIP3    H241070   3.443   2.938   5.808  1.0446  0.0057  1.7421
13705TIP3   OH241071   4.149   0.232   0.967  0.0436 -0.4570 -0.0909
13705TIP3    H141072   4.233   0.222   1.013  0.2584 -1.9274 -0.7511
13705TIP3    H241073   4.171   0.279   0.887 -0.2358  1.5860  0.9717
13706TIP3   OH241074   3.784   4.875   2.283  0.0811 -0.1410 -0.6202
13706TIP3    H141075   3.852   4.809   2.299 -0.1600 -0.3656 -0.5218
13706TIP3    H241076   3.828   4.941   2.229 -0.1003 -1.1550 -2.0780
13707TIP3   OH241077   6.074   2.127   5.238 -0.0170 -0.6172  0.0089
13707TIP3    H141078   6.150   2.181   5.260  0.7493 -1.7579  0.2679
13707TIP3    H241079   6.001   2.169   5.282  0.3689  0.7412 -0.5729
13708TIP3   OH241080   0.398   2.858   0.048 -0.6803 -0.0728 -0.2249
13708TIP3    H141081   0.355   2.873  -0.036 -1.9107  2.0886  0.6806
13708TIP3    H241082   0.380   2.938   0.098  3.9440  0.7931  0.5097
13709TIP3   OH241083   3.094   1.673   0.977 -0.0555 -0.1865 -0.7529
13709TIP3    H141084   3.152   1.601   0.955 -0.2620 -0.4729 -0.3705
13709TIP3    H241085   3.023   1.633   1.028 -0.4160  0.2086 -0.9352
13710TIP3   OH241086   0.178   2.184   1.298 -0.2410  0.5376 -0.0686
13710TIP3    H141087   0.232   2.105   1.302 -0.3464  0.4791  0.1823
13710TIP3    H241088   0.236   2.252   1.265  0.6977  1.0970  2.5330
13711TIP3   OH241089   6.182   5.012   4.699 -0.0594 -0.5539 -0.7622
13711TIP3    H141090   6.106   5.067   4.719  0.4910 -0.1580  0.3715
13711TIP3    H241091   6.160   4.926   4.736  0.3446 -0.2234  0.3006
13712TIP3   OH241092   2.803   7.755   0.706  0.0832  0.0727 -0.1057
13712TIP3    H141093   2.762   7.743   0.792  0.4632 -0.1330  0.0505
13712TIP3    H241094   2.879   7.696   0.707  0.1903  0.1996 -0.5161
13713TIP3   OH241095   0.261   4.751   4.122  0.2883  0.9541  0.5579
13713TIP3    H141096   0.228   4.839   4.141 -0.5225  0.5940  0.8637
13713TIP3    H241097   0.213   4.694   4.183  1.9734  0.4846  1.5231
13714TIP3   OH241098   2.820   3.658   4.363  0.1639 -0.2514  0.3298
13714TIP3    H141099   2.845   3.748   4.344 -0.2556 -0.4059 -1.0586
13714TIP3    H241100   2.742   3.666   4.419  0.6236  0.2221  0.9204
13715TIP3   OH241101   4.446   4.486   0.593  0.2797 -0.3395 -0.0243
13715TIP3    H141102   4.352   4.499   0.590  0.6468  3.1942 -0.2534
13715TIP3    H241103   4.463   4.449   0.679 -1.1488  1.4182  1.0800
13716TIP3   OH241104   6.155   4.280   4.046  0.2998  0.1014 -0.3065
13716TIP3    H141105   6.159   4.203   4.102 -0.0484 -0.4037 -0.9727
13716TIP3    H241106   6.190   4.251   3.962  1.1166  0.9380 -0.2768
13717TIP3   OH241107   4.131   7.775   1.777 -0.1834 -0.3034  0.0188
13717TIP3    H141108   4.149   7.759   1.870  0.6102  0.5160  0.0195
13717TIP3    H241109   4.132   7.689   1.737  3.5380 -0.4116  0.0651
13718TIP3   OH241110   3.419   1.001   0.573 -0.4779 -0.3803  0.0361
13718TIP3    H141111   3.372   1.052   0.639  0.2774 -0.7494  0.8945
13718TIP3    H241112   3.387   0.912   0.584 -0.1627 -0.4906  0.0938
13719TIP3   OH241113   0.433   7.332   1.289 -0.5384 -0.4597  0.4579
13719TIP3    H141114   0.411   7.265   1.354 -2.5410 -0.2121  0.0780
13719TIP3    H241115   0.460   7.283   1.212  2.2244 -0.7647  1.4759
13720TIP3   OH241116   6.628   7.599   5.439  0.4501 -0.6116  0.0342
13720TIP3    H141117   6.719   7.627   5.426  0.1859 -0.2642 -1.1858
13720TIP3    H241118   6.579   7.643   5.370 -0.7827 -0.2199  1.1166
13721TIP3   OH241119   2.917   5.066   1.742  0.0016 -0.5137 -0.4982
13721TIP3    H141120   2.968   5.146   1.748 -0.8084 -0.0024 -0.2069
13721TIP3    H241121   2.878   5.069   1.655  0.2648 -0.7726 -0.6241
13722TIP3   OH241122   5.961   3.386   3.102 -0.0303  0.5407 -0.4841
13722TIP3    H141123   5.888   3.353   3.050  0.3824 -0.0223 -0.7186
13722TIP3    H241124   6.034   3.391   3.040  0.0883  1.2625 -0.2924
13723TIP3   OH241125   1.902   7.641   4.886 -0.1536  0.0774 -0.2560
13723TIP3    H141126   1.879   7.575   4.821 -1.3149  0.7970 -0.6087
13723TIP3    H241127   1.875   7.724   4.846 -1.7627  0.4641  1.5227
13724TIP3   OH241128   6.935   2.483   3.023 -0.2222  0.1950 -0.5941
13724TIP3    H141129   6.992   2.408   3.005 -0.5678 -0.0974 -0.4891
13724TIP3    H241130   6.872   2.450   3.087 -1.9876 -0.2342 -2.4222
13725TIP3   OH241131   6.146   6.866   2.684 -0.0841 -0.1076  0.3279
13725TIP3    H141132   6.104   6.784   2.711  1.9761 -0.6830  2.0896
13725TIP3    H241133   6.127   6.927   2.755 -1.8502  1.1134 -1.1067
13726TIP3   OH241134   5.896   0.572   2.556 -0.0427  0.0836 -0.3581
13726TIP3    H141135   5.949   0.642   2.594 -1.5094  0.2366  1.5937
13726TIP3    H241136   5.907   0.498   2.617 -2.9021  0.5137  0.8634
13727TIP3   OH241137   5.023   7.150   2.537  0.0467  0.1222  1.0244
13727TIP3    H141138   5.002   7.242   2.552 -0.0540  0.1217  0.8953
13727TIP3    H241139   4.944   7.114   2.498 -0.1703 -0.1946  1.7526
13728TIP3   OH241140   2.034   5.382   5.745 -0.4074  0.0202  0.2522
13728TIP3    H141141   2.077   5.297   5.740  0.9953  0.7743 -1.7087
13728TIP3    H241142   1.941   5.364   5.730  0.1075 -1.0107 -2.0021
13729TIP3   OH241143   3.705   5.675   1.825 -0.2483  0.2704  0.1586
13729TIP3    H141144   3.797   5.651   1.825 -0.1888  0.3168 -2.1133
13729TIP3    H241145   3.677   5.665   1.916  1.7687 -0.5786  0.7169
13730TIP3   OH241146   5.763   5.321   1.990  0.4985  0.0615 -0.2634
13730TIP3    H141147   5.830   5.253   1.978  0.0306 -0.3977 -0.3146
13730TIP3    H241148   5.731   5.338   1.902  0.1178 -0.1664 -0.1714
13731TIP3   OH241149   5.110   2.901   3.013 -0.2318  0.0128 -0.0034
13731TIP3    H141150   5.063   2.982   2.996  1.3840  0.8225 -0.8057
13731TIP3    H241151   5.192   2.909   2.964  1.0017 -1.0977  1.7435
13732TIP3   OH241152   4.072   3.731   0.212  0.4943 -0.6162 -0.1921
13732TIP3    H141153   3.997   3.730   0.153  0.2672 -0.8129  0.0913
13732TIP3    H241154   4.148   3.723   0.155  0.4268  1.5117 -0.6564
13733TIP3   OH241155   8.305   5.011   1.289 -0.3966  0.2511 -0.6247
13733TIP3    H141156   8.293   5.052   1.375 -0.4427 -0.3686 -0.3335
13733TIP3    H241157   8.244   4.937   1.290  0.9619 -0.8915 -0.4650
13734TIP3   OH241158   6.024   6.779   6.126  0.4858 -0.0325 -0.0260
13734TIP3    H141159   6.029   6.821   6.040  1.9694 -0.1089 -0.0139
13734TIP3    H241160   5.942   6.809   6.163  0.4004  0.9665 -0.9800
13735TIP3   OH241161   3.299   3.909   1.414  0.5311 -0.7214 -0.1108
13735TIP3    H141162   3.303   3.977   1.481  1.4450 -1.0042  0.1410
13735TIP3    H241163   3.302   3.827   1.463  1.3845 -0.9309 -0.4866
13736TIP3   OH241164   3.193   4.560   4.078  0.7975 -0.3986 -0.0418
13736TIP3    H141165   3.174   4.636   4.133  1.7688  0.0746 -0.3326
13736TIP3    H241166   3.174   4.485   4.134 -1.8905 -0.0200 -0.3132
13737TIP3   OH241167   5.048   3.634   3.580 -0.0162 -0.4015 -0.3924
13737TIP3    H141168   5.063   3.599   3.492 -1.3941  0.3253 -0.9502
13737TIP3    H241169   5.121   3.601   3.632  0.4590 -1.4000 -1.6495
13738TIP3   OH241170   2.453   4.850   2.601  0.0944 -0.6931  0.6630
13738TIP3    H141171   2.423   4.827   2.513  1.1914  1.5471 -0.3777
13738TIP3    H241172   2.389   4.914   2.632  1.3771  0.8804  0.1754
13739TIP3   OH241173   5.969   6.101   1.251 -0.7201 -0.3733 -0.1468
13739TIP3    H141174   6.037   6.134   1.310 -2.1524  0.1642  1.3143
13739TIP3    H241175   5.889   6.143   1.283 -1.7498 -1.0358 -1.7557
13740TIP3   OH241176   6.180   6.806   6.510  0.5062  0.2395 -0.0141
13740TIP3    H141177   6.228   6.724   6.512  1.4883  0.7979 -0.2030
13740TIP3    H241178   6.199   6.847   6.594  0.8872  0.7501 -0.3435
13741TIP3   OH241179   6.924   3.409   4.713 -0.5088  0.3080  0.1870
13741TIP3    H141180   6.835   3.385   4.740 -0.4436 -0.8410 -0.5312
13741TIP3    H241181   6.979   3.390   4.789 -0.7515  0.1319  0.3195
13742TIP3   OH241182   0.492   4.672   2.528 -0.1053 -0.2886  0.1761
13742TIP3    H141183   0.445   4.616   2.590 -1.1471  0.3713 -0.0022
13742TIP3    H241184   0.464   4.761   2.550  0.0997  0.0093 -0.7504
13743TIP3   OH241185   8.098   2.373   1.463  0.6091  0.6463  0.4245
13743TIP3    H141186   8.131   2.386   1.552  1.5872 -0.7971  0.3072
13743TIP3    H241187   8.176   2.376   1.408  0.1983  0.0855 -0.2003
13744TIP3   OH241188   6.952   7.436   4.858 -0.0837  0.0153  0.2191
13744TIP3    H141189   7.004   7.516   4.848 -0.7464  0.4563  0.2229
13744TIP3    H241190   6.887   7.441   4.788  0.2596 -0.8305 -0.1618
13745TIP3   OH241191   5.002   2.048   4.508  0.4145  0.0438  0.2629
13745TIP3    H141192   4.926   2.100   4.480 -0.3946 -0.0927  2.0518
13745TIP3    H241193   5.076   2.109   4.504 -0.0003  0.5181 -0.3700
13746TIP3   OH241194   2.906   6.777   2.736  0.0168  0.2115  0.1550
13746TIP3    H141195   2.917   6.795   2.829  0.9264 -1.0541  0.3102
13746TIP3    H241196   2.928   6.684   2.727  0.2425  0.3955 -1.3678
13747TIP3   OH241197   2.738   7.131   5.388 -0.2047  0.4059  0.1323
13747TIP3    H141198   2.828   7.147   5.360 -0.3655  0.8763 -0.1297
13747TIP3    H241199   2.693   7.215   5.375 -1.4678 -0.5775 -2.8008
13748TIP3   OH241200   1.627   7.739   1.406  0.0934  0.5404 -0.1622
13748TIP3    H141201   1.679   7.817   1.384  0.7896  0.6555  1.6317
13748TIP3    H241202   1.553   7.741   1.346  0.2800  2.4034 -0.4003
13749TIP3   OH241203   4.923   4.726   0.556  0.2722 -0.3671  0.1367
13749TIP3    H141204   4.869   4.758   0.484  1.4144  1.3909  0.0190
13749TIP3    H241205   4.985   4.666   0.515 -1.1341 -1.9223  0.1832
13750TIP3   OH241206   6.626   5.262   1.535 -0.3186 -0.2438 -0.4694
13750TIP3    H141207   6.591   5.177   1.560 -0.7790  0.3589  1.0290
13750TIP3    H241208   6.716   5.243   1.507 -0.3582 -1.2005  0.0067
13751TIP3   OH241209   8.329   1.860   2.578 -0.2328 -0.5190  0.4465
13751TIP3    H141210   8.244   1.849   2.536 -0.5922  2.5084  0.1570
13751TIP3    H241211   8.335   1.788   2.641 -2.1549 -1.8557 -0.7981
13752TIP3   OH241212   2.547   6.048   5.014  0.0223  0.0663 -0.6217
13752TIP3    H141213   2.488   6.030   5.087  0.3528  1.9610  0.1707
13752TIP3    H241214   2.493   6.099   4.953  0.0099 -0.7349 -1.2925
13753TIP3   OH241215   2.471   2.958   1.851 -0.4939 -0.4503  0.3758
13753TIP3    H141216   2.529   2.895   1.809 -1.3654 -1.2546  0.3404
13753TIP3    H241217   2.497   3.043   1.815 -0.5627 -1.0045 -1.0438
13754TIP3   OH241218   3.732   4.290   0.882 -0.0219  0.2442  0.1023
13754TIP3    H141219   3.738   4.286   0.787 -0.3427 -1.1241  0.1154
13754TIP3    H241220   3.640   4.269   0.901 -0.0202  0.7495  0.7136
13755TIP3   OH241221   2.484   3.430   5.936 -0.5331  0.2811 -0.4277
13755TIP3    H141222   2.462   3.405   5.846 -1.2225 -0.7531  0.0049
13755TIP3    H241223   2.575   3.458   5.932 -0.2565 -0.6870 -1.2797
13756TIP3   OH241224   0.301   5.772   1.010  0.3817 -0.3040 -0.5043
13756TIP3    H141225   0.340   5.849   0.969 -0.7412  0.1708 -0.6893
13756TIP3    H241226   0.369   5.705   1.003  1.4989  0.7331 -0.0718
13757TIP3   OH241227   7.638   4.084   3.579 -0.0029  0.0780  0.3255
13757TIP3    H141228   7.664   3.992   3.577  0.9777  0.3359  0.8030
13757TIP3    H241229   7.545   4.082   3.556  0.6838 -0.7293 -2.8549
13758TIP3   OH241230   5.994   0.776   5.152 -0.0717  0.0905  0.7394
13758TIP3    H141231   6.072   0.830   5.164 -0.4517  0.1204  4.2881
13758TIP3    H241232   6.025   0.699   5.104  1.3684  1.5097 -0.7199
13759TIP3   OH241233   3.119   0.488   3.724  0.2063  0.1565 -0.1198
13759TIP3    H141234   3.124   0.403   3.768 -0.9348  0.5471  0.8286
13759TIP3    H241235   3.192   0.538   3.761 -0.3374  0.2543  0.8588
13760TIP3   OH241236   0.767   1.301   2.960  0.5619 -0.0963 -0.2313
13760TIP3    H141237   0.810   1.237   3.017  2.2579  0.4346 -0.8773
13760TIP3    H241238   0.788   1.272   2.871  0.7425  0.9599 -0.5387
13761TIP3   OH241239   4.145   0.464   6.437 -0.1324  0.5309  0.1784
13761TIP3    H141240   4.160   0.539   6.495 -1.0840  2.3506 -1.7604
13761TIP3    H241241   4.134   0.504   6.350 -1.3665 -1.8279 -0.8259
13762TIP3   OH241242   5.846   6.556   3.093  0.9595 -0.3766  0.2882
13762TIP3    H141243   5.800   6.548   3.009  0.6775  1.2708  0.2598
13762TIP3    H241244   5.790   6.510   3.156  0.5246 -0.5161 -0.1908
13763TIP3   OH241245   1.321   7.211   5.671 -0.3058  0.2376 -0.1098
13763TIP3    H141246   1.297   7.256   5.752 -1.5853 -0.4338 -0.0923
13763TIP3    H241247   1.308   7.118   5.690  1.5538 -0.1110 -0.3972
13764TIP3   OH241248   5.553   5.960   5.071 -0.1615 -0.1714  0.0013
13764TIP3    H141249   5.544   5.869   5.099 -0.6174 -0.1416 -0.0442
13764TIP3    H241250   5.579   6.007   5.150  0.3142 -0.3806 -0.0301
13765TIP3   OH241251   2.284   2.809   1.716  0.0857 -0.0316 -0.4562
13765TIP3    H141252   2.257   2.778   1.802  0.3984  0.4265 -0.1855
13765TIP3    H241253   2.283   2.905   1.724 -0.0959  0.0160 -1.0270
13766TIP3   OH241254   8.180   3.745   4.854 -0.1218 -0.0302  0.0271
13766TIP3    H141255   8.201   3.829   4.895  2.7264  0.3466 -1.9356
13766TIP3    H241256   8.176   3.765   4.761 -0.9327 -1.8389 -0.3591
13767TIP3   OH241257   4.551   5.654   6.231 -0.0143  0.0980  0.0873
13767TIP3    H141258   4.496   5.611   6.297 -0.4316 -0.2537 -0.4744
13767TIP3    H241259   4.631   5.603   6.229 -0.0372  0.0560  0.2608
13768TIP3   OH241260   7.435   6.911   5.814 -0.0590  0.3240 -0.2371
13768TIP3    H141261   7.450   6.898   5.908 -1.3684  2.0009  0.2352
13768TIP3    H241262   7.522   6.929   5.779  0.2966  0.7922  0.8443
13769TIP3   OH241263   6.739   3.856   3.781  0.0161 -0.2910  0.6517
13769TIP3    H141264   6.831   3.870   3.759  0.3076 -0.6079  1.6364
13769TIP3    H241265   6.714   3.933   3.832 -0.5162  0.2041 -0.3311
13770TIP3   OH241266   5.337   5.779   4.888 -0.6746 -0.1126 -0.1228
13770TIP3    H141267   5.250   5.815   4.878 -0.5809  0.8158  1.9135
13770TIP3    H241268   5.375   5.827   4.961  0.5447 -2.3158  0.8114
13771TIP3   OH241269   7.202   0.358   1.582  0.1083  0.1822 -0.1378
13771TIP3    H141270   7.177   0.316   1.664 -0.4868  1.5183  0.3971
13771TIP3    H241271   7.163   0.302   1.514  0.2696 -0.7191  0.4949
13772TIP3   OH241272   3.247   2.547   4.080 -0.0313  0.6007  0.5377
13772TIP3    H141273   3.268   2.454   4.069  0.7073  0.5988  1.8800
13772TIP3    H241274   3.153   2.547   4.100  0.1319  0.0798  1.3423
13773TIP3   OH241275   3.505   7.150   2.516  0.2969  0.2033 -0.1431
13773TIP3    H141276   3.505   7.084   2.447  1.0026 -0.7710  0.7477
13773TIP3    H241277   3.504   7.098   2.597 -0.3602  1.3094  0.5729
13774TIP3   OH241278   4.044   0.872   4.661  0.0190  0.1963 -0.5020
13774TIP3    H141279   3.955   0.844   4.642 -0.1839  1.0036 -0.7712
13774TIP3    H241280   4.036   0.925   4.740  0.1839  0.6976 -0.8215
13775TIP3   OH241281   7.094   7.577   1.069 -0.1979  0.2264 -0.0011
13775TIP3    H141282   7.178   7.570   1.114 -1.1855 -0.3891  1.8801
13775TIP3    H241283   7.044   7.640   1.122 -1.0201  0.3420 -0.8943
13776TIP3   OH241284   8.164   5.060   3.756  0.5414 -0.1088 -0.2778
13776TIP3    H141285   8.173   4.996   3.827 -0.5671 -1.7920 -1.5937
13776TIP3    H241286   8.243   5.049   3.704  1.3786  1.1608  0.6711
13777TIP3   OH241287   1.975   7.508   4.633  0.4239  0.4212 -0.4157
13777TIP3    H141288   2.045   7.482   4.693  0.7579 -0.3984 -1.1366
13777TIP3    H241289   1.948   7.427   4.590 -1.1333  0.6905 -0.0082
13778TIP3   OH241290   0.788   7.661   2.163  0.1576  0.1999 -0.0135
13778TIP3    H141291   0.718   7.630   2.220 -0.3642  1.8862  0.3174
13778TIP3    H241292   0.829   7.732   2.212  0.9649  0.4015 -0.9498
13779TIP3   OH241293   1.657   5.285   0.616  0.2069  0.0379 -0.3411
13779TIP3    H141294   1.752   5.280   0.627  0.0413 -0.9934  0.9781
13779TIP3    H241295   1.631   5.195   0.595 -0.5977  0.0219  0.6236
13780TIP3   OH241296   0.446   1.856   5.801  0.4909 -0.3403 -0.3582
13780TIP3    H141297   0.498   1.802   5.860 -0.2026 -0.2430  0.3606
13780TIP3    H241298   0.388   1.794   5.757  1.7120 -0.5630 -1.7581
13781TIP3   OH241299   6.439   5.069   6.454 -0.1217  0.6946  0.4450
13781TIP3    H141300   6.364   5.096   6.507  0.7856  1.4818  1.3762
13781TIP3    H241301   6.414   5.090   6.364 -1.4282 -0.0600  0.5951
13782TIP3   OH241302   6.763   4.836   0.645  0.3534  0.1602  0.2616
13782TIP3    H141303   6.700   4.786   0.592 -0.8666  2.4881 -0.6513
13782TIP3    H241304   6.767   4.789   0.728 -2.8884  0.0374  0.4829
13783TIP3   OH241305   5.212   6.190   2.820  0.3288  0.1807 -0.1728
13783TIP3    H141306   5.213   6.104   2.863 -0.6564 -0.5308 -1.4936
13783TIP3    H241307   5.266   6.178   2.742  0.7420  0.9730 -0.0153
13784TIP3   OH241308   0.560   2.100   0.778 -0.2371  0.0874 -0.0102
13784TIP3    H141309   0.505   2.050   0.717 -0.3884 -0.0227  0.2141
13784TIP3    H241310   0.619   2.035   0.816 -0.8629 -0.0557  0.7658
13785TIP3   OH241311   4.858   5.610   4.503  0.1238 -0.0570  0.0127
13785TIP3    H141312   4.823   5.634   4.417 -0.1722  2.2340  0.7105
13785TIP3    H241313   4.782   5.607   4.560  0.4485 -0.5260  0.4336
13786TIP3   OH241314   0.628   6.040   4.673  0.0360  0.1787 -0.0956
13786TIP3    H141315   0.563   6.086   4.620  1.5716  1.3630 -1.0162
13786TIP3    H241316   0.599   6.053   4.763  0.2718  2.8438 -0.3278
13787TIP3   OH241317   0.944   3.905   2.015 -0.0340 -0.4067  0.2282
13787TIP3    H141318   0.912   3.991   1.988 -1.8217 -0.9222  0.5378
13787TIP3    H241319   0.879   3.874   2.078  0.5760 -1.9810  0.1423
13788TIP3   OH241320   7.991   1.178   5.221  0.1003  0.0785  0.0406
13788TIP3    H141321   8.024   1.230   5.294  1.1790 -2.3635  1.4033
13788TIP3    H241322   7.909   1.141   5.252  0.5605 -0.9683  0.0793
13789TIP3   OH241323   7.762   6.996   4.065 -0.5413  0.7374 -0.0174
13789TIP3    H141324   7.694   6.951   4.114  0.4844 -1.4795 -0.5048
13789TIP3    H241325   7.807   7.051   4.129 -1.7965  1.0828  0.6016
13790TIP3   OH241326   7.233   1.799   3.307 -0.6808 -0.3243  0.2201
13790TIP3    H141327   7.174   1.769   3.376  0.3474 -0.6503  0.9778
13790TIP3    H241328   7.270   1.881   3.340  0.2129 -0.7505  0.3049
13791TIP3   OH241329   6.761   6.900   6.740  0.6431  0.6277  0.1257
13791TIP3    H141330   6.720   6.971   6.790 -0.4724  0.0189  0.1205
13791TIP3    H241331   6.845   6.886   6.783  1.3556  2.5997 -0.4722
13792TIP3   OH241332   7.074   0.875   4.936 -0.5459  0.3572  0.3254
13792TIP3    H141333   7.145   0.812   4.948 -0.8605 -0.1742 -0.4965
13792TIP3    H241334   7.103   0.953   4.983  0.1970 -0.1387  0.7140
13793TIP3   OH241335   2.186   3.750   4.521 -0.3706 -0.2108 -0.5870
13793TIP3    H141336   2.102   3.710   4.540 -0.1373 -0.7051 -0.5764
13793TIP3    H241337   2.196   3.819   4.586 -0.8226 -0.0663 -0.6714
13794TIP3   OH241338   7.491   4.419   3.780 -0.1262 -0.1475  0.0107
13794TIP3    H141339   7.532   4.477   3.716 -0.2806  0.1344  0.1702
13794TIP3    H241340   7.407   4.396   3.740 -0.5027  0.5384  0.3969
13795TIP3   OH241341   7.381   1.749   1.293  0.1466  0.6389  0.5989
13795TIP3    H141342   7.435   1.779   1.366  0.9764  1.6614 -0.4110
13795TIP3    H241343   7.426   1.671   1.260 -0.7230 -0.3726  1.7211
13796TIP3   OH241344   3.627   1.261   5.063  0.2031  0.3805  0.6803
13796TIP3    H141345   3.547   1.247   5.012 -0.4489  3.0752  0.8329
13796TIP3    H241346   3.606   1.227   5.150 -0.3802  0.0712  0.4291
13797TIP3   OH241347   6.519   1.432   2.392 -0.2010  0.4562  0.0532
13797TIP3    H141348   6.449   1.464   2.334 -0.5268 -1.9441 -0.9830
13797TIP3    H241349   6.543   1.509   2.444 -0.6430  2.4647 -2.4827
13798TIP3   OH241350   2.405   7.383   4.619 -0.1601 -0.1094 -0.1571
13798TIP3    H141351   2.359   7.415   4.697  0.1432  0.3072 -0.1459
13798TIP3    H241352   2.424   7.292   4.639 -0.6180 -0.1723  0.0068
13799TIP3   OH241353   6.842   4.444   3.597  0.2932  0.6966 -0.7126
13799TIP3    H141354   6.898   4.474   3.669  1.1839  0.4336 -1.2807
13799TIP3    H241355   6.845   4.348   3.604 -0.2755  0.6876 -0.6037
13800TIP3   OH241356   5.198   5.388   6.033  0.1288  1.0806  0.2915
13800TIP3    H141357   5.265   5.407   6.100  0.7170 -0.7101  0.2603
13800TIP3    H241358   5.245   5.392   5.950 -0.0282  0.8256  0.1881
13801TIP3   OH241359   0.817   0.717   1.145  1.1901  0.7209  0.1314
13801TIP3    H141360   0.723   0.701   1.136  1.1138  1.6124 -0.8580
13801TIP3    H241361   0.855   0.681   1.066  1.7763 -0.1874  0.8089
13802TIP3   OH241362   5.746   5.899   0.927 -0.6112 -0.2905 -0.1203
13802TIP3    H141363   5.836   5.880   0.900 -0.7794 -0.6705 -0.4077
13802TIP3    H241364   5.737   5.994   0.914 -0.0557 -0.1416  0.4956
13803TIP3   OH241365   3.024   1.546   1.382 -0.1887  0.0601  0.1778
13803TIP3    H141366   2.970   1.517   1.309  1.8927  0.4536 -1.6035
13803TIP3    H241367   3.011   1.641   1.387  0.6690  0.2307 -0.5823
13804TIP3   OH241368   6.945   0.979   5.764  0.6001  0.1098  0.1592
13804TIP3    H141369   6.911   1.026   5.840  0.8556  0.9951 -0.2576
13804TIP3    H241370   6.995   1.045   5.715  1.4824 -0.7426 -0.1332
13805TIP3   OH241371   3.919   6.940   6.377 -0.2325  0.4596  0.1973
13805TIP3    H141372   3.916   7.035   6.392 -0.5731  0.4600  0.1526
13805TIP3    H241373   3.978   6.930   6.302  0.3503  0.5756  0.6337
13806TIP3   OH241374   5.881   6.516   4.156 -0.0514  0.0349 -0.6091
13806TIP3    H141375   5.846   6.533   4.243  0.8431 -1.5182  0.1002
13806TIP3    H241376   5.947   6.584   4.142 -0.6546  0.6817 -0.3633
13807TIP3   OH241377   1.495   1.227   0.694 -0.2459  0.3071  0.4958
13807TIP3    H141378   1.570   1.220   0.754  1.2367  0.1357 -1.2830
13807TIP3    H241379   1.461   1.137   0.688 -0.8077  0.4323  1.5164
13808TIP3   OH241380   2.138   6.362   6.308  0.4863  0.2002 -0.3113
13808TIP3    H141381   2.117   6.410   6.228 -0.6056  2.1226  1.0519
13808TIP3    H241382   2.205   6.415   6.351  0.3136 -0.2408  0.5327
13809TIP3   OH241383   4.263   7.767   6.610 -0.1958 -0.1431  0.1063
13809TIP3    H141384   4.261   7.672   6.598 -1.8384  0.0179 -1.3243
13809TIP3    H241385   4.176   7.796   6.582 -0.0661  1.6938  1.4414
13810TIP3   OH241386   3.055   0.433   0.571 -0.4117 -0.4868  0.4465
13810TIP3    H141387   3.060   0.385   0.488 -0.0090 -0.0874  0.2328
13810TIP3    H241388   3.142   0.423   0.609  0.3838  1.7895 -0.5894
13811TIP3   OH241389   0.665   4.954   0.787 -0.5261  0.9288 -0.2265
13811TIP3    H141390   0.682   5.041   0.821  0.2641  0.4162  0.7383
13811TIP3    H241391   0.666   4.897   0.864  2.4273 -0.4509 -1.1474
13812TIP3   OH241392   2.031   2.180   6.131  0.0959 -0.6482 -0.0581
13812TIP3    H141393   1.999   2.196   6.043  1.4400  0.7614 -0.3409
13812TIP3    H241394   2.083   2.101   6.124  0.3866 -0.4147 -0.5865
13813TIP3   OH241395   8.240   4.094   2.720  0.1618  0.5935  0.3421
13813TIP3    H141396   8.236   4.109   2.814  0.0656 -2.0210  0.8465
13813TIP3    H241397   8.151   4.115   2.689 -0.3104 -0.1348  1.1521
13814TIP3   OH241398   5.035   4.951   4.812  0.1487  0.7583  0.0490
13814TIP3    H141399   5.125   4.917   4.809 -0.5012 -1.0002 -0.8018
13814TIP3    H241400   5.037   5.017   4.881  2.2894  1.3720 -0.5375
13815TIP3   OH241401   7.941   7.066   3.118 -0.5171 -0.3796  0.1255
13815TIP3    H141402   8.011   7.018   3.074 -0.1485  0.7145 -0.5496
13815TIP3    H241403   7.984   7.145   3.151 -1.2984 -0.0182  0.3032
13816TIP3   OH241404   6.977   1.708   0.376 -0.0981 -0.3755 -0.2180
13816TIP3    H141405   7.041   1.730   0.444 -0.6276  0.8043 -0.0840
13816TIP3    H241406   6.940   1.624   0.405 -0.4318  0.1882  1.0450
13817TIP3   OH241407   5.452   6.560   1.257  0.2236  0.0470  0.0205
13817TIP3    H141408   5.526   6.619   1.241 -1.6755  2.7987  0.7814
13817TIP3    H241409   5.431   6.572   1.350 -2.1452  0.6163 -0.5237
13818TIP3   OH241410   8.178   4.138   3.701  0.3261 -0.2018  0.3892
13818TIP3    H141411   8.174   4.206   3.767 -0.1511  0.6697 -0.5127
13818TIP3    H241412   8.087   4.122   3.676  0.4914 -0.5961  0.0149
13819TIP3   OH241413   6.605   0.295   2.508  0.2943  0.0776 -0.1654
13819TIP3    H141414   6.571   0.372   2.553  0.8290  0.4219 -0.3382
13819TIP3    H241415   6.669   0.330   2.445  1.7236 -0.6129  0.8536
13820TIP3   OH241416   0.384   5.265   4.832  0.2703 -0.1572  0.3023
13820TIP3    H141417   0.327   5.316   4.774  1.5501  0.5030 -0.4146
13820TIP3    H241418   0.325   5.227   4.896 -0.6383  3.8524  2.1636
13821TIP3   OH241419   2.544   2.811   2.105  0.2629  0.8828 -0.0056
13821TIP3    H141420   2.514   2.857   2.027 -1.8790 -0.3281  0.0162
13821TIP3    H241421   2.521   2.719   2.088  1.2672  0.3500  1.3705
13822TIP3   OH241422   6.591   5.638   3.890 -0.2649 -0.1251 -0.0054
13822TIP3    H141423   6.671   5.606   3.848 -1.8642 -4.0636 -0.4722
13822TIP3    H241424   6.600   5.612   3.982 -1.0371 -0.6976 -0.0875
13823TIP3   OH241425   6.528   1.057   4.834 -0.2124 -0.4441 -0.1220
13823TIP3    H141426   6.572   1.125   4.784  0.4975 -1.1342 -0.4635
13823TIP3    H241427   6.439   1.090   4.847 -0.8103 -0.7527 -2.8799
13824TIP3   OH241428   1.102   6.950   1.200 -0.0173  0.1279  0.4668
13824TIP3    H141429   1.188   6.928   1.163 -0.0130  1.0485 -0.0973
13824TIP3    H241430   1.050   6.978   1.125 -0.9950 -0.9180  0.7272
13825TIP3   OH241431   6.221   0.955   5.895  0.2127 -0.3856 -0.0780
13825TIP3    H141432   6.288   0.890   5.876  0.0296 -1.0566  1.4391
13825TIP3    H241433   6.189   0.933   5.983  0.2219  1.7992  0.5487
13826TIP3   OH241434   7.811   4.759   0.673 -0.2448 -0.0453  0.0277
13826TIP3    H141435   7.834   4.827   0.610  1.7284  0.3894  1.1290
13826TIP3    H241436   7.832   4.677   0.628 -0.0049  0.1983 -0.3086
13827TIP3   OH241437   4.478   2.632   4.566  0.2843  0.3683  0.7036
13827TIP3    H141438   4.526   2.664   4.642  0.3217  1.8985  0.0887
13827TIP3    H241439   4.504   2.692   4.495 -1.3263  0.2729 -0.0105
13828TIP3   OH241440   4.183   2.064   6.041  0.1213  0.1734  0.0838
13828TIP3    H141441   4.118   2.005   6.003  0.0531  0.2456  0.0870
13828TIP3    H241442   4.152   2.152   6.017 -1.0231  0.3422  1.9820
13829TIP3   OH241443   7.590   4.183   2.002  0.5235 -0.2382  0.4455
13829TIP3    H141444   7.655   4.238   2.046  0.4053  0.2299  0.0504
13829TIP3    H241445   7.514   4.239   1.992  0.5051 -0.3754 -0.2274
13830TIP3   OH241446   5.259   0.620   5.802  0.6474  0.0412  0.1233
13830TIP3    H141447   5.174   0.651   5.832  0.2765 -2.1017  1.4976
13830TIP3    H241448   5.317   0.695   5.815 -1.3703  2.4255 -3.1739
13831TIP3   OH241449   3.209   7.114   1.807 -0.7282  0.3421  0.5062
13831TIP3    H141450   3.130   7.168   1.804 -0.0021  1.3939 -1.3027
13831TIP3    H241451   3.223   7.088   1.716  1.7784  1.3912  0.5178
13832TIP3   OH241452   4.627   1.408   6.457 -0.3012 -0.3864  0.0238
13832TIP3    H141453   4.663   1.486   6.499  1.0951 -1.7555  1.5446
13832TIP3    H241454   4.539   1.434   6.429 -0.6618  1.1501  2.3155
13833TIP3   OH241455   1.363   6.433   3.607  0.0458  0.6342  0.0644
13833TIP3    H141456   1.415   6.378   3.666 -0.3885  0.1627  0.0245
13833TIP3    H241457   1.289   6.377   3.583 -0.9438  1.5874  0.8090
13834TIP3   OH241458   5.587   0.548   0.803 -0.6712 -0.2041  0.3225
13834TIP3    H141459   5.621   0.612   0.741 -1.4528 -0.0316  0.0644
13834TIP3    H241460   5.663   0.523   0.856 -0.0958 -0.0318 -0.4186
13835TIP3   OH241461   0.090   5.414   5.012 -0.4015 -0.3880  0.3652
13835TIP3    H141462   0.086   5.365   4.930  0.7538  0.9284 -0.5307
13835TIP3    H241463   0.070   5.504   4.987 -3.7251 -0.4757  2.1573
13836TIP3   OH241464   4.589   4.372   5.543 -0.1908  0.1277 -0.2683
13836TIP3    H141465   4.680   4.400   5.554 -0.3050  0.7041 -0.7273
13836TIP3    H241466   4.594   4.278   5.525  0.3104  0.1683 -0.3499
13837TIP3   OH241467   3.533   0.863   5.940  0.0938  0.0436  0.4008
13837TIP3    H141468   3.574   0.898   5.860 -0.3637  1.5650  0.8108
13837TIP3    H241469   3.585   0.898   6.011  1.4371 -2.5140  0.8190
13838TIP3   OH241470   4.802   3.418   3.695  0.1282  0.0748  1.0817
13838TIP3    H141471   4.746   3.492   3.719  1.2202  1.0225  0.8070
13838TIP3    H241472   4.752   3.341   3.720 -0.9908  0.9100  1.4947
13839TIP3   OH241473   6.275   4.574   0.469  0.6372 -0.5551 -0.0702
13839TIP3    H141474   6.231   4.613   0.393  2.4461 -1.3935 -1.6194
13839TIP3    H241475   6.364   4.610   0.466  1.4558 -2.4508  0.1919
13840TIP3   OH241476  -0.004   4.614   0.854  0.7833  0.0939  0.1109
13840TIP3    H141477   0.030   4.701   0.873  0.5182 -0.0345  1.2011
13840TIP3    H241478   0.030   4.558   0.923 -0.2116 -0.3838  0.2391
13841TIP3   OH241479   3.802   4.342   2.902  0.0463  0.2101  0.7573
13841TIP3    H141480   3.713   4.315   2.926  1.1222 -2.9527  1.6947
13841TIP3    H241481   3.852   4.335   2.983  1.4887  0.4056 -0.0749
13842TIP3   OH241482   3.776   7.356   1.087  0.1452 -0.2762 -0.1871
13842TIP3    H141483   3.787   7.320   0.999 -0.4911 -1.3648  0.1641
13842TIP3    H241484   3.816   7.291   1.145 -2.5019 -1.3191  0.5934
13843TIP3   OH241485   6.552   0.892   5.783 -0.2860  0.1612  0.2116
13843TIP3    H141486   6.494   0.833   5.832  0.8688 -0.6002  0.6968
13843TIP3    H241487   6.493   0.943   5.728 -1.2505 -2.4021 -1.2710
13844TIP3   OH241488   1.477   0.410   4.906 -0.7187 -0.1927 -0.4648
13844TIP3    H141489   1.456   0.393   4.998  1.3697 -2.5496 -0.3378
13844TIP3    H241490   1.464   0.505   4.896  0.2334  0.3861  2.6271
13845TIP3   OH241491   8.167   3.548   4.267 -0.2727  0.5193 -0.2226
13845TIP3    H141492   8.227   3.551   4.342  0.2611  0.9035 -0.6602
13845TIP3    H241493   8.123   3.633   4.269  0.7481  1.0876 -1.1528
13846TIP3   OH241494   7.544   6.211   2.103 -0.3858 -0.7685 -0.3126
13846TIP3    H141495   7.534   6.227   2.009  0.2599  0.2509 -0.2213
13846TIP3    H241496   7.541   6.116   2.112  0.6974 -0.9318 -1.5082
13847TIP3   OH241497   5.272   3.710   5.814 -0.6285 -0.0718  0.2008
13847TIP3    H141498   5.272   3.637   5.753  1.0419 -0.2235  0.3292
13847TIP3    H241499   5.329   3.775   5.773  1.2945 -0.5504  1.9684
13848TIP3   OH241500   4.400   7.080   1.744  0.3775  0.0909  0.2341
13848TIP3    H141501   4.473   7.141   1.732 -1.2139  1.7797 -1.7767
13848TIP3    H241502   4.345   7.121   1.810  1.0296 -0.9973  1.4819
13849TIP3   OH241503   7.274   0.400   0.631  0.3082  0.0286 -0.3165
13849TIP3    H141504   7.363   0.365   0.636  0.2013 -0.1261  0.7829
13849TIP3    H241505   7.273   0.471   0.695 -1.0637 -1.6238  1.6398
13850TIP3   OH241506   8.187   6.530   1.651 -0.0448  0.0385 -0.1816
13850TIP3    H141507   8.139   6.611   1.670  0.5523  0.3176  0.1651
13850TIP3    H241508   8.279   6.556   1.650  0.2564 -0.8801  1.2865
13851TIP3   OH241509   3.970   1.650   1.311  0.0184 -0.0964 -0.0537
13851TIP3    H141510   4.062   1.676   1.318 -0.2227  1.0753 -0.9097
13851TIP3    H241511   3.953   1.599   1.390  1.6030 -0.9785 -0.2424
13852TIP3   OH241512   2.005   2.067   1.209 -0.1934  0.6342 -0.7712
13852TIP3    H141513   1.995   2.079   1.115 -1.0829  0.8239 -0.6585
13852TIP3    H241514   2.000   2.155   1.245 -2.0017  0.3979 -0.3661
13853TIP3   OH241515   7.093   1.494   4.906 -0.3816  0.1932 -0.1513
13853TIP3    H141516   7.019   1.515   4.964 -0.4076 -0.9654  0.2567
13853TIP3    H241517   7.105   1.573   4.853 -1.8152  0.4528 -0.1213
13854TIP3   OH241518   0.533   3.523   3.385  0.2664 -0.1243  0.3292
13854TIP3    H141519   0.498   3.601   3.343  2.7007  0.6231 -0.4833
13854TIP3    H241520   0.544   3.461   3.313  3.1322  0.6640 -0.0280
13855TIP3   OH241521   0.370   7.125   1.467  0.0222 -0.1151  0.3903
13855TIP3    H141522   0.405   7.121   1.556  0.0733  0.8147  0.4199
13855TIP3    H241523   0.405   7.047   1.424  0.2054 -0.4364  1.1051
13856TIP3   OH241524   4.032   7.333   2.204 -0.5390  0.0346 -0.3334
13856TIP3    H141525   3.951   7.312   2.252  0.2741 -2.5887  0.0457
13856TIP3    H241526   4.017   7.420   2.169 -2.4633  0.7483  1.9947
13857TIP3   OH241527   5.629   4.430   6.351 -0.7798  0.1335  0.1915
13857TIP3    H141528   5.630   4.426   6.256  0.9338  1.2637  0.1077
13857TIP3    H241529   5.627   4.524   6.371  0.1729 -0.0405  1.2292
13858TIP3   OH241530   2.871   7.682   5.669  0.5479  0.5907 -0.4672
13858TIP3    H141531   2.834   7.712   5.586 -0.4295 -1.2772 -0.7698
13858TIP3    H241532   2.827   7.598   5.686  1.5578  0.3719  1.3664
13859TIP3   OH241533   0.022   3.110   3.280  0.1101 -0.5105  0.8213
13859TIP3    H141534  -0.025   3.103   3.363  0.5676 -2.2607  0.9705
13859TIP3    H241535   0.077   3.188   3.290 -0.1729 -0.4512  1.9911
13860TIP3   OH241536   1.433   7.739   6.386  0.0928 -0.4623  0.4714
13860TIP3    H141537   1.400   7.825   6.362 -0.9785 -0.8669  0.4618
13860TIP3    H241538   1.425   7.687   6.306  2.0508 -0.2195  0.0591
13861TIP3   OH241539   0.144   5.016   4.138 -0.7085 -0.6730  0.7590
13861TIP3    H141540   0.065   5.001   4.190 -1.0924  2.1566  1.1097
13861TIP3    H241541   0.117   5.076   4.069  1.1813  0.5984  1.0489
13862TIP3   OH241542   1.135   3.606   1.761 -0.3957  0.0993 -0.3240
13862TIP3    H141543   1.062   3.581   1.816  0.2039 -1.3245 -0.1288
13862TIP3    H241544   1.145   3.700   1.774 -0.5526 -0.1260  1.6404
13863TIP3   OH241545   6.342   2.484   2.446  0.1944 -0.0562 -0.2658
13863TIP3    H141546   6.274   2.450   2.388  1.3069 -3.0678 -0.0057
13863TIP3    H241547   6.409   2.518   2.386 -0.4487  0.6527 -0.5926
13864TIP3   OH241548   3.279   5.023   1.953  0.2150 -0.0919 -0.1751
13864TIP3    H141549   3.292   5.008   2.047  0.7379  2.3264  0.2112
13864TIP3    H241550   3.339   4.962   1.910  0.1418 -1.0687  1.0694
13865TIP3   OH241551   7.910   0.332   3.963 -0.2749  0.0875  0.2813
13865TIP3    H141552   7.920   0.304   3.872  0.8928  0.4773  0.2667
13865TIP3    H241553   7.842   0.276   3.998 -2.1039  1.1538 -1.3524
13866TIP3   OH241554   5.482   7.386   3.954 -0.3396 -0.6237  0.1636
13866TIP3    H141555   5.483   7.296   3.987 -1.0718 -0.8977 -0.5284
13866TIP3    H241556   5.429   7.382   3.875 -0.0993  0.3600 -0.0649
13867TIP3   OH241557   7.535   2.504   3.106  0.0575  0.2957 -0.1383
13867TIP3    H141558   7.461   2.544   3.151 -0.1628  0.5057 -0.6760
13867TIP3    H241559   7.552   2.423   3.155 -0.6975  0.1074 -0.1690
13868TIP3   OH241560   1.091   4.187   3.334 -0.8913  0.1097  0.0838
13868TIP3    H141561   1.135   4.261   3.292 -0.3403 -0.3162 -0.0851
13868TIP3    H241562   1.153   4.115   3.329  0.0098  0.5080  3.3073
13869TIP3   OH241563   1.062   3.757   5.524 -1.0471  0.0847  0.4729
13869TIP3    H141564   1.133   3.821   5.524 -0.2767 -0.6914 -1.9695
13869TIP3    H241565   1.101   3.677   5.559 -0.0015 -0.9356 -2.6883
13870TIP3   OH241566   7.432   3.057   5.422  0.7885  0.1436 -0.1487
13870TIP3    H141567   7.465   2.974   5.454 -1.0573 -0.1110  1.3069
13870TIP3    H241568   7.384   3.035   5.343  2.1344  0.1856 -1.0007
13871TIP3   OH241569   0.865   6.899   0.610 -0.4883 -0.1902 -0.1292
13871TIP3    H141570   0.785   6.850   0.596 -0.2630 -1.4410  2.4966
13871TIP3    H241571   0.933   6.848   0.566 -0.7292 -0.5770 -0.0545
13872TIP3   OH241572   4.813   4.469   0.649 -0.1457  0.1118  0.1419
13872TIP3    H141573   4.845   4.548   0.605 -0.0097 -0.7405 -1.3476
13872TIP3    H241574   4.748   4.501   0.711  1.2184  1.5669  0.9030
13873TIP3   OH241575   4.611   7.539   2.360  0.2358 -0.2742 -0.0276
13873TIP3    H141576   4.592   7.483   2.435 -1.0472 -0.5177 -0.5084
13873TIP3    H241577   4.538   7.600   2.356  0.3465 -0.1886 -1.0183
13874TIP3   OH241578   2.351   3.792   4.280 -0.6287 -0.1657  0.1361
13874TIP3    H141579   2.309   3.858   4.225 -1.1323 -1.7741 -1.4919
13874TIP3    H241580   2.294   3.785   4.357 -0.6950  1.0838  0.2284
13875TIP3   OH241581   1.512   6.897   4.683  0.2429  0.5079  0.5361
13875TIP3    H141582   1.568   6.973   4.663  1.5024 -0.6266 -0.4449
13875TIP3    H241583   1.529   6.836   4.612 -2.8012  0.3482 -0.1722
13876TIP3   OH241584   0.430   6.999   5.344  0.4146 -0.4771  0.2816
13876TIP3    H141585   0.392   6.998   5.432 -0.0635 -0.9756  0.0749
13876TIP3    H241586   0.356   6.983   5.286  1.0765 -2.5993 -0.0611
13877TIP3   OH241587   3.662   1.317   3.768 -0.5792  0.5207 -0.5437
13877TIP3    H141588   3.611   1.397   3.784 -0.8918 -0.0479  1.7068
13877TIP3    H241589   3.750   1.349   3.751 -0.8892  1.3783 -0.6304
13878TIP3   OH241590   6.192   0.074   0.125 -0.0452  0.7325  0.1795
13878TIP3    H141591   6.125   0.067   0.192  0.8712 -2.0267  0.9297
13878TIP3    H241592   6.272   0.095   0.173  0.1809  1.1093 -0.3515
13879TIP3   OH241593   6.126   1.516   5.660 -0.4683 -0.2986 -0.6940
13879TIP3    H141594   6.207   1.527   5.710 -0.5803 -1.4924 -0.2180
13879TIP3    H241595   6.143   1.440   5.604 -0.4928  0.7497 -2.2016
13880TIP3   OH241596   7.973   3.839   2.575  1.1360  0.2978 -0.2867
13880TIP3    H141597   7.958   3.911   2.514 -0.9951  0.0340 -0.1580
13880TIP3    H241598   8.067   3.822   2.570  1.1543  0.7560 -2.9352
13881TIP3   OH241599   6.729   2.186   0.312 -0.1543  0.3201  0.0999
13881TIP3    H141600   6.771   2.101   0.299  0.5381  0.4361  1.4428
13881TIP3    H241601   6.675   2.198   0.234 -1.2997 -1.9243  0.4680
13882TIP3   OH241602   0.729   2.450   3.848 -0.2107  0.1479  0.0179
13882TIP3    H141603   0.742   2.400   3.929 -0.4690  0.3744  0.1966
13882TIP3    H241604   0.743   2.385   3.778  1.3423  0.2396  0.2010
13883TIP3   OH241605   6.684   3.080   2.880 -0.1291 -0.0139  0.9263
13883TIP3    H141606   6.682   3.171   2.910 -0.0896  0.8610 -1.5015
13883TIP3    H241607   6.594   3.049   2.890 -0.6053  0.9692  0.0035
13884TIP3   OH241608   5.581   0.763   2.088 -0.7871  0.4948 -0.1224
13884TIP3    H141609   5.549   0.807   2.009  0.3621  1.2813 -0.1740
13884TIP3    H241610   5.658   0.714   2.059  0.3882  1.7777  0.7081
13885TIP3   OH241611   0.992   5.044   4.527 -0.5940 -0.3798 -0.7918
13885TIP3    H141612   1.080   5.028   4.560 -0.4433 -1.5797 -1.7236
13885TIP3    H241613   0.952   5.101   4.593  0.7338 -0.1390 -0.1622
13886TIP3   OH241614   5.013   6.973   5.451  0.3008 -0.6465  0.0703
13886TIP3    H141615   4.953   7.030   5.404 -0.6326 -0.9465  0.8577
13886TIP3    H241616   5.030   7.020   5.533  1.5491 -0.3370 -0.3459
13887TIP3   OH241617   1.647   6.354   1.961 -0.4894  0.7374  0.2057
13887TIP3    H141618   1.707   6.427   1.944 -1.5569  1.4753 -0.4869
13887TIP3    H241619   1.622   6.364   2.053  0.4102  0.4321  0.4967
13888TIP3   OH241620   3.159   5.488   0.154 -0.3091  0.2893  0.5435
13888TIP3    H141621   3.138   5.420   0.090  0.6492  0.3829  0.1119
13888TIP3    H241622   3.133   5.569   0.112 -0.0547  0.3134  0.4250
13889TIP3   OH241623   3.382   0.234   0.756  1.0627 -0.5542 -0.0220
13889TIP3    H141624   3.360   0.173   0.685  0.1406 -0.9830  0.6139
13889TIP3    H241625   3.441   0.184   0.813  1.1864 -0.4715 -0.0767
13890TIP3   OH241626   4.413   0.545   2.518  0.0655  0.0048 -0.0881
13890TIP3    H141627   4.461   0.578   2.594 -2.5539  2.7690  0.5490
13890TIP3    H241628   4.330   0.514   2.553 -1.5576  2.1325 -1.8016
13891TIP3   OH241629   4.215   1.394   0.965  0.4608  0.4665 -0.0757
13891TIP3    H141630   4.192   1.351   1.048 -1.1425  0.7912 -0.3212
13891TIP3    H241631   4.173   1.480   0.970 -0.4314  0.1556 -1.5815
13892TIP3   OH241632   2.538   6.315   3.518 -0.0179 -0.1968  0.7957
13892TIP3    H141633   2.456   6.300   3.471  0.0671 -1.5279  1.0523
13892TIP3    H241634   2.514   6.378   3.587 -0.3320  1.0634 -0.4207
13893TIP3   OH241635   4.645   6.581   2.800 -0.5013 -0.1385 -0.3510
13893TIP3    H141636   4.698   6.625   2.866  0.2501 -2.2112  0.5246
13893TIP3    H241637   4.703   6.569   2.725  0.6560 -3.0032  0.8477
13894TIP3   OH241638   5.213   4.167   4.720  0.0657 -0.4770 -0.1755
13894TIP3    H141639   5.291   4.112   4.726  0.0266 -0.4904  0.2589
13894TIP3    H241640   5.244   4.256   4.739 -0.0407 -0.4991  0.1105
13895TIP3   OH241641   7.411   1.446   1.483  0.4094  0.8131  0.5058
13895TIP3    H141642   7.478   1.492   1.433  0.7295 -1.0976 -0.9688
13895TIP3    H241643   7.423   1.354   1.459 -2.2812  0.3148  0.7613
13896TIP3   OH241644   7.884   6.876   0.771  0.0607 -0.6280  0.2023
13896TIP3    H141645   7.859   6.785   0.790 -0.6234 -0.6975 -0.9874
13896TIP3    H241646   7.923   6.873   0.684 -0.4135  0.3079 -0.0478
13897TIP3   OH241647   2.819   1.695   2.360 -0.4284 -0.0617  0.2035
13897TIP3    H141648   2.830   1.659   2.271  1.5089  1.7931 -0.3885
13897TIP3    H241649   2.761   1.769   2.349 -3.6981 -2.2546  1.2886
13898TIP3   OH241650   6.032   3.004   2.488 -0.2841  0.3091 -0.1777
13898TIP3    H141651   6.060   3.035   2.574 -2.1289 -0.1073  0.6301
13898TIP3    H241652   6.041   2.909   2.492 -1.7427  0.1510  0.1421
13899TIP3   OH241653   6.925   3.638   0.450  0.0366  0.8419  0.3795
13899TIP3    H141654   7.003   3.676   0.490 -1.2940  0.6515  3.3917
13899TIP3    H241655   6.952   3.550   0.424  0.8204  0.7457  1.4480
13900TIP3   OH241656   0.986   5.665   5.125  0.2351  0.0391  0.0675
13900TIP3    H141657   0.985   5.712   5.041  2.4748 -0.5163 -0.3179
13900TIP3    H241658   0.940   5.583   5.106  2.6300 -1.0910 -1.3220
13901TIP3   OH241659   6.760   6.013   4.880 -0.3563 -0.5260 -0.1514
13901TIP3    H141660   6.705   5.951   4.927  0.5851  0.9995  3.3510
13901TIP3    H241661   6.714   6.096   4.887  1.1406  0.2917  0.6916
13902TIP3   OH241662   5.176   3.335   6.751 -0.0415  0.1746  0.1601
13902TIP3    H141663   5.115   3.351   6.679 -0.4915 -0.9661  0.2636
13902TIP3    H241664   5.161   3.407   6.811 -4.2837 -1.9820  2.1336
13903TIP3   OH241665   2.426   2.514   4.459 -0.4807  0.1172  0.2263
13903TIP3    H141666   2.456   2.495   4.548 -0.0057  0.1220  0.0679
13903TIP3    H241667   2.380   2.434   4.432  0.2100 -0.2533  0.1195
13904TIP3   OH241668   7.316   0.404   1.000  0.5141  0.1378  0.8114
13904TIP3    H141669   7.409   0.380   1.005  0.6596  0.7139  0.8982
13904TIP3    H241670   7.314   0.497   1.022  0.0995  0.4961 -0.6212
13905TIP3   OH241671   4.735   7.786   1.138 -0.0751 -0.4071  0.9302
13905TIP3    H141672   4.640   7.778   1.127  0.1976 -4.4730 -0.1457
13905TIP3    H241673   4.751   7.763   1.229 -0.1399  0.4756  1.1634
13906TIP3   OH241674   4.663   0.879   6.082 -0.6758 -1.1194  0.0711
13906TIP3    H141675   4.649   0.963   6.125  1.4902 -1.3528  1.3889
13906TIP3    H241676   4.679   0.901   5.990  0.6603  0.0413  0.5443
13907TIP3   OH241677   6.086   2.054   4.966 -0.2914 -0.4013 -0.0637
13907TIP3    H141678   6.074   2.072   5.059 -2.1306 -0.4293 -0.2485
13907TIP3    H241679   6.132   1.970   4.963  1.3917  0.4514  0.7916
13908TIP3   OH241680   5.616   5.817   6.485 -0.0458  0.4425  0.0819
13908TIP3    H141681   5.543   5.848   6.538 -0.4516  0.0169 -0.2188
13908TIP3    H241682   5.652   5.896   6.444  0.5007  0.8259  1.2505
13909TIP3   OH241683   7.713   3.620   6.656  0.8308  0.3738  0.5217
13909TIP3    H141684   7.687   3.550   6.716 -1.2548 -1.2197 -2.0293
13909TIP3    H241685   7.780   3.581   6.600 -1.4356 -0.2904 -1.9380
13910TIP3   OH241686   1.033   2.521   3.001 -0.1489  0.2462 -0.0237
13910TIP3    H141687   1.111   2.574   2.980 -0.1760  0.4114  0.2787
13910TIP3    H241688   1.049   2.437   2.959 -0.2758  0.6144 -0.8318
13911TIP3   OH241689   8.006   6.610   2.183 -0.6185  0.2323 -0.2830
13911TIP3    H141690   8.048   6.524   2.190 -0.8437  0.1960  0.7742
13911TIP3    H241691   7.980   6.631   2.272 -1.5219  0.9308 -0.7012
13912TIP3   OH241692   1.862   4.428   4.088 -0.4555  0.0083 -0.1254
13912TIP3    H141693   1.906   4.421   4.173  0.1069  1.0721 -0.3070
13912TIP3    H241694   1.933   4.437   4.025 -0.9051  0.7171 -0.5392
13913TIP3   OH241695   8.043   1.212   0.620  0.3574  0.0742  0.6891
13913TIP3    H141696   8.034   1.134   0.676 -0.8265 -0.3317 -0.0230
13913TIP3    H241697   8.055   1.284   0.681 -0.3376 -0.4392  1.4626
13914TIP3   OH241698   4.714   5.750   5.665  0.1821 -0.3390 -0.0102
13914TIP3    H141699   4.680   5.754   5.755 -1.1139  1.2650 -0.5105
13914TIP3    H241700   4.760   5.833   5.654 -1.6205  0.5416 -1.4935
13915TIP3   OH241701   4.144   5.786   6.027 -0.5034 -0.1824 -0.5749
13915TIP3    H141702   4.217   5.825   6.076 -1.0943 -0.5201  0.6283
13915TIP3    H241703   4.176   5.699   6.002 -0.2633 -0.0817 -0.6249
13916TIP3   OH241704   7.339   2.458   6.061 -0.2060  0.4637  0.0554
13916TIP3    H141705   7.392   2.386   6.025 -0.5538 -0.6659  1.6850
13916TIP3    H241706   7.275   2.414   6.118 -0.0226  2.0993  1.6054
13917TIP3   OH241707   2.918   7.122   1.383 -0.2309 -0.0097  0.7133
13917TIP3    H141708   2.929   7.114   1.288 -1.3690  0.7441  0.4994
13917TIP3    H241709   2.946   7.212   1.403  1.0595 -0.5091  1.2771
13918TIP3   OH241710   7.041   5.473   0.750  0.0298  0.3129  0.1623
13918TIP3    H141711   7.109   5.531   0.716  0.4384 -0.9484 -1.2698
13918TIP3    H241712   6.967   5.486   0.691 -0.4860  0.6157  0.8636
13919TIP3   OH241713   1.081   5.454   5.400 -0.3360  0.1805 -0.2601
13919TIP3    H141714   1.090   5.382   5.462  0.5586 -0.8653 -1.5538
13919TIP3    H241715   1.097   5.533   5.452  3.6052 -0.7864  0.3089
13920TIP3   OH241716   6.914   3.581   1.112 -0.2006  0.3996  0.2336
13920TIP3    H141717   6.970   3.619   1.180 -1.7846 -0.8460  2.3489
13920TIP3    H241718   6.903   3.489   1.139 -0.5701 -0.2599 -1.9616
13921TIP3   OH241719   1.254   7.481   3.553 -0.2997 -0.5862  0.3503
13921TIP3    H141720   1.288   7.391   3.553  0.4129 -0.3178  0.2069
13921TIP3    H241721   1.189   7.482   3.623  1.9403 -0.3596  2.5361
13922TIP3   OH241722   2.944   4.468   6.391  0.8294  0.0782 -0.6313
13922TIP3    H141723   2.908   4.438   6.475  1.4530 -1.8142 -1.0015
13922TIP3    H241724   2.887   4.540   6.366  0.0539  0.0767  0.9677
13923TIP3   OH241725   2.994   0.564   2.978  0.3222  0.3290  0.6965
13923TIP3    H141726   2.928   0.589   2.913  0.6974  0.7930  0.4871
13923TIP3    H241727   3.073   0.612   2.952  0.9079 -0.6321  0.6196
13924TIP3   OH241728   3.439   5.146   3.416 -0.1407  0.6312 -0.0828
13924TIP3    H141729   3.496   5.069   3.413 -1.8161 -0.7077  0.9025
13924TIP3    H241730   3.479   5.207   3.354  0.3165 -1.6921 -2.2527
13925TIP3   OH241731   5.108   7.532   3.619  0.5057 -0.4007 -0.3264
13925TIP3    H141732   5.032   7.551   3.564  0.7924  2.1310  0.0352
13925TIP3    H241733   5.073   7.533   3.709  0.8768  0.2417 -0.1899
13926TIP3   OH241734   4.548   6.157   1.747 -0.3597  0.3426  0.2650
13926TIP3    H141735   4.602   6.229   1.716 -0.9626  0.0377 -1.6112
13926TIP3    H241736   4.557   6.159   1.842  1.5971  1.3255  0.0966
13927TIP3   OH241737   5.084   0.247   6.151  0.1834  0.0468 -0.5162
13927TIP3    H141738   5.104   0.229   6.243 -1.0704 -0.9523 -0.4107
13927TIP3    H241739   4.990   0.230   6.143  0.0024  1.4097 -1.6928
13928TIP3   OH241740   4.790   2.350   1.634 -0.4319 -0.0329 -0.2533
13928TIP3    H141741   4.822   2.411   1.568  0.8308  0.8074  1.0793
13928TIP3    H241742   4.723   2.299   1.589  0.3628  0.5267 -2.1685
13929TIP3   OH241743   3.851   2.704   1.145 -0.4896  0.3668 -0.3236
13929TIP3    H141744   3.919   2.638   1.159 -0.5125 -0.8143 -4.4154
13929TIP3    H241745   3.783   2.682   1.208  0.5449 -2.0388  0.0651
13930TIP3   OH241746   2.846   1.544   2.151  0.0570  0.4644  0.2433
13930TIP3    H141747   2.774   1.570   2.093  0.2313 -3.6351 -2.1802
13930TIP3    H241748   2.925   1.573   2.104  0.1213  0.9364  0.6345
13931TIP3   OH241749   0.937   7.563   4.807  0.5780 -0.3044 -0.2588
13931TIP3    H141750   0.972   7.485   4.762  3.3383  0.2803  0.6383
13931TIP3    H241751   0.931   7.536   4.899  0.6782  0.2631 -0.0854
13932TIP3   OH241752   1.436   2.439   2.601 -0.3010  0.6501  0.2428
13932TIP3    H141753   1.416   2.347   2.583  0.4010  0.4587  0.4445
13932TIP3    H241754   1.531   2.443   2.604 -0.2655  1.6252 -1.0317
13933TIP3   OH241755   4.092   4.189   1.989 -0.5517 -0.1005 -0.1610
13933TIP3    H141756   4.103   4.107   2.037 -0.8209 -0.7656 -1.2057
13933TIP3    H241757   4.027   4.169   1.921  0.4533  0.5541 -1.3588
13934TIP3   OH241758   7.001   1.542   5.601  0.0636 -0.1893  0.0761
13934TIP3    H141759   6.924   1.598   5.600 -0.6093 -1.0822 -1.8452
13934TIP3    H241760   7.057   1.579   5.670 -1.2420  1.5880  0.2358
13935TIP3   OH241761   0.286   6.055   3.505 -0.0971  0.0558 -0.0336
13935TIP3    H141762   0.327   6.066   3.419  1.0779 -1.2752  0.3298
13935TIP3    H241763   0.277   5.960   3.515  0.7076  0.1359  1.7265
13936TIP3   OH241764   4.829   7.130   0.974 -0.0177  0.5385 -0.1154
13936TIP3    H141765   4.858   7.219   0.996  0.8628  0.3868 -0.5948
13936TIP3    H241766   4.910   7.082   0.957 -0.5519  0.2367 -2.0822
13937TIP3   OH241767   4.793   3.276   6.702  0.7587 -0.6373 -0.5979
13937TIP3    H141768   4.825   3.185   6.694 -0.7091 -1.1077 -1.3713
13937TIP3    H241769   4.705   3.274   6.664  0.8406  1.2057 -0.9478
13938TIP3   OH241770   7.173   2.319   2.642 -0.1024 -0.3101 -0.3072
13938TIP3    H141771   7.223   2.259   2.587  1.9673  1.3561 -0.3576
13938TIP3    H241772   7.233   2.344   2.712 -1.4652  0.4358  0.6363
13939TIP3   OH241773   5.010   0.647   1.243  0.2668 -0.2934 -0.2341
13939TIP3    H141774   5.059   0.566   1.259  2.1648  0.8111 -0.0975
13939TIP3    H241775   5.037   0.676   1.156 -0.1818  0.3252 -0.1807
13940TIP3   OH241776   5.993   4.316   4.707  0.0932  0.0686 -0.0128
13940TIP3    H141777   5.975   4.356   4.622 -4.5582  0.5838  0.9474
13940TIP3    H241778   5.926   4.353   4.766  2.8836 -0.4424  3.8929
13941TIP3   OH241779   0.222   2.053   0.133  0.2946  0.3329 -0.5160
13941TIP3    H141780   0.229   1.968   0.090 -0.0635  0.0706 -0.0586
13941TIP3    H241781   0.183   2.034   0.218 -2.0289  1.2080 -1.3056
13942TIP3   OH241782   6.217   1.842   6.083  0.3690  0.3219 -0.1039
13942TIP3    H141783   6.190   1.883   6.165  0.4335  1.4773 -0.6315
13942TIP3    H241784   6.283   1.902   6.047 -0.3707  0.3721 -1.4669
13943TIP3   OH241785   0.415   3.024   6.719 -0.3892  0.0897  0.2044
13943TIP3    H141786   0.477   2.990   6.783  0.0369 -1.7480 -1.0732
13943TIP3    H241787   0.362   3.087   6.767  0.3819 -0.6620  2.1516
13944TIP3   OH241788   8.032   1.794   1.716  0.7361 -0.1198  0.1240
13944TIP3    H141789   7.987   1.861   1.767 -0.1352 -1.9786  1.9502
13944TIP3    H241790   7.997   1.803   1.627 -1.1818  0.3088  0.8680
13945TIP3   OH241791   1.421   6.406   6.280 -0.0886  0.4428 -0.0275
13945TIP3    H141792   1.377   6.462   6.216 -2.5440 -0.7868  0.4662
13945TIP3    H241793   1.410   6.451   6.364 -1.3883 -0.3347  0.2512
13946TIP3   OH241794   3.959   7.415   3.947 -0.1437  0.4850 -0.1706
13946TIP3    H141795   4.028   7.474   3.918  0.8685 -1.2035 -1.3611
13946TIP3    H241796   3.881   7.442   3.899  0.7071 -0.1394 -1.9853
13947TIP3   OH241797   1.895   6.475   4.368  0.5467 -0.3363  0.1032
13947TIP3    H141798   1.986   6.446   4.358  1.0126  0.6635  1.1622
13947TIP3    H241799   1.866   6.438   4.451  1.1113  1.9445  1.4176
13948TIP3   OH241800   6.939   6.614   6.353  0.0674  0.3083  0.4604
13948TIP3    H141801   6.990   6.540   6.321 -1.1468  0.3736 -1.8083
13948TIP3    H241802   6.981   6.691   6.314 -0.5166  0.5379  0.2688
13949TIP3   OH241803   6.789   7.553   1.655 -0.3292 -0.1991  0.7570
13949TIP3    H141804   6.825   7.503   1.581 -0.0584 -0.6178  1.1670
13949TIP3    H241805   6.705   7.587   1.623 -0.2536 -0.4498  0.2885
13950TIP3   OH241806   1.571   7.407   4.550  0.0135  0.3378 -0.0017
13950TIP3    H141807   1.543   7.432   4.462  0.8119  0.8712 -0.1103
13950TIP3    H241808   1.498   7.355   4.584 -0.4647  0.4464 -0.8314
13951TIP3   OH241809   3.515   4.607   4.236 -0.4653 -0.1071  0.2714
13951TIP3    H141810   3.585   4.665   4.267  0.6285 -1.0304 -0.4233
13951TIP3    H241811   3.453   4.667   4.194  0.0588  0.7000  0.6068
13952TIP3   OH241812   6.786   3.219   5.476 -0.0846 -0.1852 -0.0402
13952TIP3    H141813   6.798   3.201   5.383 -0.0313  0.5648 -0.1852
13952TIP3    H241814   6.747   3.306   5.479  1.4830  0.5446  0.6809
13953TIP3   OH241815   0.037   5.662   5.201  0.4629 -0.0018 -0.1500
13953TIP3    H141816   0.129   5.639   5.189  0.8969  0.9806  1.0774
13953TIP3    H241817   0.019   5.639   5.293  0.3493  2.4857  0.5272
13954TIP3   OH241818   7.434   5.183   1.124 -0.6831 -0.0455  0.4640
13954TIP3    H141819   7.370   5.114   1.107 -0.6712  0.1393 -0.3589
13954TIP3    H241820   7.511   5.156   1.075 -0.0168 -0.4023  1.6564
13955TIP3   OH241821   6.970   4.976   2.654 -0.0024 -0.3325  0.2744
13955TIP3    H141822   6.913   4.981   2.578 -1.0245  2.0313  1.1081
13955TIP3    H241823   6.915   4.936   2.722 -0.0074  0.0505  0.5005
13956TIP3   OH241824   2.113   3.266   4.114  0.3579 -0.3292  0.3461
13956TIP3    H141825   2.180   3.225   4.058  0.2419  0.7446 -0.6235
13956TIP3    H241826   2.107   3.356   4.081 -1.4385 -0.3523  0.5255
13957TIP3   OH241827   7.935   3.583   0.086  0.2437 -0.3298  0.2227
13957TIP3    H141828   7.887   3.524   0.027 -0.6754  1.8868 -1.3768
13957TIP3    H241829   8.016   3.603   0.040 -0.9168  2.2196 -0.9389
13958TIP3   OH241830   2.115   1.456   0.781  0.1872  0.1207 -0.6273
13958TIP3    H141831   2.054   1.441   0.709 -0.9928 -0.6604  0.4981
13958TIP3    H241832   2.083   1.401   0.852  2.5992 -0.8522 -0.1920
13959TIP3   OH241833   6.727   3.268   4.871  0.0516  0.3621 -0.0669
13959TIP3    H141834   6.638   3.293   4.846  0.3105  1.2117 -0.1816
13959TIP3    H241835   6.717   3.222   4.954 -0.2700  2.9935  1.4757
13960TIP3   OH241836   7.162   1.686   0.642  0.1984 -0.0945 -0.2585
13960TIP3    H141837   7.223   1.723   0.705 -0.1523 -0.7085  0.4577
13960TIP3    H241838   7.211   1.684   0.560  0.2355  1.9220 -0.3448
13961TIP3   OH241839   4.324   0.250   2.573  0.0306 -0.4511 -0.1139
13961TIP3    H141840   4.293   0.315   2.636  3.0685  0.3427  0.7108
13961TIP3    H241841   4.292   0.282   2.488  1.1760  2.0381  0.2967
13962TIP3   OH241842   1.564   2.326   4.708 -0.3814 -0.0413  0.0902
13962TIP3    H141843   1.626   2.256   4.690  0.0653  0.4792 -0.4306
13962TIP3    H241844   1.532   2.308   4.797  1.2622  0.2304  0.7827
13963TIP3   OH241845   0.118   6.709   5.884 -0.4150 -0.2188 -0.0910
13963TIP3    H141846   0.179   6.782   5.892 -1.4343  0.6807 -0.3501
13963TIP3    H241847   0.173   6.631   5.891  0.5833  0.5592  1.0042
13964TIP3   OH241848   7.085   4.707   2.184 -0.1320  0.5604  0.3526
13964TIP3    H141849   7.137   4.761   2.125  1.5735  0.7186  1.9094
13964TIP3    H241850   7.055   4.767   2.252 -1.0121  0.1647  0.3202
13965TIP3   OH241851   1.697   5.289   3.023 -0.4901  0.7922  0.2855
13965TIP3    H141852   1.637   5.311   2.952 -1.0552  0.6349  0.7076
13965TIP3    H241853   1.719   5.198   3.008 -0.9867  0.6181  0.5717
13966TIP3   OH241854   1.065   0.621   0.119  0.1252 -0.5894  0.5335
13966TIP3    H141855   1.087   0.690   0.056 -1.8599 -0.3519  0.0055
13966TIP3    H241856   1.074   0.539   0.070 -1.3055 -0.4117 -0.0921
13967TIP3   OH241857   3.342   7.308   5.842 -0.1149  0.1733 -0.6025
13967TIP3    H141858   3.294   7.374   5.892  0.4837  0.9645 -1.0418
13967TIP3    H241859   3.336   7.338   5.751  0.4924 -0.1619 -0.7594
13968TIP3   OH241860   4.412   4.033   0.910 -0.3655  0.4859  0.2182
13968TIP3    H141861   4.445   4.111   0.867  2.8432 -0.4795  0.6850
13968TIP3    H241862   4.447   4.038   0.999 -0.0084 -1.4738  0.2332
13969TIP3   OH241863   5.849   5.788   4.517 -0.0373 -0.2754 -0.2139
13969TIP3    H141864   5.863   5.853   4.448 -2.5898  0.1716 -0.4167
13969TIP3    H241865   5.800   5.717   4.474  0.7663 -1.3227  0.5282
13970TIP3   OH241866   1.323   1.627   6.467  0.1546 -0.2059  0.0375
13970TIP3    H141867   1.244   1.675   6.443  0.0048 -0.9412 -1.0089
13970TIP3    H241868   1.293   1.538   6.486  0.5161 -0.0723  1.3132
13971TIP3   OH241869   5.179   0.486   6.760 -0.0299 -0.3320 -0.1063
13971TIP3    H141870   5.088   0.459   6.748 -1.0140  1.0958  3.2220
13971TIP3    H241871   5.227   0.403   6.765 -1.0869 -1.1092 -1.7997
13972TIP3   OH241872   1.128   1.945   0.447  0.1204  0.2441 -0.0144
13972TIP3    H141873   1.200   1.930   0.385 -0.5827 -0.0363 -0.7783
13972TIP3    H241874   1.090   2.029   0.419 -0.1629  0.1457  0.0813
13973TIP3   OH241875   5.955   0.271   1.866  0.0460 -0.7421  0.2083
13973TIP3    H141876   6.006   0.299   1.941  0.0172  2.5805 -0.8577
13973TIP3    H241877   5.866   0.260   1.899 -0.1211  1.3999  0.6160
13974TIP3   OH241878   2.809   5.682   2.357  0.2769  0.1363 -0.1194
13974TIP3    H141879   2.893   5.687   2.312 -0.5440  0.3988 -1.6966
13974TIP3    H241880   2.774   5.772   2.353  0.0771  0.1153  0.8630
13975TIP3   OH241881   0.798   6.491   6.338  0.0234 -0.6613  0.1594
13975TIP3    H141882   0.831   6.460   6.423 -0.4160  0.9538  0.9697
13975TIP3    H241883   0.876   6.507   6.286  0.4428  0.5629  1.1131
13976TIP3   OH241884   6.045   7.845   0.058 -0.1517  0.0685 -0.0010
13976TIP3    H141885   6.054   7.822  -0.035  2.3133  0.5326  0.0550
13976TIP3    H241886   6.041   7.761   0.103  0.6613 -0.1861 -0.3929
13977TIP3   OH241887   2.797   3.763   3.439 -0.1202 -0.1240 -0.5062
13977TIP3    H141888   2.842   3.682   3.415 -0.2333 -0.8787  1.5624
13977TIP3    H241889   2.712   3.734   3.472  0.8888  0.4228  3.0383
13978TIP3   OH241890   2.855   6.138   0.398 -0.5164  0.0841  0.2637
13978TIP3    H141891   2.948   6.120   0.383 -0.7339  0.1156 -1.2044
13978TIP3    H241892   2.809   6.067   0.353 -1.2397  1.1923 -0.7905
13979TIP3   OH241893   3.383   0.721   3.545 -0.2895  0.4664  0.1828
13979TIP3    H141894   3.309   0.729   3.484  0.0698  1.1765 -0.1661
13979TIP3    H241895   3.457   0.759   3.498  0.4104 -0.6458  0.3579
13980TIP3   OH241896   1.250   4.033   0.818 -0.3433 -0.1665 -0.4302
13980TIP3    H141897   1.159   4.063   0.820 -0.0228  0.8746  2.2291
13980TIP3    H241898   1.292   4.079   0.890  1.8833 -1.9652 -0.4675
13981TIP3   OH241899   7.834   0.539   4.714  0.4699 -0.3165 -0.1946
13981TIP3    H141900   7.830   0.549   4.809 -0.4109  0.2771 -0.2785
13981TIP3    H241901   7.900   0.472   4.699  0.7004 -0.3281  0.8307
13982TIP3   OH241902   6.923   0.776   3.116  0.1631 -0.3612 -0.1855
13982TIP3    H141903   7.008   0.782   3.160  0.6759 -2.9515 -0.6783
13982TIP3    H241904   6.860   0.806   3.181  1.3750  1.1560  0.3465
13983TIP3   OH241905   0.605   3.469   0.078  0.1486  0.6010  0.1634
13983TIP3    H141906   0.683   3.415   0.076  0.2809  0.7007  1.5953
13983TIP3    H241907   0.557   3.446  -0.002  1.2469 -0.0306 -0.3230
13984TIP3   OH241908   6.500   4.732   3.633 -0.3990 -0.0080  0.1093
13984TIP3    H141909   6.416   4.755   3.592 -0.1707  0.4073 -0.1345
13984TIP3    H241910   6.532   4.659   3.580 -0.7306 -0.3423  0.3655
13985TIP3   OH241911   2.455   3.673   3.884  0.1735  0.3949  0.2778
13985TIP3    H141912   2.397   3.664   3.959 -0.3803  0.0101 -0.1828
13985TIP3    H241913   2.537   3.706   3.920  0.4863 -1.3685  1.3013
13986TIP3   OH241914   4.742   3.826   3.936 -0.5121  0.7534 -0.1842
13986TIP3    H141915   4.765   3.912   3.973 -0.3205  1.6089 -2.1649
13986TIP3    H241916   4.666   3.844   3.881 -1.2379 -0.6138  0.3435
13987TIP3   OH241917   0.344   2.746   2.486 -0.0510  0.0680 -0.6941
13987TIP3    H141918   0.320   2.715   2.398  0.0560 -1.1793 -0.2992
13987TIP3    H241919   0.331   2.841   2.482  0.7724  0.1463 -2.3226
13988TIP3   OH241920   8.191   7.853   2.401  0.0778 -0.0921 -0.3424
13988TIP3    H141921   8.202   7.849   2.306 -0.2443  0.2669 -0.4000
13988TIP3    H241922   8.209   7.764   2.431  0.2873 -0.1838 -0.7276
13989TIP3   OH241923   3.378   7.775   3.423 -0.2254 -0.6431 -0.7710
13989TIP3    H141924   3.434   7.753   3.349  0.5620  0.7240 -0.6159
13989TIP3    H241925   3.289   7.759   3.392  0.0691  0.1490 -2.1197
13990TIP3   OH241926   1.715   2.567   6.153 -0.2687 -0.1389 -0.2838
13990TIP3    H141927   1.810   2.581   6.143 -0.3894  1.8743  0.7744
13990TIP3    H241928   1.688   2.527   6.070  1.6888 -2.1003 -0.0939
13991TIP3   OH241929   1.178   0.372   4.205 -0.8139  0.4443  0.0826
13991TIP3    H141930   1.258   0.386   4.154 -1.7796  1.0928 -1.3072
13991TIP3    H241931   1.169   0.277   4.210 -0.0606  0.3659  0.1148
13992TIP3   OH241932   8.030   2.533   3.817  0.2708 -0.1377  0.0525
13992TIP3    H141933   8.097   2.502   3.878  0.2323 -0.2929  0.0164
13992TIP3    H241934   8.073   2.530   3.732 -0.1946 -1.4966 -0.1542
13993TIP3   OH241935   6.986   7.773   1.635 -0.0270  0.0853 -0.1155
13993TIP3    H141936   6.988   7.796   1.542  1.8461  0.6368  0.0166
13993TIP3    H241937   6.943   7.688   1.638  0.0118 -0.0021 -1.5088
13994TIP3   OH241938   3.830   2.907   6.694 -0.4070 -0.0258  0.6131
13994TIP3    H141939   3.775   2.929   6.770 -0.3939  0.4485  0.4863
13994TIP3    H241940   3.803   2.818   6.671  1.2585 -1.1699  2.6479
13995TIP3   OH241941   8.088   1.620   5.791 -0.0130 -0.4488 -0.2375
13995TIP3    H141942   8.006   1.585   5.759 -1.2481  0.3521  1.8437
13995TIP3    H241943   8.063   1.681   5.861  2.1852  1.8320 -1.2618
13996TIP3   OH241944   2.637   1.600   1.989 -0.0583  0.2670 -0.0825
13996TIP3    H141945   2.568   1.568   2.047  1.6848 -0.9878  1.4330
13996TIP3    H241946   2.626   1.550   1.909 -0.5697 -0.3296  0.3529
13997TIP3   OH241947   8.174   4.949   2.821 -0.3044  0.6244 -0.0691
13997TIP3    H141948   8.235   5.015   2.855  3.1402 -2.3840  0.2162
13997TIP3    H241949   8.128   4.917   2.898 -1.5427  2.1377 -0.1269
13998TIP3   OH241950   2.936   0.793   4.455 -0.2837 -0.3544  0.3059
13998TIP3    H141951   2.936   0.719   4.394 -1.7481 -0.0754 -0.0505
13998TIP3    H241952   3.026   0.796   4.488  0.1770 -1.3688 -0.7900
13999TIP3   OH241953   2.697   1.937   3.923 -0.1571 -0.5380  0.5012
13999TIP3    H141954   2.627   1.951   3.859 -1.3675 -0.4463  1.7976
13999TIP3    H241955   2.655   1.952   4.008  1.4743 -0.3792  1.3148
14000TIP3   OH241956   0.063   4.984   3.619 -0.0526 -0.2336  0.0223
14000TIP3    H141957   0.094   4.964   3.531 -1.3468  1.1488 -0.7980
14000TIP3    H241958   0.053   4.899   3.661 -1.7559 -1.1564 -2.0181
14001TIP3   OH241959   7.352   1.934   3.764 -0.1820 -0.4448  0.0584
14001TIP3    H141960   7.308   1.979   3.836 -2.5013 -1.4160 -0.6395
14001TIP3    H241961   7.415   1.997   3.730  1.4752 -0.1691  3.2821
14002TIP3   OH241962   3.456   4.349   6.364  0.4460  0.0942 -0.6741
14002TIP3    H141963   3.377   4.380   6.408  0.2300 -0.9398 -0.3000
14002TIP3    H241964   3.481   4.270   6.412  2.2066  0.8559 -0.2420
14003TIP3   OH241965   1.025   2.751   5.053  0.0777 -0.1241 -0.4833
14003TIP3    H141966   0.950   2.749   4.994 -0.1996  0.0303 -0.1415
14003TIP3    H241967   0.988   2.738   5.140  0.4563 -0.1231 -0.3175
14004TIP3   OH241968   2.630   5.456   5.296 -0.2358  0.1351  0.5857
14004TIP3    H141969   2.670   5.448   5.383  1.4196 -1.0425 -0.2246
14004TIP3    H241970   2.659   5.378   5.249 -1.6251  0.4283 -0.8341
14005TIP3   OH241971   3.255   7.066   2.771 -0.8176  0.1081  0.2900
14005TIP3    H141972   3.194   7.114   2.715 -0.9227  2.2998  2.1445
14005TIP3    H241973   3.261   7.118   2.851  1.5572 -1.3604  1.1857
14006TIP3   OH241974   3.532   2.180   6.121 -0.1124  0.2255  0.6280
14006TIP3    H141975   3.514   2.210   6.209 -3.4102 -1.5482  0.7219
14006TIP3    H241976   3.491   2.245   6.064  0.8226  0.6497  0.4153
14007TIP3   OH241977   1.775   2.253   5.911  0.1369  0.3638  0.4231
14007TIP3    H141978   1.786   2.183   5.975 -2.0536 -0.4804 -0.0514
14007TIP3    H241979   1.759   2.207   5.828  3.0660  1.4209 -0.8574
14008TIP3   OH241980   5.086   6.541   3.437  0.0615  0.4730  0.1907
14008TIP3    H141981   5.059   6.450   3.445  0.0056  0.5266  0.6802
14008TIP3    H241982   5.025   6.589   3.493  0.7953  0.6639  0.8515
14009TIP3   OH241983   2.061   0.651   4.106  0.3122 -0.4082 -0.1151
14009TIP3    H141984   2.095   0.683   4.023 -1.5904  1.6649 -0.1735
14009TIP3    H241985   2.096   0.711   4.172 -0.0643 -0.6230  0.2925
14010TIP3   OH241986   7.566   4.041   0.284  0.6771  0.2154  1.0156
14010TIP3    H141987   7.474   4.067   0.286  0.4315 -0.6046  0.7263
14010TIP3    H241988   7.568   3.966   0.224  1.3979 -0.2828  1.6496
14011TIP3   OH241989   0.508   6.145   5.083  0.0196 -0.4469  0.2759
14011TIP3    H141990   0.472   6.228   5.052  1.0164  0.5296  1.6033
14011TIP3    H241991   0.603   6.154   5.073  0.2027 -1.0621  1.2295
14012TIP3   OH241992   8.194   3.681   0.931 -0.4493 -0.0319 -0.2425
14012TIP3    H141993   8.214   3.633   1.011 -0.8465  0.3362  0.0817
14012TIP3    H241994   8.114   3.642   0.898  0.1341 -0.7061 -0.8943
14013TIP3   OH241995   5.840   3.611   3.856 -0.5751  0.2429 -0.2690
14013TIP3    H141996   5.797   3.627   3.772 -0.1191 -0.1287 -0.5786
14013TIP3    H241997   5.844   3.697   3.897 -0.9891  0.3955 -0.5344
14014TIP3   OH241998   3.660   7.735   4.295 -0.5680 -0.2295  1.0774
14014TIP3    H141999   3.630   7.665   4.353 -1.3880  1.0258  2.2252
14014TIP3    H242000   3.594   7.739   4.226 -0.5700 -0.5170  1.0611
14015TIP3   OH242001   6.536   4.065   3.860  0.2699  0.0873 -0.2758
14015TIP3    H142002   6.493   3.999   3.805 -1.4038  0.4891  0.5006
14015TIP3    H242003   6.546   4.141   3.802  0.4744 -0.2070 -0.6310
14016TIP3   OH242004   2.340   3.817   3.657  0.0489  0.3105  0.0203
14016TIP3    H142005   2.397   3.784   3.727  0.7924 -0.4123 -0.8909
14016TIP3    H242006   2.253   3.817   3.696  0.4382 -0.0893  0.9471
14017TIP3   OH242007   7.242   6.562   4.619 -0.5789 -0.3209  0.2420
14017TIP3    H142008   7.327   6.523   4.599 -0.6767  0.0096 -0.8653
14017TIP3    H242009   7.218   6.524   4.703 -0.4932 -2.3875 -0.5989
14018TIP3   OH242010   2.586   4.533   3.533  0.4267 -0.0721  0.3920
14018TIP3    H142011   2.677   4.528   3.503  0.7482  1.9231  0.9147
14018TIP3    H242012   2.593   4.532   3.629 -0.1727 -0.7109  0.4331
14019TIP3   OH242013   4.619   3.897   5.913  0.1644 -0.0363 -0.0975
14019TIP3    H142014   4.608   3.971   5.853 -1.6926 -0.9711 -0.9892
14019TIP3    H242015   4.660   3.829   5.859 -0.8475 -0.6364 -0.1409
14020TIP3   OH242016   3.204   4.117   5.323 -0.5620 -0.2552  0.0478
14020TIP3    H142017   3.187   4.119   5.417  0.3998  0.9811  0.2247
14020TIP3    H242018   3.167   4.034   5.294 -1.8235 -0.1803  1.3170
14021TIP3   OH242019   6.358   3.512   6.359  0.1966  0.4212  0.1619
14021TIP3    H142020   6.364   3.521   6.264 -1.3780 -1.8123 -0.2246
14021TIP3    H242021   6.270   3.545   6.380  0.4432  0.6737  0.8149
14022TIP3   OH242022   4.111   5.759   4.404  0.3614  0.4720  0.1361
14022TIP3    H142023   4.059   5.839   4.413 -3.4456 -1.5474 -1.7290
14022TIP3    H242024   4.107   5.718   4.491 -0.7620  0.5886  0.1461
14023TIP3   OH242025   7.474   2.782   4.291  0.4173  0.2796 -0.4138
14023TIP3    H142026   7.505   2.709   4.344 -0.8926 -0.5597 -0.7683
14023TIP3    H242027   7.396   2.749   4.247 -1.0449  2.3203  0.5094
14024TIP3   OH242028   4.847   6.563   3.209 -0.2840 -0.2453  0.3809
14024TIP3    H142029   4.866   6.469   3.214  1.2936  0.0386  0.3516
14024TIP3    H242030   4.850   6.592   3.300  0.9078  0.0580  0.2566
14025TIP3   OH242031   4.619   0.354   2.164  0.0155  0.0286 -0.1153
14025TIP3    H142032   4.538   0.302   2.169 -0.3197  0.6009  0.6016
14025TIP3    H242033   4.643   0.371   2.255 -0.2040  1.5978 -0.3152
14026TIP3   OH242034   2.718   2.235   3.486 -0.3571  0.1133 -0.4766
14026TIP3    H142035   2.777   2.282   3.544  0.1755  0.1459 -1.0351
14026TIP3    H242036   2.719   2.145   3.517 -0.7262  0.2962  0.0756
14027TIP3   OH242037   6.918   1.811   6.052 -0.3248 -0.5413 -0.5537
14027TIP3    H142038   6.866   1.766   5.985 -0.9805 -1.4220  0.5016
14027TIP3    H242039   6.879   1.782   6.135 -1.0345  2.2928  0.1995
14028TIP3   OH242040   4.171   7.627   3.535  0.3381 -0.1844  0.4874
14028TIP3    H142041   4.229   7.553   3.555  0.0358 -0.2367  1.1749
14028TIP3    H242042   4.219   7.704   3.562  0.7842 -0.0862 -0.5171
14029TIP3   OH242043   3.003   2.811   1.833  0.6678  0.5338 -0.4624
14029TIP3    H142044   2.951   2.837   1.910  0.3296 -0.6954 -0.2576
14029TIP3    H242045   3.076   2.760   1.870 -0.6981 -2.0065 -1.0380
14030TIP3   OH242046   1.624   6.237   3.499 -0.0461 -0.1757  0.1661
14030TIP3    H142047   1.581   6.249   3.584 -2.7570 -2.3850 -0.7412
14030TIP3    H242048   1.713   6.269   3.513 -0.4321 -0.2053  3.7538
14031TIP3   OH242049   7.251   5.988   3.223  0.3456  0.3158 -0.1080
14031TIP3    H142050   7.292   5.979   3.138  2.2681 -2.0173  0.9547
14031TIP3    H242051   7.257   6.081   3.244  1.3354  0.6519 -1.7896
14032TIP3   OH242052   6.628   7.086   6.155 -0.1758  0.0046  0.5603
14032TIP3    H142053   6.552   7.043   6.194 -0.7685 -1.3113 -1.8213
14032TIP3    H242054   6.690   7.014   6.138  0.8662  0.8027  0.8572
14033TIP3   OH242055   4.906   4.987   1.531 -0.2421  0.2324 -0.4969
14033TIP3    H142056   4.942   4.952   1.450 -0.3865 -0.5354 -0.2360
14033TIP3    H242057   4.962   4.950   1.600  0.4139  1.5569 -0.2907
14034TIP3   OH242058   2.023   5.739   6.716 -0.0718 -0.4375  0.3783
14034TIP3    H142059   2.108   5.754   6.675  0.2805 -0.1821  1.1976
14034TIP3    H242060   1.963   5.795   6.667  0.0263 -1.3630 -0.8686
14035TIP3   OH242061  -0.011   6.070   0.430  0.1235 -0.3545  0.2297
14035TIP3    H142062   0.048   6.137   0.397 -0.6794  0.1231 -0.2556
14035TIP3    H242063  -0.031   6.015   0.354 -0.7586  0.0229  0.1728
14036TIP3   OH242064   6.570   1.970   1.313  0.8320  0.5641 -0.5426
14036TIP3    H142065   6.618   1.887   1.308  0.0028 -0.0492  0.9414
14036TIP3    H242066   6.493   1.956   1.257  0.3545  0.0570  0.2122
14037TIP3   OH242067   8.048   2.783   3.516  0.6205 -0.2838 -0.0570
14037TIP3    H142068   8.016   2.794   3.426  0.8829  0.9387 -0.0121
14037TIP3    H242069   7.988   2.719   3.555  0.6022 -0.9441 -1.1476
14038TIP3   OH242070   1.130   1.767   3.899  0.0589  0.3369  0.1890
14038TIP3    H142071   1.150   1.830   3.829 -0.6431 -0.3693 -0.6713
14038TIP3    H242072   1.160   1.810   3.979 -0.1219  1.6444 -0.4123
14039TIP3   OH242073   4.650   0.760   0.175  0.0029 -0.1816 -0.0120
14039TIP3    H142074   4.692   0.811   0.243 -0.2631  0.3986 -0.2766
14039TIP3    H242075   4.658   0.813   0.096  0.9110 -1.1453 -0.5891
14040TIP3   OH242076   0.478   3.588   3.920 -0.1226  0.0032  0.0268
14040TIP3    H142077   0.417   3.582   3.994  0.1604 -0.5781  0.2213
14040TIP3    H242078   0.427   3.558   3.845 -0.2846  0.1909  0.0604
14041TIP3   OH242079   1.391   2.818   6.358 -0.6797  0.1858 -0.5761
14041TIP3    H142080   1.458   2.751   6.369 -1.6513 -0.4544  2.6456
14041TIP3    H242081   1.440   2.899   6.343  0.7279 -0.5421 -0.0976
14042TIP3   OH242082   1.837   7.282   1.860  0.0422 -0.0906  0.8322
14042TIP3    H142083   1.849   7.245   1.773 -1.8225 -0.4381  0.6957
14042TIP3    H242084   1.761   7.340   1.852  2.4337  3.4752  1.1533
14043TIP3   OH242085   1.176   6.208   4.918  0.1019 -0.1240 -0.2588
14043TIP3    H142086   1.154   6.131   4.970  1.5430  0.2085  0.9028
14043TIP3    H242087   1.256   6.184   4.871  0.5076  0.6129  0.0370
14044TIP3   OH242088   2.664   2.388   1.533 -0.8111  0.2106 -0.1002
14044TIP3    H142089   2.607   2.406   1.459 -2.5687  0.7507  1.3063
14044TIP3    H242090   2.628   2.440   1.605  1.6034  0.7437  0.8339
14045TIP3   OH242091   1.554   6.750   4.453 -0.3336  0.2091  0.0271
14045TIP3    H142092   1.478   6.696   4.474  0.7769 -1.6509 -0.3856
14045TIP3    H242093   1.569   6.735   4.360  0.7921  0.1332  0.1996
14046TIP3   OH242094   3.608   4.548   3.421  1.0339 -0.0566 -0.3319
14046TIP3    H142095   3.550   4.487   3.374  0.6050  0.8400 -0.9902
14046TIP3    H242096   3.609   4.627   3.367  1.4879  0.5747  0.5757
14047TIP3   OH242097   7.292   7.796  -0.013  0.6136 -0.3931 -0.3519
14047TIP3    H142098   7.254   7.729   0.043 -3.2142  0.8699 -1.1537
14047TIP3    H242099   7.291   7.876   0.040  0.4522  0.0464 -1.0006
14048TIP3   OH242100   2.082   7.194   1.934  0.0898 -0.3660 -0.2556
14048TIP3    H142101   1.993   7.225   1.920 -0.1631 -0.7720  0.3971
14048TIP3    H242102   2.085   7.173   2.028  0.8889 -0.2937 -0.2598
14049TIP3   OH242103   1.131   2.684   4.772 -0.1546 -0.0342 -0.3933
14049TIP3    H142104   1.160   2.751   4.834 -1.5004  0.5762 -0.3768
14049TIP3    H242105   1.106   2.609   4.827 -1.6210  0.6108 -0.1360
14050TIP3   OH242106   7.317   6.916   1.445  0.3172 -0.3750 -0.1641
14050TIP3    H142107   7.286   6.997   1.403  0.2403 -0.8966 -1.1423
14050TIP3    H242108   7.257   6.849   1.413 -0.8283 -0.5342  2.1494
14051TIP3   OH242109   1.253   7.506   2.191  0.4085 -0.1346  0.0430
14051TIP3    H142110   1.328   7.473   2.142  0.3606 -1.1637  0.6188
14051TIP3    H242111   1.182   7.510   2.127  0.5311 -0.7640 -0.1426
14052TIP3   OH242112   3.433   2.974   2.710  0.1740 -0.3554  0.1424
14052TIP3    H142113   3.410   3.064   2.734  2.0719  0.0652  0.4983
14052TIP3    H242114   3.444   2.977   2.615 -1.5386 -0.6597 -0.0930
14053TIP3   OH242115   6.468   1.298   1.608 -0.2422  0.3416  0.4599
14053TIP3    H142116   6.550   1.347   1.597  0.0577  0.1694  1.7175
14053TIP3    H242117   6.493   1.222   1.660 -1.3245  0.7143  1.5886
14054TIP3   OH242118   4.475   7.437   6.429 -0.1714 -0.6348  0.1442
14054TIP3    H142119   4.508   7.511   6.378 -1.9521 -1.1133 -1.7984
14054TIP3    H242120   4.380   7.451   6.434 -0.4897 -2.5493  0.1236
14055TIP3   OH242121   3.931   0.872   6.637  0.5638 -0.1222  0.0994
14055TIP3    H142122   3.850   0.921   6.624  0.0318 -0.8726  0.5178
14055TIP3    H242123   3.913   0.814   6.711  1.4582 -0.3497  0.1519
14056TIP3   OH242124   2.394   0.010   6.067  0.1211  0.4969  0.5747
14056TIP3    H142125   2.447   0.006   5.987 -0.0005  1.9010  0.3941
14056TIP3    H242126   2.308   0.038   6.038  0.3968  2.2277  1.2993
14057TIP3   OH242127   0.949   7.105   6.680  0.2519 -0.3225  0.6545
14057TIP3    H142128   0.948   7.169   6.752  0.2240 -0.9754  1.2437
14057TIP3    H242129   1.032   7.121   6.635  0.5122 -0.2599  1.1516
14058TIP3   OH242130   6.866   4.475   2.357 -0.1178  0.1569  0.1380
14058TIP3    H142131   6.896   4.398   2.310  0.5972  0.8906 -0.6329
14058TIP3    H242132   6.929   4.486   2.428  0.5787  0.8237 -0.5776
14059TIP3   OH242133   0.011   7.366   1.950  0.5766 -0.0144  0.6547
14059TIP3    H142134   0.030   7.313   1.872  0.7185  0.0278  0.6592
14059TIP3    H242135  -0.015   7.451   1.915 -1.7623 -0.6911  0.5679
14060TIP3   OH242136   3.626   0.001   3.216  0.1930 -0.5490  0.2568
14060TIP3    H142137   3.716   0.031   3.202 -0.2278  0.0984 -1.2476
14060TIP3    H242138   3.575   0.081   3.226 -0.4752 -0.8476 -0.6517
14061TIP3   OH242139   1.977   1.684   5.799 -0.3485 -0.0696  0.1102
14061TIP3    H142140   1.974   1.779   5.811  1.5896  0.1202 -0.6271
14061TIP3    H242141   1.951   1.648   5.884 -0.7487  1.1082  0.5008
14062TIP3   OH242142   6.596   7.798   4.358  0.3013 -0.3057  0.2048
14062TIP3    H142143   6.608   7.716   4.405 -0.1166  0.4803  1.7681
14062TIP3    H242144   6.503   7.798   4.332  1.0688 -1.8611 -2.9488
14063TIP3   OH242145   2.350   7.294   5.844 -0.0107 -0.5639  0.1927
14063TIP3    H142146   2.271   7.300   5.790  0.2843 -1.0502 -0.2956
14063TIP3    H242147   2.378   7.203   5.836  1.0925 -0.1964 -0.3416
14064TIP3   OH242148   3.218   6.433   2.874 -0.4658  0.5748 -0.1643
14064TIP3    H142149   3.243   6.497   2.941 -2.6644  0.6355  0.6902
14064TIP3    H242150   3.292   6.373   2.870 -0.0375  0.8627  1.9653
14065TIP3   OH242151   3.104   3.715   3.697  0.0995  0.0060 -0.3193
14065TIP3    H142152   3.163   3.774   3.649  0.4212 -0.7470 -0.8775
14065TIP3    H242153   3.051   3.773   3.752 -0.2885  0.8967 -1.5942
14066TIP3   OH242154   5.550   1.635   4.258 -0.0117 -0.5285 -0.3859
14066TIP3    H142155   5.500   1.553   4.263  1.0690 -1.1593  0.8168
14066TIP3    H242156   5.524   1.674   4.175 -1.3224 -1.5905 -0.5081
14067TIP3   OH242157   7.073   5.448   2.599  0.3104 -0.5138  0.1245
14067TIP3    H142158   7.148   5.496   2.633 -0.0039 -0.2276  0.4280
14067TIP3    H242159   7.086   5.358   2.628  0.8798 -0.6084 -0.4056
14068TIP3   OH242160   2.775   2.830   4.899 -0.0097  0.0986  0.0555
14068TIP3    H142161   2.751   2.770   4.969 -0.8879  2.8439  2.2783
14068TIP3    H242162   2.696   2.838   4.846  0.2645 -0.9777 -0.5660
14069TIP3   OH242163   7.992   1.699   5.254  0.3362  0.1321  0.0847
14069TIP3    H142164   7.975   1.786   5.217 -0.9315 -0.4943 -0.8980
14069TIP3    H242165   8.025   1.716   5.342 -1.5846  1.5977  0.5913
14070TIP3   OH242166   1.192   6.998   2.883 -0.4917 -0.3897 -0.4658
14070TIP3    H142167   1.184   6.969   2.974  2.0364 -0.9843 -0.3429
14070TIP3    H242168   1.159   7.088   2.883 -0.9283 -0.5279  0.9432
14071TIP3   OH242169   4.041   3.936   2.017  0.0750 -0.4568 -0.6368
14071TIP3    H142170   4.007   3.894   1.938  0.1985  0.2150 -1.0591
14071TIP3    H242171   4.114   3.880   2.045  0.5505 -0.2726 -1.4659
14072TIP3   OH242172   6.141   1.139   3.903  0.0649  0.0170 -0.1720
14072TIP3    H142173   6.189   1.090   3.970  1.7047  0.7073 -0.7900
14072TIP3    H242174   6.208   1.186   3.855 -0.9392 -1.1659 -2.9327
14073TIP3   OH242175   2.599   3.705   4.795 -0.7250  0.0636 -0.1758
14073TIP3    H142176   2.509   3.687   4.823 -0.5716  0.5944  0.6763
14073TIP3    H242177   2.639   3.619   4.785 -1.5171 -0.2140 -1.2473
14074TIP3   OH242178   1.995   0.641   2.310  0.3205 -0.3698  0.4213
14074TIP3    H142179   1.956   0.642   2.223 -1.3619  1.0023  1.1452
14074TIP3    H242180   1.957   0.564   2.353  0.4575 -0.5294  0.2594
14075TIP3   OH242181   2.011   6.275   2.536  0.2282 -0.1630 -0.1456
14075TIP3    H142182   1.973   6.362   2.523  1.2358  0.7113  2.2362
14075TIP3    H242183   1.954   6.216   2.487 -1.8002  1.5754 -0.0064
14076TIP3   OH242184   5.807   3.302   4.930  0.2443 -0.5756  0.1053
14076TIP3    H142185   5.892   3.322   4.890 -0.2560  0.8860 -0.2872
14076TIP3    H242186   5.746   3.302   4.857 -0.2812 -0.3891  0.5422
14077TIP3   OH242187   6.628   4.972   0.237 -0.2059  0.1376 -0.1529
14077TIP3    H142188   6.657   5.062   0.225 -1.4213  0.5822  0.0728
14077TIP3    H242189   6.706   4.925   0.267  0.5576  1.0022 -0.7470
14078TIP3   OH242190   4.295   1.018   0.005  0.3850  0.6893 -0.1639
14078TIP3    H142191   4.288   1.102  -0.041  1.5121  1.7524  1.5085
14078TIP3    H242192   4.298   1.041   0.098 -1.4571 -1.3657  0.5033
14079TIP3   OH242193   4.737   5.953   0.644 -0.0770  0.1051  0.2340
14079TIP3    H142194   4.733   5.951   0.740 -2.4710 -1.7146  0.2113
14079TIP3    H242195   4.716   6.043   0.621  0.8475  0.6477  1.4054
14080TIP3   OH242196   4.537   5.807   6.770 -0.3860 -0.0797  0.2283
14080TIP3    H142197   4.542   5.815   6.675 -3.6831  1.6191  0.0552
14080TIP3    H242198   4.581   5.886   6.803 -0.3212 -0.0363  0.0404
14081TIP3   OH242199   4.217   5.942   0.402  0.1322  0.8494  0.1383
14081TIP3    H142200   4.210   5.856   0.361 -1.7315  0.4450  1.1949
14081TIP3    H242201   4.226   5.923   0.496  1.3316  1.7985  0.2348
14082TIP3   OH242202   0.059   2.739   1.422 -0.0859  0.3021  0.2834
14082TIP3    H142203   0.097   2.758   1.336 -0.1677 -2.1368 -0.3629
14082TIP3    H242204   0.097   2.804   1.480  0.1594  1.8702 -1.5406
14083TIP3   OH242205   2.586   0.610   0.606 -0.0289  0.1744  0.2261
14083TIP3    H142206   2.634   0.631   0.526  1.8832 -0.1118  1.2242
14083TIP3    H242207   2.591   0.690   0.658  0.7171 -0.3302  0.9564
14084TIP3   OH242208   3.370   2.305   4.804  0.6804  0.3844 -0.6714
14084TIP3    H142209   3.448   2.258   4.834  0.9297 -1.0374 -3.2863
14084TIP3    H242210   3.298   2.244   4.822  0.5984  0.3320 -1.1690
14085TIP3   OH242211   0.668   6.870   2.254  0.1344  0.2643  0.0015
14085TIP3    H142212   0.663   6.920   2.335  1.0769  0.9956 -0.3783
14085TIP3    H242213   0.687   6.780   2.282 -0.8728  0.2332  0.6460
14086TIP3   OH242214   1.914   5.846   2.406  0.0603  0.6589 -0.7025
14086TIP3    H142215   2.006   5.830   2.429 -0.0667 -0.0945 -0.6720
14086TIP3    H242216   1.886   5.764   2.365 -0.6115  0.8745 -0.6822
14087TIP3   OH242217   3.518   2.397   3.910  0.1891 -0.4413  0.4893
14087TIP3    H142218   3.437   2.362   3.946 -0.8231 -0.0975 -1.3215
14087TIP3    H242219   3.571   2.320   3.888 -0.1728 -0.7024  0.5312
14088TIP3   OH242220   4.952   6.392   0.827  0.6815  0.5160  0.1291
14088TIP3    H142221   4.949   6.436   0.912  0.7386 -0.4199  0.6241
14088TIP3    H242222   5.037   6.348   0.826  0.3783 -0.0781 -0.0988
14089TIP3   OH242223   5.954   4.570   0.740 -0.4399 -0.0538 -0.5933
14089TIP3    H142224   5.970   4.655   0.699 -1.9723  0.1280 -0.8913
14089TIP3    H242225   5.961   4.506   0.669  0.0874 -0.1067 -0.4948
14090TIP3   OH242226   5.679   4.457   5.067 -0.2194 -0.3659  0.3392
14090TIP3    H142227   5.663   4.374   5.021  1.4895 -1.4434  1.5745
14090TIP3    H242228   5.604   4.466   5.126 -0.7715 -0.6399 -0.2994
14091TIP3   OH242229   1.502   2.244   1.554  0.2614 -0.0562 -0.0632
14091TIP3    H142230   1.521   2.333   1.583  0.0646 -0.3304  0.9638
14091TIP3    H242231   1.529   2.242   1.463  0.6089  0.9511  0.0047
14092TIP3   OH242232   0.696   6.651   5.031  0.5950 -0.0904  0.4430
14092TIP3    H142233   0.688   6.722   4.967  0.3139  1.9244  2.6038
14092TIP3    H242234   0.783   6.615   5.016 -0.6409 -2.1692 -3.3757
14093TIP3   OH242235   3.272   5.916   2.995 -0.1777 -0.1459 -0.3437
14093TIP3    H142236   3.198   5.895   2.938  0.5890 -0.5973 -1.1920
14093TIP3    H242237   3.274   6.012   2.998 -0.5773 -0.1284 -0.6073
14094TIP3   OH242238   7.675   4.461   1.266 -0.3374 -0.2104 -0.0785
14094TIP3    H142239   7.694   4.516   1.343 -0.0996  0.4253 -0.5863
14094TIP3    H242240   7.672   4.372   1.301 -0.9903  0.1407  0.8072
14095TIP3   OH242241   6.057   0.366   5.988  0.1114  0.1326 -0.5345
14095TIP3    H142242   5.964   0.383   5.976 -0.1319  0.8179  1.9124
14095TIP3    H242243   6.062   0.273   6.010  0.0505  0.0511 -0.8514
14096TIP3   OH242244   4.865   6.673   4.347  0.1239  0.4543  0.2433
14096TIP3    H142245   4.923   6.658   4.273  0.2563 -0.9549  0.5933
14096TIP3    H242246   4.777   6.680   4.309 -0.1234 -2.4838  0.0522
14097TIP3   OH242247   4.737   1.967   1.776 -0.1425 -0.0442  0.0438
14097TIP3    H142248   4.791   2.018   1.837 -0.1022  2.0493 -1.6319
14097TIP3    H242249   4.737   2.018   1.695 -2.1006 -1.5477 -1.0007
14098TIP3   OH242250   1.127   3.823   2.889 -0.5861 -0.7528  0.2329
14098TIP3    H142251   1.049   3.866   2.854  0.3939 -0.3958 -1.6413
14098TIP3    H242252   1.092   3.756   2.948 -2.2716 -0.0477  0.1091
14099TIP3   OH242253   6.539   6.492   4.910  0.6296 -0.0941 -0.0083
14099TIP3    H142254   6.513   6.566   4.855 -0.4649 -1.0209 -0.8088
14099TIP3    H242255   6.610   6.525   4.964  1.4529  1.0090 -1.6740
14100TIP3   OH242256   0.141   6.200   0.238 -0.1102 -0.0860 -0.9145
14100TIP3    H142257   0.181   6.216   0.153  2.4976  0.4152  0.3054
14100TIP3    H242258   0.215   6.185   0.297 -1.8301 -0.7143  1.2314
14101TIP3   OH242259   0.515   0.240   6.514  0.0029  0.0817 -0.0051
14101TIP3    H142260   0.454   0.279   6.577 -0.0018  0.4105 -0.2144
14101TIP3    H242261   0.602   0.264   6.546  0.0059  0.0949 -0.0231
14102TIP3   OH242262   4.060   2.086   4.934 -0.2109  0.2028 -0.3287
14102TIP3    H142263   3.999   2.153   4.963  0.5700  0.5832  0.4871
14102TIP3    H242264   4.146   2.116   4.965  0.3626 -0.4468 -1.2076
14103TIP3   OH242265   7.608   0.561   4.524  0.6141 -0.0914  0.0561
14103TIP3    H142266   7.667   0.550   4.599  0.9772  0.1794 -0.1843
14103TIP3    H242267   7.527   0.596   4.563 -0.0981 -2.2335  0.6458
14104TIP3   OH242268   6.315   3.671   3.862  0.1024  0.2435  0.2129
14104TIP3    H142269   6.395   3.645   3.909  0.4930  0.1922 -0.4645
14104TIP3    H242270   6.262   3.714   3.928 -0.2341 -1.5806  1.2180
14105TIP3   OH242271   5.477   4.961   0.282  0.3931  0.1011  0.4767
14105TIP3    H142272   5.496   5.042   0.330  0.4617 -0.4328  1.3839
14105TIP3    H242273   5.444   4.901   0.349  0.9557 -0.8330 -0.0584
14106TIP3   OH242274   5.990   1.386   4.479  0.1454  0.3526  0.2702
14106TIP3    H142275   5.901   1.422   4.487  0.8473  2.7559 -1.4021
14106TIP3    H242276   5.987   1.332   4.400 -0.3294 -1.4359  1.4698
14107TIP3   OH242277   4.335   5.082   3.668 -0.6579 -0.2972  0.0323
14107TIP3    H142278   4.240   5.069   3.662 -0.8033  1.0327 -1.1251
14107TIP3    H242279   4.373   5.001   3.633 -1.4239  0.0566 -1.7526
14108TIP3   OH242280   3.327   3.517   3.245  0.1282 -0.4020 -0.4934
14108TIP3    H142281   3.320   3.612   3.236  0.0608 -0.2928  0.5759
14108TIP3    H242282   3.406   3.494   3.197  0.2752  0.2276 -0.5649
14109TIP3   OH242283   0.024   6.603   3.730  0.1698 -0.2458  0.5739
14109TIP3    H142284   0.105   6.607   3.782  0.2134  0.6759  0.4597
14109TIP3    H242285   0.050   6.564   3.647  0.0898 -1.7907  1.2490
14110TIP3   OH242286   6.100   0.307   3.896  0.0316  0.0587 -0.0334
14110TIP3    H142287   6.050   0.272   3.822  0.9723 -0.6276 -0.3705
14110TIP3    H242288   6.191   0.303   3.867  0.4028 -0.0981  1.1217
14111TIP3   OH242289   4.913   4.986   0.076  0.2305  0.8749  0.3763
14111TIP3    H142290   4.995   4.961   0.118  1.7254  2.0823 -1.6647
14111TIP3    H242291   4.939   5.030  -0.005 -2.4299 -2.3363 -2.5311
14112TIP3   OH242292   2.518   4.463   4.084 -0.1085  0.6294 -0.3763
14112TIP3    H142293   2.460   4.501   4.149 -1.7440 -0.5368 -1.0862
14112TIP3    H242294   2.587   4.420   4.135 -1.1176  0.1042  0.5875
14113TIP3   OH242295   1.810   6.109   2.435 -0.0442  0.7184  0.3781
14113TIP3    H142296   1.775   6.123   2.347 -0.1328 -0.9372  0.1150
14113TIP3    H242297   1.837   6.017   2.436  0.9423  0.9804  1.7501
14114TIP3   OH242298   4.212   6.694   6.471 -0.4664  0.3288 -0.1562
14114TIP3    H142299   4.173   6.666   6.389 -1.0847 -0.3070  0.3383
14114TIP3    H242300   4.275   6.761   6.446  1.4396 -1.8124 -1.4404
14115TIP3   OH242301   3.017   3.566   0.829  0.1289 -0.0219  0.4199
14115TIP3    H142302   2.956   3.603   0.766  0.8401  0.6653  0.1143
14115TIP3    H242303   3.104   3.588   0.793  0.5426  0.3352  1.6097
14116TIP3   OH242304   3.682   0.204   5.720 -0.8117  0.1051  0.1562
14116TIP3    H142305   3.748   0.135   5.731  0.6785  1.5267  0.4668
14116TIP3    H242306   3.675   0.244   5.806  0.4506  2.1466 -0.6274
14117TIP3   OH242307   6.254   3.954   2.817  0.5691  0.4224  0.6759
14117TIP3    H142308   6.188   4.006   2.771  1.3509  1.0076  0.1816
14117TIP3    H242309   6.252   3.986   2.907 -1.0499 -0.8079  1.1300
14118TIP3   OH242310   6.723   7.724   1.900  0.2972  0.0902  0.5083
14118TIP3    H142311   6.735   7.816   1.875 -0.7994  0.3257  0.7889
14118TIP3    H242312   6.743   7.676   1.820  0.4480  0.6016  0.2280
14119TIP3   OH242313   8.081   0.646   2.399 -0.2688  0.6300 -0.1402
14119TIP3    H142314   8.171   0.637   2.369 -0.3720  2.1643 -1.0285
14119TIP3    H242315   8.089   0.669   2.492  0.4506  3.5190 -0.8087
14120TIP3   OH242316   0.259   3.443   3.994 -0.2250 -0.5067  0.7257
14120TIP3    H142317   0.188   3.399   4.041 -1.6993  0.5839 -0.4297
14120TIP3    H242318   0.235   3.436   3.902  0.4034  1.1724  0.4082
14121TIP3   OH242319   4.937   3.414   1.604  0.0534  0.0212 -0.3981
14121TIP3    H142320   4.917   3.442   1.693 -2.1989 -0.4093 -0.7059
14121TIP3    H242321   4.982   3.489   1.565  2.0369 -0.1657  1.3519
14122TIP3   OH242322   6.801   0.735   2.004  0.2702  0.3184  0.6091
14122TIP3    H142323   6.794   0.642   1.981 -2.3106  0.9475 -1.7689
14122TIP3    H242324   6.865   0.771   1.942  0.6392  0.3097  0.9766
14123TIP3   OH242325   1.854   0.627   2.077  0.1580 -0.0325 -0.2276
14123TIP3    H142326   1.866   0.663   1.989  0.1209 -0.5492 -0.4454
14123TIP3    H242327   1.819   0.540   2.063  0.7556 -0.3656  0.2820
14124TIP3   OH242328   1.622   2.795   2.638 -0.4897 -0.2638  0.4617
14124TIP3    H142329   1.701   2.809   2.690 -0.9281 -1.2530  1.4254
14124TIP3    H242330   1.567   2.870   2.658 -0.1182  0.0441  0.3628
14125TIP3   OH242331   1.857   3.874   0.060 -0.3528 -0.0722 -0.7794
14125TIP3    H142332   1.923   3.825   0.010  0.5538 -0.1366  0.4172
14125TIP3    H242333   1.793   3.808   0.086 -0.2074 -0.2567 -0.8832
14126TIP3   OH242334   6.891   2.774   3.590  0.5553  0.4029  0.6405
14126TIP3    H142335   6.902   2.813   3.677 -0.8014  2.2618  0.0358
14126TIP3    H242336   6.913   2.845   3.529  0.6348 -0.6073 -0.5477
14127TIP3   OH242337   6.732   1.790   6.704  0.6970  0.2111 -0.3373
14127TIP3    H142338   6.686   1.778   6.787  0.4964 -0.0296 -0.4800
14127TIP3    H242339   6.724   1.705   6.660 -0.2396  0.6956 -1.1223
14128TIP3   OH242340   1.459   0.364   6.524  0.4369 -0.3827 -0.0137
14128TIP3    H142341   1.418   0.380   6.609 -0.1029 -0.2880 -0.2899
14128TIP3    H242342   1.552   0.351   6.544  0.5667  1.1253  0.4256
14129TIP3   OH242343   4.647   6.198   0.609  1.0950 -0.2079 -0.2036
14129TIP3    H142344   4.594   6.215   0.687 -0.3559 -0.7346 -1.0149
14129TIP3    H242345   4.667   6.284   0.574 -0.5520  0.0209 -0.6857
14130TIP3   OH242346   5.570   0.493   2.587 -0.3527 -0.1363 -0.0404
14130TIP3    H142347   5.643   0.533   2.540  0.4188  0.8165  1.8462
14130TIP3    H242348   5.493   0.518   2.537  0.3928  1.1864 -0.6005
14131TIP3   OH242349   0.041   4.828   4.662 -0.4414 -0.6405 -0.1337
14131TIP3    H142350   0.059   4.777   4.741 -1.6490  0.2279  0.7537
14131TIP3    H242351   0.059   4.919   4.688  0.1002 -0.4399 -1.1706
14132TIP3   OH242352   0.352   7.556   6.310 -0.5416  0.5264  0.4381
14132TIP3    H142353   0.314   7.470   6.331  0.4207 -0.3004 -0.9914
14132TIP3    H242354   0.329   7.611   6.384 -0.6649 -1.1360  1.7003
14133TIP3   OH242355   7.039   4.335   4.262 -0.3724 -0.0063  0.2910
14133TIP3    H142356   6.970   4.276   4.292 -0.8573  1.8451  3.1967
14133TIP3    H242357   7.106   4.331   4.330 -0.1618  2.3117  0.2964
14134TIP3   OH242358   1.003   2.300   2.775  0.4373 -0.2626 -0.2013
14134TIP3    H142359   1.034   2.216   2.809  1.4686 -0.0422 -0.5695
14134TIP3    H242360   1.071   2.329   2.714 -0.0661  0.6804 -0.3466
14135TIP3   OH242361   3.382   5.988   0.760 -0.3624  0.6183 -0.1196
14135TIP3    H142362   3.424   6.049   0.820 -0.2246  0.4749 -0.0720
14135TIP3    H242363   3.412   5.902   0.788 -1.1821  0.4616  0.3214
14136TIP3   OH242364   8.214   0.150   5.462  0.0981 -0.3047  0.1135
14136TIP3    H142365   8.309   0.144   5.447 -0.1513  0.8911 -2.3931
14136TIP3    H242366   8.181   0.063   5.439  0.7101 -1.4110  2.9766
14137TIP3   OH242367   1.314   2.185   2.578  0.4487 -0.0612 -0.4415
14137TIP3    H142368   1.267   2.174   2.495  1.9370  2.3663 -1.7369
14137TIP3    H242369   1.275   2.120   2.636 -4.0787  1.3498 -1.5040
14138TIP3   OH242370   1.964   1.549   6.051  0.3071 -0.4933 -0.4716
14138TIP3    H142371   1.943   1.550   6.145  0.1018 -3.0296 -0.4186
14138TIP3    H242372   2.058   1.566   6.048  0.2875 -0.2220  0.1817
14139TIP3   OH242373   2.140   7.783   6.177 -0.2361 -0.0810 -0.0120
14139TIP3    H142374   2.232   7.768   6.200  1.0716 -0.4700 -4.5775
14139TIP3    H242375   2.137   7.875   6.150 -0.9877 -0.3023 -0.7008
14140TIP3   OH242376   6.305   3.957   5.145 -0.3850 -0.7978  0.2564
14140TIP3    H142377   6.368   3.974   5.075 -0.8850  0.6016  0.1216
14140TIP3    H242378   6.268   4.043   5.166 -1.3840 -1.4212  1.1552
14141TIP3   OH242379   1.976   6.583   4.830  0.2473  0.2527  0.3265
14141TIP3    H142380   1.886   6.550   4.830  1.0583 -2.1599  0.2018
14141TIP3    H242381   1.983   6.632   4.748 -0.6600 -0.4895 -0.2289
14142TIP3   OH242382   0.683   1.558   0.494  0.0223  0.0891  0.7326
14142TIP3    H142383   0.703   1.632   0.437 -3.3527  1.4572  1.0750
14142TIP3    H242384   0.646   1.492   0.435  1.8386 -0.8554  0.6089
14143TIP3   OH242385   7.419   4.797   0.434  0.4191 -0.1375  0.1906
14143TIP3    H142386   7.500   4.745   0.436 -0.4154 -1.5154 -0.0648
14143TIP3    H242387   7.417   4.843   0.517  0.6173 -1.4663  0.9558
14144TIP3   OH242388   1.271   4.037   4.551 -0.0657  0.0765  0.1574
14144TIP3    H142389   1.345   3.982   4.577 -1.4338 -1.8347  0.2025
14144TIP3    H242390   1.245   4.003   4.465 -0.2673  1.4003 -0.3299
14145TIP3   OH242391   2.137   2.389   3.971 -0.6454 -0.1521  0.0538
14145TIP3    H142392   2.085   2.464   3.942  0.2661 -0.0226 -1.3769
14145TIP3    H242393   2.114   2.378   4.063 -0.5897  2.0685  0.3907
14146TIP3   OH242394   0.141   6.815   6.580 -0.6242 -0.2083 -0.7000
14146TIP3    H142395   0.186   6.770   6.651 -1.9134 -1.0165 -0.3544
14146TIP3    H242396   0.190   6.792   6.502  0.1770 -0.1901 -0.2098
14147TIP3   OH242397   0.096   4.762   1.105 -0.1861  0.5227 -0.0675
14147TIP3    H142398   0.132   4.688   1.153 -1.5612  0.3088  0.6652
14147TIP3    H242399   0.013   4.782   1.148 -0.0558  2.2239 -0.5160
14148TIP3   OH242400   4.881   1.296   4.579 -0.4416 -0.4022 -0.1316
14148TIP3    H142401   4.836   1.375   4.551 -1.3007 -0.5318  0.8148
14148TIP3    H242402   4.813   1.230   4.584  0.2041 -1.1122 -0.5494
14149TIP3   OH242403   3.012   0.789   5.126 -0.4515 -0.2054  0.1737
14149TIP3    H142404   3.059   0.803   5.208  0.0266 -0.4556 -0.0537
14149TIP3    H242405   2.920   0.793   5.150 -0.4320  3.1115  0.1854
14150TIP3   OH242406   6.560   5.288   0.403  0.1358 -0.3946 -0.5241
14150TIP3    H142407   6.584   5.297   0.311  1.1465 -1.0789 -0.3335
14150TIP3    H242408   6.643   5.286   0.450 -0.3740  2.2812  0.6584
14151TIP3   OH242409   5.678   2.103   5.732  0.2106 -0.4251 -0.1273
14151TIP3    H142410   5.714   2.086   5.819  0.7822  0.2152 -0.2333
14151TIP3    H242411   5.737   2.059   5.672 -0.6065 -1.5136 -0.1613
14152TIP3   OH242412   7.251   3.701   1.189  0.3654  0.4097  0.0894
14152TIP3    H142413   7.170   3.740   1.222 -1.0750 -1.6464 -0.8223
14152TIP3    H242414   7.303   3.683   1.268 -1.1867 -0.5706  0.9384
14153TIP3   OH242415   4.032   2.952   1.222 -0.0874  0.2122  0.0598
14153TIP3    H142416   4.120   2.917   1.211  0.2746  0.5568  1.5848
14153TIP3    H242417   3.977   2.874   1.235  0.5198  0.0696  2.2011
14154TIP3   OH242418   1.864   3.815   4.775 -0.1665  0.6108  0.0775
14154TIP3    H142419   1.902   3.744   4.723 -2.3799 -0.1979 -0.5602
14154TIP3    H242420   1.799   3.855   4.716 -0.9281  1.3329  1.3587
14155TIP3   OH242421   4.653   3.262   0.657  0.3574 -0.6307 -0.1348
14155TIP3    H142422   4.658   3.354   0.680  2.2330  0.4394 -4.0304
14155TIP3    H242423   4.575   3.254   0.603  0.8968 -1.0041 -0.8760
14156TIP3   OH242424   5.861   7.263   0.030 -0.4203  0.6762  0.1899
14156TIP3    H142425   5.831   7.181   0.069  1.7302 -0.7381 -0.8972
14156TIP3    H242426   5.881   7.319   0.105  2.1370 -1.3948  1.2098
14157TIP3   OH242427   2.749   1.964   5.891  0.5551 -0.2971 -0.2089
14157TIP3    H142428   2.713   1.958   5.980 -0.0426  0.9407 -0.3516
14157TIP3    H242429   2.737   2.055   5.866  1.2464 -0.5007 -1.3556
14158TIP3   OH242430   2.601   3.173   4.654 -0.1635  0.0154  0.3204
14158TIP3    H142431   2.673   3.211   4.603  1.3410 -2.7939  0.1420
14158TIP3    H242432   2.595   3.083   4.622 -2.1765 -0.5232  2.0462
14159TIP3   OH242433   5.162   2.306   5.661 -0.3468  0.0963 -0.5654
14159TIP3    H142434   5.127   2.234   5.607 -0.8094 -1.0211  1.1398
14159TIP3    H242435   5.090   2.328   5.721  0.0825  1.4362 -0.5214
14160TIP3   OH242436   1.424   1.103   5.219  0.2911  0.2807 -0.3341
14160TIP3    H142437   1.402   1.042   5.289  1.6203  0.6794  0.4785
14160TIP3    H242438   1.440   1.048   5.142  0.2701 -0.2882  0.0710
14161TIP3   OH242439   1.482   5.340   5.268  0.7973 -0.1205  0.2071
14161TIP3    H142440   1.400   5.385   5.248  1.1576  0.2679 -0.4252
14161TIP3    H242441   1.499   5.360   5.360  0.3991  0.1419  0.2267
14162TIP3   OH242442   0.956   6.636   4.902 -0.1241  0.1207  0.8677
14162TIP3    H142443   1.038   6.610   4.860 -0.3010  0.7025  0.1324
14162TIP3    H242444   0.929   6.715   4.856 -0.2727  0.8631  2.1801
14163TIP3   OH242445   2.235   5.188   5.727  0.0342 -0.6754 -0.5280
14163TIP3    H142446   2.328   5.165   5.724 -0.6980 -4.0572 -1.7175
14163TIP3    H242447   2.209   5.172   5.818  0.4577 -0.3861 -0.3536
14164TIP3   OH242448   6.301   1.665   4.401 -0.2666  0.1324  0.7165
14164TIP3    H142449   6.312   1.639   4.492 -0.5901  0.2905  0.8011
14164TIP3    H242450   6.207   1.679   4.391 -0.0820  1.4983  0.7412
14165TIP3   OH242451   7.166   2.154   0.018 -0.5017  0.2047 -0.0351
14165TIP3    H142452   7.150   2.130   0.109  0.8527 -3.3172 -0.5809
14165TIP3    H242453   7.260   2.142   0.006 -0.2643  2.7076 -1.4378
14166TIP3   OH242454   5.775   0.860   0.711  0.2159 -0.9226  0.5942
14166TIP3    H142455   5.709   0.922   0.681  0.0030 -1.2923  0.2901
14166TIP3    H242456   5.801   0.813   0.632  1.0782 -0.5668  0.6482
14167TIP3   OH242457   1.350   6.753   4.866 -0.7132 -0.5055 -0.2381
14167TIP3    H142458   1.330   6.814   4.938 -1.8919  0.0549 -1.0100
14167TIP3    H242459   1.409   6.802   4.810 -0.6687 -0.5328 -0.2144
14168TIP3   OH242460   1.744   6.086   0.561 -0.6352 -0.1287 -0.6247
14168TIP3    H142461   1.732   6.181   0.564  0.8975  0.0627 -0.0531
14168TIP3    H242462   1.670   6.055   0.509 -1.1432  1.3719 -0.8551
14169TIP3   OH242463   2.190   3.610   5.999  0.6033 -0.2598 -0.2800
14169TIP3    H142464   2.133   3.541   5.965  1.2688 -0.2235 -1.5356
14169TIP3    H242465   2.258   3.564   6.048  0.2473 -0.3905  0.0949
14170TIP3   OH242466   7.093   7.378   0.006  0.3267  1.0412 -0.4856
14170TIP3    H142467   7.010   7.399  -0.037  0.2340  1.7502  0.0194
14170TIP3    H242468   7.068   7.328   0.084  0.4249  0.6286 -0.7175
14171TIP3   OH242469   2.759   5.879   3.074 -0.4364  0.2639  0.1396
14171TIP3    H142470   2.676   5.846   3.042 -0.2337  0.4959 -0.6490
14171TIP3    H242471   2.788   5.940   3.007  0.8123 -0.4925 -0.0343
14172TIP3   OH242472   0.265   1.742   3.688  0.5298 -0.7537 -0.0115
14172TIP3    H142473   0.302   1.653   3.688 -0.2126 -1.0699 -0.2214
14172TIP3    H242474   0.188   1.735   3.633 -0.0795 -0.2008  0.7581
14173TIP3   OH242475   0.385   0.522   2.241 -0.1522  0.2161 -0.0464
14173TIP3    H142476   0.358   0.435   2.268  2.6736 -0.9971 -0.7098
14173TIP3    H242477   0.411   0.566   2.322 -3.8697  1.5162  0.6459
14174TIP3   OH242478   6.451   5.647   3.636 -0.0714  0.2183 -0.1063
14174TIP3    H142479   6.434   5.555   3.619  1.3324 -0.2147  0.7156
14174TIP3    H242480   6.525   5.648   3.696 -0.4438  1.8711  0.3900
14175TIP3   OH242481   5.806   1.871   0.658  0.6011 -0.3418 -0.1838
14175TIP3    H142482   5.716   1.841   0.647  0.6225 -0.6368  0.4092
14175TIP3    H242483   5.860   1.797   0.630  0.6657 -0.0230 -0.9209
14176TIP3   OH242484   1.695   5.838   2.583 -0.1410  0.0210  0.0034
14176TIP3    H142485   1.784   5.851   2.551  0.4229 -0.3282  1.3751
14176TIP3    H242486   1.641   5.841   2.504  0.9382  1.4057 -0.7325
14177TIP3   OH242487   0.326   4.711   1.528  0.2723  0.5453 -0.0634
14177TIP3    H142488   0.331   4.687   1.620 -0.4012  2.5287  0.5500
14177TIP3    H242489   0.387   4.652   1.484 -1.2906 -2.2118  1.2294
14178TIP3   OH242490   0.855   4.112   2.490  0.0415 -0.0581  0.0565
14178TIP3    H142491   0.776   4.068   2.522  0.6053 -2.2640 -1.3368
14178TIP3    H242492   0.910   4.041   2.456  1.5957  1.6408 -1.1946
14179TIP3   OH242493   5.341   1.341   2.050 -0.1806 -0.3568 -0.1339
14179TIP3    H142494   5.391   1.294   2.116 -0.5249 -1.0530 -0.3557
14179TIP3    H242495   5.256   1.297   2.048 -1.0575  1.2273  0.7049
14180TIP3   OH242496   7.804   7.096   6.718  0.4200 -0.0786  0.3972
14180TIP3    H142497   7.859   7.026   6.752  0.8601 -0.7704 -1.6104
14180TIP3    H242498   7.743   7.053   6.658  0.7240  1.2329 -0.9214
14181TIP3   OH242499   5.761   2.434   2.885 -0.3556  0.4706  0.3028
14181TIP3    H142500   5.852   2.460   2.869 -0.2691  0.7473  1.1858
14181TIP3    H242501   5.726   2.503   2.941 -0.6868 -0.3418  1.1334
14182TIP3   OH242502   0.898   4.365   1.202 -0.2943  0.0094  0.1680
14182TIP3    H142503   0.947   4.424   1.146 -0.7008  0.1142 -0.0810
14182TIP3    H242504   0.942   4.370   1.287  1.1650 -1.1638 -0.4592
14183TIP3   OH242505   6.729   1.917   4.793 -0.0844 -0.5324  0.2126
14183TIP3    H142506   6.816   1.957   4.781  0.0127 -1.0501 -0.9357
14183TIP3    H242507   6.736   1.831   4.752 -0.9465 -0.8556  0.7173
14184TIP3   OH242508   3.241   6.342   2.413  0.0467 -0.1823 -0.2046
14184TIP3    H142509   3.301   6.372   2.345  2.4587  1.5524  2.4106
14184TIP3    H242510   3.245   6.247   2.409  2.5973 -0.1297 -0.5893
14185TIP3   OH242511   5.595   6.984   2.573  0.2451 -0.2888 -0.1036
14185TIP3    H142512   5.517   7.035   2.594  0.1270 -0.5608  0.1207
14185TIP3    H242513   5.666   7.032   2.617 -0.0775 -1.1732  1.4756
14186TIP3   OH242514   8.169   3.045   3.837  0.2554 -0.4265  0.0366
14186TIP3    H142515   8.216   2.975   3.792 -1.1904 -0.8696 -0.8611
14186TIP3    H242516   8.217   3.125   3.814  0.6276 -0.8734 -0.7758
14187TIP3   OH242517   7.964   3.526   0.808  0.0564 -0.2116 -0.2195
14187TIP3    H142518   7.996   3.507   0.719 -0.2703  1.0760 -0.6451
14187TIP3    H242519   7.988   3.449   0.859  1.4782 -0.4122 -1.1153
14188TIP3   OH242520   1.279   6.419   2.335 -0.0957 -0.1333  0.3203
14188TIP3    H142521   1.205   6.365   2.306  1.0731 -1.4092 -0.4089
14188TIP3    H242522   1.356   6.372   2.304  0.9987  1.9579 -0.2911
14189TIP3   OH242523   4.784   7.788   3.622  0.3372  0.4732 -0.6069
14189TIP3    H142524   4.822   7.728   3.558  0.2411  0.6444 -0.8256
14189TIP3    H242525   4.801   7.746   3.707 -0.8575 -0.5091 -0.8222
14190TIP3   OH242526   6.260   0.047   5.949  0.1420  0.1224  0.0139
14190TIP3    H142527   6.219   0.015   5.869 -1.3249 -2.1335  1.5202
14190TIP3    H242528   6.287   0.136   5.929 -1.9792  0.3496 -2.3361
14191TIP3   OH242529   2.338   7.777   1.892  0.1951  0.3162  0.4226
14191TIP3    H142530   2.313   7.870   1.892 -2.1414 -0.2465  0.7506
14191TIP3    H242531   2.294   7.740   1.816  0.7931 -0.5990  0.5074
14192TIP3   OH242532   7.912   5.537   2.107  0.4952  0.4569  0.0454
14192TIP3    H142533   7.932   5.534   2.013 -1.9142  1.6544 -0.5726
14192TIP3    H242534   7.901   5.445   2.131 -0.0628  0.1906 -1.1443
14193TIP3   OH242535   7.714   4.667   5.123  0.5184  0.0112  0.2132
14193TIP3    H142536   7.713   4.574   5.146 -1.5459  0.1660  0.9705
14193TIP3    H242537   7.803   4.684   5.093  1.1425 -2.0333  0.7865
14194TIP3   OH242538   3.710   2.824   3.179  0.1176  0.0111 -0.4357
14194TIP3    H142539   3.688   2.912   3.210  2.0931  0.1311  0.7950
14194TIP3    H242540   3.715   2.771   3.258 -0.0130 -0.9708 -1.0721
14195TIP3   OH242541   7.173   0.418   5.614 -0.1300 -0.1056 -0.9173
14195TIP3    H142542   7.175   0.360   5.691  1.6005  1.1813  0.0712
14195TIP3    H242543   7.131   0.365   5.546 -0.5096 -1.7684  0.5195
14196TIP3   OH242544   0.565   1.988   5.274  0.2828 -0.5849  0.6489
14196TIP3    H142545   0.557   2.083   5.269 -1.7331 -0.7296  0.0197
14196TIP3    H242546   0.475   1.957   5.285  0.7186 -2.4991 -0.6639
14197TIP3   OH242547   6.486   3.285   5.983  0.0705 -0.5431  0.3483
14197TIP3    H142548   6.477   3.245   6.069 -0.8274 -1.1811 -0.0236
14197TIP3    H242549   6.403   3.265   5.938 -0.1933  1.2395 -0.0545
14198TIP3   OH242550   3.949   4.520   2.390 -0.8499 -0.0059 -0.1484
14198TIP3    H142551   4.007   4.463   2.442  0.8565  0.2431 -1.6924
14198TIP3    H242552   3.976   4.506   2.299 -1.6383  1.8999 -0.7321
14199TIP3   OH242553   4.943   6.120   0.919  0.2986 -0.1474  0.1445
14199TIP3    H142554   4.983   6.135   1.005  1.5835  0.7707 -0.5945
14199TIP3    H242555   4.973   6.192   0.865  0.4166 -1.3093 -1.4116
14200TIP3   OH242556   6.166   3.249   6.240 -0.3473  0.8131 -0.6869
14200TIP3    H142557   6.181   3.333   6.196  1.0380 -0.2412 -2.3337
14200TIP3    H242558   6.156   3.272   6.333  2.0953  2.6188 -0.7775
14201TIP3   OH242559   4.462   2.511   6.046  0.3107  0.3414  0.1230
14201TIP3    H142560   4.416   2.595   6.050  1.3302  1.0682 -1.8321
14201TIP3    H242561   4.393   2.446   6.032 -0.5991  0.6587  2.7241
14202TIP3   OH242562   6.591   5.252   5.406  0.1465 -0.2924 -0.1640
14202TIP3    H142563   6.507   5.280   5.443  0.6947  1.5367 -0.2204
14202TIP3    H242564   6.567   5.191   5.336 -1.2511  1.3596 -1.2105
14203TIP3   OH242565   4.563   2.128   6.182 -0.6119 -0.0042  0.3314
14203TIP3    H142566   4.656   2.122   6.160 -0.4931  2.2105 -0.0060
14203TIP3    H242567   4.520   2.070   6.119  0.3399  0.9986 -1.3242
14204TIP3   OH242568   2.389   2.311   3.975  0.3469 -0.3772  0.4378
14204TIP3    H142569   2.298   2.338   3.965  0.7206  0.7856  0.1089
14204TIP3    H242570   2.384   2.218   3.997 -0.8908 -0.5016 -0.2977
14205TIP3   OH242571   3.694   6.101   2.183 -0.2516 -0.1391 -0.0332
14205TIP3    H142572   3.674   6.078   2.274 -0.2460 -0.5621 -0.1371
14205TIP3    H242573   3.782   6.067   2.169 -0.4593 -0.5446 -0.3584
14206TIP3   OH242574   5.883   0.916   3.254 -0.6985 -0.4291 -0.1899
14206TIP3    H142575   5.932   0.996   3.272 -2.1380  0.1863  1.3833
14206TIP3    H242576   5.812   0.944   3.196  0.1184 -1.0844 -1.5558
14207TIP3   OH242577   5.774   6.910   3.169 -0.0807 -0.3763 -0.7978
14207TIP3    H142578   5.733   6.850   3.232 -0.1706  0.4208 -0.0808
14207TIP3    H242579   5.717   6.905   3.092 -0.3069 -0.9097 -0.6053
14208TIP3   OH242580   5.170   0.781   4.651 -0.1073 -0.1605 -0.9395
14208TIP3    H142581   5.177   0.701   4.702 -0.3856  1.3065  1.5673
14208TIP3    H242582   5.234   0.840   4.691 -0.8813  1.3172 -1.7907
14209TIP3   OH242583   5.398   3.384   0.635 -0.2706  0.0277 -0.1955
14209TIP3    H142584   5.324   3.425   0.588 -1.4956  0.3170  1.8657
14209TIP3    H242585   5.382   3.290   0.628  0.1099  0.0200 -1.1596
14210TIP3   OH242586   0.515   7.487   6.060  0.0187 -0.3870  0.6230
14210TIP3    H142587   0.611   7.487   6.066 -0.0253  0.1525  1.5694
14210TIP3    H242588   0.486   7.480   6.151 -0.8530 -1.4610  0.2786
14211TIP3   OH242589   2.858   0.202   3.282 -0.2072  0.0784 -0.3184
14211TIP3    H142590   2.911   0.247   3.216 -0.9185  0.9291 -0.3235
14211TIP3    H242591   2.870   0.109   3.264 -0.6785  0.3027 -1.8598
14212TIP3   OH242592   7.252   7.394   3.236 -0.6095  0.2585  0.1447
14212TIP3    H142593   7.292   7.455   3.174  0.0093 -1.1674 -0.9229
14212TIP3    H242594   7.303   7.404   3.317  2.2861 -1.7365 -1.2530
14213TIP3   OH242595   0.287   0.094   6.658 -0.0337 -0.0383  0.0405
14213TIP3    H142596   0.227   0.023   6.640 -1.5418  1.3236 -0.5313
14213TIP3    H242597   0.357   0.083   6.594 -0.1514 -1.0802  0.0720
14214TIP3   OH242598   6.477   2.548   3.714 -0.0423 -0.2485  0.2598
14214TIP3    H142599   6.531   2.606   3.660 -0.3364  1.0659  1.3350
14214TIP3    H242600   6.533   2.522   3.786 -0.5140  0.2856  0.8277
14215TIP3   OH242601   1.179   5.627   2.083  0.7779 -0.3025 -0.0974
14215TIP3    H142602   1.242   5.596   2.148  0.1691 -0.8438  0.2448
14215TIP3    H242603   1.211   5.593   2.000  3.2012  2.7810 -0.6179
14216TIP3   OH242604   5.293   3.212   5.619  0.4398  0.1964  0.1107
14216TIP3    H142605   5.306   3.296   5.575 -0.1463  0.3533  0.2186
14216TIP3    H242606   5.320   3.227   5.709  2.3038 -0.3185 -0.3258
14217TIP3   OH242607   5.477   2.789   2.689 -0.0746  0.9881 -0.4138
14217TIP3    H142608   5.567   2.804   2.661 -0.5647  2.2185 -1.4267
14217TIP3    H242609   5.479   2.805   2.784  0.9286  0.1432 -0.2794
14218TIP3   OH242610   7.857   4.932   0.466 -0.5638 -0.2581 -0.3123
14218TIP3    H142611   7.802   4.877   0.411 -0.1461 -1.2143  0.2129
14218TIP3    H242612   7.889   5.000   0.406 -0.4729 -1.0147 -1.1461
14219TIP3   OH242613   1.882   1.784   0.978  0.2001 -0.4126  0.8041
14219TIP3    H142614   1.818   1.727   0.936  0.1857 -0.2082  0.5490
14219TIP3    H242615   1.967   1.744   0.959  0.1645 -0.5669  0.9638
14220TIP3   OH242616   5.349   0.397   6.134 -0.2123 -0.3838 -0.2048
14220TIP3    H142617   5.300   0.444   6.201 -1.5413 -1.2044 -0.5497
14220TIP3    H242618   5.293   0.322   6.113 -0.3632  0.4254 -3.0106
14221TIP3   OH242619   0.683   1.202   5.119  0.1911  0.3732  0.2011
14221TIP3    H142620   0.734   1.135   5.073  0.3484 -0.6254  1.7432
14221TIP3    H242621   0.602   1.208   5.069  0.7485  0.0557 -0.7712
14222TIP3   OH242622   2.410   2.658   6.470 -0.1007  0.3148  0.3832
14222TIP3    H142623   2.432   2.583   6.414 -0.2623 -0.6167  1.5150
14222TIP3    H242624   2.474   2.654   6.541  0.8825  2.2055 -0.3288
14223TIP3   OH242625   4.356   5.914   2.778 -0.0883  0.3527 -0.0405
14223TIP3    H142626   4.431   5.893   2.834  0.1706 -0.5311 -0.6873
14223TIP3    H242627   4.333   5.831   2.737 -0.3614  0.9414 -1.1198
14224TIP3   OH242628   6.826   3.904   4.547  0.3733  0.3455  0.5361
14224TIP3    H142629   6.764   3.878   4.478  0.3076  0.5834  0.5048
14224TIP3    H242630   6.902   3.849   4.532 -0.6865 -1.6088  1.9715
14225TIP3   OH242631   2.835   6.392   0.133 -0.1023 -0.2660 -0.9169
14225TIP3    H142632   2.850   6.427   0.221 -1.8412 -0.0727 -0.6764
14225TIP3    H242633   2.820   6.299   0.147  1.3558 -0.5695 -1.2211
14226TIP3   OH242634   4.221   6.524   5.161 -0.3350 -0.0419  0.5785
14226TIP3    H142635   4.149   6.549   5.219 -1.4608 -2.0252  0.1466
14226TIP3    H242636   4.178   6.490   5.083  1.0456 -1.3149  0.3152
14227TIP3   OH242637   3.305   1.325   3.908  0.0020 -0.2126  0.4078
14227TIP3    H142638   3.216   1.354   3.889 -0.9529 -1.7051  2.2606
14227TIP3    H242639   3.360   1.380   3.853 -1.9808  1.6002  0.0936
14228TIP3   OH242640   7.341   5.977   6.307 -0.2804 -0.3382 -0.3493
14228TIP3    H142641   7.385   6.060   6.287  0.5221 -0.2296  1.6152
14228TIP3    H242642   7.412   5.912   6.307 -0.7408 -0.8490 -0.8977
14229TIP3   OH242643   7.290   4.402   6.469 -0.2546 -0.2885 -0.5827
14229TIP3    H142644   7.199   4.431   6.462 -0.3964 -1.0542 -2.3083
14229TIP3    H242645   7.287   4.327   6.528 -0.4943  0.6471  0.6181
14230TIP3   OH242646   7.812   3.250   2.205  0.8338 -0.2341 -0.6326
14230TIP3    H142647   7.758   3.215   2.276 -1.1623 -0.3768 -2.1473
14230TIP3    H242648   7.835   3.173   2.153  1.2033  0.0254 -0.8586
14231TIP3   OH242649   2.975   2.938   4.605  0.3889 -0.2350  0.2553
14231TIP3    H142650   3.061   2.975   4.585  0.6262 -0.5972  0.5920
14231TIP3    H242651   2.993   2.860   4.657  0.0205 -2.3078 -2.4803
14232TIP3   OH242652   3.409   0.817   1.406 -0.0295 -0.1029  0.0696
14232TIP3    H142653   3.470   0.762   1.454 -1.4519 -2.3785 -0.5397
14232TIP3    H242654   3.405   0.898   1.456  2.0647 -0.5593  1.1063
14233TIP3   OH242655   7.480   6.558   5.958 -0.0551  0.5070  0.4809
14233TIP3    H142656   7.551   6.501   5.989 -0.9466 -0.5639  0.6418
14233TIP3    H242657   7.472   6.539   5.865 -0.9067 -0.2970  0.6964
14234TIP3   OH242658   6.481   2.405   3.062  0.2546 -0.0073  0.2371
14234TIP3    H142659   6.467   2.369   2.975 -1.1630  0.2445  0.3322
14234TIP3    H242660   6.574   2.392   3.079  0.7247  0.6147 -1.6037
14235TIP3   OH242661   5.642   5.005   3.700  0.0405  1.0397  0.1808
14235TIP3    H142662   5.592   4.984   3.779  1.2028  3.0152  1.5327
14235TIP3    H242663   5.576   5.032   3.636 -0.9998 -1.4709  0.0907
14236TIP3   OH242664   2.742   3.448   3.453 -0.3474 -0.1050  0.0453
14236TIP3    H142665   2.720   3.389   3.381 -0.8073 -0.6293  0.5968
14236TIP3    H242666   2.665   3.504   3.462 -1.0163 -1.1467  1.1952
14237TIP3   OH242667   7.781   5.188   5.370 -1.0295  0.5055 -0.0609
14237TIP3    H142668   7.814   5.142   5.293 -2.0231  0.9841 -0.7766
14237TIP3    H242669   7.860   5.206   5.421 -0.2348  1.0426 -1.4240
14238TIP3   OH242670   3.727   0.732   2.629  0.4941  0.1457  0.4234
14238TIP3    H142671   3.786   0.767   2.562  1.5441  0.0707  1.2936
14238TIP3    H242672   3.645   0.716   2.582  0.1457  3.0870 -0.1956
14239TIP3   OH242673   7.805   3.602   5.560  0.1536  0.0608 -0.7541
14239TIP3    H142674   7.745   3.605   5.485 -0.0524 -0.8753 -0.6341
14239TIP3    H242675   7.801   3.512   5.591  1.1547  0.1359 -0.3541
14240TIP3   OH242676   0.465   4.470   4.962  0.3343  0.1866  0.1346
14240TIP3    H142677   0.487   4.403   5.027 -0.4595  0.4159  0.6637
14240TIP3    H242678   0.379   4.443   4.930  0.0224  0.9207  0.3276
14241TIP3   OH242679   7.904   5.638   6.018  0.1095 -0.0036  0.4258
14241TIP3    H142680   7.935   5.728   6.020 -0.6616  0.2838 -0.2421
14241TIP3    H242681   7.886   5.617   6.110 -0.2280  0.7028  0.5260
14242TIP3   OH242682   5.009   7.447   2.978  0.3258  0.4235 -0.1909
14242TIP3    H142683   5.007   7.356   2.947  0.4682  0.7541 -1.2169
14242TIP3    H242684   5.100   7.475   2.965  0.4883  0.4481  0.9432
14243TIP3   OH242685   0.992   3.377   0.554 -0.1309  0.2440 -0.5030
14243TIP3    H142686   0.988   3.282   0.549 -1.6014  0.2408  0.0490
14243TIP3    H242687   0.903   3.403   0.579  0.3568  1.7325 -0.2090
14244TIP3   OH242688   0.003   5.314   1.739 -0.0500  0.1272 -0.0124
14244TIP3    H142689   0.030   5.380   1.676 -1.1111 -0.6383 -1.3197
14244TIP3    H242690   0.074   5.312   1.804  2.2709 -0.7045 -2.4101
14245TIP3   OH242691   5.783   1.836   0.062  0.2634  0.4126 -0.4628
14245TIP3    H142692   5.693   1.827   0.031  0.0074 -0.5588  0.5160
14245TIP3    H242693   5.786   1.923   0.103 -0.5944 -0.0480  0.6200
14246TIP3   OH242694   1.547   1.179   4.879  0.3154 -0.1688  0.4174
14246TIP3    H142695   1.558   1.273   4.863 -0.2381 -0.3148 -0.8636
14246TIP3    H242696   1.454   1.163   4.866  0.5941 -1.1050 -0.4952
14247TIP3   OH242697   3.886   7.554   6.395 -0.1915  0.4404 -0.2333
14247TIP3    H142698   3.971   7.597   6.394 -0.7033  1.5026 -1.5691
14247TIP3    H242699   3.825   7.622   6.365 -1.8759  0.3906  2.7478
14248TIP3   OH242700   7.475   2.254   3.225 -0.0588  0.0493 -0.2263
14248TIP3    H142701   7.499   2.162   3.220  1.2513  0.4248 -1.6644
14248TIP3    H242702   7.509   2.283   3.310 -3.3304 -1.4622  1.7848
14249TIP3   OH242703   6.769   7.347   4.622  0.4145 -0.0199 -0.2531
14249TIP3    H142704   6.703   7.316   4.561 -0.1276  1.3122 -0.3932
14249TIP3    H242705   6.807   7.268   4.660 -1.8871 -0.8506  0.4929
14250TIP3   OH242706   3.649   4.279   2.235 -0.0281 -0.8602  0.1093
14250TIP3    H142707   3.720   4.271   2.171 -0.9611  1.4113 -1.3310
14250TIP3    H242708   3.693   4.286   2.320  1.3768 -1.0609 -0.5834
14251TIP3   OH242709   8.019   2.444   3.154 -0.4965 -0.2276  0.3382
14251TIP3    H142710   7.958   2.510   3.120 -0.3675 -0.6749 -0.8083
14251TIP3    H242711   8.007   2.368   3.096 -0.1148 -0.9547  1.1830
14252TIP3   OH242712   6.615   6.010   6.275 -0.0221 -0.2239  0.1222
14252TIP3    H142713   6.625   5.937   6.214  1.1238 -0.0797  0.1303
14252TIP3    H242714   6.699   6.056   6.273 -1.1738  2.0185 -1.0368
14253TIP3   OH242715   5.224   5.757   2.255 -0.2337 -0.3940 -0.3071
14253TIP3    H142716   5.299   5.713   2.215 -0.7541 -0.1854 -1.5771
14253TIP3    H242717   5.177   5.796   2.181 -1.0118  0.3838  0.5672
14254TIP3   OH242718   6.226   1.062   2.805  0.1689 -0.1502 -0.1672
14254TIP3    H142719   6.275   1.039   2.884 -0.4381 -0.0601  0.2464
14254TIP3    H242720   6.277   1.025   2.733  0.2638 -1.0355  0.3367
14255TIP3   OH242721   0.374   2.723   1.223  0.5823 -0.4257  0.0184
14255TIP3    H142722   0.424   2.683   1.152  2.8913  0.5929  0.9576
14255TIP3    H242723   0.437   2.733   1.294 -1.5048 -0.8917  2.0415
14256TIP3   OH242724   0.270   3.288   1.378 -0.4624 -0.4829 -0.1523
14256TIP3    H142725   0.272   3.326   1.290  0.9820 -0.2386 -0.0286
14256TIP3    H242726   0.250   3.362   1.435 -1.1274 -0.5911 -0.2314
14257TIP3   OH242727   4.965   3.711   6.687  0.5318 -0.1866 -0.2449
14257TIP3    H142728   4.872   3.692   6.698 -0.2852  2.8475 -1.0376
14257TIP3    H242729   4.984   3.683   6.597 -0.2903  1.3344 -0.9289
14258TIP3   OH242730   2.039   1.210   6.129 -0.1443  0.4096  0.1558
14258TIP3    H142731   2.094   1.250   6.062  0.0694 -0.6020 -0.2872
14258TIP3    H242732   1.978   1.155   6.081  1.7342 -2.5033  0.8232
14259TIP3   OH242733   5.662   3.604   4.886  0.6505 -0.8247 -0.0572
14259TIP3    H142734   5.638   3.512   4.901 -1.1201 -0.9652 -2.8714
14259TIP3    H242735   5.604   3.632   4.815  2.4831  1.9102 -0.6263
14260TIP3   OH242736   6.472   7.233   1.309  0.0104  0.6733 -0.4294
14260TIP3    H142737   6.445   7.170   1.242 -1.2089 -0.1681  0.8027
14260TIP3    H242738   6.520   7.181   1.373 -0.7623  1.0304  0.4575
14261TIP3   OH242739   0.175   3.660   0.822  0.7599 -0.1263 -0.2193
14261TIP3    H142740   0.147   3.689   0.735  2.8314  3.3260  0.0778
14261TIP3    H242741   0.093   3.652   0.871 -0.3124  0.0332 -1.8884
14262TIP3   OH242742   3.269   2.084   2.991  0.2791  0.4662 -0.1756
14262TIP3    H142743   3.241   2.128   3.072 -0.8258  1.3819 -1.0248
14262TIP3    H242744   3.346   2.132   2.962  0.9071 -0.1015  0.5181
14263TIP3   OH242745   2.831   3.209   1.482  0.0934 -0.5315  0.0972
14263TIP3    H142746   2.831   3.119   1.450 -1.2864  0.2229 -2.2648
14263TIP3    H242747   2.846   3.263   1.405 -0.1432  1.3145  1.2638
14264TIP3   OH242748   6.220   1.697   5.265  0.3098 -0.0065 -0.3534
14264TIP3    H142749   6.151   1.763   5.263  1.1997  0.9351 -1.3072
14264TIP3    H242750   6.233   1.673   5.174  2.0643  0.7489 -0.3445
14265TIP3   OH242751   1.835   6.568   0.282 -0.1210  0.4763 -0.0007
14265TIP3    H142752   1.874   6.628   0.218  0.3039 -0.3244 -0.5018
14265TIP3    H242753   1.902   6.556   0.349 -0.3861  0.9276  0.3562
14266TIP3   OH242754   0.461   5.324   5.172  0.4423  0.0684  0.1512
14266TIP3    H142755   0.476   5.240   5.129  0.4159 -1.3061  2.6062
14266TIP3    H242756   0.531   5.330   5.238 -0.1539  1.5029  0.7056
14267TIP3   OH242757   6.652   0.679   6.363  0.1976 -0.3029  0.0380
14267TIP3    H142758   6.672   0.592   6.397  0.5700 -0.0179  0.5599
14267TIP3    H242759   6.565   0.670   6.323  0.4895 -1.0562 -0.4465
14268TIP3   OH242760   1.689   0.675   3.491 -0.1009 -0.3350  0.4644
14268TIP3    H142761   1.692   0.670   3.587 -0.4547 -0.0094  0.4955
14268TIP3    H242762   1.780   0.686   3.464 -0.1988  2.1367  0.9139
14269TIP3   OH242763   4.453   2.092   2.659 -0.1838  0.1689  0.0961
14269TIP3    H142764   4.509   2.027   2.615 -0.7796  0.5161 -1.2307
14269TIP3    H242765   4.506   2.171   2.662 -1.2444  1.1227 -3.0701
14270TIP3   OH242766   5.749   6.162   0.871  0.3498 -0.1058  1.0202
14270TIP3    H142767   5.834   6.205   0.874  0.1422  0.5657 -1.2545
14270TIP3    H242768   5.686   6.232   0.889  0.0552  0.5610 -2.0325
14271TIP3   OH242769   3.040   3.848   6.333 -0.1974  0.1059  0.4188
14271TIP3    H142770   2.963   3.833   6.388 -0.1297  0.4368  0.6114
14271TIP3    H242771   3.055   3.765   6.289 -1.1036  0.2345 -0.1734
14272TIP3   OH242772   6.558   0.765   2.256  0.7275 -0.2434  0.5800
14272TIP3    H142773   6.651   0.788   2.253  0.9577 -1.2362 -1.4300
14272TIP3    H242774   6.539   0.727   2.170 -0.9938 -2.2195  1.7222
14273TIP3   OH242775   7.976   4.151   1.862  0.2931 -0.1945 -0.3737
14273TIP3    H142776   8.011   4.063   1.847 -1.8542 -1.1181 -0.2541
14273TIP3    H242777   8.046   4.209   1.832  1.9967 -1.9033  0.0429
14274TIP3   OH242778   5.137   6.179   0.550 -0.1724  0.7355  0.0030
14274TIP3    H142779   5.130   6.191   0.645 -1.2051  1.0095 -0.1023
14274TIP3    H242780   5.229   6.198   0.530  0.2886 -0.2270  1.0731
14275TIP3   OH242781   8.292   5.379   2.114 -0.6900  0.1199 -0.5060
14275TIP3    H142782   8.237   5.419   2.181  0.0432 -0.3863  0.4241
14275TIP3    H242783   8.233   5.321   2.066 -1.0722 -0.0718  0.1792
14276TIP3   OH242784   0.385   2.157   3.518  0.8718 -0.0804  0.1874
14276TIP3    H142785   0.394   2.115   3.433  2.1450 -0.2523  0.3783
14276TIP3    H242786   0.311   2.112   3.560  0.6443 -0.4249 -0.5696
14277TIP3   OH242787   4.476   4.333   1.462  0.2082 -0.1289 -0.2522
14277TIP3    H142788   4.457   4.404   1.523 -0.8924 -1.1007  0.5771
14277TIP3    H242789   4.536   4.276   1.510 -0.0123 -0.4761 -0.3934
14278TIP3   OH242790   2.509   4.420   3.031 -0.3076 -0.1839  0.2639
14278TIP3    H142791   2.465   4.505   3.032  2.3047  1.2859 -0.2848
14278TIP3    H242792   2.516   4.395   3.123  1.9050  1.9982  0.8285
14279TIP3   OH242793   7.849   5.858   1.821  0.2734 -0.3265 -0.1360
14279TIP3    H142794   7.815   5.945   1.840 -0.2819 -0.8023  1.2303
14279TIP3    H242795   7.927   5.873   1.768 -1.0114  0.8756 -1.7682
14280TIP3   OH242796   0.603   6.874   4.805  0.5231  0.3695  0.0618
14280TIP3    H142797   0.511   6.858   4.785  0.7334 -1.1628  0.2278
14280TIP3    H242798   0.603   6.960   4.849 -0.8444  0.3131  0.2211
14281TIP3   OH242799   4.666   6.717   2.030  0.0560  0.4842 -0.3606
14281TIP3    H142800   4.688   6.803   1.992  2.0826 -0.1310 -0.7067
14281TIP3    H242801   4.734   6.659   1.997 -0.3869 -0.9366  1.1347
14282TIP3   OH242802   4.369   4.464   1.235  0.2518 -0.0025  0.0183
14282TIP3    H142803   4.286   4.418   1.218 -0.8483  1.5349  0.9173
14282TIP3    H242804   4.403   4.424   1.314 -0.9630  1.0013  1.0913
14283TIP3   OH242805   5.403   1.416   4.312 -0.6211  0.1091  0.3119
14283TIP3    H142806   5.357   1.351   4.259 -0.4955 -0.1658  0.5353
14283TIP3    H242807   5.488   1.376   4.330 -1.0976 -0.3344  1.7263
14284TIP3   OH242808   2.571   1.015   4.672  0.0793  0.4766  0.2836
14284TIP3    H142809   2.628   1.043   4.743  1.4833 -0.0776 -0.5767
14284TIP3    H242810   2.630   0.980   4.605 -1.2675 -0.1133 -0.6710
14285TIP3   OH242811   7.653   2.660   5.519 -0.2964  0.1059 -0.2292
14285TIP3    H142812   7.712   2.585   5.519 -0.5552 -0.1010  0.2064
14285TIP3    H242813   7.568   2.624   5.544 -0.2642  0.6560  0.7189
14286TIP3   OH242814   2.112   6.389   5.442 -0.1791  0.5474 -0.5878
14286TIP3    H142815   2.027   6.370   5.481  0.2633  0.5769  0.4181
14286TIP3    H242816   2.100   6.473   5.397 -0.4067  1.1002  0.4670
14287TIP3   OH242817   6.542   3.627   1.006 -0.0521  0.8304  0.1882
14287TIP3    H142818   6.593   3.680   0.944 -1.8341  2.7202  0.2540
14287TIP3    H242819   6.552   3.672   1.090  0.3408 -0.3324  0.7840
14288TIP3   OH242820   0.897   2.653   3.566  0.3090  0.1022  0.2292
14288TIP3    H142821   0.823   2.594   3.577  1.4160 -0.9402  2.9840
14288TIP3    H242822   0.896   2.708   3.644  0.8647  1.9547 -1.0224
14289TIP3   OH242823   3.511   2.412   0.335  0.1495 -0.4270 -0.0681
14289TIP3    H142824   3.418   2.433   0.341  0.0896 -0.7358  0.1015
14289TIP3    H242825   3.521   2.334   0.390  0.6186 -0.0365  0.4149
14290TIP3   OH242826   3.326   5.895   0.476 -0.2877 -0.1958 -0.3628
14290TIP3    H142827   3.240   5.901   0.518  0.3999  0.9976  0.9737
14290TIP3    H242828   3.385   5.873   0.548  0.6930  0.2044 -1.0401
14291TIP3   OH242829   6.847   0.093   4.717  0.2425 -0.4999  0.8783
14291TIP3    H142830   6.911   0.047   4.771  0.0296  0.9120  2.4421
14291TIP3    H242831   6.764   0.048   4.736  0.3010 -0.5109  1.1111
14292TIP3   OH242832   3.461   7.770   4.573  0.1001  0.3469 -0.0024
14292TIP3    H142833   3.412   7.746   4.494  0.2894  0.1452 -0.0604
14292TIP3    H242834   3.413   7.844   4.609 -0.9677 -0.6323  0.6442
14293TIP3   OH242835   4.055   4.875   4.569 -0.3219  0.5726 -0.2474
14293TIP3    H142836   4.101   4.807   4.618 -1.1467 -0.2613 -0.6046
14293TIP3    H242837   4.052   4.950   4.628 -0.5488 -0.1372  0.6524
14294TIP3   OH242838   1.131   4.718   2.229 -0.1468 -0.2079 -0.4076
14294TIP3    H142839   1.219   4.680   2.223  0.0282  0.1976 -0.4418
14294TIP3    H242840   1.087   4.691   2.149 -0.1521 -0.6519 -0.2603
14295TIP3   OH242841   0.956   3.377   3.699 -0.7532  0.1796 -0.0057
14295TIP3    H142842   1.000   3.380   3.614  1.0870  0.5887  0.8987
14295TIP3    H242843   0.912   3.461   3.707 -1.5320 -0.1443 -0.8460
14296TIP3   OH242844   2.211   1.953   3.840 -0.0468 -0.0106  0.3887
14296TIP3    H142845   2.182   1.966   3.931 -2.1531 -0.0659 -0.2367
14296TIP3    H242846   2.205   1.859   3.826 -3.8126  0.2782 -0.9874
14297TIP3   OH242847   3.495   0.487   3.631 -0.4960 -0.2934  0.3235
14297TIP3    H142848   3.438   0.552   3.590  2.2311  2.6339  0.8161
14297TIP3    H242849   3.571   0.483   3.574  0.8193 -0.5849  2.0330
14298TIP3   OH242850   1.741   2.226   5.422  0.0697  0.0512 -0.0190
14298TIP3    H142851   1.676   2.236   5.353 -0.0050  0.5971  0.1309
14298TIP3    H242852   1.692   2.235   5.503 -0.1466 -2.2080  0.1826
14299TIP3   OH242853   5.138   4.882   5.475 -0.0583 -0.4911  0.5559
14299TIP3    H142854   5.122   4.950   5.540  1.9832  0.5419  0.0514
14299TIP3    H242855   5.213   4.833   5.508  0.3958 -0.5651 -0.5494
14300TIP3   OH242856   2.928   6.575   3.559 -0.2530  0.2273 -0.5130
14300TIP3    H142857   3.012   6.613   3.534  0.8047  0.1658  2.4719
14300TIP3    H242858   2.891   6.541   3.478  2.9693 -0.4463 -1.8379
14301TIP3   OH242859   3.583   3.557   5.160  0.0147 -0.3837  0.0860
14301TIP3    H142860   3.522   3.486   5.179 -0.0532 -0.1196  0.8654
14301TIP3    H242861   3.655   3.515   5.114 -1.4042 -0.4858 -2.2046
14302TIP3   OH242862   8.195   0.828   3.303 -0.0725  0.6643  0.2492
14302TIP3    H142863   8.287   0.821   3.329 -0.1224  1.7988  0.7483
14302TIP3    H242864   8.199   0.852   3.210  0.1039 -1.1540 -0.2553
14303TIP3   OH242865   4.378   0.630   2.100  0.2605 -0.0570 -0.5912
14303TIP3    H142866   4.367   0.579   2.181  1.2057 -0.7827 -0.9018
14303TIP3    H242867   4.300   0.609   2.048 -1.0109  1.4078  0.6134
14304TIP3   OH242868   4.199   0.346   2.350 -0.1381 -0.2835  0.0164
14304TIP3    H142869   4.114   0.357   2.307 -0.3480 -2.0822 -0.1309
14304TIP3    H242870   4.256   0.310   2.282  0.5205  0.1752  0.3185
14305TIP3   OH242871   6.620   1.068   0.336  0.2894  0.0010  0.4882
14305TIP3    H142872   6.604   1.094   0.246  1.0141  0.9487  0.6112
14305TIP3    H242873   6.533   1.067   0.377  0.0875  0.8389  0.0969
14306TIP3   OH242874   7.590   7.021   0.419 -0.1064 -0.0425 -0.0199
14306TIP3    H142875   7.544   7.026   0.335 -0.5217  0.2824  0.2198
14306TIP3    H242876   7.523   6.989   0.480  0.3813 -0.9505  0.0530
14307TIP3   OH242877   7.829   0.453   5.076 -0.4696  0.0377  0.0672
14307TIP3    H142878   7.738   0.433   5.099 -0.0299 -1.7598  0.4386
14307TIP3    H242879   7.830   0.547   5.062 -2.1829  0.2459  1.0022
14308TIP3   OH242880   7.929   4.041   2.990  0.4498  0.6980  0.4632
14308TIP3    H142881   7.898   4.042   2.900  1.3333  1.4257  0.1572
14308TIP3    H242882   7.876   3.973   3.033  1.3579 -1.0403 -1.0534
14309TIP3   OH242883   6.084   7.469   5.905  0.1506  0.3216  0.5932
14309TIP3    H142884   6.160   7.483   5.849  2.0750 -0.9145  2.6953
14309TIP3    H242885   6.040   7.393   5.867 -0.1772  1.1589 -0.7587
14310TIP3   OH242886   0.622   3.572   4.581  0.3571 -0.2454  0.2310
14310TIP3    H142887   0.551   3.634   4.566  0.4840  0.1182  1.0369
14310TIP3    H242888   0.590   3.489   4.545  0.0398  0.2051 -0.5290
14311TIP3   OH242889   4.923   2.805   0.624  0.0890 -0.4290  0.2518
14311TIP3    H142890   4.956   2.863   0.691 -1.7092  1.1517 -0.1578
14311TIP3    H242891   4.972   2.828   0.545 -0.1852  0.1294  0.2395
14312TIP3   OH242892   5.219   6.146   1.731  0.2790 -0.2898 -0.1356
14312TIP3    H142893   5.170   6.092   1.669 -0.5014 -0.1901  0.3774
14312TIP3    H242894   5.161   6.154   1.806  0.3237  1.3736 -0.2491
14313TIP3   OH242895   5.691   1.533   0.863  0.2724  0.2186  0.7802
14313TIP3    H142896   5.750   1.458   0.859  1.6146  1.2907 -1.5340
14313TIP3    H242897   5.670   1.553   0.772  0.8688  3.2956  1.2039
14314TIP3   OH242898   7.300   6.831   2.906 -0.1823 -0.2592  0.1366
14314TIP3    H142899   7.344   6.910   2.874 -0.3024  0.7984  2.3790
14314TIP3    H242900   7.371   6.775   2.936 -0.2179  0.3686  1.4357
14315TIP3   OH242901   7.794   4.169   4.388 -0.1991 -0.0804  0.2799
14315TIP3    H142902   7.791   4.257   4.426  0.8526  0.9888 -1.9070
14315TIP3    H242903   7.873   4.130   4.425  0.6632  0.8439 -0.5242
14316TIP3   OH242904   7.048   3.577   2.163 -0.7904 -0.3549  0.1157
14316TIP3    H142905   7.072   3.668   2.183 -2.8229  0.6158 -1.5262
14316TIP3    H242906   7.029   3.538   2.249 -0.2536  0.8773  0.8181
14317TIP3   OH242907   6.063   7.685   3.123 -0.0763 -0.5349  0.2149
14317TIP3    H142908   6.103   7.604   3.157 -0.4286 -0.5675  0.5662
14317TIP3    H242909   6.000   7.710   3.191 -1.1322 -0.8509 -0.6214
14318TIP3   OH242910   6.772   5.553   6.696 -0.3021 -0.0120 -0.0975
14318TIP3    H142911   6.775   5.457   6.690 -2.9772 -0.1902  0.4069
14318TIP3    H242912   6.706   5.579   6.633  0.9576  1.6304 -0.8099
14319TIP3   OH242913   1.412   0.634   5.469  0.0693 -0.3667  0.2175
14319TIP3    H142914   1.410   0.607   5.377 -1.5055  0.2286  0.0483
14319TIP3    H242915   1.424   0.552   5.518 -0.9731 -0.9464 -0.4537
14320TIP3   OH242916   6.609   4.108   4.700 -0.3175  0.1039  0.0096
14320TIP3    H142917   6.698   4.073   4.705 -0.4441 -0.2871 -0.4113
14320TIP3    H242918   6.589   4.112   4.607 -0.0800  1.9022  0.0029
14321TIP3   OH242919   6.483   3.852   6.161  0.0736  0.2174 -0.0632
14321TIP3    H142920   6.540   3.790   6.116 -1.6817 -1.4768 -0.1064
14321TIP3    H242921   6.436   3.896   6.091  1.7336  2.1329 -0.0622
14322TIP3   OH242922   2.117   4.425   1.509 -0.1676 -0.0180  0.2396
14322TIP3    H142923   2.057   4.435   1.434 -0.8858  0.3373  0.8434
14322TIP3    H242924   2.136   4.515   1.536  0.7749 -0.1269 -0.0427
14323TIP3   OH242925   7.562   3.440   0.707  0.2863  0.5805 -0.3461
14323TIP3    H142926   7.487   3.498   0.718 -1.1705 -0.9237 -1.7654
14323TIP3    H242927   7.563   3.385   0.785 -0.5751  0.1159 -0.6525
14324TIP3   OH242928   1.650   3.171   6.704  0.0787  0.1414 -0.4687
14324TIP3    H142929   1.699   3.171   6.622 -0.5982 -1.5633 -0.9201
14324TIP3    H242930   1.610   3.084   6.708  1.3887 -0.4291  2.4454
14325TIP3   OH242931   4.174   3.012   6.290  0.0082 -0.1277  0.7405
14325TIP3    H142932   4.155   3.078   6.357 -2.9510  1.4396 -1.3794
14325TIP3    H242933   4.258   3.040   6.253 -1.1635  2.6685 -0.1192
14326TIP3   OH242934   5.585   3.864   0.341 -0.4318 -0.0844  0.2198
14326TIP3    H142935   5.549   3.784   0.378 -1.4244 -0.5755 -1.6900
14326TIP3    H242936   5.667   3.836   0.299 -0.7261 -0.0912 -0.3570
14327TIP3   OH242937   4.879   4.532   1.284  0.1341 -0.0770  0.1414
14327TIP3    H142938   4.948   4.467   1.297 -0.6106 -1.0078 -0.4741
14327TIP3    H242939   4.923   4.605   1.241  0.4858 -1.2312 -1.5417
14328TIP3   OH242940   1.155   1.418   6.526 -0.2981  0.2767  0.1706
14328TIP3    H142941   1.153   1.345   6.588 -2.4062 -0.7629 -1.0311
14328TIP3    H242942   1.121   1.492   6.575  1.8678  0.5452  1.4058
14329TIP3   OH242943   3.246   0.202   4.595  0.1873  0.1504  0.4363
14329TIP3    H142944   3.232   0.108   4.584 -0.2714  0.4127 -1.5960
14329TIP3    H242945   3.158   0.240   4.595  0.3959  0.6502  0.3231
14330TIP3   OH242946   6.013   1.885   0.273 -0.0166  0.2174 -0.1807
14330TIP3    H142947   6.075   1.959   0.277 -1.5367  1.5211  0.7163
14330TIP3    H242948   5.979   1.887   0.184  0.5943  0.0363 -0.4226
14331TIP3   OH242949   2.178   5.906   3.569 -0.0241  0.0604  0.2003
14331TIP3    H142950   2.260   5.896   3.521 -0.4855  1.4797 -0.9416
14331TIP3    H242951   2.135   5.821   3.560  1.3822 -0.7990  1.0375
14332TIP3   OH242952   0.273   0.927   2.066 -0.7159  0.2817  0.1693
14332TIP3    H142953   0.348   0.950   2.121 -0.6608 -0.6352  0.4896
14332TIP3    H242954   0.197   0.938   2.122 -0.7455  0.3229  0.1212
14333TIP3   OH242955   0.858   4.997   1.360 -0.2467  0.1979  0.1897
14333TIP3    H142956   0.918   4.990   1.435 -1.5308 -1.6490  1.1312
14333TIP3    H242957   0.773   5.016   1.400 -1.1454 -1.7568 -0.6474
14334TIP3   OH242958   5.031   7.507   6.294  0.0247 -0.4607 -0.1489
14334TIP3    H142959   5.102   7.443   6.294 -0.6843 -1.3171  1.3373
14334TIP3    H242960   4.951   7.454   6.284 -0.6973 -0.0410  2.6095
14335TIP3   OH242961   1.630   4.525   1.847  0.3242  0.2852 -0.3543
14335TIP3    H142962   1.698   4.526   1.915  1.9822 -0.5332 -1.9374
14335TIP3    H242963   1.610   4.617   1.833 -0.1150  0.4668  1.2911
14336TIP3   OH242964   0.869   5.750   0.813 -0.1381  0.1107 -0.4257
14336TIP3    H142965   0.916   5.774   0.893 -1.3554 -1.1051  0.6982
14336TIP3    H242966   0.917   5.676   0.778 -0.2891 -0.1103 -0.1657
14337TIP3   OH242967   0.122   1.742   3.916  1.0502 -0.7139 -0.3703
14337TIP3    H142968   0.126   1.735   3.820 -0.5483 -0.6295 -0.4813
14337TIP3    H242969   0.076   1.662   3.943 -0.4962  0.2894  0.0911
14338TIP3   OH242970   7.074   4.436   1.199 -0.1459  0.4003  0.1740
14338TIP3    H142971   7.164   4.412   1.222  0.4853  2.1343 -0.3691
14338TIP3    H242972   7.039   4.476   1.278  0.3219  1.7191 -0.2597
14339TIP3   OH242973   1.375   2.084   3.957 -0.2573  0.4400  0.5987
14339TIP3    H142974   1.369   2.026   3.882  0.0799  0.5834  0.4559
14339TIP3    H242975   1.316   2.157   3.936 -0.7760  0.0896  0.8358
14340TIP3   OH242976   4.882   5.707   3.943 -0.4176 -0.0774 -0.1335
14340TIP3    H142977   4.903   5.658   4.022  0.1012 -1.1463 -0.9062
14340TIP3    H242978   4.853   5.641   3.880 -3.3126  1.0187 -0.0727
14341TIP3   OH242979   6.239   6.452   2.040  0.0189  0.3084  0.3758
14341TIP3    H142980   6.223   6.403   1.959 -1.4123  0.0571  0.7768
14341TIP3    H242981   6.319   6.414   2.076  0.6263  0.3646 -0.8646
14342TIP3   OH242982   2.430   3.054   1.257  0.0889 -0.3584  0.0204
14342TIP3    H142983   2.473   3.038   1.341  0.0891 -0.7551 -0.0549
14342TIP3    H242984   2.419   2.967   1.219 -1.8780 -0.3893  0.5620
14343TIP3   OH242985   1.072   4.404   5.154 -0.3284 -0.5486 -0.3311
14343TIP3    H142986   1.157   4.377   5.190  1.0093  0.6575 -2.3442
14343TIP3    H242987   1.055   4.342   5.083 -0.9871 -0.5882 -0.1447
14344TIP3   OH242988   4.740   2.527   1.428  0.3054 -0.0093  0.0560
14344TIP3    H142989   4.698   2.520   1.342  1.1238  0.7574 -0.4274
14344TIP3    H242990   4.711   2.611   1.462  0.2269 -0.1756  0.4002
14345TIP3   OH242991   4.442   1.513   2.526  0.0221 -0.0355 -0.2081
14345TIP3    H142992   4.430   1.588   2.468 -0.1549  0.5150  0.5275
14345TIP3    H242993   4.536   1.502   2.532  0.1103  1.1477  0.9492
14346TIP3   OH242994   2.082   5.862   3.024 -0.3027 -0.2396  0.2126
14346TIP3    H142995   2.041   5.834   2.942 -0.2473 -1.1653  0.4835
14346TIP3    H242996   2.011   5.862   3.088 -0.0189 -1.3361  0.5648
14347TIP3   OH242997   2.733   4.311   4.818  0.2742 -0.4445 -0.4166
14347TIP3    H142998   2.791   4.341   4.748 -0.3771  0.4796 -0.5835
14347TIP3    H242999   2.676   4.247   4.777  0.6796 -0.7951 -0.4361
14348TIP3   OH243000   4.473   4.900   5.114 -0.0496 -0.5101  0.3941
14348TIP3    H143001   4.403   4.904   5.178 -1.0026 -1.8103 -0.5352
14348TIP3    H243002   4.553   4.904   5.166 -0.7970 -0.2930  1.5611
14349TIP3   OH243003   7.935   2.687   3.000 -0.0791  0.4101 -0.2718
14349TIP3    H143004   7.925   2.631   2.923  0.6816  0.7731 -0.6464
14349TIP3    H243005   7.896   2.771   2.975  2.1948  1.2803 -1.1300
14350TIP3   OH243006   0.063   6.246   3.569  0.0034 -0.0454 -0.5622
14350TIP3    H143007   0.130   6.184   3.542  0.4706  0.5463 -0.8080
14350TIP3    H243008  -0.017   6.194   3.577  0.0144 -0.4076 -2.3147
14351TIP3   OH243009   5.078   5.642   5.474 -0.1572  0.3608  0.3113
14351TIP3    H143010   5.027   5.668   5.551 -2.3427  1.2875 -1.3165
14351TIP3    H243011   5.069   5.717   5.414  1.0477 -0.5306 -1.0436
14352TIP3   OH243012   6.002   7.622   2.661 -0.2059  0.0287  0.1831
14352TIP3    H143013   5.969   7.536   2.635  0.4408 -0.0431 -0.4522
14352TIP3    H243014   5.948   7.648   2.735 -0.9087 -0.5867 -0.1033
14353TIP3   OH243015   1.697   1.653   2.158  0.1246 -0.0578  0.2941
14353TIP3    H143016   1.728   1.712   2.226  0.2413  1.1375 -0.7598
14353TIP3    H243017   1.620   1.697   2.121  0.4836 -0.3263 -0.8199
14354TIP3   OH243018   8.195   2.240   1.910 -0.0175 -0.0994  0.3368
14354TIP3    H143019   8.123   2.256   1.971 -0.8476 -1.4812 -0.2384
14354TIP3    H243020   8.161   2.265   1.824  0.3040 -0.4336  0.1087
14355TIP3   OH243021   3.590   4.161   6.567  0.4024 -0.2932  0.4855
14355TIP3    H143022   3.681   4.178   6.542  0.6848 -1.4118  0.6999
14355TIP3    H243023   3.564   4.086   6.514 -0.7216  0.5880 -0.2636
14356TIP3   OH243024   2.033   0.290   5.750 -0.1683  0.1047 -0.3846
14356TIP3    H143025   1.938   0.279   5.746 -0.4409  2.2571 -1.2038
14356TIP3    H243026   2.049   0.319   5.840 -0.2625 -0.3259 -0.2249
14357TIP3   OH243027   5.688   7.000   6.605  0.4375 -0.2549 -0.7773
14357TIP3    H143028   5.752   7.058   6.564  2.2157 -2.9928 -2.2295
14357TIP3    H243029   5.613   7.000   6.546 -0.7637  2.4410  0.5779
14358TIP3   OH243030   4.388   1.163   5.780 -0.0445  0.5060  0.7255
14358TIP3    H143031   4.352   1.231   5.837 -0.0127  0.4723  0.7846
14358TIP3    H243032   4.368   1.194   5.691 -3.3332 -1.1505  0.7248
14359TIP3   OH243033   0.757   3.954   2.230  0.8376 -0.0404  0.0401
14359TIP3    H143034   0.707   3.998   2.299  2.3734  1.5546  0.1944
14359TIP3    H243035   0.843   3.938   2.269  1.5391  0.3256 -1.2880
14360TIP3   OH243036   4.702   4.908   4.280 -0.2966  0.6669 -0.0206
14360TIP3    H143037   4.612   4.901   4.310  0.3809  0.8420  2.2522
14360TIP3    H243038   4.722   4.822   4.243 -0.3994 -0.5497  2.5833
14361TIP3   OH243039   6.538   3.201   4.696  0.0249 -0.0669  0.1007
14361TIP3    H143040   6.598   3.198   4.621  0.5813 -0.2543  0.5448
14361TIP3    H243041   6.569   3.131   4.753 -0.0162  0.4685  0.7910
14362TIP3   OH243042   2.340   0.472   4.213 -0.3418  0.1620  0.1150
14362TIP3    H143043   2.342   0.390   4.164 -2.7473 -0.0721  0.3140
14362TIP3    H243044   2.261   0.517   4.184  0.8571  2.4256  0.0823
14363TIP3   OH243045   7.733   7.064   2.033 -0.1713  0.0084  0.6445
14363TIP3    H143046   7.828   7.062   2.021 -0.2446 -3.7823 -0.6429
14363TIP3    H243047   7.698   7.069   1.944 -1.1061 -1.1433  0.9315
14364TIP3   OH243048   7.681   1.045   0.003 -0.2004 -0.3563  0.0587
14364TIP3    H143049   7.695   1.003   0.088  0.3093 -1.6560 -0.6418
14364TIP3    H243050   7.710   1.135   0.016 -0.1485 -0.5311  1.2674
14365TIP3   OH243051   2.571   5.578   5.947 -0.1575  0.0866  0.4864
14365TIP3    H143052   2.593   5.565   6.040 -1.6249 -0.6053  0.7574
14365TIP3    H243053   2.477   5.565   5.943 -0.4460  2.2117 -0.7683
14366TIP3   OH243054   3.706   1.506   4.937 -0.2231 -0.4576 -0.0247
14366TIP3    H143055   3.693   1.418   4.972 -2.4073 -0.3415 -0.4032
14366TIP3    H243056   3.757   1.551   5.004  0.5898 -1.8744  0.3503
14367TIP3   OH243057   1.203   6.374   1.478  0.1315 -0.1539  0.3525
14367TIP3    H143058   1.116   6.350   1.444  0.2756  1.8105 -1.6351
14367TIP3    H243059   1.202   6.470   1.480  2.4429 -0.0586 -0.3218
14368TIP3   OH243060   1.348   5.196   0.852  0.5008  0.3766  0.2802
14368TIP3    H143061   1.359   5.107   0.887 -0.1953  0.6498  1.2199
14368TIP3    H243062   1.340   5.183   0.757 -0.4018 -0.6527  0.4752
14369TIP3   OH243063   7.631   6.971   6.543  0.0948  0.7383 -0.0649
14369TIP3    H143064   7.589   7.013   6.468 -0.7438 -0.7319 -0.4653
14369TIP3    H243065   7.695   6.911   6.504  0.0200  0.3443  0.4069
14370TIP3   OH243066   3.802   0.939   5.220  0.0406 -0.3668 -0.0852
14370TIP3    H143067   3.772   0.941   5.129 -0.3634  0.5730  0.0518
14370TIP3    H243068   3.721   0.936   5.271  0.1490  1.4516  0.2771
14371TIP3   OH243069   3.883   5.695   3.326 -0.3253  0.0942 -0.4814
14371TIP3    H143070   3.832   5.726   3.401  0.5685  0.7361 -0.1234
14371TIP3    H243071   3.953   5.759   3.316  1.4223 -1.6216  0.1197
14372TIP3   OH243072   0.135   5.024   2.189  0.0987  0.1436 -0.1235
14372TIP3    H143073   0.053   4.976   2.172  0.2295 -0.9458  2.0693
14372TIP3    H243074   0.112   5.087   2.257  0.8803  0.4633 -0.1477
14373TIP3   OH243075   6.319   3.225   4.997 -0.3764  0.0757 -0.4261
14373TIP3    H143076   6.315   3.273   4.915 -0.5475  0.3610 -0.2526
14373TIP3    H243077   6.283   3.139   4.976  0.0574 -0.0237 -0.7686
14374TIP3   OH243078   1.958   5.556   4.145 -0.5104 -0.0183  0.3561
14374TIP3    H143079   1.927   5.495   4.078  0.9138 -0.1026 -0.2521
14374TIP3    H243080   1.942   5.511   4.227 -0.0170 -0.9722 -0.0578
14375TIP3   OH243081   1.180   1.495   2.977 -0.3608 -0.1657 -0.8767
14375TIP3    H143082   1.089   1.499   3.006 -0.1348  0.8089 -0.2589
14375TIP3    H243083   1.180   1.432   2.904 -1.5259 -0.1418 -0.9054
14376TIP3   OH243084   1.497   3.805   3.949  0.5305 -0.7493  0.0025
14376TIP3    H143085   1.429   3.753   3.992  0.3022 -2.1117 -1.8903
14376TIP3    H243086   1.463   3.894   3.947 -1.6885 -1.5552 -1.7545
14377TIP3   OH243087   6.747   2.969   5.665 -0.0473 -0.4440 -0.4924
14377TIP3    H143088   6.822   2.925   5.625  0.7635  0.6459 -0.2496
14377TIP3    H243089   6.754   3.060   5.634 -1.0546 -0.2413 -0.1562
14378TIP3   OH243090   2.714   6.030   1.318  0.0189 -0.3717  0.2339
14378TIP3    H143091   2.767   6.000   1.245  1.2848 -1.4943  1.5547
14378TIP3    H243092   2.777   6.068   1.379 -0.8898 -0.2682  1.1303
14379TIP3   OH243093   1.406   0.928   4.611 -0.0557 -0.4036 -0.5456
14379TIP3    H143094   1.479   0.985   4.590 -0.1920  0.5162  1.3015
14379TIP3    H243095   1.329   0.974   4.578 -0.2201  0.8165  1.3605
14380TIP3   OH243096   4.189   5.425   3.340  0.0084  0.2533  0.2661
14380TIP3    H143097   4.109   5.419   3.392 -0.8417 -0.2775 -1.0670
14380TIP3    H243098   4.215   5.335   3.324  0.3566  0.4120 -0.0893
14381TIP3   OH243099   7.035   2.510   1.580 -0.7041  0.0824  0.2517
14381TIP3    H143100   7.113   2.456   1.570 -1.0433 -0.4059  0.1904
14381TIP3    H243101   7.045   2.551   1.666 -0.1699  0.3792  0.0542
14382TIP3   OH243102   3.216   3.300   2.466  0.7650  0.1212 -0.1813
14382TIP3    H143103   3.197   3.392   2.453  0.5131 -0.1487 -2.0576
14382TIP3    H243104   3.142   3.267   2.518  0.0665  0.6858 -0.7838
14383TIP3   OH243105   3.337   7.466   5.201  0.0047 -0.2582  0.2441
14383TIP3    H143106   3.364   7.400   5.265 -0.0624 -0.0115  0.5341
14383TIP3    H243107   3.356   7.427   5.116  3.2329  0.6759  0.3987
14384TIP3   OH243108   1.381   1.730   2.370 -0.2880  0.3691 -0.0214
14384TIP3    H143109   1.444   1.749   2.441 -0.0280  0.5570 -0.2981
14384TIP3    H243110   1.363   1.816   2.331 -1.5807  0.4834  0.7588
14385TIP3   OH243111   1.726   2.865   5.048 -0.0150 -0.4840  0.2253
14385TIP3    H143112   1.744   2.803   4.978  1.0761 -2.2877  1.9846
14385TIP3    H243113   1.812   2.884   5.086 -0.3870  1.7508  0.0711
14386TIP3   OH243114   3.822   5.828   3.859  0.0827  0.0608 -0.0745
14386TIP3    H143115   3.883   5.774   3.909  0.5209  0.2057 -0.4477
14386TIP3    H243116   3.783   5.769   3.796 -1.3205 -0.3874  1.1579
14387TIP3   OH243117   7.762   4.121   5.069  0.7262  0.4245 -0.3223
14387TIP3    H143118   7.829   4.113   5.000  0.5727  0.3083 -0.4592
14387TIP3    H243119   7.717   4.037   5.067  1.4503 -0.0023  0.6846
14388TIP3   OH243120   1.479   2.114   3.627 -0.2585  0.0756  0.7663
14388TIP3    H143121   1.413   2.169   3.669  0.3276  1.2683  0.1526
14388TIP3    H243122   1.561   2.139   3.668 -0.2131 -1.8144  1.9408
14389TIP3   OH243123   7.016   6.547   5.274  0.6313 -0.6176 -0.5964
14389TIP3    H143124   6.947   6.482   5.265  1.1726 -1.5381  1.3681
14389TIP3    H243125   7.080   6.507   5.332  0.4244  2.0526  1.7174
14390TIP3   OH243126   1.367   2.158   5.695 -0.4172 -0.0725 -0.3938
14390TIP3    H143127   1.274   2.169   5.710 -0.2852  0.0257  0.3891
14390TIP3    H243128   1.402   2.129   5.779  0.2796  0.0094 -0.6445
14391TIP3   OH243129   3.954   5.957   4.480  0.1629 -0.2100 -0.0523
14391TIP3    H143130   3.875   5.903   4.483  0.7251 -1.0162  1.2297
14391TIP3    H243131   3.947   6.014   4.558  1.5836 -1.4327  1.0396
14392TIP3   OH243132   5.528   4.089   1.257  0.1489  0.0145  0.4680
14392TIP3    H143133   5.535   4.002   1.296  1.6362  0.0241  0.2633
14392TIP3    H243134   5.500   4.073   1.167  0.4514 -0.2489  0.4231
14393TIP3   OH243135   4.263   4.893   6.486  0.4165 -0.2133  0.4232
14393TIP3    H143136   4.248   4.898   6.581 -0.3403  0.4106  0.2837
14393TIP3    H243137   4.219   4.812   6.460 -0.7552  0.4052  0.3849
14394TIP3   OH243138   6.431   3.315   2.613 -0.3420 -0.0077 -0.4395
14394TIP3    H143139   6.375   3.265   2.554 -2.3989 -1.5103  2.5591
14394TIP3    H243140   6.423   3.406   2.583 -2.2867 -0.5534 -1.7042
14395TIP3   OH243141   3.041   3.419   0.541  0.7684  0.4039 -0.0600
14395TIP3    H143142   3.103   3.427   0.613  0.3428  0.8327  0.2636
14395TIP3    H243143   3.073   3.478   0.473  1.1481  0.0287 -0.2107
14396TIP3   OH243144   4.530   3.259   0.365  0.1280  0.1047  0.3463
14396TIP3    H143145   4.593   3.272   0.294 -1.3897 -1.1219 -1.2954
14396TIP3    H243146   4.459   3.319   0.346 -0.1746 -0.0385  0.9880
14397TIP3   OH243147   0.460   7.411   3.768 -0.6253  0.4688 -0.1191
14397TIP3    H143148   0.380   7.359   3.760 -0.3601  0.1034 -0.4352
14397TIP3    H243149   0.449   7.458   3.850 -0.0694 -1.4845  1.1563
14398TIP3   OH243150   3.123   5.315   1.932 -0.0926  0.5985  0.3315
14398TIP3    H143151   3.046   5.299   1.986 -0.0828 -0.8756 -0.0509
14398TIP3    H243152   3.181   5.241   1.949  0.8097  1.1702 -0.1446
14399TIP3   OH243153   8.091   6.258   6.593 -0.4639 -1.0327  0.6752
14399TIP3    H143154   8.098   6.337   6.538 -0.9764  0.1512  2.2472
14399TIP3    H243155   8.014   6.213   6.558 -1.2436  0.0921  0.8621
14400TIP3   OH243156   1.131   0.607   6.766  0.0478 -0.0330 -0.3964
14400TIP3    H143157   1.211   0.577   6.810  0.1491  1.7335  0.7152
14400TIP3    H243158   1.076   0.528   6.760  0.6327 -0.6528  1.6255
14401TIP3   OH243159   3.413   7.343   0.426  0.3892 -0.0638 -0.2779
14401TIP3    H143160   3.424   7.422   0.480 -0.2990 -1.2352  1.6580
14401TIP3    H243161   3.499   7.329   0.387  1.3562  0.0044  1.7136
14402TIP3   OH243162   7.893   0.803   2.790 -0.3204  0.7525 -0.8431
14402TIP3    H143163   7.903   0.861   2.865 -0.4647 -0.3300  0.0411
14402TIP3    H243164   7.838   0.852   2.729 -2.2547  0.7440  0.7824
14403TIP3   OH243165   5.071   4.259   4.480 -0.0752 -0.1349 -0.3532
14403TIP3    H143166   5.164   4.238   4.486 -0.0533  0.1353  0.2727
14403TIP3    H243167   5.040   4.259   4.570 -0.3523  1.2327 -0.4232
14404TIP3   OH243168   6.398   4.456   5.838  0.0805  0.2813 -0.0347
14404TIP3    H143169   6.396   4.481   5.745 -0.4105  0.4683  0.0256
14404TIP3    H243170   6.455   4.521   5.879  1.2445 -0.4690 -0.3942
14405TIP3   OH243171   0.536   4.723   4.951  0.2567  0.0561  0.1520
14405TIP3    H143172   0.577   4.726   5.038 -1.0874  0.3706  0.8035
14405TIP3    H243173   0.517   4.630   4.936 -2.3241  0.2472  1.6245
14406TIP3   OH243174   0.438   5.466   2.774  0.1372  0.3637  0.4582
14406TIP3    H143175   0.433   5.557   2.804  0.7725 -0.3424  2.9667
14406TIP3    H243176   0.497   5.468   2.699 -0.6089  2.1330 -0.1249
14407TIP3   OH243177   1.873   4.353   3.241  0.0932  0.2941 -0.2445
14407TIP3    H143178   1.943   4.321   3.298 -0.0633  2.8836  1.5871
14407TIP3    H243179   1.911   4.353   3.154  1.4729 -0.7390  0.3249
14408TIP3   OH243180   3.762   5.148   2.476 -0.5461  0.0256 -0.0899
14408TIP3    H143181   3.770   5.195   2.394  4.0614  0.7567  0.4944
14408TIP3    H243182   3.761   5.055   2.451  0.0269  0.2593 -1.0075
14409TIP3   OH243183   4.252   2.274   4.455 -0.4960  0.1846 -0.3380
14409TIP3    H143184   4.162   2.264   4.487 -0.3544 -0.9497 -0.2682
14409TIP3    H243185   4.242   2.300   4.364 -0.8909  1.8409  0.1313
14410TIP3   OH243186   6.633   6.036   2.998 -0.0008 -0.1761  0.5150
14410TIP3    H143187   6.550   6.017   3.042 -0.4997  0.4800 -0.1117
14410TIP3    H243188   6.662   6.119   3.036 -0.0291 -0.0151  0.1934
14411TIP3   OH243189   8.146   2.802   4.714 -0.1912  0.2620 -0.0213
14411TIP3    H143190   8.075   2.830   4.771  0.0102  1.9792 -0.5513
14411TIP3    H243191   8.184   2.726   4.758 -2.2462 -0.6200  0.3351
14412TIP3   OH243192   0.589   7.221   5.894 -0.2479 -0.1090 -0.6433
14412TIP3    H143193   0.639   7.191   5.970 -1.4973 -0.2546  0.1453
14412TIP3    H243194   0.533   7.290   5.928 -0.4493  0.1845 -1.5494
14413TIP3   OH243195   2.433   7.017   1.276  0.6817  0.0180 -0.0971
14413TIP3    H143196   2.509   7.030   1.332 -0.4080  1.9040  1.0944
14413TIP3    H243197   2.367   6.978   1.334  0.3256 -0.3608 -0.7497
14414TIP3   OH243198   2.986   1.927   4.968  0.5481  0.0516 -0.6034
14414TIP3    H143199   3.061   1.952   5.022 -0.6449 -0.1083  1.1998
14414TIP3    H243200   2.984   1.831   4.974 -0.8195  0.1425  0.8439
14415TIP3   OH243201   7.763   1.033   1.278 -0.1136 -0.1205 -0.8445
14415TIP3    H143202   7.715   1.004   1.356 -2.1500 -0.8284 -2.2720
14415TIP3    H243203   7.849   1.060   1.311 -1.0772  0.1120  1.7005
14416TIP3   OH243204   3.395   4.837   4.092  0.0961 -0.0931  0.1199
14416TIP3    H143205   3.310   4.830   4.049 -0.9096  1.8214  1.6548
14416TIP3    H243206   3.457   4.846   4.019 -0.9885 -1.2841 -1.0187
14417TIP3   OH243207   7.163   1.240   4.767  0.4489  0.3806 -0.2241
14417TIP3    H143208   7.167   1.190   4.848 -1.9971 -1.4834 -1.1213
14417TIP3    H243209   7.096   1.306   4.783 -1.7653 -1.4578 -1.3303
14418TIP3   OH243210   5.346   1.527   2.990 -0.4462 -0.7444 -0.1969
14418TIP3    H143211   5.268   1.493   2.948 -0.7438 -0.7745  0.3677
14418TIP3    H243212   5.321   1.615   3.020  0.5696  0.3701 -2.3871
14419TIP3   OH243213   5.899   4.706  -0.004 -0.1710  0.3352  0.0800
14419TIP3    H143214   5.958   4.631   0.006 -0.1279  0.2252 -0.8844
14419TIP3    H243215   5.854   4.713   0.080 -0.8826 -1.3875 -0.1123
14420TIP3   OH243216   7.751   1.015   4.839  0.1029 -0.3363  0.5174
14420TIP3    H143217   7.685   1.007   4.908  0.3066 -0.3660  0.7113
14420TIP3    H243218   7.707   0.986   4.760  0.3115 -1.7658  0.8940
14421TIP3   OH243219   6.472   4.360   1.849  0.2792 -0.1957  0.5114
14421TIP3    H143220   6.480   4.427   1.916 -2.0188 -0.7762  1.4713
14421TIP3    H243221   6.381   4.330   1.856  0.3327 -1.1968 -1.9943
14422TIP3   OH243222   0.235   7.405   0.419  0.2742  0.2213 -0.0141
14422TIP3    H143223   0.140   7.408   0.429  0.2016  2.9859 -0.8923
14422TIP3    H243224   0.266   7.357   0.497 -1.7249  0.5442  1.0303
14423TIP3   OH243225   3.890   4.581   3.964  0.2493  0.1855  0.4395
14423TIP3    H143226   3.894   4.524   4.041  1.4558  1.0874  1.0858
14423TIP3    H243227   3.979   4.581   3.929 -0.3163 -0.3160 -1.0590
14424TIP3   OH243228   2.511   6.768   1.159 -0.1524 -0.6411 -0.5571
14424TIP3    H143229   2.598   6.753   1.196  0.7539  0.8004 -1.9775
14424TIP3    H243230   2.475   6.840   1.211  0.5806  0.4809 -1.5360
14425TIP3   OH243231   3.451   1.552   4.807 -0.0584  0.1585 -0.3212
14425TIP3    H143232   3.527   1.549   4.865  0.2976 -0.7723 -0.8180
14425TIP3    H243233   3.384   1.599   4.858  0.0714 -1.0678  1.0451
14426TIP3   OH243234   7.587   4.403   2.222  0.1519  1.0048  1.1302
14426TIP3    H143235   7.513   4.357   2.260  0.5367 -0.1187  0.5491
14426TIP3    H243236   7.553   4.441   2.141  0.1933  0.5451  0.8973
14427TIP3   OH243237   7.516   1.634   1.669 -0.0003  0.4516 -0.8648
14427TIP3    H143238   7.469   1.564   1.622 -0.7942  1.0120 -0.9306
14427TIP3    H243239   7.448   1.677   1.721  0.8113  0.0037  0.6408
14428TIP3   OH243240   0.709   7.313   5.648 -0.0695 -0.0606  0.4788
14428TIP3    H143241   0.641   7.287   5.586 -0.5978  1.7406  0.2441
14428TIP3    H243242   0.668   7.306   5.734 -0.2821  0.2088  0.4003
14429TIP3   OH243243   3.518   3.749   2.241 -0.2472 -0.3231  0.0509
14429TIP3    H143244   3.545   3.833   2.279 -0.0182 -0.5285  0.3450
14429TIP3    H243245   3.580   3.735   2.169  1.0370 -1.2131  1.2568
14430TIP3   OH243246   3.647   7.079   3.020  0.5303  0.1583 -0.2589
14430TIP3    H143247   3.609   7.136   3.087  1.0359 -0.3884  0.5187
14430TIP3    H243248   3.722   7.128   2.987  1.0133 -0.0624  0.4668
14431TIP3   OH243249   2.927   3.964   1.200 -0.2864 -0.0721  0.1955
14431TIP3    H143250   2.970   4.044   1.231  0.5560 -1.0297  1.6328
14431TIP3    H243251   2.866   3.941   1.271 -1.3594 -0.0877 -0.7163
14432TIP3   OH243252   6.586   2.030   3.084 -0.3934 -0.0998  0.6125
14432TIP3    H143253   6.520   2.044   3.015 -1.9959 -1.7333  1.7107
14432TIP3    H243254   6.582   1.937   3.102  1.4996 -0.0555  1.4992
14433TIP3   OH243255   1.378   1.851   4.096  0.2567 -0.1389  0.1607
14433TIP3    H143256   1.366   1.942   4.067 -0.5089 -0.2331  0.1522
14433TIP3    H243257   1.292   1.825   4.128  0.2551 -1.1253 -0.5896
14434TIP3   OH243258   1.494   2.011   1.719 -0.6442 -0.3815  0.3492
14434TIP3    H143259   1.508   2.081   1.656 -1.1644 -0.4322  0.1756
14434TIP3    H243260   1.551   2.033   1.793  2.3172 -1.8839 -1.3141
14435TIP3   OH243261   6.590   4.855   1.079 -0.0537  0.0259  0.1775
14435TIP3    H143262   6.605   4.949   1.090  1.0606 -0.0508 -0.5097
14435TIP3    H243263   6.498   4.842   1.102 -0.2491  1.3042  0.1754
14436TIP3   OH243264   8.306   1.386   6.133  0.0312 -0.0629  0.3876
14436TIP3    H143265   8.341   1.398   6.044 -1.8393 -2.1220 -0.7455
14436TIP3    H243266   8.244   1.458   6.144  0.4685  0.3591  0.1346
14437TIP3   OH243267   7.675   3.809   3.594  0.3332 -0.4411 -0.5112
14437TIP3    H143268   7.709   3.720   3.602 -0.2058 -0.6317 -0.2498
14437TIP3    H243269   7.621   3.806   3.515 -0.0254 -0.4660 -0.2693
14438TIP3   OH243270   1.392   4.874   2.471  0.3024  0.0366  0.6365
14438TIP3    H143271   1.355   4.949   2.424  0.4622 -0.3433 -0.1263
14438TIP3    H243272   1.438   4.913   2.545  0.7237  0.7408  0.0300
14439TIP3   OH243273   0.861   5.127   4.004 -0.3093 -0.9075 -0.0138
14439TIP3    H143274   0.830   5.148   3.916  1.0637 -1.3296 -0.6219
14439TIP3    H243275   0.781   5.121   4.057 -1.1072  0.0630 -1.0606
14440TIP3   OH243276   0.719   2.309   0.236  0.8750  0.1822 -0.0303
14440TIP3    H143277   0.661   2.258   0.179  0.2854  0.3974  0.3593
14440TIP3    H243278   0.807   2.289   0.206  0.7555 -2.0513  0.8956
14441TIP3   OH243279   5.122   0.403   4.106  0.3545  0.5705  0.5068
14441TIP3    H143280   5.125   0.308   4.091 -0.0463  0.3083  1.8968
14441TIP3    H243281   5.108   0.411   4.200  0.8654  2.0290  0.4784
14442TIP3   OH243282   7.820   1.039   6.538 -0.3344 -0.0373  0.2501
14442TIP3    H143283   7.894   1.036   6.478 -0.3164  0.5244  0.2443
14442TIP3    H243284   7.829   0.959   6.591  0.3442  0.0930  0.3376
14443TIP3   OH243285   6.163   6.556   5.273 -0.1157  0.0754  0.2893
14443TIP3    H143286   6.081   6.543   5.321  0.1518  1.3122  1.1167
14443TIP3    H243287   6.219   6.484   5.301 -0.4030  0.0770  0.8798
14444TIP3   OH243288   1.543   6.643   0.954 -0.0006 -0.0263  0.1471
14444TIP3    H143289   1.525   6.583   0.882 -1.0285  0.7587 -0.2883
14444TIP3    H243290   1.599   6.710   0.916  1.2860 -0.7812  0.6765
14445TIP3   OH243291   3.361   6.643   6.152 -0.1595 -0.1694 -0.7829
14445TIP3    H143292   3.354   6.648   6.248 -0.6241 -0.3644 -0.7993
14445TIP3    H243293   3.430   6.705   6.129 -0.0745 -0.0887 -0.3230
14446TIP3   OH243294   1.880   0.077   6.158  0.6391 -0.0391 -0.0635
14446TIP3    H143295   1.911   0.015   6.093  2.0773  0.9662 -0.3821
14446TIP3    H243296   1.956   0.092   6.215  0.0220  0.6562  0.6006
14447TIP3   OH243297   4.903   4.477   5.286 -0.0336  0.2839  0.1370
14447TIP3    H143298   4.869   4.566   5.280 -0.8916  0.0520  1.2930
14447TIP3    H243299   4.850   4.435   5.353  1.0561 -0.7845  0.3718
14448TIP3   OH243300   3.498  -0.021   5.011  0.0106  0.1731 -0.1362
14448TIP3    H143301   3.425   0.024   4.969  2.3252  2.1574 -2.3804
14448TIP3    H243302   3.554   0.049   5.043  2.1139 -1.1524 -0.7090
14449TIP3   OH243303   7.789   2.515   1.687  0.4260 -0.1100 -0.2254
14449TIP3    H143304   7.740   2.591   1.716  1.7978  1.2472 -1.3043
14449TIP3    H243305   7.877   2.529   1.722  0.4178 -1.8358  0.5907
14450TIP3   OH243306   4.066   4.137   4.641  0.4385 -0.6416  0.2356
14450TIP3    H143307   4.034   4.142   4.732  0.2988 -2.6388  0.3354
14450TIP3    H243308   3.987   4.138   4.588  0.4894 -0.2502  0.1595
14451TIP3   OH243309   7.481   4.114   1.010 -0.4582 -0.1612 -0.3728
14451TIP3    H143310   7.570   4.118   0.975 -1.0385  1.2734 -1.7867
14451TIP3    H243311   7.430   4.073   0.941 -0.9613 -0.7841  0.3490
14452TIP3   OH243312   5.105   3.961   4.509  0.3047 -0.1054  0.0795
14452TIP3    H143313   5.045   4.036   4.508  0.9507  0.4242  0.2960
14452TIP3    H243314   5.120   3.941   4.417  1.5859  1.2417 -0.0444
14453TIP3   OH243315   0.019   3.843   2.620  0.0696  0.6560 -0.0808
14453TIP3    H143316   0.035   3.784   2.694 -1.5275  0.8897  0.4776
14453TIP3    H243317  -0.027   3.918   2.658 -2.9013 -0.2479 -1.5885
14454TIP3   OH243318   6.487   3.778   6.583 -0.4005  0.2382 -0.4797
14454TIP3    H143319   6.447   3.804   6.666  1.9205  1.4106  0.3369
14454TIP3    H243320   6.444   3.834   6.517 -1.0927  0.4506  0.1371
14455TIP3   OH243321   4.135   4.648   4.738  0.0213 -0.2686  0.2160
14455TIP3    H143322   4.161   4.559   4.713 -0.6845 -0.3421 -0.2739
14455TIP3    H243323   4.069   4.635   4.806 -0.4721 -0.1391 -0.2304
14456TIP3   OH243324   4.088   6.704   6.159  0.7128 -0.3920 -0.1219
14456TIP3    H143325   4.055   6.665   6.240  1.2336  0.0779  0.3267
14456TIP3    H243326   4.157   6.645   6.130  1.3157  0.0336  0.4108
14457TIP3   OH243327   7.836   2.152   6.768  0.9317 -0.4810  0.4051
14457TIP3    H143328   7.863   2.090   6.699  1.0738 -1.7742  1.5752
14457TIP3    H243329   7.855   2.238   6.732 -1.8079 -0.8668 -2.4632
14458TIP3   OH243330   2.260   5.093   4.846  0.4149 -0.1509  0.4632
14458TIP3    H143331   2.354   5.085   4.833  1.0235  1.4282  3.0610
14458TIP3    H243332   2.230   5.005   4.867  1.4003 -0.5833  0.0951
14459TIP3   OH243333   7.383   2.611   5.585 -0.2421 -0.0893 -0.2498
14459TIP3    H143334   7.379   2.697   5.626  0.4681  0.3551 -1.0730
14459TIP3    H243335   7.311   2.610   5.522 -0.1696 -0.0353 -0.3350
14460TIP3   OH243336   7.710   3.129   1.543  0.0795 -0.3419 -0.0809
14460TIP3    H143337   7.621   3.099   1.523 -0.0750 -0.0060  0.0776
14460TIP3    H243338   7.751   3.056   1.589  0.4732 -1.1643 -1.6897
14461TIP3   OH243339   4.991   6.182   2.408 -0.1502  0.0761  0.1114
14461TIP3    H143340   4.940   6.125   2.466  0.0638  0.3170  0.5364
14461TIP3    H243341   4.940   6.184   2.327 -1.6065  1.4553  0.9903
14462TIP3   OH243342   3.328   0.019   0.551 -0.5388 -0.4421 -0.2128
14462TIP3    H143343   3.290  -0.055   0.504 -1.5783  0.3690 -0.7056
14462TIP3    H243344   3.394   0.055   0.492 -0.1627 -0.8597 -0.0479
14463TIP3   OH243345   4.256   5.074   0.009  0.0667  0.0876  0.3241
14463TIP3    H143346   4.242   5.069   0.103 -3.2180  0.5587 -0.0150
14463TIP3    H243347   4.199   5.007  -0.028  1.8896 -0.6522 -1.3546
14464TIP3   OH243348   6.680   2.375   5.395 -0.0032  0.1332  0.0942
14464TIP3    H143349   6.619   2.419   5.336  1.4740  0.9165 -0.9322
14464TIP3    H243350   6.657   2.282   5.389 -0.1610  0.2442 -1.4078
14465TIP3   OH243351   7.526   2.908   5.006 -0.1112 -0.2639  0.7995
14465TIP3    H143352   7.548   2.862   5.087 -0.6678 -0.4427  0.8512
14465TIP3    H243353   7.506   2.997   5.034  1.6912  0.2375  0.6158
14466TIP3   OH243354   1.148   6.059   4.501  0.3502 -0.1688  0.3392
14466TIP3    H143355   1.145   5.986   4.438  1.8817 -0.1642  0.2325
14466TIP3    H243356   1.172   6.018   4.584 -0.7770 -0.0423  0.7492
14467TIP3   OH243357   3.711   4.337   1.282  0.0010  0.2947 -0.8275
14467TIP3    H143358   3.668   4.410   1.238 -0.3827 -0.5646 -1.9379
14467TIP3    H243359   3.677   4.259   1.238 -0.9833 -0.6877  1.4998
14468TIP3   OH243360   7.762   3.902   4.419 -0.1182 -0.1457 -0.0859
14468TIP3    H143361   7.845   3.892   4.372  0.3813  0.0681  0.7257
14468TIP3    H243362   7.739   3.994   4.407  0.1115 -0.0432  0.2473
14469TIP3   OH243363   4.229   3.744   2.155 -0.5419  0.6425  0.4917
14469TIP3    H143364   4.279   3.705   2.083 -1.5006  1.6758 -0.7618
14469TIP3    H243365   4.284   3.729   2.232  0.3079 -0.8698 -0.3575
14470TIP3   OH243366   4.316   1.869   6.340  0.3355  0.2259  0.2930
14470TIP3    H143367   4.349   1.955   6.367 -0.0820  0.4916 -0.0305
14470TIP3    H243368   4.224   1.870   6.366  0.1332  0.1753 -0.3952
14471TIP3   OH243369   0.666   5.857   3.193  0.5231  0.6430 -0.1948
14471TIP3    H143370   0.686   5.829   3.103 -0.6523  2.2599 -1.0144
14471TIP3    H243371   0.644   5.776   3.239  1.6079 -0.2797 -1.2248
14472TIP3   OH243372   7.550   3.757   0.786  0.5055 -0.3334 -0.1064
14472TIP3    H143373   7.527   3.810   0.709  0.5912  1.2606  0.9222
14472TIP3    H243374   7.468   3.749   0.835  1.0488  1.2915  1.1563
14473TIP3   OH243375   7.008   3.366   3.397 -0.8453  0.1054 -0.0132
14473TIP3    H143376   7.056   3.290   3.365 -1.5430 -0.6216  0.6021
14473TIP3    H243377   7.072   3.416   3.447 -0.5069 -0.3578  0.0245
14474TIP3   OH243378   1.133   1.401   3.700 -0.0317 -0.0301 -0.5952
14474TIP3    H143379   1.198   1.377   3.766 -1.7030 -1.3042  0.6410
14474TIP3    H243380   1.099   1.318   3.667 -0.8511  0.6081 -1.4268
14475TIP3   OH243381   2.942   5.353   2.304  0.2847  0.3966 -0.3189
14475TIP3    H143382   2.890   5.432   2.317  1.7581  1.1805  1.1268
14475TIP3    H243383   2.926   5.329   2.213  0.3140  2.7488 -0.9997
14476TIP3   OH243384   6.697   5.378   4.332 -0.5863  0.1460  0.4365
14476TIP3    H143385   6.746   5.296   4.329 -0.1142  0.4517 -0.7611
14476TIP3    H243386   6.730   5.422   4.411  1.5535  0.6007 -0.6225
14477TIP3   OH243387   1.843   1.975   5.147  0.3457  0.1123 -0.7865
14477TIP3    H143388   1.874   1.949   5.234  1.6971 -2.0664 -1.8302
14477TIP3    H243389   1.835   2.070   5.152  1.2623  0.1374  1.4476
14478TIP3   OH243390   1.033   4.276   1.766  0.0296 -0.0184  0.1669
14478TIP3    H143391   1.081   4.220   1.826  1.5505  1.0339  0.0079
14478TIP3    H243392   1.082   4.359   1.767 -0.5515  0.3893 -1.6419
14479TIP3   OH243393   3.974   0.390   1.175 -0.5298 -0.4318  0.1147
14479TIP3    H143394   4.018   0.452   1.117 -0.1469 -1.5461 -0.8124
14479TIP3    H243395   3.891   0.433   1.196  0.1716  0.8608  0.3670
14480TIP3   OH243396   3.010   3.931   5.019  0.4954  0.5506  0.0357
14480TIP3    H143397   2.917   3.944   5.040  0.7659  0.7242  1.1701
14480TIP3    H243398   3.009   3.877   4.940 -0.5596 -0.4374  0.6930
14481TIP3   OH243399   3.929   3.566   3.831  0.1696 -0.2636 -0.0182
14481TIP3    H143400   3.939   3.656   3.862  1.1726 -0.2928 -0.2306
14481TIP3    H243401   3.834   3.553   3.827  0.0005  0.9535 -0.4562
14482TIP3   OH243402   1.294   7.640   1.848  0.4942 -0.0485 -0.0903
14482TIP3    H143403   1.201   7.645   1.830  0.0738 -0.2854  1.7572
14482TIP3    H243404   1.328   7.577   1.785 -0.9405 -1.3742  0.4099
14483TIP3   OH243405   5.912   5.165   5.757 -0.2230  0.3855  0.7468
14483TIP3    H143406   5.948   5.249   5.784 -1.3456  1.0656  0.2187
14483TIP3    H243407   5.818   5.172   5.775 -0.0216 -1.7067  3.0649
14484TIP3   OH243408   7.437   5.948   2.560  0.8159  0.3368  0.3858
14484TIP3    H143409   7.505   6.009   2.589  0.7645  0.8156 -0.4665
14484TIP3    H243410   7.456   5.933   2.468 -0.0601  0.2436  0.2103
14485TIP3   OH243411   0.675   6.009   1.132  0.0237 -0.1774 -0.1599
14485TIP3    H143412   0.674   5.914   1.149 -0.8091 -0.4900 -1.7149
14485TIP3    H243413   0.767   6.033   1.140  0.3695 -1.2909 -0.4975
14486TIP3   OH243414   6.263   3.283   0.702  0.6031  0.4068 -0.0553
14486TIP3    H143415   6.305   3.369   0.700 -0.8968  1.2330  1.7557
14486TIP3    H243416   6.306   3.237   0.775 -0.7558  0.8199  1.0321
14487TIP3   OH243417   5.969   1.382   3.627  0.5940  0.5236 -0.1229
14487TIP3    H143418   6.052   1.352   3.591  1.2625  0.0065  1.7454
14487TIP3    H243419   5.980   1.477   3.637  0.0074  0.8486 -2.1694
14488TIP3   OH243420   6.483   4.829   5.885 -0.1923  0.0335 -0.2189
14488TIP3    H143421   6.401   4.847   5.839  0.4707  0.8505 -1.1070
14488TIP3    H243422   6.459   4.762   5.949 -1.7216  0.8004  0.0652
14489TIP3   OH243423   7.849   7.618   5.459 -0.0091 -0.0839  0.2561
14489TIP3    H143424   7.769   7.623   5.406  0.4647  0.9390 -0.4042
14489TIP3    H243425   7.919   7.602   5.395  0.2650 -1.6867  0.8957
14490TIP3   OH243426   7.814   3.802   0.785  0.8993  0.3714 -0.1679
14490TIP3    H143427   7.722   3.777   0.793  0.0545  3.0474 -0.5010
14490TIP3    H243428   7.859   3.720   0.763 -1.4650 -0.9294 -0.5576
14491TIP3   OH243429   0.679   1.040   1.237  0.1894 -0.3795  0.6436
14491TIP3    H143430   0.705   0.984   1.309  2.2132  0.0751  0.3367
14491TIP3    H243431   0.664   1.126   1.277  0.0373 -0.4261  0.6888
14492TIP3   OH243432   6.856   2.842   6.113 -0.1001  0.2061 -0.4451
14492TIP3    H143433   6.908   2.823   6.035  0.6116  0.2539  0.0097
14492TIP3    H243434   6.790   2.772   6.115 -0.5525  0.5880 -1.4550
14493TIP3   OH243435   4.871   4.629   2.280  0.1263 -0.2445 -0.1723
14493TIP3    H143436   4.797   4.606   2.224  0.3770 -0.2434 -0.5063
14493TIP3    H243437   4.938   4.661   2.219  0.5411 -0.6039  0.0946
14494TIP3   OH243438   7.480   7.496   3.115 -0.1831  0.0227 -0.1129
14494TIP3    H143439   7.478   7.585   3.152 -0.1038 -0.5156  1.2418
14494TIP3    H243440   7.547   7.501   3.046 -2.6938  1.9369 -2.6848
14495TIP3   OH243441   1.647   7.627   5.803  0.3787  0.5862 -0.0985
14495TIP3    H143442   1.576   7.659   5.748  0.5478  0.9471 -0.1064
14495TIP3    H243443   1.704   7.703   5.817 -0.5679  0.9948  2.0110
14496TIP3   OH243444   2.393   1.526   1.297 -0.0659  0.4310  0.3868
14496TIP3    H143445   2.455   1.575   1.244  2.1255  0.6254  2.9297
14496TIP3    H243446   2.315   1.582   1.300 -0.7439 -0.0867 -3.3564
14497TIP3   OH243447   0.493   7.201   2.461  0.1178  0.9637  0.6576
14497TIP3    H143448   0.424   7.266   2.476 -0.6372  0.0050  1.4853
14497TIP3    H243449   0.569   7.253   2.436 -0.5288  2.1531  1.0581
14498TIP3   OH243450   7.004   4.017   0.410  0.0490 -0.3008  0.1075
14498TIP3    H143451   7.000   3.926   0.437 -1.0798 -0.0272  0.9527
14498TIP3    H243452   7.093   4.029   0.375  1.5504 -0.7882  3.4032
14499TIP3   OH243453   2.744   2.009   5.094  0.0824  0.3971  0.0054
14499TIP3    H143454   2.776   2.069   5.161 -1.7972  2.4083 -0.7763
14499TIP3    H243455   2.823   1.968   5.058  1.1920 -0.0675  2.7667
14500TIP3   OH243456   8.151   4.848   3.093 -0.6971  0.4843  0.2202
14500TIP3    H143457   8.228   4.798   3.123 -1.7739 -1.3135  0.1368
14500TIP3    H243458   8.164   4.935   3.130  0.6139 -0.2045  1.5251
14501TIP3   OH243459   4.762   5.861   6.486  0.0251 -0.3609  0.3761
14501TIP3    H143460   4.791   5.869   6.396  0.8655 -0.8193  0.5864
14501TIP3    H243461   4.667   5.873   6.483  0.3938  3.5675 -0.0553
14502TIP3   OH243462   0.711   5.049   4.210  0.5848 -0.3741  0.5317
14502TIP3    H143463   0.666   5.072   4.291 -1.4318 -0.2136 -0.5783
14502TIP3    H243464   0.770   4.978   4.235 -0.2045 -0.5244  2.0900
14503TIP3   OH243465   6.442   4.486   4.255  0.1827  0.1561  0.6131
14503TIP3    H143466   6.349   4.508   4.256  0.4581  1.4063  0.0849
14503TIP3    H243467   6.457   4.443   4.339 -1.1084 -1.1385  0.2221
14504TIP3   OH243468   3.147   4.487   0.034 -0.0160  0.4241 -0.1768
14504TIP3    H143469   3.179   4.576   0.049  1.9362 -0.0017 -1.3841
14504TIP3    H243470   3.061   4.485   0.075  0.4965  2.4254  1.1630
14505TIP3   OH243471   8.139   2.802   2.387  0.0917 -0.4038 -0.1912
14505TIP3    H143472   8.129   2.715   2.425 -1.3759  0.0021  0.4468
14505TIP3    H243473   8.050   2.839   2.389  0.6503  1.0281 -0.6084
14506TIP3   OH243474   7.773   0.360   0.190 -0.2945  0.4453  0.2928
14506TIP3    H143475   7.677   0.360   0.196 -0.2275 -1.2586  2.5784
14506TIP3    H243476   7.794   0.279   0.145  0.0990  0.6567  0.0954
14507TIP3   OH243477   1.262   2.720   0.452  0.0624 -0.1822 -1.3022
14507TIP3    H143478   1.267   2.814   0.472 -1.9379 -0.1983 -0.4392
14507TIP3    H243479   1.204   2.715   0.376 -1.4900 -0.7851 -0.1340
14508TIP3   OH243480   0.891   1.925   5.209 -0.5482  0.0990 -0.1909
14508TIP3    H143481   0.900   2.019   5.190 -0.6661  0.4795  1.5087
14508TIP3    H243482   0.961   1.884   5.159  0.1665  1.2120 -0.1432
14509TIP3   OH243483   3.215   3.593   3.929 -0.9763  0.4700 -0.3170
14509TIP3    H143484   3.165   3.643   3.994 -0.0795  1.8047 -0.6132
14509TIP3    H243485   3.207   3.644   3.849  0.6392  0.5828 -0.4264
14510TIP3   OH243486   2.306   4.014   0.819 -0.5225 -0.0330  0.3051
14510TIP3    H143487   2.216   4.031   0.847 -0.8106 -2.7888  1.2727
14510TIP3    H243488   2.297   3.983   0.729 -0.4587  0.3772  0.1557
14511TIP3   OH243489   3.897   3.010   5.748 -0.1823 -0.1997  0.1830
14511TIP3    H143490   3.853   2.997   5.832  0.2000  0.7822  0.5561
14511TIP3    H243491   3.946   2.929   5.733  1.2130  0.2702  1.8170
14512TIP3   OH243492   3.334   1.078   6.526  0.0412 -0.2993  0.1337
14512TIP3    H143493   3.364   1.021   6.597  0.5936  1.4563  1.3863
14512TIP3    H243494   3.256   1.121   6.563 -0.6247 -0.5427 -0.9487
14513TIP3   OH243495   3.564   7.372   5.550  0.0716 -0.1518  0.5059
14513TIP3    H143496   3.567   7.358   5.455  1.8912 -0.4646  0.5651
14513TIP3    H243497   3.532   7.290   5.586 -1.2966  0.2003  0.1437
14514TIP3   OH243498   6.473   4.701   0.782 -0.1751 -0.0777  0.1922
14514TIP3    H143499   6.519   4.779   0.750 -0.4547 -0.0661 -0.1934
14514TIP3    H243500   6.450   4.722   0.872 -0.0716  0.2109  0.1536
14515TIP3   OH243501   7.642   4.891   0.028 -0.3871 -0.3689 -0.2535
14515TIP3    H143502   7.549   4.890   0.007 -0.6808 -1.2121  0.9333
14515TIP3    H243503   7.660   4.802   0.059  0.4562  0.2024  0.9792
14516TIP3   OH243504   2.546   1.762   1.682  0.3961 -0.3510  0.2045
14516TIP3    H143505   2.527   1.849   1.646  1.3767 -0.6266 -1.0359
14516TIP3    H243506   2.474   1.746   1.744 -0.5817  0.7294 -0.6043
14517TIP3   OH243507   6.892   7.770   0.751  0.0290  0.1303 -0.2071
14517TIP3    H143508   6.860   7.709   0.684  1.2947 -1.8387  0.8812
14517TIP3    H243509   6.816   7.784   0.809 -0.1138 -0.9805 -0.1019
14518TIP3   OH243510   3.419   0.321   4.416 -0.0344  0.3352  0.0648
14518TIP3    H143511   3.342   0.299   4.469 -0.3935  3.1911  0.9028
14518TIP3    H243512   3.489   0.265   4.451 -1.1153 -0.4243  1.0852
14519TIP3   OH243513   3.067   6.177   2.748 -0.1206  0.3917  0.3194
14519TIP3    H143514   3.136   6.130   2.701  0.9924  0.8403  1.4249
14519TIP3    H243515   3.007   6.109   2.778 -0.5836  0.0596 -1.2840
14520TIP3   OH243516   6.060   0.562   4.975  0.0633  0.3669 -0.1004
14520TIP3    H143517   5.996   0.492   4.964 -0.7471  1.0830 -0.0309
14520TIP3    H243518   6.141   0.526   4.940 -0.4870 -0.3880 -0.6285
14521TIP3   OH243519   0.636   7.713   3.890 -0.2053 -0.2573 -0.2090
14521TIP3    H143520   0.685   7.778   3.939  0.9437 -1.2124 -0.0560
14521TIP3    H243521   0.552   7.756   3.872  0.1852  0.9313  0.6322
14522TIP3   OH243522   0.042   7.200   6.217  0.4356  0.6795 -0.0206
14522TIP3    H143523   0.097   7.165   6.287  2.6147  0.0694 -1.9344
14522TIP3    H243524   0.015   7.124   6.166 -0.4810  1.1802 -0.3083
14523TIP3   OH243525   5.390   5.679   6.021  0.2241  0.1784  0.2065
14523TIP3    H143526   5.419   5.590   6.044  2.2320  0.8363  0.4704
14523TIP3    H243527   5.462   5.735   6.049 -0.4534  1.7803 -1.0797
14524TIP3   OH243528   0.951   7.136   0.635  0.3355  0.1556  0.1581
14524TIP3    H143529   0.867   7.183   0.630 -0.3327 -1.1499 -2.5049
14524TIP3    H243530   0.927   7.044   0.633  1.8323 -0.2698  0.6181
14525TIP3   OH243531   1.480   3.819   1.120 -0.0763  0.1497  0.1838
14525TIP3    H143532   1.498   3.788   1.032 -1.1783 -2.5104  0.7835
14525TIP3    H243533   1.386   3.836   1.121  0.3427  2.7554  0.1702
14526TIP3   OH243534   4.501   2.835   2.583  0.3361  0.0085  0.3738
14526TIP3    H143535   4.537   2.810   2.668  2.2382 -1.8315 -0.8903
14526TIP3    H243536   4.461   2.755   2.549  2.4148 -0.2157 -1.7811
14527TIP3   OH243537   0.193   7.050   2.726  0.3921  0.0361  0.1035
14527TIP3    H143538   0.279   7.072   2.690  0.3968 -1.1237 -0.6328
14527TIP3    H243539   0.204   7.054   2.821  0.6227  2.2347  0.0289
14528TIP3   OH243540   5.326   1.718   2.546 -0.0761 -0.5562 -0.3372
14528TIP3    H143541   5.278   1.639   2.571  0.0826 -0.9363 -1.1848
14528TIP3    H243542   5.391   1.729   2.615 -1.3564 -0.0358  0.8328
14529TIP3   OH243543   8.096   1.613   1.320 -0.1599 -0.4663 -0.5351
14529TIP3    H143544   8.002   1.611   1.336  0.0252  0.5780  0.8588
14529TIP3    H243545   8.132   1.668   1.390  1.5469 -1.2132 -0.7584
14530TIP3   OH243546   4.125   7.836   5.878  0.1475 -0.2561 -0.1019
14530TIP3    H143547   4.065   7.830   5.953  0.3632 -0.5377  0.0503
14530TIP3    H243548   4.076   7.799   5.805  1.1611 -3.3209  0.6465
14531TIP3   OH243549   8.002   2.692   6.473 -0.2880  0.3130 -0.2882
14531TIP3    H143550   8.091   2.708   6.506  0.1044  0.2088 -1.2683
14531TIP3    H243551   7.964   2.631   6.536  0.7689 -0.6204 -0.5225
14532TIP3   OH243552   3.825   0.704   6.281  0.1665 -0.1351 -0.5005
14532TIP3    H143553   3.807   0.712   6.375 -0.6017  2.0951 -0.7915
14532TIP3    H243554   3.753   0.650   6.247 -0.2195  0.0506  0.0120
14533TIP3   OH243555   6.718   1.844   0.576 -0.3372 -0.0753  0.7710
14533TIP3    H143556   6.661   1.847   0.654  1.4799 -0.5890  2.1963
14533TIP3    H243557   6.807   1.839   0.612  0.4802 -3.8559 -1.2351
14534TIP3   OH243558   5.109   5.107   0.583 -0.5244 -0.1292 -0.1962
14534TIP3    H143559   5.063   5.155   0.514  1.4251  1.7707 -0.2924
14534TIP3    H243560   5.043   5.090   0.649 -1.5446  1.8282 -0.6438
14535TIP3   OH243561   2.140   2.022   4.520  0.1235  0.3537  0.2045
14535TIP3    H143562   2.046   2.003   4.525  0.0078  0.4230 -1.2780
14535TIP3    H243563   2.179   1.939   4.491  0.2308  0.9082 -1.3110
14536TIP3   OH243564   0.338   1.698   6.545 -0.1816  0.0374 -0.1101
14536TIP3    H143565   0.274   1.628   6.561 -1.1236  0.9666  0.3396
14536TIP3    H243566   0.377   1.676   6.461 -0.6370 -0.8963 -0.0945
14537TIP3   OH243567   2.944   0.721   6.124  0.1443 -0.2900  0.6194
14537TIP3    H143568   2.905   0.738   6.210  0.2099 -0.2754  0.6463
14537TIP3    H243569   2.874   0.739   6.062 -0.1193 -0.9664  0.7074
14538TIP3   OH243570   7.354   6.657   0.727 -0.1839 -0.0587 -0.6585
14538TIP3    H143571   7.339   6.563   0.736 -1.6954  0.3192  1.4858
14538TIP3    H243572   7.298   6.684   0.654  0.8437 -0.9037 -1.7924
14539TIP3   OH243573   3.093   3.358   0.038 -0.4840  0.5971  0.0685
14539TIP3    H143574   3.012   3.342   0.087 -0.1633 -1.8078 -0.0801
14539TIP3    H243575   3.063   3.387  -0.048 -1.2275 -0.3732 -0.0179
14540TIP3   OH243576   7.286   5.880   1.256 -0.0682  0.2007  0.4496
14540TIP3    H143577   7.333   5.962   1.271 -2.3745  1.6605  0.1636
14540TIP3    H243578   7.305   5.858   1.165  0.4854  0.4551  0.4941
14541TIP3   OH243579   5.080   1.215   1.169  0.7894  0.4057  0.0395
14541TIP3    H143580   5.174   1.233   1.158  1.0934  0.1790  1.9747
14541TIP3    H243581   5.074   1.120   1.168  0.7386  0.3902  0.8790
14542TIP3   OH243582   2.180   2.149   2.296  0.0702 -0.3120  0.3558
14542TIP3    H143583   2.218   2.220   2.348 -0.9471  0.2984  0.2782
14542TIP3    H243584   2.255   2.114   2.246  0.6953  0.2983  0.8423
14543TIP3   OH243585   1.237   6.619   1.631  0.2880 -0.6660 -0.1216
14543TIP3    H143586   1.220   6.693   1.573 -2.5584  0.7207  2.1662
14543TIP3    H243587   1.327   6.632   1.661 -0.1643  2.1004  0.3453
14544TIP3   OH243588   3.473   5.224   2.405 -0.3013 -0.0707 -0.3829
14544TIP3    H143589   3.431   5.197   2.486 -2.5690  0.3895 -1.3156
14544TIP3    H243590   3.522   5.147   2.376 -0.7869 -0.7680  0.6005
14545TIP3   OH243591   4.374   2.473   0.961  0.1632  0.2037  0.0843
14545TIP3    H143592   4.409   2.487   0.873 -1.0725  2.0922 -0.1425
14545TIP3    H243593   4.280   2.484   0.952 -0.1441 -1.0699  1.3906
14546TIP3   OH243594   3.247   2.866   1.053  0.3366  0.1538  0.0802
14546TIP3    H143595   3.267   2.862   0.960 -0.5772 -1.0446 -0.0823
14546TIP3    H243596   3.281   2.784   1.089  0.7816  0.6493  0.8418
14547TIP3   OH243597   4.584   0.293   4.905  0.0676  0.3136 -0.0944
14547TIP3    H143598   4.623   0.316   4.820  0.4677 -0.7497 -0.2170
14547TIP3    H243599   4.582   0.375   4.954  0.7137  0.7535 -0.7886
14548TIP3   OH243600   4.022   1.328   1.980  0.0845 -0.5087  0.5157
14548TIP3    H143601   4.070   1.260   1.933 -0.1699  0.3379 -1.0213
14548TIP3    H243602   3.930   1.304   1.972  0.0710 -0.6735  1.1081
14549TIP3   OH243603   7.694   7.672   5.719  0.0819  0.5839  0.2428
14549TIP3    H143604   7.736   7.721   5.648  1.0511 -0.6214 -0.0578
14549TIP3    H243605   7.656   7.595   5.676  0.6734 -0.1568  1.0145
14550TIP3   OH243606   4.365   0.789   5.585 -0.3921  0.1130 -0.5167
14550TIP3    H143607   4.415   0.871   5.579 -0.9144  0.3348 -2.4546
14550TIP3    H243608   4.364   0.755   5.496 -2.7663 -0.4654 -0.3381
14551TIP3   OH243609   0.354   0.095   5.326 -0.2925 -0.1203 -0.1732
14551TIP3    H143610   0.447   0.099   5.301 -0.0173 -0.1243  0.7843
14551TIP3    H243611   0.309   0.064   5.247  0.7171 -1.5578 -0.2427
14552TIP3   OH243612   6.399   7.389   2.410  0.1251 -0.1155  0.7166
14552TIP3    H143613   6.433   7.413   2.324  1.4700 -1.3902  0.8472
14552TIP3    H243614   6.468   7.414   2.471 -1.4819  2.3203  1.6904
14553TIP3   OH243615   3.509   4.973   4.669 -0.5763 -0.4928  0.7522
14553TIP3    H143616   3.581   4.955   4.729  1.2404 -0.9698 -1.4228
14553TIP3    H243617   3.431   4.965   4.723  0.9041 -1.2099  2.9580
14554TIP3   OH243618   2.157   0.631   6.545  0.3073 -0.2144 -0.1963
14554TIP3    H143619   2.153   0.723   6.520 -1.0923 -0.0344  0.6078
14554TIP3    H243620   2.148   0.584   6.462 -3.0004  0.3808 -0.2920
14555TIP3   OH243621   5.534   2.824   3.568  0.2500  0.4430  0.8017
14555TIP3    H143622   5.611   2.816   3.624  2.4205  0.8942 -1.8957
14555TIP3    H243623   5.516   2.735   3.538  0.5948  0.5162  0.3698
14556TIP3   OH243624   2.465   2.486   5.251  0.0524 -0.0391  0.1864
14556TIP3    H143625   2.435   2.438   5.174 -0.1106 -0.8671  0.7572
14556TIP3    H243626   2.419   2.445   5.324 -1.0549  1.7935  0.5786
14557TIP3   OH243627   0.199   1.780   6.240  0.3686 -0.2261  0.4353
14557TIP3    H143628   0.105   1.769   6.231  0.4220 -0.5494  0.2614
14557TIP3    H243629   0.210   1.834   6.319  0.0691 -0.7958  0.8769
14558TIP3   OH243630   1.502   0.964   0.770  0.5973 -0.5410 -0.4553
14558TIP3    H143631   1.592   0.970   0.802  0.9221  0.8189 -1.5321
14558TIP3    H243632   1.502   0.889   0.711  1.5242  0.5145 -1.8675
14559TIP3   OH243633   5.668   3.966   1.626  0.5944  0.3039 -0.6175
14559TIP3    H143634   5.607   3.913   1.679 -1.5176  1.8520 -1.3710
14559TIP3    H243635   5.638   3.954   1.536  2.1566  0.2232 -1.1498
14560TIP3   OH243636   0.311   0.466   1.642  0.4151 -0.4027  0.5639
14560TIP3    H143637   0.364   0.503   1.571  0.5068 -0.2516  0.7106
14560TIP3    H243638   0.325   0.372   1.636  1.6682 -0.2833  1.3643
14561TIP3   OH243639   0.782   7.302   4.710  0.1982 -0.2453  0.2646
14561TIP3    H143640   0.749   7.269   4.794  1.9245 -0.4852  0.8923
14561TIP3    H243641   0.859   7.248   4.691  0.8325  0.9112 -0.6114
14562TIP3   OH243642   5.063   2.096   2.293 -0.6011 -0.3298 -0.2970
14562TIP3    H143643   5.053   2.012   2.249  0.4635  0.2470 -1.7083
14562TIP3    H243644   5.096   2.074   2.380 -0.3581 -1.3656 -0.6390
14563TIP3   OH243645   2.338   0.965   1.254 -0.4949  0.1965 -0.1621
14563TIP3    H143646   2.405   0.960   1.185 -0.2333  0.0715  0.0978
14563TIP3    H243647   2.387   0.951   1.335 -0.9453 -0.7177 -0.0288
14564TIP3   OH243648   7.021   0.954   3.764  0.6989  0.1025  0.7595
14564TIP3    H143649   6.996   0.999   3.845  0.2231  3.7298 -1.1837
14564TIP3    H243650   6.940   0.947   3.714  1.5183  1.2596 -0.8253
14565TIP3   OH243651   4.328   5.072   4.932  0.2550  0.1161 -0.1313
14565TIP3    H143652   4.363   5.000   4.984  0.4926 -1.1121 -1.8917
14565TIP3    H243653   4.403   5.131   4.918  1.0212 -1.1451 -1.6468
14566TIP3   OH243654   2.424   1.092   0.644 -0.3071  0.6869  0.1661
14566TIP3    H143655   2.433   1.110   0.550 -0.3722  1.0821  0.2321
14566TIP3    H243656   2.346   1.037   0.650  0.0002  0.2259 -0.0611
14567TIP3   OH243657   5.646   7.621   5.621 -0.5158 -0.4013  0.2750
14567TIP3    H143658   5.559   7.616   5.660 -1.2988 -0.6168 -1.4078
14567TIP3    H243659   5.646   7.702   5.572 -0.5752 -1.4262 -1.5018
14568TIP3   OH243660   0.864   2.753   5.295  0.2387  0.0831  0.2948
14568TIP3    H143661   0.789   2.715   5.250  1.0033  0.6759 -1.5703
14568TIP3    H243662   0.835   2.840   5.321 -0.3226 -0.3916  1.3418
14569TIP3   OH243663   2.832   7.268   2.110 -0.1981 -0.1716 -0.0292
14569TIP3    H143664   2.844   7.340   2.171  1.1668 -0.4822  0.1018
14569TIP3    H243665   2.776   7.304   2.041  1.0039  1.2523 -0.3164
14570TIP3   OH243666   1.257   6.237   2.955 -0.2694  0.0738 -0.0202
14570TIP3    H143667   1.200   6.236   3.032 -0.9611  2.0339 -0.4728
14570TIP3    H243668   1.327   6.298   2.977 -0.3329  0.4561 -0.8611
14571TIP3   OH243669   8.087   4.110   3.381 -0.3081 -0.5860  0.2001
14571TIP3    H143670   8.080   4.092   3.475 -0.2914 -1.1014  0.1031
14571TIP3    H243671   8.010   4.067   3.343 -1.7188  1.7139  0.2695
14572TIP3   OH243672   2.263   2.061   4.146  0.3646 -0.7696 -0.1958
14572TIP3    H143673   2.216   2.136   4.182  0.4537 -0.6766 -0.2706
14572TIP3    H243674   2.207   1.986   4.165  0.0656 -0.6279 -0.5021
14573TIP3   OH243675   0.422   0.417   0.448 -0.1759 -0.7490  0.4925
14573TIP3    H143676   0.470   0.392   0.369 -1.1763  0.6321 -0.6075
14573TIP3    H243677   0.338   0.372   0.441 -0.8444  0.5211 -0.0225
14574TIP3   OH243678   7.698   3.097   1.935  0.2063  0.1272  0.1769
14574TIP3    H143679   7.651   3.093   2.018  0.4882  0.2970  0.3465
14574TIP3    H243680   7.653   3.034   1.878  0.0728 -0.0576  0.4871
14575TIP3   OH243681   3.957   0.853   4.201  0.1254  0.4277 -0.4843
14575TIP3    H143682   3.875   0.890   4.232 -1.0312 -1.0490 -1.6196
14575TIP3    H243683   4.012   0.928   4.181 -0.2281  1.4512  2.0380
14576TIP3   OH243684   1.579   5.607   2.718 -0.2214  0.3650 -0.0380
14576TIP3    H143685   1.565   5.533   2.659  0.1264 -0.2215  0.5945
14576TIP3    H243686   1.619   5.674   2.663 -1.2380  0.3732 -0.7944
14577TIP3   OH243687   0.534   7.399   3.115  0.9544  0.4161  0.2759
14577TIP3    H143688   0.542   7.313   3.075 -1.2886  0.4376 -0.3370
14577TIP3    H243689   0.593   7.455   3.063  1.2974 -0.4320 -0.2632
14578TIP3   OH243690   0.445   3.816   5.740 -0.4222 -0.0454 -0.3261
14578TIP3    H143691   0.384   3.763   5.791 -1.1169  1.3656  0.3809
14578TIP3    H243692   0.503   3.856   5.806  0.9675 -0.9545 -0.9481
14579TIP3   OH243693   2.220   4.400   6.513 -0.3458 -0.4539 -0.6170
14579TIP3    H143694   2.252   4.443   6.434  1.1219 -0.6511 -0.1664
14579TIP3    H243695   2.167   4.467   6.557  0.7986  0.4731 -0.5983
14580TIP3   OH243696   2.083   0.845   1.229  0.5564  0.1464  0.2373
14580TIP3    H143697   2.160   0.902   1.225  1.0260 -0.4764 -3.6856
14580TIP3    H243698   2.010   0.902   1.205  0.4807 -0.1372 -0.2207
14581TIP3   OH243699   6.932   3.102   6.210 -0.0256  0.2336 -0.0751
14581TIP3    H143700   6.915   3.011   6.184 -0.7815  0.0552  0.9495
14581TIP3    H243701   6.847   3.145   6.202  0.4516  1.0020 -1.0928
14582TIP3   OH243702   0.672   6.234   6.417  0.0664 -0.0497 -0.0800
14582TIP3    H143703   0.756   6.246   6.462 -0.0604 -0.3100  0.2218
14582TIP3    H243704   0.618   6.307   6.447  0.4740  0.6492 -0.9655
14583TIP3   OH243705   7.121   7.248   3.010  0.8735 -0.7372 -0.1964
14583TIP3    H143706   7.121   7.284   2.921 -0.5541  0.4560  0.2398
14583TIP3    H243707   7.179   7.306   3.060 -0.8216  0.5950  0.3298
14584TIP3   OH243708   5.843   2.334   4.702  0.8157 -0.1627 -0.0051
14584TIP3    H143709   5.763   2.353   4.653  0.4831  0.0628  0.6188
14584TIP3    H243710   5.855   2.409   4.760  0.5678 -0.9422  1.0922
14585TIP3   OH243711   0.073   0.213   2.964  0.4565  0.2871  0.8160
14585TIP3    H143712   0.016   0.136   2.975  2.3811 -1.3074  0.2951
14585TIP3    H243713   0.099   0.237   3.053 -0.6016  0.7303  1.0216
14586TIP3   OH243714   6.717   4.113   2.409 -0.9539 -0.4098 -0.3287
14586TIP3    H143715   6.634   4.084   2.373 -0.7618 -0.8586 -0.4251
14586TIP3    H243716   6.693   4.171   2.481 -1.3593 -0.8981 -0.0591
14587TIP3   OH243717   3.438   7.026   3.894  0.1717  0.2204  0.1418
14587TIP3    H143718   3.425   6.942   3.851 -0.2391  0.5518 -0.3930
14587TIP3    H243719   3.350   7.053   3.922  0.1004  1.0924 -0.8758
14588TIP3   OH243720   5.043   6.918   4.456  0.0543  0.0992  0.1476
14588TIP3    H143721   4.996   6.835   4.459 -1.2261  0.7963 -0.0219
14588TIP3    H243722   5.104   6.908   4.383  0.2285 -0.8319  0.3965
14589TIP3   OH243723   5.662   2.736   4.302 -0.1250  0.3847 -0.0244
14589TIP3    H143724   5.658   2.670   4.371 -1.0956 -0.5456 -0.9262
14589TIP3    H243725   5.628   2.691   4.225 -0.0192  1.7059 -0.8620
14590TIP3   OH243726   8.180   1.565   6.496 -0.0924  0.0904  0.6422
14590TIP3    H143727   8.113   1.633   6.497 -0.1157  0.2249 -1.9930
14590TIP3    H243728   8.201   1.554   6.403  1.6663 -1.7962  1.1907
14591TIP3   OH243729   7.986   2.967   0.659  0.1574 -0.2120 -0.1440
14591TIP3    H143730   7.920   3.032   0.636 -0.5568 -0.2580  1.5765
14591TIP3    H243731   7.967   2.893   0.601 -1.4904 -0.3134  0.4675
14592TIP3   OH243732   2.270   3.567   3.418  0.2040  0.1567  0.2640
14592TIP3    H143733   2.230   3.523   3.343 -0.9816  0.4744  0.6952
14592TIP3    H243734   2.228   3.652   3.421  1.8597  1.0310 -0.0348
14593TIP3   OH243735   2.950   3.363   2.167  0.2414  0.6662 -0.2761
14593TIP3    H143736   2.994   3.403   2.242 -0.5354 -0.2955  0.7362
14593TIP3    H243737   2.877   3.314   2.205 -0.0663 -0.0075 -1.6438
14594TIP3   OH243738   5.944   0.357   4.431 -0.1167  0.5438  0.6569
14594TIP3    H143739   5.949   0.366   4.336  0.6668 -0.9455  0.5168
14594TIP3    H243740   6.022   0.401   4.464  0.8498 -0.8939  0.3988
14595TIP3   OH243741   2.592   2.453   2.753  0.1162 -0.3247  0.3463
14595TIP3    H143742   2.515   2.410   2.789  0.3120 -0.1653  0.9675
14595TIP3    H243743   2.664   2.391   2.769  0.0360 -0.7124 -0.7176
14596TIP3   OH243744   3.703   0.247   0.527  0.2698  0.7440 -0.0598
14596TIP3    H143745   3.654   0.166   0.538  2.1538 -0.2407  1.8814
14596TIP3    H243746   3.683   0.298   0.605  1.9944  0.4416  0.6352
14597TIP3   OH243747   3.841   6.514   2.416 -0.3501 -0.3622  0.0273
14597TIP3    H143748   3.855   6.544   2.506 -2.8224  1.2595 -0.0297
14597TIP3    H243749   3.789   6.434   2.426 -0.3822 -0.3373  0.0623
14598TIP3   OH243750   1.051   2.155   4.859 -0.0043 -0.0956  0.0650
14598TIP3    H143751   1.035   2.132   4.950  2.6616 -1.1004  0.3663
14598TIP3    H243752   0.987   2.103   4.810  0.4014 -1.7694  1.2258
14599TIP3   OH243753   3.110  -0.001   0.738  0.3699  0.1577 -0.5350
14599TIP3    H143754   3.034   0.052   0.714  0.3743  0.6210  0.3929
14599TIP3    H243755   3.173   0.013   0.667 -0.0487  0.5368 -0.8348
14600TIP3   OH243756   5.798   5.562   5.191  0.5680  0.5042 -0.1078
14600TIP3    H143757   5.889   5.557   5.164  0.5796  0.9889 -0.1696
14600TIP3    H243758   5.787   5.651   5.224  0.3424  0.1773  0.7434
14601TIP3   OH243759   7.596   2.447   5.275 -0.3767  0.2328  0.1411
14601TIP3    H143760   7.600   2.399   5.192 -0.8567  1.6689 -0.7503
14601TIP3    H243761   7.513   2.419   5.314 -0.5369  0.1483 -0.2530
14602TIP3   OH243762   2.973   7.396   1.412  0.2980 -0.2663  1.1070
14602TIP3    H143763   2.990   7.440   1.495  0.1820 -2.2662  2.2605
14602TIP3    H243764   2.898   7.444   1.375  1.9086  2.2501  0.8392
14603TIP3   OH243765   7.029   0.376   5.097 -0.3338 -0.0877  0.0393
14603TIP3    H143766   7.055   0.378   5.005 -2.6281 -2.4643 -0.8057
14603TIP3    H243767   6.970   0.451   5.107 -3.1795 -1.9055 -1.6454
14604TIP3   OH243768   0.717   0.012   6.015  0.1249  0.0433  0.5433
14604TIP3    H143769   0.788  -0.039   6.054  0.0591 -1.2064 -0.8578
14604TIP3    H243770   0.757   0.096   5.994  1.1955 -0.6138 -0.1412
14605TIP3   OH243771   5.424   6.609   0.731  0.2185 -0.6560 -0.5500
14605TIP3    H143772   5.415   6.537   0.793  0.3566  0.6640  1.0861
14605TIP3    H243773   5.337   6.618   0.692 -0.4553 -0.2644  0.9497
14606TIP3   OH243774   1.823   5.436   2.651 -0.2289 -0.2177  0.4037
14606TIP3    H143775   1.880   5.472   2.583  0.2697 -0.7318  0.5509
14606TIP3    H243776   1.734   5.446   2.615  0.1390 -2.8124 -1.4537
14607TIP3   OH243777   0.170   4.638   2.334 -0.2927 -0.3821 -0.2784
14607TIP3    H143778   0.088   4.687   2.342  1.1532  1.8134  3.0577
14607TIP3    H243779   0.171   4.580   2.410  1.3088 -0.2381 -0.1580
14608TIP3   OH243780   1.707   6.118   6.382 -0.4047 -0.4358  0.0890
14608TIP3    H143781   1.726   6.095   6.291  1.3921 -0.5226  0.4479
14608TIP3    H243782   1.775   6.182   6.405 -1.5684  0.5215  1.0136
14609TIP3   OH243783   4.754   7.516   1.876 -0.1300  0.5114  0.4993
14609TIP3    H143784   4.771   7.528   1.969 -1.0112 -0.6997  0.8328
14609TIP3    H243785   4.817   7.574   1.833  2.1667 -0.8704  1.7706
14610TIP3   OH243786   3.127   7.754   1.909 -0.0297 -0.5218  0.3416
14610TIP3    H143787   3.221   7.743   1.900  0.1537  0.9170  0.2856
14610TIP3    H243788   3.100   7.800   1.830 -0.6240 -0.0724  0.7963
14611TIP3   OH243789   1.067   5.467   4.051 -0.9970  0.1107  0.0353
14611TIP3    H143790   1.083   5.379   4.085 -0.5723  0.7412  1.5645
14611TIP3    H243791   1.150   5.513   4.065 -0.9768  0.5469 -1.4472
14612TIP3   OH243792   7.751   5.823   5.649 -0.5720  0.3389  0.0161
14612TIP3    H143793   7.686   5.765   5.688  0.1260  0.0091  0.7137
14612TIP3    H243794   7.833   5.775   5.656 -0.4406  0.1274 -2.1605
14613TIP3   OH243795   7.141   1.523   3.788  0.3785  0.0093  0.2786
14613TIP3    H143796   7.134   1.550   3.696  2.5158  2.6353  0.7687
14613TIP3    H243797   7.205   1.451   3.787 -0.2372 -0.5550 -0.3237
14614TIP3   OH243798   7.249   6.262   6.107 -0.3137  0.1811  0.4280
14614TIP3    H143799   7.216   6.296   6.191 -0.2196  2.4585 -0.3771
14614TIP3    H243800   7.171   6.226   6.064 -0.7762  0.8106  0.7044
14615TIP3   OH243801   7.625   4.410   6.035  0.2696 -0.0738  0.0977
14615TIP3    H143802   7.613   4.426   6.129  0.1124 -0.1382  0.0880
14615TIP3    H243803   7.551   4.354   6.010  0.8444 -0.8912  0.1532
14616TIP3   OH243804   2.682   7.159   0.271 -0.1967 -0.3233  0.3860
14616TIP3    H143805   2.612   7.143   0.207 -1.3531 -0.2425  1.5746
14616TIP3    H243806   2.730   7.234   0.236 -1.6384  0.5809  0.2610
14617TIP3   OH243807   6.060   3.987   1.393 -0.1026 -0.0553  0.2050
14617TIP3    H143808   6.007   4.026   1.462 -2.2118 -0.2241 -1.2357
14617TIP3    H243809   6.119   4.057   1.365  0.8740 -0.0173  2.1752
14618TIP3   OH243810   7.629   3.917   2.061  0.2212  0.8862 -0.5514
14618TIP3    H143811   7.630   4.011   2.041  1.3771  0.4904 -2.6213
14618TIP3    H243812   7.566   3.880   1.999 -2.1244  0.5050  1.8570
14619TIP3   OH243813   1.231   6.345   0.361 -0.2056  0.0937  0.4025
14619TIP3    H143814   1.323   6.353   0.336 -0.2300 -1.9882 -0.6223
14619TIP3    H243815   1.183   6.376   0.284 -0.2948 -1.5884 -0.2763
14620TIP3   OH243816   1.631   2.924   3.216  0.9373  0.4647  0.2433
14620TIP3    H143817   1.624   2.836   3.179  0.3068  0.8682 -0.6238
14620TIP3    H243818   1.650   2.981   3.141 -1.1501  1.4087  0.3421
14621TIP3   OH243819   5.961   5.153   4.804 -0.1990 -0.0060 -0.1363
14621TIP3    H143820   5.930   5.090   4.869  0.7051  0.2058  0.5204
14621TIP3    H243821   5.920   5.235   4.829 -0.1634 -0.0103 -0.0633
14622TIP3   OH243822   4.366   4.132   4.646  0.1560 -0.0721 -0.3326
14622TIP3    H143823   4.421   4.054   4.655 -0.7191 -0.6881 -0.2375
14622TIP3    H243824   4.283   4.099   4.612  0.4020  1.0733 -2.1795
14623TIP3   OH243825   5.689   1.841   1.628  0.1814  0.1028 -0.4753
14623TIP3    H143826   5.692   1.889   1.545  2.5384 -0.0472 -0.5504
14623TIP3    H243827   5.723   1.903   1.692 -0.8831 -0.0530  0.2748
14624TIP3   OH243828   3.444   6.026   4.107  0.3251 -0.3197  0.4275
14624TIP3    H143829   3.497   6.104   4.092 -0.6431 -0.0252 -2.0828
14624TIP3    H243830   3.365   6.041   4.054 -0.1721 -2.7172  0.3716
14625TIP3   OH243831   1.380   3.759   2.224 -0.4143 -0.2882 -0.4924
14625TIP3    H143832   1.422   3.677   2.198  0.1994 -0.5019  1.0396
14625TIP3    H243833   1.291   3.753   2.192 -1.1346 -2.6831  1.6664
14626TIP3   OH243834   3.233   7.545   5.951 -0.2899  0.1273 -0.2118
14626TIP3    H143835   3.202   7.546   6.042  0.9374 -0.6920  0.2354
14626TIP3    H243836   3.197   7.625   5.913  0.6961  1.4775  1.5245
14627TIP3   OH243837   7.657   2.083   1.269  0.0968  0.0169 -0.9539
14627TIP3    H143838   7.670   2.067   1.362 -0.4439  0.9181 -0.7093
14627TIP3    H243839   7.742   2.113   1.237  0.9445 -2.4515 -1.2757
14628TIP3   OH243840   5.895   7.520   2.321 -0.2081 -0.0297  0.4121
14628TIP3    H143841   5.858   7.444   2.276  0.3087 -1.2031  1.8778
14628TIP3    H243842   5.968   7.548   2.266 -1.6368  0.7203 -1.1863
14629TIP3   OH243843   5.462   4.619   2.959  0.8270  0.1298 -0.6037
14629TIP3    H143844   5.378   4.665   2.960  0.6922  0.1772 -3.7791
14629TIP3    H243845   5.443   4.534   3.000 -0.4769  0.5357 -0.3046
14630TIP3   OH243846   6.893   3.567   5.147  0.5642  0.7880  0.5544
14630TIP3    H143847   6.948   3.509   5.095  0.2191  1.1429 -0.2150
14630TIP3    H243848   6.902   3.653   5.106 -1.2283  0.6927 -0.1475
14631TIP3   OH243849   5.298   4.359   0.424  0.1082  0.4563 -0.0788
14631TIP3    H143850   5.355   4.367   0.347  0.2559 -0.5452 -0.0820
14631TIP3    H243851   5.347   4.302   0.484  0.2182  1.6096  0.9803
14632TIP3   OH243852   3.103   1.654   0.046 -0.0671 -0.3393 -0.3333
14632TIP3    H143853   3.041   1.658   0.119  0.3264  0.9011 -0.0369
14632TIP3    H243854   3.062   1.706  -0.023 -0.5004 -1.6226 -1.0569
14633TIP3   OH243855   4.961   5.867   6.664  0.2133 -0.3244  0.4176
14633TIP3    H143856   5.038   5.826   6.623 -0.5316 -0.4230 -0.9714
14633TIP3    H243857   4.890   5.849   6.602 -0.4675  1.7180  0.5415
14634TIP3   OH243858   3.151   3.749   4.154 -0.7695  0.2627 -0.0567
14634TIP3    H143859   3.065   3.769   4.119 -1.9898 -0.8139  2.1034
14634TIP3    H243860   3.165   3.815   4.222 -0.9635 -0.9458  1.1915
14635TIP3   OH243861   0.918   3.392   4.299 -0.2876 -0.4065 -0.3782
14635TIP3    H143862   0.892   3.325   4.236 -1.1861 -0.6826  0.2524
14635TIP3    H243863   0.844   3.397   4.360  0.1783  0.4806  0.1376
14636TIP3   OH243864   1.934   6.020   3.623 -0.1924 -0.1586  0.1942
14636TIP3    H143865   1.877   5.946   3.604  0.1107 -0.5047  0.6228
14636TIP3    H243866   2.022   5.983   3.628  0.0902  0.3741 -0.4844
14637TIP3   OH243867   4.621   5.606   4.613  0.2153 -0.7179 -0.1845
14637TIP3    H143868   4.575   5.647   4.686  1.0879 -1.4145  0.7894
14637TIP3    H243869   4.593   5.515   4.615  1.3997 -1.0910  0.2557
14638TIP3   OH243870   3.533   2.902   4.333 -0.4555  0.0683  0.1270
14638TIP3    H143871   3.594   2.932   4.266  0.0363 -0.5065  0.3172
14638TIP3    H243872   3.515   2.811   4.311  2.2562 -1.2069  2.5730
14639TIP3   OH243873   5.555   4.599   0.308 -0.6039  0.0368  0.2179
14639TIP3    H143874   5.480   4.657   0.323 -0.7150 -0.3279  1.1643
14639TIP3    H243875   5.523   4.534   0.245 -0.7089  0.5685 -0.2831
14640TIP3   OH243876   3.613   1.224   5.349  0.6103 -0.3993  0.7842
14640TIP3    H143877   3.566   1.299   5.386 -0.0578 -1.1490  1.5083
14640TIP3    H243878   3.574   1.148   5.393  1.2963 -1.1659  0.0895
14641TIP3   OH243879   6.343   5.376   5.791 -0.4326 -0.9162 -0.7827
14641TIP3    H143880   6.267   5.434   5.798  0.1863 -0.0591 -1.1624
14641TIP3    H243881   6.358   5.346   5.880 -0.2673  0.1272 -0.4562
14642TIP3   OH243882   2.171   2.717   2.857  0.2605 -0.1934  0.2320
14642TIP3    H143883   2.108   2.786   2.877 -1.4691 -1.7924  0.6337
14642TIP3    H243884   2.187   2.675   2.941  1.5859 -0.0807  0.0580
14643TIP3   OH243885   4.779   5.000   5.100  0.6736  0.0824  0.9576
14643TIP3    H143886   4.778   5.096   5.105 -0.0315  0.1136  0.4279
14643TIP3    H243887   4.867   4.979   5.072  0.9541  0.5531  1.4588
14644TIP3   OH243888   1.352   1.012   0.004 -0.7741  0.1512  0.0738
14644TIP3    H143889   1.431   1.063   0.019 -0.7751 -0.0534  0.8456
14644TIP3    H243890   1.282   1.064   0.044 -1.1920  0.7641 -1.3771
14645TIP3   OH243891   5.193   5.514   4.338  0.1138  0.0389  0.4964
14645TIP3    H143892   5.282   5.548   4.342  0.6860 -1.4830  1.2224
14645TIP3    H243893   5.170   5.495   4.429  1.3133 -5.0962 -0.0209
14646TIP3   OH243894   7.270   3.712   3.565  0.0382  0.0829 -0.3229
14646TIP3    H143895   7.235   3.685   3.650 -1.3942 -0.3018 -1.0059
14646TIP3    H243896   7.342   3.651   3.548  0.1030 -0.0616  0.4387
14647TIP3   OH243897   5.125   4.232   3.580 -0.3397 -0.2747  0.5492
14647TIP3    H143898   5.099   4.148   3.617 -1.2992 -0.1149  0.2632
14647TIP3    H243899   5.051   4.258   3.525  1.0203 -0.5116 -1.5079
14648TIP3   OH243900   6.594   5.781   5.740  0.3944 -0.3229  0.1786
14648TIP3    H143901   6.548   5.723   5.801 -3.1694  0.4408 -1.4944
14648TIP3    H243902   6.631   5.721   5.675 -0.4198 -0.9132  0.2341
14649TIP3   OH243903   2.099   0.438   1.871 -0.1645 -0.4882 -0.1754
14649TIP3    H143904   2.141   0.362   1.832  0.4095 -1.5731  2.3274
14649TIP3    H243905   2.012   0.408   1.897  0.1709 -0.4367  1.0959
14650TIP3   OH243906   7.127   7.249   4.691 -0.4464 -0.2222  0.1120
14650TIP3    H143907   7.037   7.273   4.713 -0.8674 -2.5436  1.1510
14650TIP3    H243908   7.131   7.154   4.702  2.2454 -0.1509  0.5324
14651TIP3   OH243909   7.568   5.437   4.487 -0.2371 -0.3627 -0.4483
14651TIP3    H143910   7.498   5.377   4.460 -0.8522 -0.5272  1.3697
14651TIP3    H243911   7.593   5.407   4.574 -0.2587  1.7264  0.3463
14652TIP3   OH243912   8.031   1.980   6.088  0.0437 -0.4931  0.7569
14652TIP3    H143913   7.964   1.998   6.154 -0.4057 -0.2880  0.2545
14652TIP3    H243914   8.072   2.065   6.071  0.8029 -0.7067  1.4450
14653TIP3   OH243915   4.077   2.853   0.771  0.0468  0.0556  0.1578
14653TIP3    H143916   3.984   2.875   0.764  0.6764  3.6800  1.1379
14653TIP3    H243917   4.104   2.837   0.680 -1.0899  1.2707 -0.4432
14654TIP3   OH243918   0.905   6.578   0.243 -0.3068 -0.0846  0.1043
14654TIP3    H143919   0.839   6.546   0.304 -1.2033  0.2048 -0.6909
14654TIP3    H243920   0.930   6.502   0.192 -0.6689 -0.0264 -0.1674
14655TIP3   OH243921   7.035   1.218   1.762 -0.0403 -0.1289  0.1058
14655TIP3    H143922   7.057   1.159   1.833 -0.4484 -0.4450 -0.0274
14655TIP3    H243923   7.059   1.305   1.794 -0.9981 -0.1625  0.9604
14656TIP3   OH243924   4.918   4.635   3.867  0.0348 -0.5702  0.2675
14656TIP3    H143925   4.886   4.723   3.883 -0.5601 -0.7523  0.0737
14656TIP3    H243926   4.996   4.628   3.924 -0.2814 -0.1462  0.7660
14657TIP3   OH243927   3.215   5.486   2.441  0.6689 -0.0023  0.3076
14657TIP3    H143928   3.146   5.426   2.412  0.9898 -0.6997  0.9301
14657TIP3    H243929   3.274   5.430   2.492  0.8277  0.8997  1.1431
14658TIP3   OH243930   2.881   5.297   2.047 -0.2501  0.3182  0.0086
14658TIP3    H143931   2.827   5.351   1.989 -1.0943 -0.0396  0.4463
14658TIP3    H243932   2.820   5.235   2.086  0.3994  0.2078  0.8799
14659TIP3   OH243933   5.201   6.444   2.130  0.4891  0.6865  0.1730
14659TIP3    H143934   5.286   6.469   2.093  1.2325  1.0491  2.0188
14659TIP3    H243935   5.168   6.524   2.171  0.6175 -0.1133  1.9315
14660TIP3   OH243936   0.081   1.042   4.398 -0.4413 -0.2595  0.2971
14660TIP3    H143937   0.038   1.117   4.440  1.4750  0.6793  0.7047
14660TIP3    H243938   0.056   1.048   4.306 -0.7428  0.5629  0.4238
14661TIP3   OH243939   8.174   1.312   1.674  0.2551  0.3964  0.7156
14661TIP3    H143940   8.234   1.275   1.610  1.1566  0.9047  1.2479
14661TIP3    H243941   8.090   1.319   1.627  1.0012  1.1980 -0.5745
14662TIP3   OH243942   3.053   5.417   0.894 -0.4410  0.1773 -0.1085
14662TIP3    H143943   3.053   5.512   0.890  0.5568  0.2038  0.1478
14662TIP3    H243944   3.093   5.389   0.811 -1.9842 -0.0780 -0.7975
14663TIP3   OH243945   1.761   6.917   2.884  0.0045 -0.4205  0.0546
14663TIP3    H143946   1.743   7.010   2.871  1.3244 -0.2110 -0.3750
14663TIP3    H243947   1.681   6.873   2.855 -0.5038  0.5510 -0.0744
14664TIP3   OH243948   3.447   4.253   4.893 -0.1920 -0.0434 -0.0167
14664TIP3    H143949   3.454   4.198   4.971 -1.0149  1.0449  0.8505
14664TIP3    H243950   3.446   4.191   4.820  0.1132 -1.1046  0.8512
14665TIP3   OH243951   2.496   7.553   2.668  0.2239  0.6020  0.0550
14665TIP3    H143952   2.402   7.557   2.649  0.1908 -1.8471 -0.6750
14665TIP3    H243953   2.502   7.575   2.761 -0.9407  1.8349 -0.1422
14666TIP3   OH243954   2.038   6.624   6.328  0.3565 -0.2060  0.1119
14666TIP3    H143955   1.985   6.690   6.373  0.9452  0.4200 -0.0871
14666TIP3    H243956   1.974   6.570   6.282 -0.1121  0.6101 -0.2230
14667TIP3   OH243957   4.874   1.152   0.826  0.2858 -0.0990 -0.0059
14667TIP3    H143958   4.943   1.204   0.868 -0.3503  0.1645  0.7309
14667TIP3    H243959   4.911   1.064   0.820 -0.1146 -0.5092  2.4614
14668TIP3   OH243960   3.167   0.162   1.601  0.1395  0.3607  1.1595
14668TIP3    H143961   3.211   0.232   1.649 -0.7249  1.8068 -0.0737
14668TIP3    H243962   3.076   0.167   1.631 -0.0126  0.0516  0.7446
14669TIP3   OH243963   5.831   4.497   3.104 -0.1083 -0.4554 -0.8480
14669TIP3    H143964   5.753   4.490   3.158  0.7042 -0.7539  0.3252
14669TIP3    H243965   5.799   4.529   3.019 -1.2855  0.9831  0.1002
14670TIP3   OH243966   3.405   5.633   5.680 -0.0480  0.1425 -0.3484
14670TIP3    H143967   3.424   5.593   5.765 -0.2091 -1.5331 -1.0804
14670TIP3    H243968   3.459   5.712   5.679 -0.0176  0.1873  1.2939
14671TIP3   OH243969   1.153   4.515   6.691 -0.0736 -0.3650 -0.1189
14671TIP3    H143970   1.076   4.564   6.720 -0.6333 -0.1124 -1.8721
14671TIP3    H243971   1.205   4.502   6.770 -1.1623  0.8220  0.8360
14672TIP3   OH243972   5.310   1.704   5.489  0.0054 -0.3525  0.0546
14672TIP3    H143973   5.231   1.683   5.438  0.2094 -0.8413 -0.0574
14672TIP3    H243974   5.277   1.754   5.564 -0.4121 -0.5286 -0.0083
14673TIP3   OH243975   4.436   4.882   3.267 -0.6825  0.1131  0.4177
14673TIP3    H143976   4.452   4.966   3.223  1.9510 -0.6723 -0.3023
14673TIP3    H243977   4.429   4.904   3.359  0.4372  1.1204  0.2884
14674TIP3   OH243978   4.032   3.850   4.238 -0.0125 -0.3384 -0.2476
14674TIP3    H143979   4.006   3.758   4.239 -0.8627 -0.1109  0.3073
14674TIP3    H243980   4.027   3.875   4.146 -0.2422 -0.7294 -0.3456
14675TIP3   OH243981   6.197   1.360   4.655  0.4549  0.3198 -0.7713
14675TIP3    H143982   6.226   1.342   4.565 -0.6340 -3.6083 -0.5092
14675TIP3    H243983   6.111   1.402   4.644  1.0355  1.3644 -1.5065
14676TIP3   OH243984   3.292   5.530   5.934  0.8748 -0.0008 -0.2870
14676TIP3    H143985   3.282   5.617   5.973  1.7012  0.1074 -0.2895
14676TIP3    H243986   3.238   5.532   5.855 -1.2008 -0.3759  1.0346
14677TIP3   OH243987   0.035   2.672   2.617 -0.0542  0.1131  0.6119
14677TIP3    H143988  -0.001   2.760   2.603 -0.9209  0.1176  2.5137
14677TIP3    H243989   0.122   2.686   2.654 -0.2998  0.1785  1.1665
14678TIP3   OH243990   0.181   2.118   5.761 -0.5728  0.0540  0.3878
14678TIP3    H143991   0.207   2.074   5.680 -0.4999  0.7383  0.0343
14678TIP3    H243992   0.257   2.110   5.819 -0.4098  0.0805  0.1767
14679TIP3   OH243993   0.983   7.432   0.667 -0.3287 -0.1207  0.0640
14679TIP3    H143994   1.052   7.483   0.627 -0.9438  0.0395 -0.8262
14679TIP3    H243995   0.909   7.440   0.607 -1.4580  0.5474  1.4825
14680TIP3   OH243996   1.407   0.785   0.133 -0.0994 -0.0397 -0.5478
14680TIP3    H143997   1.360   0.866   0.115  3.0723  1.8663 -1.0001
14680TIP3    H243998   1.452   0.763   0.052 -0.5605 -2.1113 -0.3207
14681TIP3   OH243999   1.157   0.446   0.948  0.5503  0.2355 -0.1776
14681TIP3    H144000   1.234   0.404   0.910  0.3757  0.3282 -0.6465
14681TIP3    H244001   1.191   0.498   1.020  0.7820 -0.6699  0.3924
14682TIP3   OH244002   7.427   0.554   3.646  0.2990 -0.7826  0.0274
14682TIP3    H144003   7.339   0.573   3.612  0.1706 -1.6574 -0.1459
14682TIP3    H244004   7.486   0.605   3.590  0.0773 -2.0051 -1.3933
14683TIP3   OH244005   3.139   7.083   5.916 -0.2499  0.7949 -0.0742
14683TIP3    H144006   3.180   7.165   5.942 -1.0889  1.8809 -1.9850
14683TIP3    H244007   3.145   7.082   5.821 -1.0705 -0.9446 -0.1473
14684TIP3   OH244008   1.229   2.720   6.062  0.0512  0.1635 -0.3995
14684TIP3    H144009   1.228   2.771   5.981  0.5432 -0.2145 -0.6465
14684TIP3    H244010   1.291   2.649   6.046  0.7955  0.5607  0.6009
14685TIP3   OH244011   2.291   3.818   0.028 -0.4888 -0.2199  0.0754
14685TIP3    H144012   2.367   3.784   0.075 -1.3172 -0.5675  1.2042
14685TIP3    H244013   2.237   3.741   0.010 -1.4855  0.2425  0.9929
14686TIP3   OH244014   3.426   7.359   1.762 -0.3615  0.4127  0.0618
14686TIP3    H144015   3.495   7.309   1.807  0.4753  1.8815  0.4678
14686TIP3    H244016   3.349   7.348   1.817  0.3218  1.1200  1.2024
14687TIP3   OH244017   4.351   4.569   4.449  0.5898  0.7756 -0.0013
14687TIP3    H144018   4.352   4.578   4.545  0.3788 -0.6519  0.1703
14687TIP3    H244019   4.263   4.536   4.430  1.6459 -2.1862 -0.2817
14688TIP3   OH244020   1.933   7.022   6.148 -0.1341 -0.0474  0.0480
14688TIP3    H144021   1.911   6.935   6.117 -2.0327 -0.1154  1.4101
14688TIP3    H244022   1.897   7.081   6.081  0.0966 -0.2706 -0.2757
14689TIP3   OH244023   7.178   7.153   5.910 -0.3503 -0.0539 -0.1811
14689TIP3    H144024   7.165   7.156   5.815 -0.4331  0.7276 -0.1471
14689TIP3    H244025   7.145   7.237   5.942  1.0578  0.3149  0.3645
14690TIP3   OH244026   4.753   0.070   1.522  0.1627  0.7250  0.3274
14690TIP3    H144027   4.672   0.065   1.472  1.5574 -0.6418 -1.9816
14690TIP3    H244028   4.737   0.136   1.589 -3.0809 -0.0579  0.4700
14691TIP3   OH244029   1.292   2.523   6.707  0.0652  0.1487  0.0928
14691TIP3    H144030   1.265   2.486   6.791 -0.0554  1.1244  0.4924
14691TIP3    H244031   1.386   2.505   6.702 -0.1785 -1.1216 -0.1996
14692TIP3   OH244032   7.029   6.649   4.878 -0.4763  0.0398  0.4718
14692TIP3    H144033   6.948   6.621   4.919 -0.8615 -0.5813 -0.6794
14692TIP3    H244034   7.095   6.588   4.911 -1.1178 -1.6358 -1.1944
14693TIP3   OH244035   6.605   3.197   1.370  0.2116  0.1044  0.0049
14693TIP3    H144036   6.638   3.108   1.365  2.0841  0.6698  1.2686
14693TIP3    H244037   6.554   3.200   1.450  0.4133  0.2356  0.1307
14694TIP3   OH244038   0.805   5.084   6.426  0.3911  0.0652  0.6648
14694TIP3    H144039   0.765   5.007   6.464  0.3808  0.6220  1.8133
14694TIP3    H244040   0.877   5.107   6.486  0.8473  0.5282 -0.0373
14695TIP3   OH244041   4.284   2.656   5.649  0.0889  0.3456 -0.0639
14695TIP3    H144042   4.350   2.724   5.648  3.2231 -2.4161 -1.6064
14695TIP3    H244043   4.229   2.674   5.573  1.9319  0.3133 -1.4593
14696TIP3   OH244044   6.103   6.503   1.263 -0.0726  0.7180 -0.0728
14696TIP3    H144045   6.045   6.479   1.190  2.0062 -0.8447 -1.2971
14696TIP3    H244046   6.139   6.588   1.237 -0.3851  0.8177 -0.1896
14697TIP3   OH244047   1.288   4.943   1.257  0.1950 -0.1010 -0.1394
14697TIP3    H144048   1.308   4.882   1.328 -1.9599 -0.4765  0.2344
14697TIP3    H244049   1.328   5.026   1.284 -0.0168 -0.4119  1.2026
14698TIP3   OH244050   3.135   4.882   4.584 -0.5140 -0.2884  0.5495
14698TIP3    H144051   3.194   4.875   4.659 -0.4359  0.1634  0.5292
14698TIP3    H244052   3.099   4.970   4.590 -0.2928 -0.1506 -0.1123
14699TIP3   OH244053   7.072   4.169   6.370 -0.1619 -0.4999 -0.3174
14699TIP3    H144054   6.993   4.207   6.408 -0.9514 -0.8951 -1.5291
14699TIP3    H244055   7.125   4.143   6.446 -0.8841  0.3695  0.5086
14700TIP3   OH244056   4.730   7.693   3.143 -0.2136 -0.4413  0.0241
14700TIP3    H144057   4.785   7.637   3.198  0.8378 -0.3106 -0.8769
14700TIP3    H244058   4.656   7.637   3.119  0.4048 -1.1902 -0.1826
14701TIP3   OH244059   0.339   2.782   0.738  0.0211  0.3396  0.0362
14701TIP3    H144060   0.408   2.739   0.686 -0.6076  0.0743 -0.5926
14701TIP3    H244061   0.263   2.783   0.680 -0.8830 -0.5298  1.1687
14702TIP3   OH244062   7.427   4.392   1.932  0.2928 -0.3850  0.6411
14702TIP3    H144063   7.362   4.459   1.955 -0.1888 -0.5569 -0.1743
14702TIP3    H244064   7.486   4.437   1.872 -0.7503 -0.9885 -0.9174
14703TIP3   OH244065   7.335   1.949   2.297  0.5778 -0.0114  0.2117
14703TIP3    H144066   7.349   1.908   2.211  2.0738  0.0646  0.3928
14703TIP3    H244067   7.325   1.875   2.357 -0.3086 -0.0648  0.0150
14704TIP3   OH244068   7.235   4.898   0.247  0.2886 -0.2525 -0.3588
14704TIP3    H144069   7.164   4.839   0.273  0.4286  0.3383  1.5425
14704TIP3    H244070   7.311   4.866   0.295  0.1861  1.8579  1.3790
14705TIP3   OH244071   7.251   5.386   1.594 -0.0921 -0.3629 -0.2872
14705TIP3    H144072   7.220   5.476   1.602  1.3094  0.1744 -0.6071
14705TIP3    H244073   7.259   5.355   1.684 -1.0550 -0.3489 -0.1905
14706TIP3   OH244074   4.230   0.262   6.136  0.1674  0.6311 -0.5439
14706TIP3    H144075   4.137   0.283   6.132 -0.0309  0.2139  1.1268
14706TIP3    H244076   4.246   0.207   6.060 -0.5411  2.1153 -1.8324
14707TIP3   OH244077   2.673   5.970   3.906  0.0082  0.1268  0.2882
14707TIP3    H144078   2.632   5.933   3.827  1.6297 -1.4819  0.1133
14707TIP3    H244079   2.698   6.058   3.880  0.7300 -0.4507 -1.1433
14708TIP3   OH244080   2.925   1.105   2.487 -0.0095 -0.4481 -0.1619
14708TIP3    H144081   2.950   1.162   2.414 -1.8844  0.0147 -0.5029
14708TIP3    H244082   2.928   1.161   2.564 -1.5274  0.0777 -0.4491
14709TIP3   OH244083   2.844   5.181   0.340 -0.0068  0.3110  0.4024
14709TIP3    H144084   2.850   5.092   0.375  2.6678  1.2653  2.7042
14709TIP3    H244085   2.934   5.207   0.323 -0.5019  3.2848  1.7415
14710TIP3   OH244086   7.727   0.169   2.604 -0.3354 -0.3108  0.0986
14710TIP3    H144087   7.703   0.261   2.619  0.2845  0.0094 -0.7769
14710TIP3    H244088   7.693   0.150   2.516  0.6862 -0.5107 -0.2659
14711TIP3   OH244089   5.078   4.938   0.367 -0.3793 -0.3870 -0.0079
14711TIP3    H144090   5.083   4.909   0.458 -0.0134 -0.3492 -0.0134
14711TIP3    H244091   5.078   5.033   0.372  1.6353 -0.3403 -0.1214
14712TIP3   OH244092   5.283   1.578   3.594 -1.0712  0.1676 -0.0378
14712TIP3    H144093   5.293   1.546   3.505 -2.6326  0.7980 -0.4750
14712TIP3    H244094   5.290   1.500   3.649 -2.3410 -0.5976 -0.9040
14713TIP3   OH244095   0.553   4.083   4.406  0.3815 -0.1077  0.6820
14713TIP3    H144096   0.565   4.019   4.476  0.5647 -0.4290  0.3665
14713TIP3    H244097   0.538   4.166   4.450 -0.9594 -0.5561  1.1281
14714TIP3   OH244098   1.331   3.144   0.050 -0.1599  0.1033 -0.3693
14714TIP3    H144099   1.394   3.122  -0.019  0.8925  1.6691  0.0303
14714TIP3    H244100   1.299   3.060   0.081  2.5026 -0.8403  0.0741
14715TIP3   OH244101   5.276   0.500   4.918  0.0512  0.2467 -0.7494
14715TIP3    H144102   5.240   0.442   4.986  0.2729  0.3007 -0.5860
14715TIP3    H244103   5.201   0.519   4.861  0.3609 -1.7601 -1.9429
14716TIP3   OH244104   6.696   3.766   5.541 -0.3919 -0.4769 -0.0830
14716TIP3    H144105   6.603   3.784   5.528  0.0001  1.3193 -0.7687
14716TIP3    H244106   6.724   3.831   5.605  0.7987  0.4744 -1.4806
14717TIP3   OH244107   8.110   1.368   1.066 -0.3818 -0.1755 -0.5675
14717TIP3    H144108   8.135   1.278   1.089  0.8898  0.7389  2.0681
14717TIP3    H244109   8.189   1.405   1.027 -0.9461 -0.1920 -1.7696
14718TIP3   OH244110   0.481   7.089   0.234 -0.2931 -0.1039 -0.0999
14718TIP3    H144111   0.533   7.009   0.224 -3.2181 -2.1281 -0.1379
14718TIP3    H244112   0.433   7.076   0.316 -0.3161  1.9936  0.2686
14719TIP3   OH244113   8.069   0.612   0.824  0.5006  0.6735  0.1457
14719TIP3    H144114   8.140   0.632   0.763 -0.5595  1.2218 -0.9516
14719TIP3    H244115   8.019   0.694   0.830 -2.0556 -0.6121 -1.8605
14720TIP3   OH244116   0.464   4.996   4.067 -0.1636 -0.2060  0.1998
14720TIP3    H144117   0.553   4.988   4.102  0.8004  0.7094 -1.8965
14720TIP3    H244118   0.407   4.984   4.143  1.7829  0.7633  1.8959
14721TIP3   OH244119   6.454   7.028   0.200 -0.2880 -0.1255  0.3453
14721TIP3    H144120   6.402   7.105   0.178  0.8930  0.3425 -0.9658
14721TIP3    H244121   6.391   6.968   0.241 -1.6672  0.7339 -0.4107
14722TIP3   OH244122   2.470   6.891   4.823 -0.0298 -0.3224 -0.3672
14722TIP3    H144123   2.562   6.868   4.836 -0.0158 -1.2311 -1.9126
14722TIP3    H244124   2.433   6.890   4.911  0.9493 -2.0955  0.0725
14723TIP3   OH244125   0.611   2.972   0.872  0.0035  0.4539  0.6255
14723TIP3    H144126   0.552   3.013   0.935  0.1609 -0.1519  1.1791
14723TIP3    H244127   0.628   3.041   0.807 -2.0809  0.3485 -0.1104
14724TIP3   OH244128   2.421   0.756   0.946 -0.2492 -0.4965 -0.0604
14724TIP3    H144129   2.441   0.780   0.855 -0.5616 -0.5740 -0.1511
14724TIP3    H244130   2.461   0.824   0.999 -1.6552  0.5802 -0.3343
14725TIP3   OH244131   8.227   7.056   3.034 -0.6681  0.0099 -0.9153
14725TIP3    H144132   8.313   7.046   2.992  0.4789  2.4208  0.6463
14725TIP3    H244133   8.173   7.099   2.968  0.3484  1.4529 -0.8536
14726TIP3   OH244134   0.408   7.523   5.515 -0.0035 -0.1253  0.0822
14726TIP3    H144135   0.339   7.581   5.547  0.3173  0.7003 -0.7139
14726TIP3    H244136   0.394   7.441   5.564 -0.0998  0.7820  1.6466
14727TIP3   OH244137   4.114   2.339   5.969 -0.6163  0.5392 -0.1006
14727TIP3    H144138   4.090   2.423   6.008  0.2233  0.2789  1.0044
14727TIP3    H244139   4.188   2.360   5.911  0.6248  0.3406  1.3669
14728TIP3   OH244140   2.204   4.942   4.428  0.0034  0.0741  0.0110
14728TIP3    H144141   2.138   4.887   4.470 -0.1973 -0.7027 -1.2794
14728TIP3    H244142   2.245   4.886   4.363  0.9594  0.9714 -0.1981
14729TIP3   OH244143   5.114   7.768   5.573 -0.1681  0.5999  0.1233
14729TIP3    H144144   5.112   7.813   5.657  1.0917  1.4543 -0.2761
14729TIP3    H244145   5.059   7.822   5.516 -1.5865 -0.3497  0.5395
14730TIP3   OH244146   8.211   5.490   4.454  0.1747  0.4786  0.3581
14730TIP3    H144147   8.186   5.533   4.373  0.1174 -0.3131 -0.0566
14730TIP3    H244148   8.300   5.519   4.471  0.3332  0.3378 -0.2078
14731TIP3   OH244149   0.956   6.107   1.142  0.1089  0.2371  0.0622
14731TIP3    H144150   0.975   6.119   1.235  1.3384  1.0939 -0.2599
14731TIP3    H244151   1.042   6.100   1.101 -0.4181 -0.3023 -0.9938
14732TIP3   OH244152   2.213   6.128   2.395 -0.5697  0.5036 -0.1243
14732TIP3    H144153   2.229   6.141   2.302 -0.0022 -0.2869 -0.1454
14732TIP3    H244154   2.176   6.211   2.425 -0.9712  0.6881 -1.0979
14733TIP3   OH244155   3.863   4.463   1.483  0.0875 -0.3727 -0.1715
14733TIP3    H144156   3.939   4.517   1.462  1.1639 -1.8254 -0.1520
14733TIP3    H244157   3.803   4.477   1.409  0.5263  0.4971 -0.3740
14734TIP3   OH244158   3.224   2.040   4.154  0.1331 -0.2511  0.5523
14734TIP3    H144159   3.162   1.979   4.116 -1.2400  0.9742  0.7285
14734TIP3    H244160   3.306   1.991   4.161 -0.3276 -1.3738 -1.3128
14735TIP3   OH244161   0.613   4.889   6.511  0.5039 -0.2571 -0.6306
14735TIP3    H144162   0.524   4.917   6.533  0.8406  1.5515 -1.3704
14735TIP3    H244163   0.601   4.813   6.454 -0.5712 -0.1660 -0.5457
14736TIP3   OH244164   7.473   3.858   3.297 -0.0299  0.0777 -0.0900
14736TIP3    H144165   7.492   3.906   3.216  1.0595  1.8314  1.1424
14736TIP3    H244166   7.381   3.879   3.316 -0.2042 -0.1124 -0.6901
14737TIP3   OH244167   6.983   3.853   5.025 -0.0517 -0.4544 -0.3571
14737TIP3    H144168   7.015   3.937   4.992  0.3767 -0.2378  0.5739
14737TIP3    H244169   7.008   3.853   5.117 -1.0927 -1.1025 -0.0610
14738TIP3   OH244170   0.437   3.426   0.292 -0.2375 -0.0774 -0.1044
14738TIP3    H144171   0.384   3.359   0.248 -0.4202  0.8020 -1.2468
14738TIP3    H244172   0.506   3.448   0.229 -1.4487  2.3792 -0.6777
14739TIP3   OH244173   5.544   1.163   3.729 -0.1614 -0.4528  0.0352
14739TIP3    H144174   5.605   1.232   3.704 -0.2088 -0.6718 -0.6984
14739TIP3    H244175   5.564   1.145   3.821 -0.0543  0.4354  0.1904
14740TIP3   OH244176   4.717   7.332   4.916  0.2579  0.5699  0.4699
14740TIP3    H144177   4.716   7.428   4.923 -0.0067  0.7347 -1.3811
14740TIP3    H244178   4.627   7.306   4.935 -0.0707  0.8504 -0.6350
14741TIP3   OH244179   1.805   6.847   0.476 -0.1498  0.1561  0.3413
14741TIP3    H144180   1.851   6.869   0.556  0.2830  0.2771  0.0646
14741TIP3    H244181   1.842   6.905   0.410  0.2197 -0.6285 -0.1611
14742TIP3   OH244182   7.529   3.735   2.666 -0.0081  0.3623  0.0909
14742TIP3    H144183   7.501   3.669   2.729  0.6708  0.1473  0.1826
14742TIP3    H244184   7.614   3.703   2.634  0.5235  1.3664  0.4319
14743TIP3   OH244185   5.820   0.967   3.574 -0.1558  0.4717  0.3628
14743TIP3    H144186   5.805   1.028   3.646  0.1372  0.7364  0.2039
14743TIP3    H244187   5.754   0.990   3.508 -2.3717 -1.6475  1.6842
14744TIP3   OH244188   1.601   7.140   4.921 -0.3403 -0.2111  0.4767
14744TIP3    H144189   1.652   7.221   4.914 -0.3655 -0.3016 -1.2669
14744TIP3    H244190   1.645   7.080   4.860 -0.5849 -1.3677  1.4181
14745TIP3   OH244191   7.100   0.991   2.943 -0.3705 -0.1920  0.8787
14745TIP3    H144192   7.090   1.076   2.988 -0.0935 -0.1339  0.8325
14745TIP3    H244193   7.036   0.934   2.986 -0.8180  0.1371  0.6639
14746TIP3   OH244194   2.111   1.835   4.189  0.0550  0.1420  0.0784
14746TIP3    H144195   2.120   1.740   4.187  0.7532  0.1395  1.5226
14746TIP3    H244196   2.034   1.851   4.243  0.0499  0.3955 -0.0011
14747TIP3   OH244197   3.153   1.168   0.530  0.0234 -0.1195 -0.3739
14747TIP3    H144198   3.128   1.080   0.503 -2.3472  0.5474 -0.6408
14747TIP3    H244199   3.185   1.210   0.450  1.4111 -0.7975 -0.1876
14748TIP3   OH244200   3.862   3.115   6.497 -0.1856 -0.4988  0.3440
14748TIP3    H144201   3.817   3.079   6.421 -0.3520  0.4683 -0.0322
14748TIP3    H244202   3.880   3.039   6.553 -1.0952 -1.0688 -0.1172
14749TIP3   OH244203   7.986   0.858   1.784 -0.0790  0.3705 -0.2048
14749TIP3    H144204   7.957   0.945   1.812 -0.4400  0.1663  0.0771
14749TIP3    H244205   7.931   0.797   1.834 -1.1260 -0.0170 -1.7431
14750TIP3   OH244206   6.661   2.708   5.834  0.1280  0.2176  0.0357
14750TIP3    H144207   6.644   2.802   5.832 -1.5750  0.0070  1.9068
14750TIP3    H244208   6.608   2.675   5.906  0.6618 -2.2023 -0.5817
14751TIP3   OH244209   6.321   7.706   1.223 -0.0533  0.2102  0.3186
14751TIP3    H144210   6.326   7.766   1.148 -1.5009 -1.3021 -1.0853
14751TIP3    H244211   6.228   7.685   1.231  0.2151 -0.5175  1.8771
14752TIP3   OH244212   0.569   6.434   5.131  0.2063  0.1812  0.4476
14752TIP3    H144213   0.615   6.516   5.113  0.8012 -0.3797 -0.6973
14752TIP3    H244214   0.484   6.461   5.166  0.7859  1.2629  1.0443
14753TIP3   OH244215   3.130   5.708   3.644  0.2149  0.5265 -0.5624
14753TIP3    H144216   3.189   5.632   3.644  0.1596  0.4483  1.0154
14753TIP3    H244217   3.044   5.671   3.624 -0.2943 -0.3314  2.5769
14754TIP3   OH244218   5.266   6.575   4.412 -0.7448 -0.1094  0.3099
14754TIP3    H144219   5.183   6.558   4.368 -1.1190 -0.9821  1.2948
14754TIP3    H244220   5.242   6.625   4.490 -0.4193 -0.7002  0.8036
14755TIP3   OH244221   3.283   1.209   2.332 -0.2233 -0.2328  0.4767
14755TIP3    H144222   3.257   1.223   2.423 -0.3607  0.6387  0.3114
14755TIP3    H244223   3.378   1.215   2.333 -0.2501  0.1962  0.4961
14756TIP3   OH244224   1.139   0.750   6.535 -0.1503  0.1438 -0.3896
14756TIP3    H144225   1.227   0.730   6.502  0.8987  1.7485  1.1930
14756TIP3    H244226   1.140   0.720   6.626 -0.8104  1.1918 -0.0071
14757TIP3   OH244227   3.989   5.101   3.996 -0.6712 -0.0850  0.4127
14757TIP3    H144228   3.957   5.063   4.078 -1.3987 -0.1790  0.0912
14757TIP3    H244229   4.066   5.048   3.973 -0.1031  0.3104  1.3307
14758TIP3   OH244230   7.808   7.374   4.669 -0.2117 -0.1315  0.2931
14758TIP3    H144231   7.839   7.415   4.588 -0.3395  0.0500  0.3335
14758TIP3    H244232   7.863   7.296   4.680 -0.1847 -0.1481  0.0401
14759TIP3   OH244233   6.117   6.463   2.662 -0.3179 -0.2837  0.6726
14759TIP3    H144234   6.134   6.503   2.747  0.0162  0.8691  0.0711
14759TIP3    H244235   6.201   6.425   2.636 -0.5919 -1.2552  1.1626
14760TIP3   OH244236   4.473   1.518   4.646  0.0987  0.2599  0.2553
14760TIP3    H144237   4.491   1.493   4.737  1.7560 -0.7887 -0.3151
14760TIP3    H244238   4.488   1.613   4.644  1.3764  0.0980  0.8116
14761TIP3   OH244239   3.529   7.673   6.563 -0.5471  0.2002  0.2718
14761TIP3    H144240   3.567   7.587   6.582  0.6238  0.7792  0.6156
14761TIP3    H244241   3.596   7.718   6.512 -1.5398  0.5777 -0.7453
14762TIP3   OH244242   0.234   6.206   6.305  0.1137 -0.0679 -0.4729
14762TIP3    H144243   0.267   6.248   6.226  1.8380  2.1138  1.2463
14762TIP3    H244244   0.142   6.232   6.310  0.5444  1.6281 -0.7074
14763TIP3   OH244245   5.399   3.375   3.175 -0.3350 -0.5246  0.5270
14763TIP3    H144246   5.433   3.359   3.263 -1.2673  0.8639  1.1822
14763TIP3    H244247   5.409   3.470   3.162  0.1403 -0.7570 -1.0194
14764TIP3   OH244248   2.946   4.640   4.275  0.3804  0.1905 -0.1252
14764TIP3    H144249   3.030   4.651   4.318  0.0648  0.0989  0.5360
14764TIP3    H244250   2.881   4.666   4.341 -0.1467 -0.6745 -0.2758
14765TIP3   OH244251   1.688   1.387   5.976  0.2440 -0.1416 -0.2487
14765TIP3    H144252   1.778   1.414   5.992  0.3430 -0.9907  0.7882
14765TIP3    H244253   1.649   1.380   6.064 -0.8271  0.1900 -0.6794
14766TIP3   OH244254   8.179   4.987   6.328  0.3769 -0.9776  0.1989
14766TIP3    H144255   8.097   4.952   6.295 -0.4590 -0.8526  2.0326
14766TIP3    H244256   8.190   4.946   6.413  1.4234  0.1767  0.6503
14767TIP3   OH244257   7.025   1.631   0.049  0.0385 -0.3984 -0.0962
14767TIP3    H144258   7.066   1.646   0.134 -1.2490 -1.6753  0.8060
14767TIP3    H244259   6.952   1.692   0.046 -1.2406 -1.8273  0.7148
14768TIP3   OH244260   3.705   1.555   1.413  0.4097  0.3092  0.3512
14768TIP3    H144261   3.778   1.510   1.455  0.0414 -0.9547 -0.3037
14768TIP3    H244262   3.744   1.631   1.369  1.3874 -0.5522 -0.2962
14769TIP3   OH244263   2.307   6.723   2.753  0.0353 -0.6220 -0.0188
14769TIP3    H144264   2.281   6.740   2.663  0.5538  0.2302 -0.0166
14769TIP3    H244265   2.380   6.661   2.745  0.7752  0.2553 -0.2574
14770TIP3   OH244266   3.415   2.139   3.779 -0.4762 -0.0766  0.3344
14770TIP3    H144267   3.396   2.063   3.833 -2.3902 -0.0083 -0.1657
14770TIP3    H244268   3.499   2.118   3.737  0.3183 -0.7463  2.1417
14771TIP3   OH244269   7.050   3.767   5.531 -0.0580  0.4308 -0.4012
14771TIP3    H144270   7.109   3.721   5.592  1.1997  0.4524 -1.5464
14771TIP3    H244271   6.974   3.710   5.523  0.8907 -0.8392 -0.7712
14772TIP3   OH244272   5.794   3.965   6.048  0.4667 -0.4931 -0.0128
14772TIP3    H144273   5.813   3.890   6.104  1.9660  0.7122  1.1932
14772TIP3    H244274   5.698   3.967   6.043  0.2441 -0.7210  2.5114
14773TIP3   OH244275   4.887   7.149   5.020  0.4196 -0.6831 -0.3850
14773TIP3    H144276   4.821   7.207   4.981  0.6949 -0.1532 -0.0796
14773TIP3    H244277   4.944   7.208   5.068  0.0706 -1.3237  0.8499
14774TIP3   OH244278   7.914   5.644   6.311  0.0672 -0.2905  0.2741
14774TIP3    H144279   7.983   5.663   6.375 -0.8812  0.6344  1.0693
14774TIP3    H244280   7.841   5.613   6.364 -0.3174 -0.7232 -0.5018
14775TIP3   OH244281   7.280   7.620   4.597 -0.0925 -0.4241 -0.1351
14775TIP3    H144282   7.352   7.666   4.555 -0.1560 -1.8022 -1.8554
14775TIP3    H244283   7.204   7.635   4.540 -0.6322 -0.8121  0.4572
14776TIP3   OH244284   0.482   1.925   3.910  1.1570  0.0469  0.6084
14776TIP3    H144285   0.491   1.935   3.815 -0.0245  1.3212  0.5833
14776TIP3    H244286   0.442   1.839   3.922 -0.2075  0.5312 -0.2030
14777TIP3   OH244287   7.641   2.362   6.134 -0.3093  0.4129 -0.1374
14777TIP3    H144288   7.625   2.415   6.056 -1.5140 -1.3407 -1.1651
14777TIP3    H244289   7.575   2.293   6.129  0.2777 -0.3541  1.8945
14778TIP3   OH244290   3.805   6.060   5.138 -0.1119  0.0102 -0.3533
14778TIP3    H144291   3.870   6.008   5.090 -1.2176  0.0180 -1.9586
14778TIP3    H244292   3.722   6.038   5.096 -0.9287  1.2740  0.5291
14779TIP3   OH244293   8.005   4.862   5.420 -0.3199 -0.4429 -0.1969
14779TIP3    H144294   7.938   4.795   5.410 -0.0446 -0.5806 -1.3716
14779TIP3    H244295   7.983   4.907   5.501 -0.8152 -1.6109  0.3394
14780TIP3   OH244296   7.076   0.480   0.423 -0.4877 -0.7244  0.1318
14780TIP3    H144297   7.166   0.498   0.450 -0.7104  1.3055 -0.3042
14780TIP3    H244298   7.083   0.460   0.330 -0.5536  0.4515 -0.1473
14781TIP3   OH244299   2.879   4.020   3.426 -0.1182 -0.4564 -0.1131
14781TIP3    H144300   2.851   3.930   3.442 -0.7627 -0.2125  0.1703
14781TIP3    H244301   2.954   4.033   3.485  0.2482 -0.9353 -0.4674
14782TIP3   OH244302   7.509   5.941   5.808 -0.6068  0.1884 -0.5146
14782TIP3    H144303   7.465   5.856   5.797 -2.7241  0.6978  2.7935
14782TIP3    H244304   7.454   6.003   5.761 -1.5731  0.3056  0.7203
14783TIP3   OH244305   6.114   7.431   3.237 -0.2650 -0.3095 -0.5202
14783TIP3    H144306   6.066   7.456   3.316 -1.2818  0.7649 -1.4567
14783TIP3    H244307   6.119   7.335   3.242 -0.5520 -0.2805  0.6932
14784TIP3   OH244308   0.477   4.323   4.115  0.0795  0.0153 -0.2511
14784TIP3    H144309   0.453   4.230   4.116 -0.8131  0.1640 -2.3853
14784TIP3    H244310   0.403   4.367   4.074 -1.1433  2.2880  3.8074
14785TIP3   OH244311   6.297   0.478   1.439  0.1961 -0.5520 -0.0856
14785TIP3    H144312   6.274   0.478   1.532  0.7397 -0.9341  0.0473
14785TIP3    H244313   6.270   0.392   1.407  0.3412 -0.5544 -0.2019
14786TIP3   OH244314   2.205   6.232   4.508 -0.0836 -0.1692  0.3369
14786TIP3    H144315   2.254   6.150   4.520  1.7017  0.9229  0.8342
14786TIP3    H244316   2.220   6.281   4.588  0.8799  1.6495 -0.9079
14787TIP3   OH244317   6.203   5.050   5.309  0.2647 -1.2069  0.3637
14787TIP3    H144318   6.197   5.021   5.400  0.8261 -3.3840 -0.2279
14787TIP3    H244319   6.297   5.065   5.295  0.1559 -0.6716  0.1874
14788TIP3   OH244320   4.193   0.911   2.144 -0.5255  0.6533  0.0347
14788TIP3    H144321   4.268   0.852   2.151 -0.7371  0.5006  1.3666
14788TIP3    H244322   4.223   0.994   2.181 -1.0215  0.5621  0.6713
14789TIP3   OH244323   0.589   0.956   1.990  0.3223  0.3211  0.2258
14789TIP3    H144324   0.562   0.880   2.041  0.0449 -0.0503 -0.4585
14789TIP3    H244325   0.603   0.922   1.902  0.0560  1.0889 -0.1230
14790TIP3   OH244326   6.279   0.416   6.369  0.3774  0.2599 -0.2706
14790TIP3    H144327   6.225   0.339   6.352  1.1220 -0.3291 -0.0292
14790TIP3    H244328   6.340   0.420   6.296  1.5150 -0.4399  0.6091
14791TIP3   OH244329   5.775   3.478   0.227  0.0742  0.0917  0.0853
14791TIP3    H144330   5.845   3.421   0.257 -0.5910  0.4619  2.5855
14791TIP3    H244331   5.701   3.419   0.212  0.6759 -0.2262 -2.0262
14792TIP3   OH244332   5.567   4.501   4.429 -0.1586  0.3589  0.6494
14792TIP3    H144333   5.511   4.535   4.498 -2.0008 -0.7610 -0.2114
14792TIP3    H244334   5.544   4.554   4.352  0.6325  0.4762  0.4848
14793TIP3   OH244335   5.183   7.002   0.602 -0.3349  0.6525 -0.0869
14793TIP3    H144336   5.164   6.926   0.656 -1.8125  1.4447  0.5643
14793TIP3    H244337   5.133   7.074   0.642 -0.6615  1.4981 -1.8762
14794TIP3   OH244338   1.714   6.292   5.143  0.2439  0.3581 -0.2840
14794TIP3    H144339   1.672   6.207   5.154  0.2329  0.5584  1.5484
14794TIP3    H244340   1.647   6.347   5.102 -0.6014  0.1187  0.7381
14795TIP3   OH244341   6.395   2.077   0.912  0.3733  0.2793  0.1645
14795TIP3    H144342   6.468   2.061   0.852  0.6663 -0.3671  0.6879
14795TIP3    H244343   6.400   2.171   0.931  0.7167  0.3484 -0.2465
14796TIP3   OH244344   2.668   7.191   2.778 -0.0672 -0.1696 -0.6081
14796TIP3    H144345   2.628   7.146   2.703 -0.9731  0.6480 -0.6432
14796TIP3    H244346   2.737   7.245   2.740  0.5920 -1.0091 -0.6399
14797TIP3   OH244347   1.480   0.931   0.392  0.2741  0.7439  0.0199
14797TIP3    H144348   1.487   0.844   0.432 -0.2029 -0.5856 -2.5913
14797TIP3    H244349   1.386   0.949   0.390  0.3783  1.4050  0.6726
14798TIP3   OH244350   4.630   5.263   2.147  0.1214 -0.7081 -0.1412
14798TIP3    H144351   4.705   5.204   2.149  1.4041  0.6726  4.2080
14798TIP3    H244352   4.664   5.343   2.105  1.5744  0.2058  2.4971
14799TIP3   OH244353   5.754   1.491   4.558  0.0546 -0.1985 -0.0636
14799TIP3    H144354   5.746   1.436   4.636  0.1667 -0.8281 -0.4895
14799TIP3    H244355   5.739   1.580   4.591  0.8257 -0.3712  0.7981
14800TIP3   OH244356   7.380   3.680   1.444  0.3687 -0.3268 -0.0104
14800TIP3    H144357   7.402   3.646   1.531 -0.5159 -1.1062 -0.0868
14800TIP3    H244358   7.342   3.766   1.461  0.3437 -0.4097  0.3659
14801TIP3   OH244359   1.330   5.343   6.102  0.0622  0.4357  0.2425
14801TIP3    H144360   1.409   5.363   6.053  0.1209  0.4839  0.3572
14801TIP3    H244361   1.333   5.401   6.178  0.8334 -0.8131  1.2055
14802TIP3   OH244362   3.576   5.427   3.394  0.2546  0.1446  0.1088
14802TIP3    H144363   3.561   5.513   3.353  0.5294  0.4074  0.5521
14802TIP3    H244364   3.591   5.368   3.321 -1.2316  0.2110 -0.2853
14803TIP3   OH244365   4.717   7.233   6.537  0.4061 -0.5754 -0.4745
14803TIP3    H144366   4.748   7.249   6.449  1.3976  2.9851  0.3783
14803TIP3    H244367   4.644   7.293   6.549  0.8601 -0.3214  1.4014
14804TIP3   OH244368   0.871   0.673   2.297  0.3567 -0.0184 -0.3626
14804TIP3    H144369   0.810   0.599   2.291  0.5608 -0.3742  1.3450
14804TIP3    H244370   0.933   0.658   2.226  1.0449 -2.1531  0.5843
14805TIP3   OH244371   7.131   6.690   5.949 -0.6441 -0.3562  0.3909
14805TIP3    H144372   7.188   6.622   5.987 -1.9728 -0.4920  2.3265
14805TIP3    H244373   7.177   6.772   5.965  0.4854 -0.6837 -1.0116
14806TIP3   OH244374   3.856   7.375   3.075 -0.0127 -0.3208 -0.4767
14806TIP3    H144375   3.901   7.303   3.120  0.3328 -0.5800 -1.2286
14806TIP3    H244376   3.763   7.353   3.083  0.0896 -0.8509 -0.6983
14807TIP3   OH244377   3.092   3.971   1.856  0.0948 -0.0380 -0.0391
14807TIP3    H144378   3.153   4.029   1.810 -1.7636  2.2743  0.2068
14807TIP3    H244379   3.014   3.969   1.800 -0.2275 -1.6088  0.4223
14808TIP3   OH244380   0.910   1.018   0.593  0.7104 -0.2932 -0.1885
14808TIP3    H144381   0.950   0.967   0.663  1.0945  0.9880  0.5681
14808TIP3    H244382   0.860   0.955   0.542  1.2681 -1.4253  0.6330
14809TIP3   OH244383   6.249   2.609   3.841 -0.2627  0.1941  0.3024
14809TIP3    H144384   6.299   2.665   3.900  1.9375 -0.4897 -0.8165
14809TIP3    H244385   6.312   2.582   3.775 -2.1152 -0.8427 -1.1215
14810TIP3   OH244386   0.522   4.221   5.391 -0.1524 -0.2359 -0.2432
14810TIP3    H144387   0.446   4.182   5.435  0.2154  0.2522  0.8620
14810TIP3    H244388   0.597   4.169   5.420  0.1413  0.3152  0.0104
14811TIP3   OH244389   1.063   5.196   4.180 -0.4959  0.1778 -0.1929
14811TIP3    H144390   1.066   5.115   4.230  1.5578 -0.2047 -0.8495
14811TIP3    H244391   1.003   5.178   4.107  0.4084 -0.9863 -0.6773
14812TIP3   OH244392   0.374   4.736   3.202  0.7502  0.3774 -0.2875
14812TIP3    H144393   0.425   4.815   3.220 -0.0415  0.7101  0.6228
14812TIP3    H244394   0.433   4.664   3.224  0.2123  0.7561  2.9011
14813TIP3   OH244395   1.893   4.856   1.480 -0.0344  0.3295 -0.0231
14813TIP3    H144396   1.986   4.848   1.501  0.0175 -0.6631 -0.5352
14813TIP3    H244397   1.870   4.770   1.443 -1.5753 -0.0694  1.6961
14814TIP3   OH244398   3.559   0.659   4.795 -0.0039 -0.0759 -0.8620
14814TIP3    H144399   3.480   0.654   4.849  0.0787  1.7921 -0.4870
14814TIP3    H244400   3.552   0.743   4.750  2.1011  0.4782 -0.2800
14815TIP3   OH244401   3.970   6.702   6.628  0.1681  0.4818  0.3150
14815TIP3    H144402   3.975   6.607   6.636 -2.0950  0.1857 -0.8261
14815TIP3    H244403   4.043   6.725   6.570 -0.3778 -0.8578 -0.9882
14816TIP3   OH244404   4.419   7.410   0.588 -0.1583 -0.1361 -0.7212
14816TIP3    H144405   4.328   7.438   0.588 -0.0929  0.1268  0.5678
14816TIP3    H244406   4.415   7.316   0.609 -0.0638  0.2594  1.2409
14817TIP3   OH244407   1.904   4.220   1.869 -0.1292  0.4127  0.0007
14817TIP3    H144408   1.887   4.126   1.881 -0.6001  0.6153  0.9769
14817TIP3    H244409   1.923   4.228   1.775  0.6527 -0.7638  0.0275
14818TIP3   OH244410   3.471   0.261   5.571 -0.2455  0.0427 -0.1305
14818TIP3    H144411   3.400   0.301   5.621 -1.6695 -0.4884 -1.6410
14818TIP3    H244412   3.540   0.246   5.636 -0.4445  2.9466  0.9189
14819TIP3   OH244413   1.235   1.035   2.159 -0.2824  0.2308 -0.0976
14819TIP3    H144414   1.294   1.051   2.232 -0.4260  1.0256 -0.1461
14819TIP3    H244415   1.151   1.013   2.199 -0.0864 -0.3950 -0.0280
14820TIP3   OH244416   0.374   0.476   0.801 -0.1995 -0.0049 -0.8561
14820TIP3    H144417   0.402   0.436   0.883 -0.8464 -1.3891 -1.2824
14820TIP3    H244418   0.354   0.402   0.744 -0.1651  0.9369 -2.1268
14821TIP3   OH244419   1.345   5.515   0.993  0.3120 -0.7007  0.1055
14821TIP3    H144420   1.261   5.493   1.034 -0.2733 -0.2357 -0.7934
14821TIP3    H244421   1.320   5.568   0.917  1.3311 -1.7304 -0.9844
14822TIP3   OH244422   1.739   2.200   3.420 -0.3393 -1.1926  0.0848
14822TIP3    H144423   1.682   2.274   3.439  0.5156 -0.8561  1.4684
14822TIP3    H244424   1.746   2.200   3.324  0.2829  1.0317  0.0677
14823TIP3   OH244425   1.418   2.518   0.054 -0.7412  0.0285 -0.5427
14823TIP3    H144426   1.470   2.439   0.071 -2.8758 -1.5603 -0.9567
14823TIP3    H244427   1.442   2.578   0.125 -0.4670 -1.7425  0.9411
14824TIP3   OH244428   8.001   7.805   4.776  0.0343  1.2875  0.2718
14824TIP3    H144429   8.060   7.880   4.768  1.1692  0.6331  1.8954
14824TIP3    H244430   8.053   7.730   4.747 -0.8132  0.9916 -0.5296
14825TIP3   OH244431   0.740   6.595   5.357  0.2822 -0.0205 -0.2921
14825TIP3    H144432   0.835   6.591   5.372  0.0809 -0.0922  1.0309
14825TIP3    H244433   0.728   6.551   5.273  1.1414 -2.6303  0.8535
14826TIP3   OH244434   0.644   4.418   4.759  0.2455  0.3466  0.0535
14826TIP3    H144435   0.563   4.397   4.806  0.6935 -2.4813 -0.2804
14826TIP3    H244436   0.705   4.444   4.828 -0.6764  1.7619  0.3847
14827TIP3   OH244437   6.442   5.951   5.987 -0.0746 -0.0231  0.4265
14827TIP3    H144438   6.401   5.934   5.902 -0.8387 -1.5742  1.0708
14827TIP3    H244439   6.446   6.047   5.993  0.5633  0.1298 -1.6021
14828TIP3   OH244440   7.864   1.124   1.025 -0.0737 -0.2151 -0.1492
14828TIP3    H144441   7.852   1.055   1.090  1.3793 -0.8704 -0.5240
14828TIP3    H244442   7.926   1.185   1.065 -1.1465  0.7733  0.0737
14829TIP3   OH244443   4.592   3.142   4.496  0.1771 -0.2334  0.0385
14829TIP3    H144444   4.594   3.046   4.494 -2.1797 -0.3444  0.5378
14829TIP3    H244445   4.600   3.168   4.405 -0.9170 -0.9923 -0.2911
14830TIP3   OH244446   0.918   2.953   2.559  0.3780 -0.2145 -0.3366
14830TIP3    H144447   0.987   2.891   2.538  2.1637  0.2803  3.3122
14830TIP3    H244448   0.856   2.903   2.612 -1.0107 -0.0702 -1.7161
14831TIP3   OH244449   5.145   5.860   6.069  1.1037 -0.4710  0.5895
14831TIP3    H144450   5.068   5.861   6.012  0.7831 -0.4672  1.0179
14831TIP3    H244451   5.216   5.833   6.012  1.1933  1.5048 -0.3033
14832TIP3   OH244452   5.999   3.454   2.344 -0.2206 -0.1980 -0.1390
14832TIP3    H144453   5.919   3.429   2.299 -1.0385  1.4306  0.3367
14832TIP3    H244454   5.973   3.525   2.403  1.4744  0.0647  0.3663
14833TIP3   OH244455   4.990   4.896   3.231  0.4071  0.1231  0.0209
14833TIP3    H144456   5.058   4.945   3.185  1.5441 -1.3989 -0.0089
14833TIP3    H244457   5.014   4.903   3.323 -2.2631  3.7766  0.6798
14834TIP3   OH244458   3.452   4.560   0.312 -0.0233  0.0649  0.0765
14834TIP3    H144459   3.443   4.478   0.361  1.3572 -1.2632 -1.7328
14834TIP3    H244460   3.413   4.541   0.227  0.5652  1.1994 -0.4696
14835TIP3   OH244461   3.742   2.993   4.645 -0.6839 -0.5683 -0.2476
14835TIP3    H144462   3.729   2.910   4.691  1.7997 -1.1255 -0.3930
14835TIP3    H244463   3.789   3.048   4.708 -0.2612 -0.1135 -0.9448
14836TIP3   OH244464   1.968   1.250   2.277 -0.1301 -0.0217 -0.2618
14836TIP3    H144465   1.960   1.155   2.278 -1.6575 -0.0179 -2.8114
14836TIP3    H244466   1.890   1.280   2.230  1.2848  2.3518 -1.2662
14837TIP3   OH244467   4.668   6.482   5.950 -0.1650  0.0698  0.0051
14837TIP3    H144468   4.603   6.524   6.007  0.6638  2.3005 -0.5736
14837TIP3    H244469   4.616   6.444   5.879 -1.1383 -2.0575  1.7613
   8.30368   7.82877   6.77992   0.00000   0.00000  -2.76789   0.00000  -2.76789  -3.91440
